<LesHouchesEvents version="3.0">
<header>
<!--
#*********************************************************************
#                                                                    *
#                        MadGraph5_aMC@NLO                           *
#                                                                    *
#                           Going Beyond                             *
#                                                                    *
#                   http://madgraph.hep.uiuc.edu                     *
#                   http://madgraph.phys.ucl.ac.be                   *
#                   http://amcatnlo.cern.ch                          *
#                                                                    *
#                     The MadGraph5_aMC@NLO team                     *
#                                                                    *
#....................................................................*
#                                                                    *
# This file contains all the information necessary to reproduce      *
# the events generated:                                              *
#                                                                    *
# 1. software version                                                *
# 2. proc_card          : code generation info including model       *
# 3. param_card         : model primary parameters in the LH format  *
# 4. run_card           : running parameters (collider and cuts)     *
# 5. pythia_card        : present only if pythia has been run        *
# 6. pgs_card           : present only if pgs has been run           *
# 7. delphes_cards      : present only if delphes has been run       *
#                                                                    *
#                                                                    *
#*********************************************************************
-->
<MGVersion>
#5.2.2.3
</MGVersion>
<MG5ProcCard>
#************************************************************
#*                     MadGraph5_aMC@NLO                    *
#*                                                          *
#*                *                       *                 *
#*                  *        * *        *                   *
#*                    * * * * 5 * * * *                     *
#*                  *        * *        *                   *
#*                *                       *                 *
#*                                                          *
#*                                                          *
#*         VERSION 2.2.3                 2015-02-10         *
#*                                                          *
#*    The MadGraph5_aMC@NLO Development Team - Find us at   *
#*    https://server06.fynu.ucl.ac.be/projects/madgraph     *
#*                                                          *
#************************************************************
#*                                                          *
#*               Command File for MadGraph5_aMC@NLO         *
#*                                                          *
#*     run as ./bin/mg5_aMC  filename                       *
#*                                                          *
#************************************************************
set group_subprocesses Auto
set ignore_six_quark_processes False
set loop_optimized_output True
set gauge unitary
set complex_mass_scheme False
import model sm
define p = g u c d s u~ c~ d~ s~
define j = g u c d s u~ c~ d~ s~
define l+ = e+ mu+
define l- = e- mu-
define vl = ve vm vt
define vl~ = ve~ vm~ vt~
import model Zprime_UFO
generate p p > zph, zph > j j
add process p p > zph, zph > b b~
output Dijet_signal
</MG5ProcCard>
<MGProcCard>
#*********************************************************************
#                        MadGraph/MadEvent                           *
#                   http://madgraph.hep.uiuc.edu                     *
#                                                                    *
#                          proc_card.dat                             *
#*********************************************************************
#                                                                    *
#            This Files is generated by MADGRAPH 5                   *
#                                                                    *
# WARNING: This Files is generated for MADEVENT (compatibility issue)*
#          This files is NOT a valid MG4 proc_card.dat               *
#          Running this in MG4 will NEVER reproduce the result of MG5*
#                                                                    *
#*********************************************************************
#*********************************************************************
# Process(es) requested : mg2 input                                  *
#*********************************************************************
# Begin PROCESS # This is TAG. Do not modify this line
p p > zph , zph > j j           #Process
# Be carefull the coupling are here in MG5 convention
          
end_coup           # End the couplings input

done               # this tells MG there are no more procs
# End PROCESS  # This is TAG. Do not modify this line
#*********************************************************************
# Model information                                                  *
#*********************************************************************
# Begin MODEL  # This is TAG. Do not modify this line
Zprime_UFO
# End   MODEL  # This is TAG. Do not modify this line
#*********************************************************************
# Start multiparticle definitions                                    *
#*********************************************************************
# Begin MULTIPARTICLES # This is TAG. Do not modify this line

# End  MULTIPARTICLES # This is TAG. Do not modify this line
</MGProcCard>
<MGRunCard>
#*********************************************************************
#                       MadGraph5_aMC@NLO                            *
#                                                                    *
#                     run_card.dat MadEvent                          *
#                                                                    *
#  This file is used to set the parameters of the run.               *
#                                                                    *
#  Some notation/conventions:                                        *
#                                                                    *
#   Lines starting with a '# ' are info or comments                  *
#                                                                    *
#   mind the format:   value    = variable     ! comment             *
#*********************************************************************
#
#*******************                                                 
# Running parameters
#*******************                                                 
#                                                                    
#*********************************************************************
# Tag name for the run (one word)                                    *
#*********************************************************************
  tag_1     = run_tag ! name of the run 
#*********************************************************************
# Run to generate the grid pack                                      *
#*********************************************************************
  .false.     = gridpack  !True = setting up the grid pack
#*********************************************************************
# Number of events and rnd seed                                      *
# Warning: Do not generate more than 1M events in a single run       *
# If you want to run Pythia, avoid more than 50k events in a run.    *
#*********************************************************************
  2000 = nevents ! Number of unweighted events requested 
 1245 = iseed   ! rnd seed (0=assigned automatically=default))
#*********************************************************************
# Collider type and energy                                           *
# lpp: 0=No PDF, 1=proton, -1=antiproton, 2=photon from proton,      *
#                                         3=photon from electron     *
#*********************************************************************
        1     = lpp1    ! beam 1 type 
        1     = lpp2    ! beam 2 type
     4000     = ebeam1  ! beam 1 total energy in GeV
     4000     = ebeam2  ! beam 2 total energy in GeV
#*********************************************************************
# Beam polarization from -100 (left-handed) to 100 (right-handed)    *
#*********************************************************************
        0     = polbeam1 ! beam polarization for beam 1
        0     = polbeam2 ! beam polarization for beam 2
#*********************************************************************
# PDF CHOICE: this automatically fixes also alpha_s and its evol.    *
#*********************************************************************
 'nn23lo1'    = pdlabel     ! PDF set                                     
 230000    = lhaid     ! if pdlabel=lhapdf, this is the lhapdf number
#*********************************************************************
# Renormalization and factorization scales                           *
#*********************************************************************
 F        = fixed_ren_scale  ! if .true. use fixed ren scale
 F        = fixed_fac_scale  ! if .true. use fixed fac scale
 91.1880  = scale            ! fixed ren scale
 91.1880  = dsqrt_q2fact1    ! fixed fact scale for pdf1
 91.1880  = dsqrt_q2fact2    ! fixed fact scale for pdf2
 1        = scalefact        ! scale factor for event-by-event scales
#*********************************************************************
# Matching - Warning! ickkw > 1 is still beta
#*********************************************************************
 0        = ickkw            ! 0 no matching, 1 MLM, 2 CKKW matching
 1        = highestmult      ! for ickkw=2, highest mult group
 1        = ktscheme         ! for ickkw=1, 1 Durham kT, 2 Pythia pTE
 1        = alpsfact         ! scale factor for QCD emission vx
 F        = chcluster        ! cluster only according to channel diag
 T        = pdfwgt           ! for ickkw=1, perform pdf reweighting
 5        = asrwgtflavor     ! highest quark flavor for a_s reweight
 T        = clusinfo         ! include clustering tag in output
 3.0      = lhe_version       ! Change the way clustering information pass to shower.        
#*********************************************************************
#**********************************************************
#
#**********************************************************
# Automatic ptj and mjj cuts if xqcut > 0
# (turn off for VBF and single top processes)
#**********************************************************
   T  = auto_ptj_mjj  ! Automatic setting of ptj and mjj
#**********************************************************
#                                                                    
#**********************************
# BW cutoff (M+/-bwcutoff*Gamma)
#**********************************
  15  = bwcutoff      ! (M+/-bwcutoff*Gamma)
#**********************************************************
# Apply pt/E/eta/dr/mij cuts on decay products or not
# (note that etmiss/ptll/ptheavy/ht/sorted cuts always apply)
#**********************************************************
   T  = cut_decays    ! Cut decay products 
#*************************************************************
# Number of helicities to sum per event (0 = all helicities)
# 0 gives more stable result, but longer run time (needed for
# long decay chains e.g.).
# Use >=2 if most helicities contribute, e.g. pure QCD.
#*************************************************************
   0  = nhel          ! Number of helicities used per event
#*******************                                                 
# Standard Cuts
#*******************                                                 
#                                                                    
#*********************************************************************
# Minimum and maximum pt's (for max, -1 means no cut)                *
#*********************************************************************
 20  = ptj       ! minimum pt for the jets 
  0  = ptb       ! minimum pt for the b 
 10  = pta       ! minimum pt for the photons 
 10  = ptl       ! minimum pt for the charged leptons 
  0  = misset    ! minimum missing Et (sum of neutrino's momenta)
  0  = ptheavy   ! minimum pt for one heavy final state
 1.0 = ptonium   ! minimum pt for the quarkonium states
 -1  = ptjmax    ! maximum pt for the jets
 -1  = ptbmax    ! maximum pt for the b
 -1  = ptamax    ! maximum pt for the photons
 -1  = ptlmax    ! maximum pt for the charged leptons
 -1  = missetmax ! maximum missing Et (sum of neutrino's momenta)
#*********************************************************************
# Minimum and maximum E's (in the center of mass frame)              *
#*********************************************************************
  0  = ej     ! minimum E for the jets 
  0  = eb     ! minimum E for the b 
  0  = ea     ! minimum E for the photons 
  0  = el     ! minimum E for the charged leptons 
 -1   = ejmax ! maximum E for the jets
 -1   = ebmax ! maximum E for the b
 -1   = eamax ! maximum E for the photons
 -1   = elmax ! maximum E for the charged leptons
#*********************************************************************
# Maximum and minimum absolute rapidity (for max, -1 means no cut)   *
#*********************************************************************
   5  = etaj    ! max rap for the jets 
  -1  = etab    ! max rap for the b
 2.5  = etaa    ! max rap for the photons 
 2.5  = etal    ! max rap for the charged leptons 
 0.6  = etaonium ! max rap for the quarkonium states
   0  = etajmin ! min rap for the jets
   0  = etabmin ! min rap for the b
   0  = etaamin ! min rap for the photons
   0  = etalmin ! main rap for the charged leptons
#*********************************************************************
# Minimum and maximum DeltaR distance                                *
#*********************************************************************
 0.4 = drjj    ! min distance between jets 
 0   = drbb    ! min distance between b's 
 0.4 = drll    ! min distance between leptons 
 0.4 = draa    ! min distance between gammas 
 0   = drbj    ! min distance between b and jet 
 0.4 = draj    ! min distance between gamma and jet 
 0.4 = drjl    ! min distance between jet and lepton 
 0   = drab    ! min distance between gamma and b 
 0   = drbl    ! min distance between b and lepton 
 0.4 = dral    ! min distance between gamma and lepton 
 -1  = drjjmax ! max distance between jets
 -1  = drbbmax ! max distance between b's
 -1  = drllmax ! max distance between leptons
 -1  = draamax ! max distance between gammas
 -1  = drbjmax ! max distance between b and jet
 -1  = drajmax ! max distance between gamma and jet
 -1  = drjlmax ! max distance between jet and lepton
 -1  = drabmax ! max distance between gamma and b
 -1  = drblmax ! max distance between b and lepton
 -1  = dralmax ! maxdistance between gamma and lepton
#*********************************************************************
# Minimum and maximum invariant mass for pairs                       *
# WARNING: for four lepton final state mmll cut require to have      *
#          different lepton masses for each flavor!                  *           
#*********************************************************************
 0   = mmjj    ! min invariant mass of a jet pair 
 0   = mmbb    ! min invariant mass of a b pair 
 0   = mmaa    ! min invariant mass of gamma gamma pair
 0   = mmll    ! min invariant mass of l+l- (same flavour) lepton pair
 -1  = mmjjmax ! max invariant mass of a jet pair
 -1  = mmbbmax ! max invariant mass of a b pair
 -1  = mmaamax ! max invariant mass of gamma gamma pair
 -1  = mmllmax ! max invariant mass of l+l- (same flavour) lepton pair
#*********************************************************************
# Minimum and maximum invariant mass for all letpons                 *
#*********************************************************************
 0   = mmnl    ! min invariant mass for all letpons (l+- and vl) 
 -1  = mmnlmax ! max invariant mass for all letpons (l+- and vl) 
#*********************************************************************
# Minimum and maximum pt for 4-momenta sum of leptons                *
#*********************************************************************
 0   = ptllmin  ! Minimum pt for 4-momenta sum of leptons(l and vl)
 -1  = ptllmax  ! Maximum pt for 4-momenta sum of leptons(l and vl)
#*********************************************************************
# Inclusive cuts                                                     *
#*********************************************************************
 0  = xptj ! minimum pt for at least one jet  
 0  = xptb ! minimum pt for at least one b 
 0  = xpta ! minimum pt for at least one photon 
 0  = xptl ! minimum pt for at least one charged lepton 
#*********************************************************************
# Control the pt's of the jets sorted by pt                          *
#*********************************************************************
 0   = ptj1min ! minimum pt for the leading jet in pt
 0   = ptj2min ! minimum pt for the second jet in pt
 0   = ptj3min ! minimum pt for the third jet in pt
 0   = ptj4min ! minimum pt for the fourth jet in pt
 -1  = ptj1max ! maximum pt for the leading jet in pt 
 -1  = ptj2max ! maximum pt for the second jet in pt
 -1  = ptj3max ! maximum pt for the third jet in pt
 -1  = ptj4max ! maximum pt for the fourth jet in pt
 0   = cutuse  ! reject event if fails any (0) / all (1) jet pt cuts
#*********************************************************************
# Control the pt's of leptons sorted by pt                           *
#*********************************************************************
 0   = ptl1min ! minimum pt for the leading lepton in pt
 0   = ptl2min ! minimum pt for the second lepton in pt
 0   = ptl3min ! minimum pt for the third lepton in pt
 0   = ptl4min ! minimum pt for the fourth lepton in pt
 -1  = ptl1max ! maximum pt for the leading lepton in pt 
 -1  = ptl2max ! maximum pt for the second lepton in pt
 -1  = ptl3max ! maximum pt for the third lepton in pt
 -1  = ptl4max ! maximum pt for the fourth lepton in pt
#*********************************************************************
# Control the Ht(k)=Sum of k leading jets                            *
#*********************************************************************
 0   = htjmin ! minimum jet HT=Sum(jet pt)
 -1  = htjmax ! maximum jet HT=Sum(jet pt)
 0   = ihtmin  !inclusive Ht for all partons (including b)
 -1  = ihtmax  !inclusive Ht for all partons (including b)
 0   = ht2min ! minimum Ht for the two leading jets
 0   = ht3min ! minimum Ht for the three leading jets
 0   = ht4min ! minimum Ht for the four leading jets
 -1  = ht2max ! maximum Ht for the two leading jets
 -1  = ht3max ! maximum Ht for the three leading jets
 -1  = ht4max ! maximum Ht for the four leading jets
#***********************************************************************
# Photon-isolation cuts, according to hep-ph/9801442                   *
# When ptgmin=0, all the other parameters are ignored                  *
# When ptgmin>0, pta and draj are not going to be used                 *
#***********************************************************************
   0 = ptgmin ! Min photon transverse momentum
 0.4 = R0gamma ! Radius of isolation code
 1.0 = xn ! n parameter of eq.(3.4) in hep-ph/9801442
 1.0 = epsgamma ! epsilon_gamma parameter of eq.(3.4) in hep-ph/9801442
 .true. = isoEM ! isolate photons from EM energy (photons and leptons)
#*********************************************************************
# WBF cuts                                                           *
#*********************************************************************
 0   = xetamin ! minimum rapidity for two jets in the WBF case  
 0   = deltaeta ! minimum rapidity for two jets in the WBF case 
#*********************************************************************
# KT DURHAM CUT                                                      *
#*********************************************************************
 -1    =  ktdurham        
 0.4  =  dparameter 
#*********************************************************************
# maximal pdg code for quark to be considered as a light jet         *
# (otherwise b cuts are applied)                                     *
#*********************************************************************
 4 = maxjetflavor    ! Maximum jet pdg code
#*********************************************************************
# Jet measure cuts                                                   *
#*********************************************************************
 0   = xqcut   ! minimum kt jet measure between partons
#*********************************************************************
#
#*********************************************************************
# Store info for systematics studies                                 *
# WARNING: If use_syst is T, matched Pythia output is                *
#          meaningful ONLY if plotted taking matchscale              *
#          reweighting into account!                                 *
#*********************************************************************
   F  = use_syst      ! Enable systematics studies
#
#**************************************
# Parameter of the systematics study
#  will be used by SysCalc (if installed)
#**************************************                                  
#
0.5 1 2 = sys_scalefact  # factorization/renormalization scale factor
0.5 1 2 = sys_alpsfact  # \alpha_s emission scale factors
30 50 = sys_matchscale # variation of merging scale
# PDF sets and number of members (0 or none for all members).
CT10nlo.LHgrid = sys_pdf # matching scales
# MSTW2008nlo68cl.LHgrid 1  = sys_pdf
</MGRunCard>
<slha>
######################################################################
## PARAM_CARD AUTOMATICALY GENERATED BY MG5 FOLLOWING UFO MODEL   ####
######################################################################
##                                                                  ##
##  Width set on Auto will be computed following the information    ##
##        present in the decay.py files of the model.               ##
##        See  arXiv:1402.1178 for more details.                    ##
##                                                                  ##
######################################################################

###################################
## INFORMATION FOR CKMBLOCK
###################################
Block ckmblock 
    1 2.277360e-01 # cabi 

###################################
## INFORMATION FOR FRBLOCK
###################################
Block frblock 
    1 6.000000e-01 # gz 

###################################
## INFORMATION FOR MASS
###################################
Block mass 
    1 5.040000e-03 # MD 
    2 2.550000e-03 # MU 
    3 1.010000e-01 # MS 
    4 1.270000e+00 # MC 
    5 4.700000e+00 # MB 
    6 1.720000e+02 # MT 
   11 5.110000e-04 # Me 
   13 1.056600e-01 # MM 
   15 1.777000e+00 # MTA 
   23 9.118760e+01 # MZ 
   25 1.200000e+02 # MH 
  10030 1.600000e+03 # MZph 
  10031 3.000000e+02 # MZpl 
## Dependent parameters, given by model restrictions.
## Those values should be edited following the 
## analytical expression. MG5 ignores those values 
## but they are important for interfacing the output of MG5
## to external program such as Pythia.
  12 0.000000 # ve : 0.0 
  14 0.000000 # vm : 0.0 
  16 0.000000 # vt : 0.0 
  21 0.000000 # g : 0.0 
  22 0.000000 # a : 0.0 
  24 79.824360 # w+ : cmath.sqrt(MZ__exp__2/2. + cmath.sqrt(MZ__exp__4/4. - (aEW*cmath.pi*MZ__exp__2)/(Gf*sqrt__2))) 

###################################
## INFORMATION FOR SMINPUTS
###################################
Block sminputs 
    1 1.279000e+02 # aEWM1 
    2 1.166370e-05 # Gf 
    3 1.184000e-01 # aS 

###################################
## INFORMATION FOR YUKAWA
###################################
Block yukawa 
    1 5.040000e-03 # ymdo 
    2 2.550000e-03 # ymup 
    3 1.010000e-01 # yms 
    4 1.270000e+00 # ymc 
    5 4.700000e+00 # ymb 
    6 1.720000e+02 # ymt 
   11 5.110000e-04 # yme 
   13 1.056600e-01 # ymm 
   15 1.777000e+00 # ymtau 

###################################
## INFORMATION FOR DECAY
###################################
DECAY   6 1.508336e+00 # WT 
DECAY  23 2.495200e+00 # WZ 
DECAY  24 2.085000e+00 # WW 
DECAY  25 5.753088e-03 # WH 
## Dependent parameters, given by model restrictions.
## Those values should be edited following the 
## analytical expression. MG5 ignores those values 
## but they are important for interfacing the output of MG5
## to external program such as Pythia.
DECAY  1 0.000000 # d : 0.0 
DECAY  2 0.000000 # u : 0.0 
DECAY  3 0.000000 # s : 0.0 
DECAY  4 0.000000 # c : 0.0 
DECAY  5 0.000000 # b : 0.0 
DECAY  11 0.000000 # e- : 0.0 
DECAY  12 0.000000 # ve : 0.0 
DECAY  13 0.000000 # mu- : 0.0 
DECAY  14 0.000000 # vm : 0.0 
DECAY  15 0.000000 # ta- : 0.0 
DECAY  16 0.000000 # vt : 0.0 
DECAY  21 0.000000 # g : 0.0 
DECAY  22 0.000000 # a : 0.0 
DECAY  10030 0.308725 # zph : (gz__exp__2*MZph*(5 + cmath.sqrt(1 - (4*MT__exp__2)/MZph__exp__2)))/(144.*cmath.pi) 
DECAY  10031 0.132629 # zpl : (5*gz__exp__2*MZpl)/(144.*cmath.pi) 
#===========================================================
# QUANTUM NUMBERS OF NEW STATE(S) (NON SM PDG CODE)
#===========================================================

Block QNUMBERS 10030  # zph 
        1 0  # 3 times electric charge
        2 3  # number of spin states (2S+1)
        3 1  # colour rep (1: singlet, 3: triplet, 8: octet)
        4 0  # Particle/Antiparticle distinction (0=own anti)
Block QNUMBERS 10031  # zpl 
        1 0  # 3 times electric charge
        2 3  # number of spin states (2S+1)
        3 1  # colour rep (1: singlet, 3: triplet, 8: octet)
        4 0  # Particle/Antiparticle distinction (0=own anti)
</slha>
## END BANNER##
<MGGenerationInfo>
#  Number of Events        :         3984
#  Integrated weight (pb)  :  0.54710E-01
#  Max wgt                 :  0.19142E-04
#  Average wgt             :  0.13732E-04
</MGGenerationInfo>
</header>
<init>
     2212     2212  0.40000000000E+04  0.40000000000E+04 0 0  247000  247000 2   1
  0.54733548123E-01  0.11036748362E-03  0.19141700000E-04   0
</init>
<event>
 5   0  0.1774934E-04  0.1593029E+04  0.7818609E-02  0.8824842E-01
       -2   -1    0    0    0  501  0.00000000000E+00  0.00000000000E+00  0.37067502639E+03  0.37067502640E+03  0.25500000920E-02 0. -1.
        2   -1    0    0  501    0  0.00000000000E+00  0.00000000000E+00 -0.17115672014E+04  0.17115672014E+04  0.25500000920E-02 0.  1.
    10030    2    1    2    0    0  0.00000000000E+00  0.00000000000E+00 -0.13408921750E+04  0.20822422278E+04  0.15930288353E+04 0.  0.
        1    1    3    3  502    0 -0.15907498985E+03 -0.63458284955E+03 -0.76565336240E+02  0.65868239393E+03  0.50400001928E-02 0. -1.
       -1    1    3    3    0  502  0.15907498985E+03  0.63458284955E+03 -0.12643268388E+04  0.14235598339E+04  0.50400001928E-02 0.  1.
</event>
<event>
 5   0  0.1774934E-04  0.1599088E+04  0.7818609E-02  0.8821109E-01
       -2   -1    0    0    0  501  0.00000000000E+00  0.00000000000E+00  0.56196675514E+03  0.56196675515E+03  0.25500000920E-02 0.  1.
        2   -1    0    0  501    0  0.00000000000E+00  0.00000000000E+00 -0.11375592002E+04  0.11375592002E+04  0.25500000920E-02 0. -1.
    10030    2    1    2    0    0  0.00000000000E+00  0.00000000000E+00 -0.57559244505E+03  0.16995259553E+04  0.15990878056E+04 0.  0.
        1    1    3    3  502    0  0.77711513228E+03  0.18269741409E+03 -0.24045430254E+03  0.83372929993E+03  0.50400001928E-02 0.  1.
       -1    1    3    3    0  502 -0.77711513228E+03 -0.18269741409E+03 -0.33513814251E+03  0.86579665541E+03  0.50400001928E-02 0. -1.
</event>
<event>
 5   0  0.1914170E-04  0.1595430E+04  0.7818609E-02  0.8823360E-01
        2   -1    0    0  501    0  0.00000000000E+00  0.00000000000E+00  0.73740948194E+03  0.73740948195E+03  0.25500000920E-02 0.  1.
       -2   -1    0    0    0  501  0.00000000000E+00  0.00000000000E+00 -0.86295255848E+03  0.86295255848E+03  0.25500000920E-02 0. -1.
    10030    2    1    2    0    0  0.00000000000E+00  0.00000000000E+00 -0.12554307653E+03  0.16003620404E+04  0.15954302230E+04 0.  0.
        3    1    3    3  502    0 -0.73183916828E+03  0.31717831126E+03 -0.75409672669E+02  0.80117243980E+03  0.10100000352E+00 0.  1.
       -3    1    3    3    0  502  0.73183916828E+03 -0.31717831126E+03 -0.50133403865E+02  0.79918960063E+03  0.10100000352E+00 0. -1.
</event>
<event>
 5   0  0.1774934E-04  0.1601057E+04  0.7818609E-02  0.8819899E-01
        2   -1    0    0  501    0  0.00000000000E+00  0.00000000000E+00  0.14090032854E+04  0.14090032854E+04  0.25500000920E-02 0.  1.
       -2   -1    0    0    0  501  0.00000000000E+00  0.00000000000E+00 -0.45482211014E+03  0.45482211015E+03  0.25500000920E-02 0. -1.
    10030    2    1    2    0    0  0.00000000000E+00  0.00000000000E+00  0.95418117525E+03  0.18638253956E+04  0.16010569602E+04 0.  0.
        1    1    3    3  502    0 -0.14596521550E+03  0.45855935325E+03 -0.26764113762E+03  0.55064898362E+03  0.50400001928E-02 0. -1.
       -1    1    3    3    0  502  0.14596521550E+03 -0.45855935325E+03  0.12218223129E+04  0.13131764119E+04  0.50400001928E-02 0.  1.
</event>
<event>
 5   0  0.1914170E-04  0.1602151E+04  0.7818609E-02  0.8819228E-01
       -2   -1    0    0    0  501  0.00000000000E+00  0.00000000000E+00  0.11067561900E+04  0.11067561900E+04  0.25500000920E-02 0.  1.
        2   -1    0    0  501    0  0.00000000000E+00  0.00000000000E+00 -0.57982249521E+03  0.57982249522E+03  0.25500000920E-02 0. -1.
    10030    2    1    2    0    0  0.00000000000E+00  0.00000000000E+00  0.52693369475E+03  0.16865786852E+04  0.16021512234E+04 0.  0.
        3    1    3    3  502    0  0.41347019997E+03 -0.41264997383E+03 -0.31358409181E+03  0.66300271493E+03  0.10100000352E+00 0. -1.
       -3    1    3    3    0  502 -0.41347019997E+03  0.41264997383E+03  0.84051778656E+03  0.10235759703E+04  0.10100000352E+00 0.  1.
</event>
<event>
 5   0  0.9673017E-05  0.1602223E+04  0.7818609E-02  0.8819183E-01
       -1   -1    0    0    0  501  0.00000000000E+00  0.00000000000E+00  0.90346477580E+03  0.90346477582E+03  0.50400001928E-02 0.  1.
        1   -1    0    0  501    0  0.00000000000E+00  0.00000000000E+00 -0.71035398016E+03  0.71035398017E+03  0.50400001928E-02 0. -1.
    10030    2    1    2    0    0  0.00000000000E+00  0.00000000000E+00  0.19311079565E+03  0.16138187560E+04  0.16022232047E+04 0.  0.
        1    1    3    3  502    0 -0.43916632768E+03  0.19368860297E+03 -0.54948926787E+03  0.72960317558E+03  0.50400001928E-02 0. -1.
       -1    1    3    3    0  502  0.43916632768E+03 -0.19368860297E+03  0.74260006351E+03  0.88421558041E+03  0.50400001928E-02 0.  1.
</event>
<event>
 5   0  0.9939872E-05  0.1596272E+04  0.7818609E-02  0.8822841E-01
       -1   -1    0    0    0  501  0.00000000000E+00  0.00000000000E+00  0.42752072939E+03  0.42752072942E+03  0.50400001928E-02 0.  1.
        1   -1    0    0  501    0  0.00000000000E+00  0.00000000000E+00 -0.14900360124E+04  0.14900360124E+04  0.50400001928E-02 0. -1.
    10030    2    1    2    0    0  0.00000000000E+00  0.00000000000E+00 -0.10625152830E+04  0.19175567418E+04  0.15962722611E+04 0.  0.
        3    1    3    3  502    0  0.78095768596E+02 -0.14339077800E+03  0.40724346777E+03  0.43875632933E+03  0.10100000352E+00 0.  1.
       -3    1    3    3    0  502 -0.78095768596E+02  0.14339077800E+03 -0.14697587508E+04  0.14788004125E+04  0.10100000352E+00 0. -1.
</event>
<event>
 5   0  0.1774934E-04  0.1601254E+04  0.7818609E-02  0.8819778E-01
       -2   -1    0    0    0  501  0.00000000000E+00  0.00000000000E+00  0.61421312319E+03  0.61421312319E+03  0.25500000920E-02 0.  1.
        2   -1    0    0  501    0  0.00000000000E+00  0.00000000000E+00 -0.10436170244E+04  0.10436170244E+04  0.25500000920E-02 0. -1.
    10030    2    1    2    0    0  0.00000000000E+00  0.00000000000E+00 -0.42940390124E+03  0.16578301476E+04  0.16012535989E+04 0.  0.
        1    1    3    3  502    0  0.15656441770E+03 -0.14585495155E+01 -0.10276119846E+04  0.10394714691E+04  0.50400001928E-02 0. -1.
       -1    1    3    3    0  502 -0.15656441770E+03  0.14585495155E+01  0.59820808334E+03  0.61835867849E+03  0.50400001928E-02 0.  1.
</event>
<event>
 5   0  0.9726935E-05  0.1530111E+04  0.7818609E-02  0.8864673E-01
       -1   -1    0    0    0  501  0.00000000000E+00  0.00000000000E+00  0.83498205093E+03  0.83498205095E+03  0.50400001928E-02 0.  1.
        1   -1    0    0  501    0  0.00000000000E+00  0.00000000000E+00 -0.70098470200E+03  0.70098470201E+03  0.50400001928E-02 0. -1.
    10030    2    1    2    0    0  0.00000000000E+00  0.00000000000E+00  0.13399734893E+03  0.15359667530E+04  0.15301106420E+04 0.  0.
        2    1    3    3  502    0  0.12826399385E+03  0.58383855009E+03  0.54630967074E+03  0.80979834591E+03  0.25500000920E-02 0. -1.
       -2    1    3    3    0  502 -0.12826399385E+03 -0.58383855009E+03 -0.41231232180E+03  0.72616840705E+03  0.25500000920E-02 0.  1.
</event>
<event>
 5   0  0.1774934E-04  0.1621242E+04  0.7818609E-02  0.8807603E-01
       -2   -1    0    0    0  501  0.00000000000E+00  0.00000000000E+00  0.52813481519E+03  0.52813481520E+03  0.25500000920E-02 0. -1.
        2   -1    0    0  501    0  0.00000000000E+00  0.00000000000E+00 -0.12442020285E+04  0.12442020285E+04  0.25500000920E-02 0.  1.
    10030    2    1    2    0    0  0.00000000000E+00  0.00000000000E+00 -0.71606721326E+03  0.17723368437E+04  0.16212420034E+04 0.  0.
        1    1    3    3  502    0 -0.68777465196E+03  0.42146293182E+03 -0.27029521182E+03  0.85071997528E+03  0.50400001928E-02 0. -1.
       -1    1    3    3    0  502  0.68777465196E+03 -0.42146293182E+03 -0.44577200144E+03  0.92161686838E+03  0.50400001928E-02 0.  1.
</event>
<event>
 5   0  0.6838750E-05  0.1596688E+04  0.7818609E-02  0.8822585E-01
        4   -1    0    0  501    0  0.00000000000E+00  0.00000000000E+00  0.87604806179E+03  0.87604898234E+03  0.12699999809E+01 0. -1.
       -4   -1    0    0    0  501  0.00000000000E+00  0.00000000000E+00 -0.72753051265E+03  0.72753162113E+03  0.12699999809E+01 0.  1.
    10030    2    1    2    0    0  0.00000000000E+00  0.00000000000E+00  0.14851754914E+03  0.16035806035E+04  0.15966882255E+04 0.  0.
        4    1    3    3  502    0 -0.10897305686E+03 -0.69497008744E+03 -0.30485335566E+03  0.76667837515E+03  0.12699999809E+01 0.  1.
       -4    1    3    3    0  502  0.10897305686E+03  0.69497008744E+03  0.45337090480E+03  0.83690222833E+03  0.12699999809E+01 0. -1.
</event>
<event>
 5   0  0.1835088E-04  0.1588409E+04  0.7818609E-02  0.8827700E-01
        2   -1    0    0  501    0  0.00000000000E+00  0.00000000000E+00  0.21206258322E+04  0.21206258322E+04  0.25500000920E-02 0. -1.
       -2   -1    0    0    0  501  0.00000000000E+00  0.00000000000E+00 -0.29744093924E+03  0.29744093925E+03  0.25500000920E-02 0.  1.
    10030    2    1    2    0    0  0.00000000000E+00  0.00000000000E+00  0.18231848930E+04  0.24180667715E+04  0.15884091908E+04 0.  0.
        5    1    3    3  502    0  0.77327753352E+03 -0.14809969177E+02  0.63689334779E+03  0.10019145200E+04  0.46999998093E+01 0.  1.
       -5    1    3    3    0  502 -0.77327753352E+03  0.14809969177E+02  0.11862915452E+04  0.14161522514E+04  0.46999998093E+01 0. -1.
</event>
<event>
 5   0  0.9616567E-05  0.1599529E+04  0.7818609E-02  0.8820837E-01
        1   -1    0    0  501    0  0.00000000000E+00  0.00000000000E+00  0.10012697293E+04  0.10012697293E+04  0.50400001928E-02 0.  1.
       -1   -1    0    0    0  501  0.00000000000E+00  0.00000000000E+00 -0.63881209979E+03  0.63881209981E+03  0.50400001928E-02 0. -1.
    10030    2    1    2    0    0  0.00000000000E+00  0.00000000000E+00  0.36245762952E+03  0.16400818291E+04  0.15995289535E+04 0.  0.
        5    1    3    3  502    0  0.42169273190E+01  0.32805631721E+03 -0.56662011929E+03  0.65476650748E+03  0.46999998093E+01 0. -1.
       -5    1    3    3    0  502 -0.42169273190E+01 -0.32805631721E+03  0.92907774881E+03  0.98531532165E+03  0.46999998093E+01 0.  1.
</event>
<event>
 5   0  0.6838750E-05  0.1601651E+04  0.7818609E-02  0.8819534E-01
       -3   -1    0    0    0  501  0.00000000000E+00  0.00000000000E+00  0.45847104059E+03  0.45847105172E+03  0.10100000352E+00 0.  1.
        3   -1    0    0  501    0  0.00000000000E+00  0.00000000000E+00 -0.13988274204E+04  0.13988274240E+04  0.10100000352E+00 0. -1.
    10030    2    1    2    0    0  0.00000000000E+00  0.00000000000E+00 -0.94035637981E+03  0.18572984758E+04  0.16016514936E+04 0.  0.
        5    1    3    3  502    0 -0.62187642644E+03  0.30339576063E+03 -0.93766328283E+03  0.11653384913E+04  0.46999998093E+01 0. -1.
       -5    1    3    3    0  502  0.62187642644E+03 -0.30339576063E+03 -0.26930969785E+01  0.69195998447E+03  0.46999998093E+01 0.  1.
</event>
<event>
 5   0  0.9673017E-05  0.1612489E+04  0.7818609E-02  0.8812912E-01
        1   -1    0    0  501    0  0.00000000000E+00  0.00000000000E+00  0.84024010693E+03  0.84024010694E+03  0.50400001928E-02 0.  1.
       -1   -1    0    0    0  501  0.00000000000E+00  0.00000000000E+00 -0.77362426873E+03  0.77362426874E+03  0.50400001928E-02 0. -1.
    10030    2    1    2    0    0  0.00000000000E+00  0.00000000000E+00  0.66615838200E+02  0.16138643757E+04  0.16124889312E+04 0.  0.
        1    1    3    3  502    0 -0.61285013482E+03  0.30685507895E+03 -0.39165385117E+03  0.78939094649E+03  0.50400001928E-02 0. -1.
       -1    1    3    3    0  502  0.61285013482E+03 -0.30685507895E+03  0.45826968937E+03  0.82447342920E+03  0.50400001928E-02 0.  1.
</event>
<event>
 5   0  0.9939872E-05  0.1617414E+04  0.7818609E-02  0.8809921E-01
       -1   -1    0    0    0  501  0.00000000000E+00  0.00000000000E+00  0.51143591205E+03  0.51143591208E+03  0.50400001928E-02 0.  1.
        1   -1    0    0  501    0  0.00000000000E+00  0.00000000000E+00 -0.12787656967E+04  0.12787656967E+04  0.50400001928E-02 0. -1.
    10030    2    1    2    0    0  0.00000000000E+00  0.00000000000E+00 -0.76732978461E+03  0.17902016087E+04  0.16174136149E+04 0.  0.
        3    1    3    3  502    0  0.79974926466E+03  0.58019760425E+02 -0.26736076984E+03  0.84524964973E+03  0.10100000352E+00 0.  1.
       -3    1    3    3    0  502 -0.79974926466E+03 -0.58019760425E+02 -0.49996901477E+03  0.94495195902E+03  0.10100000352E+00 0. -1.
</event>
<event>
 5   0  0.9939872E-05  0.1536145E+04  0.7818609E-02  0.8860767E-01
       -1   -1    0    0    0  501  0.00000000000E+00  0.00000000000E+00  0.31394516877E+03  0.31394516881E+03  0.50400001928E-02 0.  1.
        1   -1    0    0  501    0  0.00000000000E+00  0.00000000000E+00 -0.18791027721E+04  0.18791027721E+04  0.50400001928E-02 0. -1.
    10030    2    1    2    0    0  0.00000000000E+00  0.00000000000E+00 -0.15651576033E+04  0.21930479409E+04  0.15361448330E+04 0.  0.
        3    1    3    3  502    0  0.57285226349E+03  0.48868435437E+03 -0.56624153387E+03  0.94212610562E+03  0.10100000352E+00 0. -1.
       -3    1    3    3    0  502 -0.57285226349E+03 -0.48868435437E+03 -0.99891606944E+03  0.12509218353E+04  0.10100000352E+00 0.  1.
</event>
<event>
 5   0  0.1774934E-04  0.1574192E+04  0.7818609E-02  0.8836561E-01
       -2   -1    0    0    0  501  0.00000000000E+00  0.00000000000E+00  0.32410043016E+03  0.32410043017E+03  0.25500000920E-02 0. -1.
        2   -1    0    0  501    0  0.00000000000E+00  0.00000000000E+00 -0.19115077981E+04  0.19115077981E+04  0.25500000920E-02 0.  1.
    10030    2    1    2    0    0  0.00000000000E+00  0.00000000000E+00 -0.15874073680E+04  0.22356082283E+04  0.15741924909E+04 0.  0.
        1    1    3    3  502    0 -0.25112682334E+03 -0.67312545901E+03 -0.12502762096E+04  0.14419962432E+04  0.50400001928E-02 0. -1.
       -1    1    3    3    0  502  0.25112682334E+03  0.67312545901E+03 -0.33713115835E+03  0.79361198512E+03  0.50400001928E-02 0.  1.
</event>
<event>
 5   0  0.9432152E-05  0.1592997E+04  0.7818609E-02  0.8824862E-01
       -1   -1    0    0    0  501  0.00000000000E+00  0.00000000000E+00  0.10619556919E+04  0.10619556919E+04  0.50400001928E-02 0.  1.
        1   -1    0    0  501    0  0.00000000000E+00  0.00000000000E+00 -0.59739802902E+03  0.59739802904E+03  0.50400001928E-02 0. -1.
    10030    2    1    2    0    0  0.00000000000E+00  0.00000000000E+00  0.46455766291E+03  0.16593537210E+04  0.15929974731E+04 0.  0.
        4    1    3    3  502    0 -0.56830657941E+03 -0.20803139953E+01 -0.34902803670E+03  0.66693243976E+03  0.12699999809E+01 0. -1.
       -4    1    3    3    0  502  0.56830657941E+03  0.20803139953E+01  0.81358569961E+03  0.99242128122E+03  0.12699999809E+01 0.  1.
</event>
<event>
 5   0  0.9673017E-05  0.1595238E+04  0.7818609E-02  0.8823479E-01
        1   -1    0    0  501    0  0.00000000000E+00  0.00000000000E+00  0.15077016943E+04  0.15077016943E+04  0.50400001928E-02 0. -1.
       -1   -1    0    0    0  501  0.00000000000E+00  0.00000000000E+00 -0.42196407139E+03  0.42196407142E+03  0.50400001928E-02 0.  1.
    10030    2    1    2    0    0  0.00000000000E+00  0.00000000000E+00  0.10857376229E+04  0.19296657657E+04  0.15952378448E+04 0.  0.
        1    1    3    3  502    0  0.29975644001E+03 -0.65375426926E+03  0.12567862541E+03  0.73009840763E+03  0.50400001928E-02 0.  1.
       -1    1    3    3    0  502 -0.29975644001E+03  0.65375426926E+03  0.96005899746E+03  0.11995673581E+04  0.50400001928E-02 0. -1.
</event>
<event>
 5   0  0.1832646E-04  0.1603275E+04  0.7818609E-02  0.8818538E-01
        2   -1    0    0  501    0  0.00000000000E+00  0.00000000000E+00  0.93905887613E+03  0.93905887613E+03  0.25500000920E-02 0. -1.
       -2   -1    0    0    0  501  0.00000000000E+00  0.00000000000E+00 -0.68432662477E+03  0.68432662478E+03  0.25500000920E-02 0.  1.
    10030    2    1    2    0    0  0.00000000000E+00  0.00000000000E+00  0.25473225136E+03  0.16233855009E+04  0.16032753864E+04 0.  0.
        2    1    3    3  502    0 -0.43768401562E+03  0.36135972351E+03 -0.44583958672E+03  0.72174862965E+03  0.25500000920E-02 0.  1.
       -2    1    3    3    0  502  0.43768401562E+03 -0.36135972351E+03  0.70057183807E+03  0.90163687126E+03  0.25500000920E-02 0. -1.
</event>
<event>
 5   0  0.9939872E-05  0.1575995E+04  0.7818609E-02  0.8835433E-01
        1   -1    0    0  501    0  0.00000000000E+00  0.00000000000E+00  0.62131537954E+03  0.62131537956E+03  0.50400001928E-02 0. -1.
       -1   -1    0    0    0  501  0.00000000000E+00  0.00000000000E+00 -0.99939552442E+03  0.99939552443E+03  0.50400001928E-02 0.  1.
    10030    2    1    2    0    0  0.00000000000E+00  0.00000000000E+00 -0.37808014489E+03  0.16207109040E+04  0.15759946822E+04 0.  0.
        3    1    3    3  502    0  0.66772161451E+03 -0.27115416402E+02 -0.61844277170E+03  0.91052670052E+03  0.10100000352E+00 0.  1.
       -3    1    3    3    0  502 -0.66772161451E+03  0.27115416402E+02  0.24036262681E+03  0.71018420347E+03  0.10100000352E+00 0. -1.
</event>
<event>
 5   0  0.1914170E-04  0.1607383E+04  0.7818609E-02  0.8816025E-01
       -2   -1    0    0    0  501  0.00000000000E+00  0.00000000000E+00  0.38192319123E+03  0.38192319124E+03  0.25500000920E-02 0. -1.
        2   -1    0    0  501    0  0.00000000000E+00  0.00000000000E+00 -0.16912301666E+04  0.16912301666E+04  0.25500000920E-02 0.  1.
    10030    2    1    2    0    0  0.00000000000E+00  0.00000000000E+00 -0.13093069754E+04  0.20731533579E+04  0.16073829940E+04 0.  0.
        3    1    3    3  502    0  0.58588356679E+03  0.50926217548E+03 -0.92307582949E+03  0.12060997116E+04  0.10100000352E+00 0.  1.
       -3    1    3    3    0  502 -0.58588356679E+03 -0.50926217548E+03 -0.38623114593E+03  0.86705364626E+03  0.10100000352E+00 0. -1.
</event>
<event>
 5   0  0.9673017E-05  0.1579184E+04  0.7818609E-02  0.8833439E-01
       -1   -1    0    0    0  501  0.00000000000E+00  0.00000000000E+00  0.11199015436E+04  0.11199015437E+04  0.50400001928E-02 0. -1.
        1   -1    0    0  501    0  0.00000000000E+00  0.00000000000E+00 -0.55670583914E+03  0.55670583916E+03  0.50400001928E-02 0.  1.
    10030    2    1    2    0    0  0.00000000000E+00  0.00000000000E+00  0.56319570450E+03  0.16766073828E+04  0.15791842560E+04 0.  0.
        1    1    3    3  502    0 -0.39323943942E+03 -0.67605033667E+03  0.16639367593E+03  0.79960500864E+03  0.50400001928E-02 0.  1.
       -1    1    3    3    0  502  0.39323943942E+03  0.67605033667E+03  0.39680202857E+03  0.87700237418E+03  0.50400001928E-02 0. -1.
</event>
<event>
 5   0  0.1832646E-04  0.1560629E+04  0.7818609E-02  0.8845107E-01
        2   -1    0    0  501    0  0.00000000000E+00  0.00000000000E+00  0.15665618722E+04  0.15665618722E+04  0.25500000920E-02 0. -1.
       -2   -1    0    0    0  501  0.00000000000E+00  0.00000000000E+00 -0.38867970068E+03  0.38867970069E+03  0.25500000920E-02 0.  1.
    10030    2    1    2    0    0  0.00000000000E+00  0.00000000000E+00  0.11778821715E+04  0.19552415729E+04  0.15606291034E+04 0.  0.
        2    1    3    3  502    0  0.89971637251E+02  0.76068056383E+03  0.40243404123E+03  0.86526468392E+03  0.25500000920E-02 0. -1.
       -2    1    3    3    0  502 -0.89971637251E+02 -0.76068056383E+03  0.77544813025E+03  0.10899768889E+04  0.25500000920E-02 0.  1.
</event>
<event>
 5   0  0.9726935E-05  0.1608639E+04  0.7818609E-02  0.8815258E-01
        1   -1    0    0  501    0  0.00000000000E+00  0.00000000000E+00  0.31402051852E+04  0.31402051852E+04  0.50400001928E-02 0. -1.
       -1   -1    0    0    0  501  0.00000000000E+00  0.00000000000E+00 -0.20601510689E+03  0.20601510695E+03  0.50400001928E-02 0.  1.
    10030    2    1    2    0    0  0.00000000000E+00  0.00000000000E+00  0.29341900783E+04  0.33462202922E+04  0.16086388122E+04 0.  0.
        2    1    3    3  502    0  0.31467190148E+03 -0.64215800386E+03  0.22329327973E+04  0.23446479874E+04  0.25500000920E-02 0.  1.
       -2    1    3    3    0  502 -0.31467190148E+03  0.64215800386E+03  0.70125728101E+03  0.10015723048E+04  0.25500000920E-02 0. -1.
</event>
<event>
 5   0  0.1914170E-04  0.1599457E+04  0.7818609E-02  0.8820882E-01
       -2   -1    0    0    0  501  0.00000000000E+00  0.00000000000E+00  0.81761238125E+03  0.81761238125E+03  0.25500000920E-02 0. -1.
        2   -1    0    0  501    0  0.00000000000E+00  0.00000000000E+00 -0.78223534671E+03  0.78223534671E+03  0.25500000920E-02 0.  1.
    10030    2    1    2    0    0  0.00000000000E+00  0.00000000000E+00  0.35377034539E+02  0.15998477280E+04  0.15994565384E+04 0.  0.
        3    1    3    3  502    0  0.64503698238E+03 -0.34818401813E+03 -0.30217161209E+03  0.79285087657E+03  0.10100000352E+00 0.  1.
       -3    1    3    3    0  502 -0.64503698238E+03  0.34818401813E+03  0.33754864663E+03  0.80699685140E+03  0.10100000352E+00 0. -1.
</event>
<event>
 5   0  0.1835088E-04  0.1587760E+04  0.7818609E-02  0.8828103E-01
       -2   -1    0    0    0  501  0.00000000000E+00  0.00000000000E+00  0.25935814550E+03  0.25935814552E+03  0.25500000920E-02 0. -1.
        2   -1    0    0  501    0  0.00000000000E+00  0.00000000000E+00 -0.24300188678E+04  0.24300188678E+04  0.25500000920E-02 0.  1.
    10030    2    1    2    0    0  0.00000000000E+00  0.00000000000E+00 -0.21706607223E+04  0.26893770133E+04  0.15877596633E+04 0.  0.
        5    1    3    3  502    0 -0.25430341089E+03  0.26970981894E+03 -0.22743977088E+04  0.23044132961E+04  0.46999998093E+01 0.  1.
       -5    1    3    3    0  502  0.25430341089E+03 -0.26970981894E+03  0.10373698653E+03  0.38496371724E+03  0.46999998093E+01 0. -1.
</event>
<event>
 5   0  0.9726935E-05  0.1601918E+04  0.7818609E-02  0.8819370E-01
       -1   -1    0    0    0  501  0.00000000000E+00  0.00000000000E+00  0.61292867207E+03  0.61292867209E+03  0.50400001928E-02 0.  1.
        1   -1    0    0  501    0  0.00000000000E+00  0.00000000000E+00 -0.10466726282E+04  0.10466726282E+04  0.50400001928E-02 0. -1.
    10030    2    1    2    0    0  0.00000000000E+00  0.00000000000E+00 -0.43374395615E+03  0.16596013003E+04  0.16019184301E+04 0.  0.
        2    1    3    3  502    0 -0.62332539684E+03  0.36966022274E+03  0.13651545712E+03  0.73744132015E+03  0.25500000920E-02 0.  1.
       -2    1    3    3    0  502  0.62332539684E+03 -0.36966022274E+03 -0.57025941327E+03  0.92215998018E+03  0.25500000920E-02 0. -1.
</event>
<event>
 5   0  0.1914170E-04  0.1590254E+04  0.7818609E-02  0.8826558E-01
        2   -1    0    0  501    0  0.00000000000E+00  0.00000000000E+00  0.90360117139E+03  0.90360117139E+03  0.25500000920E-02 0.  1.
       -2   -1    0    0    0  501  0.00000000000E+00  0.00000000000E+00 -0.69967465747E+03  0.69967465748E+03  0.25500000920E-02 0. -1.
    10030    2    1    2    0    0  0.00000000000E+00  0.00000000000E+00  0.20392651392E+03  0.16032758289E+04  0.15902538666E+04 0.  0.
        3    1    3    3  502    0 -0.53860307429E+03  0.35270972162E+03 -0.36847250984E+03  0.74180146944E+03  0.10100000352E+00 0. -1.
       -3    1    3    3    0  502  0.53860307429E+03 -0.35270972162E+03  0.57239902376E+03  0.86147435943E+03  0.10100000352E+00 0.  1.
</event>
<event>
 5   0  0.1774934E-04  0.1604291E+04  0.7818609E-02  0.8817916E-01
        2   -1    0    0  501    0  0.00000000000E+00  0.00000000000E+00  0.84837723944E+03  0.84837723944E+03  0.25500000920E-02 0.  1.
       -2   -1    0    0    0  501  0.00000000000E+00  0.00000000000E+00 -0.75843280535E+03  0.75843280535E+03  0.25500000920E-02 0. -1.
    10030    2    1    2    0    0  0.00000000000E+00  0.00000000000E+00  0.89944434092E+02  0.16068100448E+04  0.16042906591E+04 0.  0.
        1    1    3    3  502    0  0.42446648863E+02 -0.66998995196E+03  0.48469342283E+03  0.82801930405E+03  0.50400001928E-02 0. -1.
       -1    1    3    3    0  502 -0.42446648863E+02  0.66998995196E+03 -0.39474898874E+03  0.77879074074E+03  0.50400001928E-02 0.  1.
</event>
<event>
 5   0  0.9616567E-05  0.1597879E+04  0.7818609E-02  0.8821852E-01
       -1   -1    0    0    0  501  0.00000000000E+00  0.00000000000E+00  0.11340152481E+04  0.11340152481E+04  0.50400001928E-02 0.  1.
        1   -1    0    0  501    0  0.00000000000E+00  0.00000000000E+00 -0.56287115696E+03  0.56287115698E+03  0.50400001928E-02 0. -1.
    10030    2    1    2    0    0  0.00000000000E+00  0.00000000000E+00  0.57114409116E+03  0.16968864051E+04  0.15978791878E+04 0.  0.
        5    1    3    3  502    0  0.10541649343E+03 -0.45355120865E+03 -0.40385378637E+03  0.61639379192E+03  0.46999998093E+01 0. -1.
       -5    1    3    3    0  502 -0.10541649343E+03  0.45355120865E+03  0.97499787752E+03  0.10804926132E+04  0.46999998093E+01 0.  1.
</event>
<event>
 5   0  0.1914170E-04  0.1606844E+04  0.7818609E-02  0.8816354E-01
       -2   -1    0    0    0  501  0.00000000000E+00  0.00000000000E+00  0.45408562048E+03  0.45408562049E+03  0.25500000920E-02 0. -1.
        2   -1    0    0  501    0  0.00000000000E+00  0.00000000000E+00 -0.14215092169E+04  0.14215092169E+04  0.25500000920E-02 0.  1.
    10030    2    1    2    0    0  0.00000000000E+00  0.00000000000E+00 -0.96742359638E+03  0.18755948374E+04  0.16068439809E+04 0.  0.
        3    1    3    3  502    0  0.79964049926E+02 -0.77253108525E+03 -0.72374743704E+03  0.10616067491E+04  0.10100000352E+00 0.  1.
       -3    1    3    3    0  502 -0.79964049926E+02  0.77253108525E+03 -0.24367615934E+03  0.81398808823E+03  0.10100000352E+00 0. -1.
</event>
<event>
 5   0  0.9432152E-05  0.1598111E+04  0.7818609E-02  0.8821709E-01
       -1   -1    0    0    0  501  0.00000000000E+00  0.00000000000E+00  0.38632301982E+03  0.38632301985E+03  0.50400001928E-02 0.  1.
        1   -1    0    0  501    0  0.00000000000E+00  0.00000000000E+00 -0.16527352510E+04  0.16527352510E+04  0.50400001928E-02 0. -1.
    10030    2    1    2    0    0  0.00000000000E+00  0.00000000000E+00 -0.12664122312E+04  0.20390582708E+04  0.15981109763E+04 0.  0.
        4    1    3    3  502    0  0.28699155854E+03  0.41270398283E+03  0.15930148503E+03  0.52732087779E+03  0.12699999809E+01 0.  1.
       -4    1    3    3    0  502 -0.28699155854E+03 -0.41270398283E+03 -0.14257137162E+04  0.15117373930E+04  0.12699999809E+01 0. -1.
</event>
<event>
 5   0  0.9673017E-05  0.1600503E+04  0.7818609E-02  0.8820239E-01
       -1   -1    0    0    0  501  0.00000000000E+00  0.00000000000E+00  0.42747024162E+03  0.42747024165E+03  0.50400001928E-02 0.  1.
        1   -1    0    0  501    0  0.00000000000E+00  0.00000000000E+00 -0.14981219299E+04  0.14981219299E+04  0.50400001928E-02 0. -1.
    10030    2    1    2    0    0  0.00000000000E+00  0.00000000000E+00 -0.10706516883E+04  0.19255921715E+04  0.16005031001E+04 0.  0.
        1    1    3    3  502    0 -0.13162497028E+03 -0.46029994804E+03 -0.13068243114E+04  0.13917582246E+04  0.50400001928E-02 0. -1.
       -1    1    3    3    0  502  0.13162497028E+03  0.46029994804E+03  0.23617262310E+03  0.53383394693E+03  0.50400001928E-02 0.  1.
</event>
<event>
 5   0  0.9939872E-05  0.1612017E+04  0.7818609E-02  0.8813200E-01
        1   -1    0    0  501    0  0.00000000000E+00  0.00000000000E+00  0.12658314335E+04  0.12658314335E+04  0.50400001928E-02 0.  1.
       -1   -1    0    0    0  501  0.00000000000E+00  0.00000000000E+00 -0.51321949810E+03  0.51321949812E+03  0.50400001928E-02 0. -1.
    10030    2    1    2    0    0  0.00000000000E+00  0.00000000000E+00  0.75261193537E+03  0.17790509316E+04  0.16120165917E+04 0.  0.
        3    1    3    3  502    0  0.44314303248E+03 -0.14491125696E+03 -0.34929625396E+03  0.58256579273E+03  0.10100000352E+00 0. -1.
       -3    1    3    3    0  502 -0.44314303248E+03  0.14491125696E+03  0.11019081893E+04  0.11964851389E+04  0.10100000352E+00 0.  1.
</event>
<event>
 5   0  0.1858913E-04  0.1604017E+04  0.7818609E-02  0.8818084E-01
        2   -1    0    0  501    0  0.00000000000E+00  0.00000000000E+00  0.10385239650E+04  0.10385239650E+04  0.25500000920E-02 0. -1.
       -2   -1    0    0    0  501  0.00000000000E+00  0.00000000000E+00 -0.61935785733E+03  0.61935785734E+03  0.25500000920E-02 0.  1.
    10030    2    1    2    0    0  0.00000000000E+00  0.00000000000E+00  0.41916610770E+03  0.16578818224E+04  0.16040174286E+04 0.  0.
        4    1    3    3  502    0 -0.68167027113E+01  0.76547239060E+03  0.45682701180E+03  0.89145217472E+03  0.12699999809E+01 0. -1.
       -4    1    3    3    0  502  0.68167027113E+01 -0.76547239060E+03 -0.37660904097E+02  0.76642964766E+03  0.12699999809E+01 0.  1.
</event>
<event>
 5   0  0.1858913E-04  0.1598162E+04  0.7818609E-02  0.8821678E-01
       -2   -1    0    0    0  501  0.00000000000E+00  0.00000000000E+00  0.11240393042E+04  0.11240393042E+04  0.25500000920E-02 0.  1.
        2   -1    0    0  501    0  0.00000000000E+00  0.00000000000E+00 -0.56806744640E+03  0.56806744640E+03  0.25500000920E-02 0. -1.
    10030    2    1    2    0    0  0.00000000000E+00  0.00000000000E+00  0.55597185784E+03  0.16921067507E+04  0.15981616154E+04 0.  0.
        4    1    3    3  502    0 -0.63340997137E+03 -0.48505000680E+03  0.32588722320E+03  0.86179220005E+03  0.12699999809E+01 0.  1.
       -4    1    3    3    0  502  0.63340997137E+03  0.48505000680E+03  0.23008463465E+03  0.83031455060E+03  0.12699999809E+01 0. -1.
</event>
<event>
 5   0  0.6838750E-05  0.1596194E+04  0.7818609E-02  0.8822890E-01
        4   -1    0    0  501    0  0.00000000000E+00  0.00000000000E+00  0.12790258861E+04  0.12790265166E+04  0.12699999809E+01 0.  1.
       -4   -1    0    0    0  501  0.00000000000E+00  0.00000000000E+00 -0.49800127349E+03  0.49800289286E+03  0.12699999809E+01 0. -1.
    10030    2    1    2    0    0  0.00000000000E+00  0.00000000000E+00  0.78102461260E+03  0.17770294095E+04  0.15961936213E+04 0.  0.
        5    1    3    3  502    0  0.21385623116E+03 -0.44276242758E+03  0.10903500916E+04  0.11961013616E+04  0.46999998093E+01 0.  1.
       -5    1    3    3    0  502 -0.21385623116E+03  0.44276242758E+03 -0.30932547900E+03  0.58092804790E+03  0.46999998093E+01 0. -1.
</event>
<event>
 5   0  0.9939872E-05  0.1601672E+04  0.7818609E-02  0.8819522E-01
        1   -1    0    0  501    0  0.00000000000E+00  0.00000000000E+00  0.18575475443E+04  0.18575475443E+04  0.50400001928E-02 0.  1.
       -1   -1    0    0    0  501  0.00000000000E+00  0.00000000000E+00 -0.34526060023E+03  0.34526060027E+03  0.50400001928E-02 0. -1.
    10030    2    1    2    0    0  0.00000000000E+00  0.00000000000E+00  0.15122869441E+04  0.22028081446E+04  0.16016716020E+04 0.  0.
        3    1    3    3  502    0 -0.16829342272E+03  0.68702459767E+03  0.23968905274E+03  0.74684424490E+03  0.10100000352E+00 0.  1.
       -3    1    3    3    0  502  0.16829342272E+03 -0.68702459767E+03  0.12725978913E+04  0.14559638997E+04  0.10100000352E+00 0. -1.
</event>
<event>
 5   0  0.9616567E-05  0.1595502E+04  0.7818609E-02  0.8823316E-01
        1   -1    0    0  501    0  0.00000000000E+00  0.00000000000E+00  0.65953069880E+03  0.65953069882E+03  0.50400001928E-02 0.  1.
       -1   -1    0    0    0  501  0.00000000000E+00  0.00000000000E+00 -0.96493914031E+03  0.96493914032E+03  0.50400001928E-02 0. -1.
    10030    2    1    2    0    0  0.00000000000E+00  0.00000000000E+00 -0.30540844151E+03  0.16244698391E+04  0.15955024106E+04 0.  0.
        5    1    3    3  502    0 -0.30870173546E+03  0.27785268600E+02 -0.90111174857E+03  0.95293927195E+03  0.46999998093E+01 0. -1.
       -5    1    3    3    0  502  0.30870173546E+03 -0.27785268600E+02  0.59570330706E+03  0.67153056719E+03  0.46999998093E+01 0.  1.
</event>
<event>
 5   0  0.1832646E-04  0.1606712E+04  0.7818609E-02  0.8816435E-01
        2   -1    0    0  501    0  0.00000000000E+00  0.00000000000E+00  0.11514311660E+04  0.11514311660E+04  0.25500000920E-02 0.  1.
       -2   -1    0    0    0  501  0.00000000000E+00  0.00000000000E+00 -0.56050325484E+03  0.56050325485E+03  0.25500000920E-02 0. -1.
    10030    2    1    2    0    0  0.00000000000E+00  0.00000000000E+00  0.59092791111E+03  0.17119344208E+04  0.16067120666E+04 0.  0.
        2    1    3    3  502    0  0.39819634648E+03  0.61623629225E+03 -0.53186231098E+02  0.73561965269E+03  0.25500000920E-02 0. -1.
       -2    1    3    3    0  502 -0.39819634648E+03 -0.61623629225E+03  0.64411414221E+03  0.97631476811E+03  0.25500000920E-02 0.  1.
</event>
<event>
 5   0  0.1914170E-04  0.1574917E+04  0.7818609E-02  0.8836108E-01
        2   -1    0    0  501    0  0.00000000000E+00  0.00000000000E+00  0.23216666312E+04  0.23216666312E+04  0.25500000920E-02 0. -1.
       -2   -1    0    0    0  501  0.00000000000E+00  0.00000000000E+00 -0.26708854085E+03  0.26708854086E+03  0.25500000920E-02 0.  1.
    10030    2    1    2    0    0  0.00000000000E+00  0.00000000000E+00  0.20545780904E+04  0.25887551721E+04  0.15749165729E+04 0.  0.
        3    1    3    3  502    0  0.40435783677E+03 -0.37887892599E+03  0.19469560349E+04  0.20242757502E+04  0.10100000352E+00 0. -1.
       -3    1    3    3    0  502 -0.40435783677E+03  0.37887892599E+03  0.10762205546E+03  0.56447942189E+03  0.10100000352E+00 0.  1.
</event>
<event>
 5   0  0.1774934E-04  0.1588055E+04  0.7818609E-02  0.8827920E-01
       -2   -1    0    0    0  501  0.00000000000E+00  0.00000000000E+00  0.50481766778E+03  0.50481766779E+03  0.25500000920E-02 0.  1.
        2   -1    0    0  501    0  0.00000000000E+00  0.00000000000E+00 -0.12489260878E+04  0.12489260878E+04  0.25500000920E-02 0. -1.
    10030    2    1    2    0    0  0.00000000000E+00  0.00000000000E+00 -0.74410842006E+03  0.17537437556E+04  0.15880553579E+04 0.  0.
        1    1    3    3  502    0  0.46696122128E+02 -0.55807495020E+03 -0.99367935552E+03  0.11406256351E+04  0.50400001928E-02 0. -1.
       -1    1    3    3    0  502 -0.46696122128E+02  0.55807495020E+03  0.24957093546E+03  0.61311812052E+03  0.50400001928E-02 0.  1.
</event>
<event>
 5   0  0.1832646E-04  0.1591907E+04  0.7818609E-02  0.8825535E-01
       -2   -1    0    0    0  501  0.00000000000E+00  0.00000000000E+00  0.61414873625E+03  0.61414873625E+03  0.25500000920E-02 0.  1.
        2   -1    0    0  501    0  0.00000000000E+00  0.00000000000E+00 -0.10315772188E+04  0.10315772188E+04  0.25500000920E-02 0. -1.
    10030    2    1    2    0    0  0.00000000000E+00  0.00000000000E+00 -0.41742848257E+03  0.16457259551E+04  0.15919068381E+04 0.  0.
        2    1    3    3  502    0 -0.49778469849E+02 -0.72232941527E+03 -0.55050335492E+03  0.90955572892E+03  0.25500000920E-02 0. -1.
       -2    1    3    3    0  502  0.49778469849E+02  0.72232941527E+03  0.13307487234E+03  0.73617022616E+03  0.25500000920E-02 0.  1.
</event>
<event>
 5   0  0.1914170E-04  0.1598218E+04  0.7818609E-02  0.8821644E-01
        2   -1    0    0  501    0  0.00000000000E+00  0.00000000000E+00  0.16844925338E+04  0.16844925338E+04  0.25500000920E-02 0.  1.
       -2   -1    0    0    0  501  0.00000000000E+00  0.00000000000E+00 -0.37909037420E+03  0.37909037420E+03  0.25500000920E-02 0. -1.
    10030    2    1    2    0    0  0.00000000000E+00  0.00000000000E+00  0.13054021596E+04  0.20635829080E+04  0.15982176385E+04 0.  0.
        3    1    3    3  502    0 -0.77799692446E+02 -0.59685801995E+03  0.13313775230E+04  0.14611154667E+04  0.10100000352E+00 0.  1.
       -3    1    3    3    0  502  0.77799692446E+02  0.59685801995E+03 -0.25975363395E+02  0.60246744130E+03  0.10100000352E+00 0. -1.
</event>
<event>
 5   0  0.9939872E-05  0.1594443E+04  0.7818609E-02  0.8823969E-01
       -1   -1    0    0    0  501  0.00000000000E+00  0.00000000000E+00  0.66544064985E+03  0.66544064987E+03  0.50400001928E-02 0.  1.
        1   -1    0    0  501    0  0.00000000000E+00  0.00000000000E+00 -0.95510017973E+03  0.95510017975E+03  0.50400001928E-02 0. -1.
    10030    2    1    2    0    0  0.00000000000E+00  0.00000000000E+00 -0.28965952988E+03  0.16205408296E+04  0.15944434569E+04 0.  0.
        3    1    3    3  502    0 -0.23047001369E+03  0.33462949810E+03  0.55230449856E+03  0.68566288914E+03  0.10100000352E+00 0.  1.
       -3    1    3    3    0  502  0.23047001369E+03 -0.33462949810E+03 -0.84196402844E+03  0.93487794048E+03  0.10100000352E+00 0. -1.
</event>
<event>
 5   0  0.1835088E-04  0.1591847E+04  0.7818609E-02  0.8825573E-01
        2   -1    0    0  501    0  0.00000000000E+00  0.00000000000E+00  0.13955826389E+04  0.13955826389E+04  0.25500000920E-02 0.  1.
       -2   -1    0    0    0  501  0.00000000000E+00  0.00000000000E+00 -0.45392804022E+03  0.45392804023E+03  0.25500000920E-02 0. -1.
    10030    2    1    2    0    0  0.00000000000E+00  0.00000000000E+00  0.94165459872E+03  0.18495106792E+04  0.15918468422E+04 0.  0.
        5    1    3    3  502    0 -0.53426195003E+03  0.11327695865E+03 -0.20185575003E+03  0.58226740801E+03  0.46999998093E+01 0. -1.
       -5    1    3    3    0  502  0.53426195003E+03 -0.11327695865E+03  0.11435103488E+04  0.12672432712E+04  0.46999998093E+01 0.  1.
</event>
<event>
 5   0  0.9616567E-05  0.1580550E+04  0.7818609E-02  0.8832587E-01
        1   -1    0    0  501    0  0.00000000000E+00  0.00000000000E+00  0.14034384678E+04  0.14034384678E+04  0.50400001928E-02 0.  1.
       -1   -1    0    0    0  501  0.00000000000E+00  0.00000000000E+00 -0.44500306073E+03  0.44500306075E+03  0.50400001928E-02 0. -1.
    10030    2    1    2    0    0  0.00000000000E+00  0.00000000000E+00  0.95843540706E+03  0.18484415286E+04  0.15805497952E+04 0.  0.
        5    1    3    3  502    0  0.45466710144E+03 -0.29977941310E+03 -0.19048663447E+03  0.57697237157E+03  0.46999998093E+01 0.  1.
       -5    1    3    3    0  502 -0.45466710144E+03  0.29977941310E+03  0.11489220415E+04  0.12714691570E+04  0.46999998093E+01 0. -1.
</event>
<event>
 5   0  0.9939872E-05  0.1600187E+04  0.7818609E-02  0.8820433E-01
        1   -1    0    0  501    0  0.00000000000E+00  0.00000000000E+00  0.16160977078E+04  0.16160977078E+04  0.50400001928E-02 0.  1.
       -1   -1    0    0    0  501  0.00000000000E+00  0.00000000000E+00 -0.39610846814E+03  0.39610846818E+03  0.50400001928E-02 0. -1.
    10030    2    1    2    0    0  0.00000000000E+00  0.00000000000E+00  0.12199892396E+04  0.20122061760E+04  0.16001874733E+04 0.  0.
        3    1    3    3  502    0 -0.50093010245E+03 -0.56710149451E+03  0.93697585583E+03  0.12043499646E+04  0.10100000352E+00 0.  1.
       -3    1    3    3    0  502  0.50093010245E+03  0.56710149451E+03  0.28301338380E+03  0.80785621136E+03  0.10100000352E+00 0. -1.
</event>
<event>
 5   0  0.1914170E-04  0.1595074E+04  0.7818609E-02  0.8823580E-01
        2   -1    0    0  501    0  0.00000000000E+00  0.00000000000E+00  0.10099244746E+04  0.10099244746E+04  0.25500000920E-02 0. -1.
       -2   -1    0    0    0  501  0.00000000000E+00  0.00000000000E+00 -0.62981493977E+03  0.62981493978E+03  0.25500000920E-02 0.  1.
    10030    2    1    2    0    0  0.00000000000E+00  0.00000000000E+00  0.38010953482E+03  0.16397394144E+04  0.15950743207E+04 0.  0.
        3    1    3    3  502    0 -0.22891706665E+03 -0.41530469208E+03 -0.46913776799E+03  0.66706166599E+03  0.10100000352E+00 0.  1.
       -3    1    3    3    0  502  0.22891706665E+03  0.41530469208E+03  0.84924730282E+03  0.97267774839E+03  0.10100000352E+00 0. -1.
</event>
<event>
 5   0  0.9673017E-05  0.1607613E+04  0.7818609E-02  0.8815885E-01
        1   -1    0    0  501    0  0.00000000000E+00  0.00000000000E+00  0.13824045928E+04  0.13824045928E+04  0.50400001928E-02 0. -1.
       -1   -1    0    0    0  501  0.00000000000E+00  0.00000000000E+00 -0.46737728592E+03  0.46737728595E+03  0.50400001928E-02 0.  1.
    10030    2    1    2    0    0  0.00000000000E+00  0.00000000000E+00  0.91502730689E+03  0.18497818788E+04  0.16076125238E+04 0.  0.
        1    1    3    3  502    0  0.42068787716E+03 -0.86505066769E+02 -0.32428030411E+03  0.53816273768E+03  0.50400001928E-02 0.  1.
       -1    1    3    3    0  502 -0.42068787716E+03  0.86505066769E+02  0.12393076110E+04  0.13116191411E+04  0.50400001928E-02 0. -1.
</event>
<event>
 5   0  0.9939872E-05  0.1609002E+04  0.7818609E-02  0.8815036E-01
        1   -1    0    0  501    0  0.00000000000E+00  0.00000000000E+00  0.10209954774E+04  0.10209954774E+04  0.50400001928E-02 0.  1.
       -1   -1    0    0    0  501  0.00000000000E+00  0.00000000000E+00 -0.63391291849E+03  0.63391291851E+03  0.50400001928E-02 0. -1.
    10030    2    1    2    0    0  0.00000000000E+00  0.00000000000E+00  0.38708255888E+03  0.16549083959E+04  0.16090024523E+04 0.  0.
        3    1    3    3  502    0  0.52556081268E+03  0.34932586047E+03  0.70675592118E+03  0.94749494297E+03  0.10100000352E+00 0.  1.
       -3    1    3    3    0  502 -0.52556081268E+03 -0.34932586047E+03 -0.31967336230E+03  0.70741345293E+03  0.10100000352E+00 0. -1.
</event>
<event>
 5   0  0.9726935E-05  0.1603831E+04  0.7818609E-02  0.8818198E-01
        1   -1    0    0  501    0  0.00000000000E+00  0.00000000000E+00  0.27913778029E+04  0.27913778030E+04  0.50400001928E-02 0.  1.
       -1   -1    0    0    0  501  0.00000000000E+00  0.00000000000E+00 -0.23037680017E+03  0.23037680022E+03  0.50400001928E-02 0. -1.
    10030    2    1    2    0    0  0.00000000000E+00  0.00000000000E+00  0.25610010028E+04  0.30217546032E+04  0.16038312709E+04 0.  0.
        2    1    3    3  502    0 -0.25642843412E+03  0.40269568306E+03  0.24944557771E+04  0.25397300996E+04  0.25500000920E-02 0.  1.
       -2    1    3    3    0  502  0.25642843412E+03 -0.40269568306E+03  0.66545225704E+02  0.48202450358E+03  0.25500000920E-02 0. -1.
</event>
<event>
 5   0  0.9616567E-05  0.1648150E+04  0.7818609E-02  0.8791502E-01
       -1   -1    0    0    0  501  0.00000000000E+00  0.00000000000E+00  0.11951532519E+04  0.11951532519E+04  0.50400001928E-02 0. -1.
        1   -1    0    0  501    0  0.00000000000E+00  0.00000000000E+00 -0.56821136836E+03  0.56821136838E+03  0.50400001928E-02 0.  1.
    10030    2    1    2    0    0  0.00000000000E+00  0.00000000000E+00  0.62694188350E+03  0.17633646203E+04  0.16481500717E+04 0.  0.
        5    1    3    3  502    0 -0.21961804723E+03  0.53895288444E+03 -0.31072993274E+03  0.65975562098E+03  0.46999998093E+01 0.  1.
       -5    1    3    3    0  502  0.21961804723E+03 -0.53895288444E+03  0.93767181625E+03  0.11036089993E+04  0.46999998093E+01 0. -1.
</event>
<event>
 5   0  0.1858913E-04  0.1601434E+04  0.7818609E-02  0.8819667E-01
       -2   -1    0    0    0  501  0.00000000000E+00  0.00000000000E+00  0.78775020947E+03  0.78775020948E+03  0.25500000920E-02 0.  1.
        2   -1    0    0  501    0  0.00000000000E+00  0.00000000000E+00 -0.81389735822E+03  0.81389735823E+03  0.25500000920E-02 0. -1.
    10030    2    1    2    0    0  0.00000000000E+00  0.00000000000E+00 -0.26147148750E+02  0.16016475677E+04  0.16014341253E+04 0.  0.
        4    1    3    3  502    0 -0.30798154870E+03 -0.42394864991E+02 -0.75107180975E+03  0.81287172125E+03  0.12699999809E+01 0. -1.
       -4    1    3    3    0  502  0.30798154870E+03  0.42394864991E+02  0.72492466100E+03  0.78877584645E+03  0.12699999809E+01 0.  1.
</event>
<event>
 5   0  0.1774934E-04  0.1600686E+04  0.7818609E-02  0.8820126E-01
        2   -1    0    0  501    0  0.00000000000E+00  0.00000000000E+00  0.18378260967E+04  0.18378260967E+04  0.25500000920E-02 0.  1.
       -2   -1    0    0    0  501  0.00000000000E+00  0.00000000000E+00 -0.34853634475E+03  0.34853634476E+03  0.25500000920E-02 0. -1.
    10030    2    1    2    0    0  0.00000000000E+00  0.00000000000E+00  0.14892897519E+04  0.21863624414E+04  0.16006863403E+04 0.  0.
        1    1    3    3  502    0 -0.29662482304E+03  0.45925009570E+03  0.15430219630E+04  0.16370136574E+04  0.50400001928E-02 0.  1.
       -1    1    3    3    0  502  0.29662482304E+03 -0.45925009570E+03 -0.53732211068E+02  0.54934878408E+03  0.50400001928E-02 0. -1.
</event>
<event>
 5   0  0.9432152E-05  0.1588446E+04  0.7818609E-02  0.8827678E-01
        1   -1    0    0  501    0  0.00000000000E+00  0.00000000000E+00  0.13653786911E+04  0.13653786911E+04  0.50400001928E-02 0.  1.
       -1   -1    0    0    0  501  0.00000000000E+00  0.00000000000E+00 -0.46198904959E+03  0.46198904961E+03  0.50400001928E-02 0. -1.
    10030    2    1    2    0    0  0.00000000000E+00  0.00000000000E+00  0.90338964149E+03  0.18273677407E+04  0.15884457861E+04 0.  0.
        4    1    3    3  502    0  0.55384253793E+03 -0.33841413920E+02  0.11054101223E+04  0.12368589045E+04  0.12699999809E+01 0.  1.
       -4    1    3    3    0  502 -0.55384253793E+03  0.33841413920E+02 -0.20202048082E+03  0.59050883625E+03  0.12699999809E+01 0. -1.
</event>
<event>
 5   0  0.1832646E-04  0.1599068E+04  0.7818609E-02  0.8821121E-01
       -2   -1    0    0    0  501  0.00000000000E+00  0.00000000000E+00  0.65583069040E+03  0.65583069040E+03  0.25500000920E-02 0.  1.
        2   -1    0    0  501    0  0.00000000000E+00  0.00000000000E+00 -0.97472459985E+03  0.97472459985E+03  0.25500000920E-02 0. -1.
    10030    2    1    2    0    0  0.00000000000E+00  0.00000000000E+00 -0.31889390945E+03  0.16305552903E+04  0.15990676124E+04 0.  0.
        2    1    3    3  502    0 -0.42618111448E+03 -0.48862569157E+03  0.31759956164E+03  0.72197984069E+03  0.25500000920E-02 0.  1.
       -2    1    3    3    0  502  0.42618111448E+03  0.48862569157E+03 -0.63649347109E+03  0.90857544956E+03  0.25500000920E-02 0. -1.
</event>
<event>
 5   0  0.9616567E-05  0.1611491E+04  0.7818609E-02  0.8813520E-01
        1   -1    0    0  501    0  0.00000000000E+00  0.00000000000E+00  0.67397132503E+03  0.67397132505E+03  0.50400001928E-02 0.  1.
       -1   -1    0    0    0  501  0.00000000000E+00  0.00000000000E+00 -0.96328400569E+03  0.96328400570E+03  0.50400001928E-02 0. -1.
    10030    2    1    2    0    0  0.00000000000E+00  0.00000000000E+00 -0.28931268066E+03  0.16372553308E+04  0.16114909838E+04 0.  0.
        5    1    3    3  502    0 -0.60234418591E+03  0.51511772028E+03 -0.29202335720E+03  0.84466828707E+03  0.46999998093E+01 0. -1.
       -5    1    3    3    0  502  0.60234418591E+03 -0.51511772028E+03  0.27106765394E+01  0.79258704368E+03  0.46999998093E+01 0.  1.
</event>
<event>
 5   0  0.1832646E-04  0.1605995E+04  0.7818609E-02  0.8816874E-01
       -2   -1    0    0    0  501  0.00000000000E+00  0.00000000000E+00  0.12003725482E+04  0.12003725482E+04  0.25500000920E-02 0.  1.
        2   -1    0    0  501    0  0.00000000000E+00  0.00000000000E+00 -0.53717056972E+03  0.53717056973E+03  0.25500000920E-02 0. -1.
    10030    2    1    2    0    0  0.00000000000E+00  0.00000000000E+00  0.66320197846E+03  0.17375431179E+04  0.16059947766E+04 0.  0.
        2    1    3    3  502    0  0.39591242386E+03 -0.58969920842E+03 -0.73665244264E+02  0.71408568953E+03  0.25500000920E-02 0. -1.
       -2    1    3    3    0  502 -0.39591242386E+03  0.58969920842E+03  0.73686722272E+03  0.10234574284E+04  0.25500000920E-02 0.  1.
</event>
<event>
 5   0  0.9432152E-05  0.1596132E+04  0.7818609E-02  0.8822928E-01
        1   -1    0    0  501    0  0.00000000000E+00  0.00000000000E+00  0.16628010217E+04  0.16628010217E+04  0.50400001928E-02 0. -1.
       -1   -1    0    0    0  501  0.00000000000E+00  0.00000000000E+00 -0.38303390660E+03  0.38303390663E+03  0.50400001928E-02 0.  1.
    10030    2    1    2    0    0  0.00000000000E+00  0.00000000000E+00  0.12797671151E+04  0.20458349283E+04  0.15961317881E+04 0.  0.
        4    1    3    3  502    0  0.56397483601E+03 -0.27253823589E+03  0.12737490183E+04  0.14194304774E+04  0.12699999809E+01 0. -1.
       -4    1    3    3    0  502 -0.56397483601E+03  0.27253823589E+03  0.60180967210E+01  0.62640445086E+03  0.12699999809E+01 0.  1.
</event>
<event>
 5   0  0.9726935E-05  0.1588722E+04  0.7818609E-02  0.8827507E-01
       -1   -1    0    0    0  501  0.00000000000E+00  0.00000000000E+00  0.27823215232E+03  0.27823215237E+03  0.50400001928E-02 0. -1.
        1   -1    0    0  501    0  0.00000000000E+00  0.00000000000E+00 -0.22679230135E+04  0.22679230135E+04  0.50400001928E-02 0.  1.
    10030    2    1    2    0    0  0.00000000000E+00  0.00000000000E+00 -0.19896908612E+04  0.25461551659E+04  0.15887216262E+04 0.  0.
        2    1    3    3  502    0  0.68360578312E+03  0.39282203751E+03 -0.83960322505E+03  0.11517636890E+04  0.25500000920E-02 0.  1.
       -2    1    3    3    0  502 -0.68360578312E+03 -0.39282203751E+03 -0.11500876361E+04  0.13943914768E+04  0.25500000920E-02 0. -1.
</event>
<event>
 5   0  0.9726935E-05  0.1594228E+04  0.7818609E-02  0.8824102E-01
       -1   -1    0    0    0  501  0.00000000000E+00  0.00000000000E+00  0.67644457281E+03  0.67644457283E+03  0.50400001928E-02 0.  1.
        1   -1    0    0  501    0  0.00000000000E+00  0.00000000000E+00 -0.93930945335E+03  0.93930945337E+03  0.50400001928E-02 0. -1.
    10030    2    1    2    0    0  0.00000000000E+00  0.00000000000E+00 -0.26286488054E+03  0.16157540262E+04  0.15942280664E+04 0.  0.
        2    1    3    3  502    0 -0.16199549387E+02  0.72669204282E+03 -0.46303059890E+03  0.86182427793E+03  0.25500000920E-02 0.  1.
       -2    1    3    3    0  502  0.16199549387E+02 -0.72669204282E+03  0.20016571836E+03  0.75392974826E+03  0.25500000920E-02 0. -1.
</event>
<event>
 5   0  0.1832646E-04  0.1604601E+04  0.7818609E-02  0.8817726E-01
        2   -1    0    0  501    0  0.00000000000E+00  0.00000000000E+00  0.17576241071E+04  0.17576241071E+04  0.25500000920E-02 0.  1.
       -2   -1    0    0    0  501  0.00000000000E+00  0.00000000000E+00 -0.36622515132E+03  0.36622515133E+03  0.25500000920E-02 0. -1.
    10030    2    1    2    0    0  0.00000000000E+00  0.00000000000E+00  0.13913989558E+04  0.21238492584E+04  0.16046010777E+04 0.  0.
        2    1    3    3  502    0  0.20489254268E+03  0.42426615678E+03 -0.16382881280E+03  0.49882121621E+03  0.25500000920E-02 0. -1.
       -2    1    3    3    0  502 -0.20489254268E+03 -0.42426615678E+03  0.15552277686E+04  0.16250280422E+04  0.25500000920E-02 0.  1.
</event>
<event>
 5   0  0.9616567E-05  0.1549618E+04  0.7818609E-02  0.8852112E-01
       -1   -1    0    0    0  501  0.00000000000E+00  0.00000000000E+00  0.66597741118E+03  0.66597741120E+03  0.50400001928E-02 0.  1.
        1   -1    0    0  501    0  0.00000000000E+00  0.00000000000E+00 -0.90142564325E+03  0.90142564327E+03  0.50400001928E-02 0. -1.
    10030    2    1    2    0    0  0.00000000000E+00  0.00000000000E+00 -0.23544823207E+03  0.15674030545E+04  0.15496181675E+04 0.  0.
        5    1    3    3  502    0 -0.55229287184E+03 -0.29395812213E+03 -0.57999036428E+03  0.85314108242E+03  0.46999998093E+01 0. -1.
       -5    1    3    3    0  502  0.55229287184E+03  0.29395812213E+03  0.34454213221E+03  0.71426197205E+03  0.46999998093E+01 0.  1.
</event>
<event>
 5   0  0.1835088E-04  0.1577401E+04  0.7818609E-02  0.8834553E-01
        2   -1    0    0  501    0  0.00000000000E+00  0.00000000000E+00  0.65031424650E+03  0.65031424650E+03  0.25500000920E-02 0.  1.
       -2   -1    0    0    0  501  0.00000000000E+00  0.00000000000E+00 -0.95653480398E+03  0.95653480398E+03  0.25500000920E-02 0. -1.
    10030    2    1    2    0    0  0.00000000000E+00  0.00000000000E+00 -0.30622055748E+03  0.16068490505E+04  0.15774006597E+04 0.  0.
        5    1    3    3  502    0  0.69136233443E+03  0.26092333840E+03 -0.43387002634E+03  0.85692949287E+03  0.46999998093E+01 0. -1.
       -5    1    3    3    0  502 -0.69136233443E+03 -0.26092333840E+03  0.12764946885E+03  0.74991955761E+03  0.46999998093E+01 0.  1.
</event>
<event>
 5   0  0.1835088E-04  0.1601537E+04  0.7818609E-02  0.8819604E-01
        2   -1    0    0  501    0  0.00000000000E+00  0.00000000000E+00  0.10372607373E+04  0.10372607373E+04  0.25500000920E-02 0. -1.
       -2   -1    0    0    0  501  0.00000000000E+00  0.00000000000E+00 -0.61819580285E+03  0.61819580285E+03  0.25500000920E-02 0.  1.
    10030    2    1    2    0    0  0.00000000000E+00  0.00000000000E+00  0.41906493446E+03  0.16554565402E+04  0.16015370545E+04 0.  0.
        5    1    3    3  502    0 -0.46889751295E+02 -0.63820155988E+03 -0.28803451639E+03  0.70177336259E+03  0.46999998093E+01 0.  1.
       -5    1    3    3    0  502  0.46889751295E+02  0.63820155988E+03  0.70709945084E+03  0.95368317757E+03  0.46999998093E+01 0. -1.
</event>
<event>
 5   0  0.1858913E-04  0.1608962E+04  0.7818609E-02  0.8815061E-01
        2   -1    0    0  501    0  0.00000000000E+00  0.00000000000E+00  0.17658991910E+03  0.17658991912E+03  0.25500000920E-02 0.  1.
       -2   -1    0    0    0  501  0.00000000000E+00  0.00000000000E+00 -0.36649284964E+04  0.36649284964E+04  0.25500000920E-02 0. -1.
    10030    2    1    2    0    0  0.00000000000E+00  0.00000000000E+00 -0.34883385773E+04  0.38415184155E+04  0.16089616860E+04 0.  0.
        4    1    3    3  502    0  0.25931808108E+03 -0.46674751635E+03 -0.31808646993E+04  0.32253683447E+04  0.12699999809E+01 0. -1.
       -4    1    3    3    0  502 -0.25931808108E+03  0.46674751635E+03 -0.30747387806E+03  0.61615007083E+03  0.12699999809E+01 0.  1.
</event>
<event>
 5   0  0.9432152E-05  0.1611039E+04  0.7818609E-02  0.8813795E-01
        1   -1    0    0  501    0  0.00000000000E+00  0.00000000000E+00  0.99142540733E+03  0.99142540735E+03  0.50400001928E-02 0. -1.
       -1   -1    0    0    0  501  0.00000000000E+00  0.00000000000E+00 -0.65447324643E+03  0.65447324645E+03  0.50400001928E-02 0.  1.
    10030    2    1    2    0    0  0.00000000000E+00  0.00000000000E+00  0.33695216091E+03  0.16458986538E+04  0.16110386773E+04 0.  0.
        4    1    3    3  502    0 -0.22579996359E+03  0.19992509150E+03  0.93156809667E+03  0.97917128093E+03  0.12699999809E+01 0. -1.
       -4    1    3    3    0  502  0.22579996359E+03 -0.19992509150E+03 -0.59461593576E+03  0.66672737287E+03  0.12699999809E+01 0.  1.
</event>
<event>
 5   0  0.9726935E-05  0.1598903E+04  0.7818609E-02  0.8821222E-01
       -1   -1    0    0    0  501  0.00000000000E+00  0.00000000000E+00  0.74408550029E+03  0.74408550031E+03  0.50400001928E-02 0. -1.
        1   -1    0    0  501    0  0.00000000000E+00  0.00000000000E+00 -0.85893715258E+03  0.85893715260E+03  0.50400001928E-02 0.  1.
    10030    2    1    2    0    0  0.00000000000E+00  0.00000000000E+00 -0.11485165229E+03  0.16030226529E+04  0.15989029751E+04 0.  0.
        2    1    3    3  502    0 -0.36359912045E+03  0.50170708579E+02  0.65461620534E+03  0.75049570065E+03  0.25500000920E-02 0. -1.
       -2    1    3    3    0  502  0.36359912045E+03 -0.50170708579E+02 -0.76946785763E+03  0.85252695226E+03  0.25500000920E-02 0.  1.
</event>
<event>
 5   0  0.1832646E-04  0.1595423E+04  0.7818609E-02  0.8823365E-01
        2   -1    0    0  501    0  0.00000000000E+00  0.00000000000E+00  0.74135818629E+03  0.74135818629E+03  0.25500000920E-02 0.  1.
       -2   -1    0    0    0  501  0.00000000000E+00  0.00000000000E+00 -0.85834852947E+03  0.85834852947E+03  0.25500000920E-02 0. -1.
    10030    2    1    2    0    0  0.00000000000E+00  0.00000000000E+00 -0.11699034318E+03  0.15997067158E+04  0.15954230900E+04 0.  0.
        2    1    3    3  502    0 -0.43447120372E+03  0.53928003543E+03 -0.45548184140E+03  0.82888593384E+03  0.25500000920E-02 0. -1.
       -2    1    3    3    0  502  0.43447120372E+03 -0.53928003543E+03  0.33849149822E+03  0.77082078192E+03  0.25500000920E-02 0.  1.
</event>
<event>
 5   0  0.9726935E-05  0.1591980E+04  0.7818609E-02  0.8825490E-01
       -1   -1    0    0    0  501  0.00000000000E+00  0.00000000000E+00  0.51675758266E+03  0.51675758268E+03  0.50400001928E-02 0.  1.
        1   -1    0    0  501    0  0.00000000000E+00  0.00000000000E+00 -0.12261067236E+04  0.12261067236E+04  0.50400001928E-02 0. -1.
    10030    2    1    2    0    0  0.00000000000E+00  0.00000000000E+00 -0.70934914092E+03  0.17428643063E+04  0.15919798323E+04 0.  0.
        2    1    3    3  502    0  0.25231271550E+03 -0.11218409623E+03 -0.11719927771E+04  0.12040822428E+04  0.25500000920E-02 0. -1.
       -2    1    3    3    0  502 -0.25231271550E+03  0.11218409623E+03  0.46264363616E+03  0.53878206349E+03  0.25500000920E-02 0.  1.
</event>
<event>
 5   0  0.1914170E-04  0.1596635E+04  0.7818609E-02  0.8822618E-01
        2   -1    0    0  501    0  0.00000000000E+00  0.00000000000E+00  0.95690560631E+03  0.95690560632E+03  0.25500000920E-02 0.  1.
       -2   -1    0    0    0  501  0.00000000000E+00  0.00000000000E+00 -0.66601257927E+03  0.66601257927E+03  0.25500000920E-02 0. -1.
    10030    2    1    2    0    0  0.00000000000E+00  0.00000000000E+00  0.29089302704E+03  0.16229181856E+04  0.15966354261E+04 0.  0.
        3    1    3    3  502    0 -0.38662139079E+03  0.67597251743E+03 -0.33220145527E+02  0.77943475186E+03  0.10100000352E+00 0.  1.
       -3    1    3    3    0  502  0.38662139079E+03 -0.67597251743E+03  0.32411317257E+03  0.84348343373E+03  0.10100000352E+00 0. -1.
</event>
<event>
 5   0  0.1835088E-04  0.1603657E+04  0.7818609E-02  0.8818305E-01
       -2   -1    0    0    0  501  0.00000000000E+00  0.00000000000E+00  0.36012514851E+03  0.36012514852E+03  0.25500000920E-02 0.  1.
        2   -1    0    0  501    0  0.00000000000E+00  0.00000000000E+00 -0.17852929837E+04  0.17852929837E+04  0.25500000920E-02 0. -1.
    10030    2    1    2    0    0  0.00000000000E+00  0.00000000000E+00 -0.14251678352E+04  0.21454181322E+04  0.16036569470E+04 0.  0.
        5    1    3    3  502    0 -0.29878358806E+03 -0.46667995672E+02  0.28088986947E+03  0.41275990974E+03  0.46999998093E+01 0.  1.
       -5    1    3    3    0  502  0.29878358806E+03  0.46667995672E+02 -0.17060577047E+04  0.17326582225E+04  0.46999998093E+01 0. -1.
</event>
<event>
 5   0  0.9616567E-05  0.1598739E+04  0.7818609E-02  0.8821323E-01
        1   -1    0    0  501    0  0.00000000000E+00  0.00000000000E+00  0.11378541408E+04  0.11378541408E+04  0.50400001928E-02 0.  1.
       -1   -1    0    0    0  501  0.00000000000E+00  0.00000000000E+00 -0.56157577571E+03  0.56157577573E+03  0.50400001928E-02 0. -1.
    10030    2    1    2    0    0  0.00000000000E+00  0.00000000000E+00  0.57627836508E+03  0.16994299165E+04  0.15987386550E+04 0.  0.
        5    1    3    3  502    0  0.60723223336E+03 -0.12579662852E+03  0.82430092431E+03  0.10315279351E+04  0.46999998093E+01 0.  1.
       -5    1    3    3    0  502 -0.60723223336E+03  0.12579662852E+03 -0.24802255923E+03  0.66790198148E+03  0.46999998093E+01 0. -1.
</event>
<event>
 5   0  0.9939872E-05  0.1599281E+04  0.7818609E-02  0.8820990E-01
       -1   -1    0    0    0  501  0.00000000000E+00  0.00000000000E+00  0.29989373882E+03  0.29989373886E+03  0.50400001928E-02 0.  1.
        1   -1    0    0  501    0  0.00000000000E+00  0.00000000000E+00 -0.21321703355E+04  0.21321703355E+04  0.50400001928E-02 0. -1.
    10030    2    1    2    0    0  0.00000000000E+00  0.00000000000E+00 -0.18322765967E+04  0.24320640744E+04  0.15992805054E+04 0.  0.
        3    1    3    3  502    0  0.11013345072E+03  0.43655863115E+03 -0.19210960093E+04  0.19731504510E+04  0.10100000352E+00 0. -1.
       -3    1    3    3    0  502 -0.11013345072E+03 -0.43655863115E+03  0.88819412604E+02  0.45891362331E+03  0.10100000352E+00 0.  1.
</event>
<event>
 5   0  0.1914170E-04  0.1610589E+04  0.7818609E-02  0.8814069E-01
       -2   -1    0    0    0  501  0.00000000000E+00  0.00000000000E+00  0.38655056302E+03  0.38655056303E+03  0.25500000920E-02 0.  1.
        2   -1    0    0  501    0  0.00000000000E+00  0.00000000000E+00 -0.16776573005E+04  0.16776573005E+04  0.25500000920E-02 0. -1.
    10030    2    1    2    0    0  0.00000000000E+00  0.00000000000E+00 -0.12911067375E+04  0.20642078636E+04  0.16105891768E+04 0.  0.
        3    1    3    3  502    0 -0.10522510754E+03 -0.79660264101E+03 -0.57711682790E+03  0.98929870826E+03  0.10100000352E+00 0.  1.
       -3    1    3    3    0  502  0.10522510754E+03  0.79660264101E+03 -0.71398990959E+03  0.10749091553E+04  0.10100000352E+00 0. -1.
</event>
<event>
 5   0  0.1774934E-04  0.1608683E+04  0.7818609E-02  0.8815232E-01
        2   -1    0    0  501    0  0.00000000000E+00  0.00000000000E+00  0.63358668628E+03  0.63358668628E+03  0.25500000920E-02 0.  1.
       -2   -1    0    0    0  501  0.00000000000E+00  0.00000000000E+00 -0.10211151468E+04  0.10211151468E+04  0.25500000920E-02 0. -1.
    10030    2    1    2    0    0  0.00000000000E+00  0.00000000000E+00 -0.38752846050E+03  0.16547018331E+04  0.16086826439E+04 0.  0.
        1    1    3    3  502    0  0.17340696553E+03  0.66956948114E+02 -0.99871835544E+03  0.10158698549E+04  0.50400001928E-02 0. -1.
       -1    1    3    3    0  502 -0.17340696553E+03 -0.66956948114E+02  0.61118989494E+03  0.63883197815E+03  0.50400001928E-02 0.  1.
</event>
<event>
 5   0  0.1774934E-04  0.1587690E+04  0.7818609E-02  0.8828146E-01
       -2   -1    0    0    0  501  0.00000000000E+00  0.00000000000E+00  0.67831049967E+03  0.67831049967E+03  0.25500000920E-02 0.  1.
        2   -1    0    0  501    0  0.00000000000E+00  0.00000000000E+00 -0.92905844226E+03  0.92905844226E+03  0.25500000920E-02 0. -1.
    10030    2    1    2    0    0  0.00000000000E+00  0.00000000000E+00 -0.25074794259E+03  0.16073689419E+04  0.15876902673E+04 0.  0.
        1    1    3    3  502    0  0.59385290964E+02  0.55006996427E+03  0.45096803266E+03  0.71377569648E+03  0.50400001928E-02 0.  1.
       -1    1    3    3    0  502 -0.59385290964E+02 -0.55006996427E+03 -0.70171597525E+03  0.89359324546E+03  0.50400001928E-02 0. -1.
</event>
<event>
 5   0  0.1832646E-04  0.1598085E+04  0.7818609E-02  0.8821725E-01
       -2   -1    0    0    0  501  0.00000000000E+00  0.00000000000E+00  0.41821645270E+03  0.41821645270E+03  0.25500000920E-02 0. -1.
        2   -1    0    0  501    0  0.00000000000E+00  0.00000000000E+00 -0.15266472046E+04  0.15266472046E+04  0.25500000920E-02 0.  1.
    10030    2    1    2    0    0  0.00000000000E+00  0.00000000000E+00 -0.11084307519E+04  0.19448636573E+04  0.15980850772E+04 0.  0.
        2    1    3    3  502    0  0.73665538290E+03 -0.10948388732E+03 -0.20187212884E+03  0.77162181874E+03  0.25500000920E-02 0. -1.
       -2    1    3    3    0  502 -0.73665538290E+03  0.10948388732E+03 -0.90655862310E+03  0.11732418386E+04  0.25500000920E-02 0.  1.
</event>
<event>
 5   0  0.9673017E-05  0.1599978E+04  0.7818609E-02  0.8820562E-01
       -1   -1    0    0    0  501  0.00000000000E+00  0.00000000000E+00  0.62377099352E+03  0.62377099354E+03  0.50400001928E-02 0.  1.
        1   -1    0    0  501    0  0.00000000000E+00  0.00000000000E+00 -0.10259892183E+04  0.10259892184E+04  0.50400001928E-02 0. -1.
    10030    2    1    2    0    0  0.00000000000E+00  0.00000000000E+00 -0.40221822482E+03  0.16497602119E+04  0.15999778925E+04 0.  0.
        1    1    3    3  502    0  0.30440846620E+03  0.11283638772E+03 -0.95501221768E+03  0.10086847380E+04  0.50400001928E-02 0. -1.
       -1    1    3    3    0  502 -0.30440846620E+03 -0.11283638772E+03  0.55279399286E+03  0.64107547392E+03  0.50400001928E-02 0.  1.
</event>
<event>
 5   0  0.1774934E-04  0.1595801E+04  0.7818609E-02  0.8823131E-01
        2   -1    0    0  501    0  0.00000000000E+00  0.00000000000E+00  0.57291339825E+03  0.57291339825E+03  0.25500000920E-02 0. -1.
       -2   -1    0    0    0  501  0.00000000000E+00  0.00000000000E+00 -0.11112422827E+04  0.11112422828E+04  0.25500000920E-02 0.  1.
    10030    2    1    2    0    0  0.00000000000E+00  0.00000000000E+00 -0.53832888450E+03  0.16841556810E+04  0.15958014820E+04 0.  0.
        1    1    3    3  502    0 -0.68173219881E+03  0.39196323835E+03 -0.41174296008E+03  0.88765209193E+03  0.50400001928E-02 0.  1.
       -1    1    3    3    0  502  0.68173219881E+03 -0.39196323835E+03 -0.12658592442E+03  0.79650358907E+03  0.50400001928E-02 0. -1.
</event>
<event>
 5   0  0.1858913E-04  0.1597326E+04  0.7818609E-02  0.8822192E-01
       -2   -1    0    0    0  501  0.00000000000E+00  0.00000000000E+00  0.85949582657E+03  0.85949582658E+03  0.25500000920E-02 0. -1.
        2   -1    0    0  501    0  0.00000000000E+00  0.00000000000E+00 -0.74213590894E+03  0.74213590894E+03  0.25500000920E-02 0.  1.
    10030    2    1    2    0    0  0.00000000000E+00  0.00000000000E+00  0.11735991764E+03  0.16016317355E+04  0.15973261614E+04 0.  0.
        4    1    3    3  502    0  0.23144231462E+03  0.64274746227E+03 -0.35616372533E+03  0.77041810557E+03  0.12699999809E+01 0.  1.
       -4    1    3    3    0  502 -0.23144231462E+03 -0.64274746227E+03  0.47352364296E+03  0.83121362994E+03  0.12699999809E+01 0. -1.
</event>
<event>
 5   0  0.1914170E-04  0.1599660E+04  0.7818609E-02  0.8820757E-01
       -2   -1    0    0    0  501  0.00000000000E+00  0.00000000000E+00  0.26048811708E+03  0.26048811709E+03  0.25500000920E-02 0.  1.
        2   -1    0    0  501    0  0.00000000000E+00  0.00000000000E+00 -0.24558827808E+04  0.24558827808E+04  0.25500000920E-02 0. -1.
    10030    2    1    2    0    0  0.00000000000E+00  0.00000000000E+00 -0.21953946637E+04  0.27163708979E+04  0.15996603157E+04 0.  0.
        3    1    3    3  502    0 -0.33942105849E+03  0.58903673883E+03 -0.38216278173E+03  0.77988418152E+03  0.10100000352E+00 0.  1.
       -3    1    3    3    0  502  0.33942105849E+03 -0.58903673883E+03 -0.18132318820E+04  0.19364867164E+04  0.10100000352E+00 0. -1.
</event>
<event>
 5   0  0.9616567E-05  0.1601717E+04  0.7818609E-02  0.8819494E-01
       -1   -1    0    0    0  501  0.00000000000E+00  0.00000000000E+00  0.11031541667E+04  0.11031541667E+04  0.50400001928E-02 0.  1.
        1   -1    0    0  501    0  0.00000000000E+00  0.00000000000E+00 -0.58140051084E+03  0.58140051087E+03  0.50400001928E-02 0. -1.
    10030    2    1    2    0    0  0.00000000000E+00  0.00000000000E+00  0.52175365583E+03  0.16845546775E+04  0.16017170737E+04 0.  0.
        5    1    3    3  502    0  0.55708101911E+03  0.48127993979E+03 -0.70677440558E+02  0.73958571707E+03  0.46999998093E+01 0. -1.
       -5    1    3    3    0  502 -0.55708101911E+03 -0.48127993979E+03  0.59243109638E+03  0.94496896047E+03  0.46999998093E+01 0.  1.
</event>
<event>
 5   0  0.9726935E-05  0.1573182E+04  0.7818609E-02  0.8837195E-01
       -1   -1    0    0    0  501  0.00000000000E+00  0.00000000000E+00  0.10690354836E+04  0.10690354836E+04  0.50400001928E-02 0. -1.
        1   -1    0    0  501    0  0.00000000000E+00  0.00000000000E+00 -0.57876961344E+03  0.57876961346E+03  0.50400001928E-02 0.  1.
    10030    2    1    2    0    0  0.00000000000E+00  0.00000000000E+00  0.49026587018E+03  0.16478050971E+04  0.15731818123E+04 0.  0.
        2    1    3    3  502    0  0.44898937178E+03 -0.64194833688E+03  0.31946486519E+03  0.84601827598E+03  0.25500000920E-02 0.  1.
       -2    1    3    3    0  502 -0.44898937178E+03  0.64194833688E+03  0.17080100498E+03  0.80178682111E+03  0.25500000920E-02 0. -1.
</event>
<event>
 5   0  0.1774934E-04  0.1601448E+04  0.7818609E-02  0.8819659E-01
       -2   -1    0    0    0  501  0.00000000000E+00  0.00000000000E+00  0.51189469869E+03  0.51189469870E+03  0.25500000920E-02 0. -1.
        2   -1    0    0  501    0  0.00000000000E+00  0.00000000000E+00 -0.12525212257E+04  0.12525212257E+04  0.25500000920E-02 0.  1.
    10030    2    1    2    0    0  0.00000000000E+00  0.00000000000E+00 -0.74062652696E+03  0.17644159244E+04  0.16014480640E+04 0.  0.
        1    1    3    3  502    0 -0.75798274457E+02  0.48518782017E+03  0.32650827651E+03  0.58971200930E+03  0.50400001928E-02 0. -1.
       -1    1    3    3    0  502  0.75798274457E+02 -0.48518782017E+03 -0.10671348035E+04  0.11747039151E+04  0.50400001928E-02 0.  1.
</event>
<event>
 5   0  0.1858913E-04  0.1604383E+04  0.7818609E-02  0.8817860E-01
        2   -1    0    0  501    0  0.00000000000E+00  0.00000000000E+00  0.21476114612E+04  0.21476114613E+04  0.25500000920E-02 0. -1.
       -2   -1    0    0    0  501  0.00000000000E+00  0.00000000000E+00 -0.29964037445E+03  0.29964037446E+03  0.25500000920E-02 0.  1.
    10030    2    1    2    0    0  0.00000000000E+00  0.00000000000E+00  0.18479710868E+04  0.24472518357E+04  0.16043828750E+04 0.  0.
        4    1    3    3  502    0  0.14873360682E+03 -0.19087135771E+03  0.20906130680E+04  0.21045707814E+04  0.12699999809E+01 0. -1.
       -4    1    3    3    0  502 -0.14873360682E+03  0.19087135771E+03 -0.24264198123E+03  0.34268105426E+03  0.12699999809E+01 0.  1.
</event>
<event>
 5   0  0.1914170E-04  0.1596472E+04  0.7818609E-02  0.8822718E-01
       -2   -1    0    0    0  501  0.00000000000E+00  0.00000000000E+00  0.43089404000E+03  0.43089404001E+03  0.25500000920E-02 0. -1.
        2   -1    0    0  501    0  0.00000000000E+00  0.00000000000E+00 -0.14787409751E+04  0.14787409751E+04  0.25500000920E-02 0.  1.
    10030    2    1    2    0    0  0.00000000000E+00  0.00000000000E+00 -0.10478469351E+04  0.19096350151E+04  0.15964719514E+04 0.  0.
        3    1    3    3  502    0  0.15945656068E+03 -0.33958392270E+03  0.31886999807E+03  0.49236340356E+03  0.10100000352E+00 0. -1.
       -3    1    3    3    0  502 -0.15945656068E+03  0.33958392270E+03 -0.13667169331E+04  0.14172716115E+04  0.10100000352E+00 0.  1.
</event>
<event>
 5   0  0.9673017E-05  0.1600760E+04  0.7818609E-02  0.8820081E-01
       -1   -1    0    0    0  501  0.00000000000E+00  0.00000000000E+00  0.79963554026E+03  0.79963554027E+03  0.50400001928E-02 0.  1.
        1   -1    0    0  501    0  0.00000000000E+00  0.00000000000E+00 -0.80112483839E+03  0.80112483840E+03  0.50400001928E-02 0. -1.
    10030    2    1    2    0    0  0.00000000000E+00  0.00000000000E+00 -0.14892981316E+01  0.16007603787E+04  0.16007596859E+04 0.  0.
        1    1    3    3  502    0  0.49253274174E+03  0.98101733596E+02  0.62246942116E+03  0.79980037017E+03  0.50400001928E-02 0.  1.
       -1    1    3    3    0  502 -0.49253274174E+03 -0.98101733596E+02 -0.62395871929E+03  0.80096000850E+03  0.50400001928E-02 0. -1.
</event>
<event>
 5   0  0.1832646E-04  0.1607148E+04  0.7818609E-02  0.8816169E-01
        2   -1    0    0  501    0  0.00000000000E+00  0.00000000000E+00  0.21021670124E+04  0.21021670124E+04  0.25500000920E-02 0. -1.
       -2   -1    0    0    0  501  0.00000000000E+00  0.00000000000E+00 -0.30717411865E+03  0.30717411866E+03  0.25500000920E-02 0.  1.
    10030    2    1    2    0    0  0.00000000000E+00  0.00000000000E+00  0.17949928938E+04  0.24093411311E+04  0.16071481566E+04 0.  0.
        2    1    3    3  502    0 -0.67123569410E+03  0.43963846853E+02  0.15565066764E+04  0.16956424182E+04  0.25500000920E-02 0. -1.
       -2    1    3    3    0  502  0.67123569410E+03 -0.43963846853E+02  0.23848621741E+03  0.71369871288E+03  0.25500000920E-02 0.  1.
</event>
<event>
 5   0  0.9673017E-05  0.1603068E+04  0.7818609E-02  0.8818665E-01
        1   -1    0    0  501    0  0.00000000000E+00  0.00000000000E+00  0.15700737224E+04  0.15700737225E+04  0.50400001928E-02 0. -1.
       -1   -1    0    0    0  501  0.00000000000E+00  0.00000000000E+00 -0.40918892087E+03  0.40918892090E+03  0.50400001928E-02 0.  1.
    10030    2    1    2    0    0  0.00000000000E+00  0.00000000000E+00  0.11608848016E+04  0.19792626434E+04  0.16030680238E+04 0.  0.
        1    1    3    3  502    0  0.33828938296E+03  0.67731597322E+03  0.25550990025E+03  0.79905065131E+03  0.50400001928E-02 0.  1.
       -1    1    3    3    0  502 -0.33828938296E+03 -0.67731597322E+03  0.90537490132E+03  0.11802119920E+04  0.50400001928E-02 0. -1.
</event>
<event>
 5   0  0.9726935E-05  0.1611105E+04  0.7818609E-02  0.8813755E-01
       -1   -1    0    0    0  501  0.00000000000E+00  0.00000000000E+00  0.61530269106E+03  0.61530269108E+03  0.50400001928E-02 0.  1.
        1   -1    0    0  501    0  0.00000000000E+00  0.00000000000E+00 -0.10546266384E+04  0.10546266384E+04  0.50400001928E-02 0. -1.
    10030    2    1    2    0    0  0.00000000000E+00  0.00000000000E+00 -0.43932394738E+03  0.16699293295E+04  0.16111047250E+04 0.  0.
        2    1    3    3  502    0  0.68406648573E+03  0.42285684291E+03 -0.26783182212E+03  0.84763715790E+03  0.25500000920E-02 0. -1.
       -2    1    3    3    0  502 -0.68406648573E+03 -0.42285684291E+03 -0.17149212526E+03  0.82229217163E+03  0.25500000920E-02 0.  1.
</event>
<event>
 5   0  0.1835088E-04  0.1601599E+04  0.7818609E-02  0.8819566E-01
       -2   -1    0    0    0  501  0.00000000000E+00  0.00000000000E+00  0.32391005269E+03  0.32391005270E+03  0.25500000920E-02 0. -1.
        2   -1    0    0  501    0  0.00000000000E+00  0.00000000000E+00 -0.19798092593E+04  0.19798092593E+04  0.25500000920E-02 0.  1.
    10030    2    1    2    0    0  0.00000000000E+00  0.00000000000E+00 -0.16558992066E+04  0.23037193120E+04  0.16015993526E+04 0.  0.
        5    1    3    3  502    0  0.31011215450E+03  0.63812824065E+03 -0.29384339571E+03  0.76794741427E+03  0.46999998093E+01 0. -1.
       -5    1    3    3    0  502 -0.31011215450E+03 -0.63812824065E+03 -0.13620558109E+04  0.15357718978E+04  0.46999998093E+01 0.  1.
</event>
<event>
 5   0  0.9673017E-05  0.1586723E+04  0.7818609E-02  0.8828746E-01
        1   -1    0    0  501    0  0.00000000000E+00  0.00000000000E+00  0.61181624776E+03  0.61181624778E+03  0.50400001928E-02 0. -1.
       -1   -1    0    0    0  501  0.00000000000E+00  0.00000000000E+00 -0.10287772557E+04  0.10287772557E+04  0.50400001928E-02 0.  1.
    10030    2    1    2    0    0  0.00000000000E+00  0.00000000000E+00 -0.41696100796E+03  0.16405935035E+04  0.15867232152E+04 0.  0.
        1    1    3    3  502    0 -0.51078869571E+02 -0.26641905403E+03 -0.97933525306E+03  0.10162114451E+04  0.50400001928E-02 0.  1.
       -1    1    3    3    0  502  0.51078869571E+02  0.26641905403E+03  0.56237424510E+03  0.62438205840E+03  0.50400001928E-02 0. -1.
</event>
<event>
 5   0  0.1858913E-04  0.1602556E+04  0.7818609E-02  0.8818980E-01
        2   -1    0    0  501    0  0.00000000000E+00  0.00000000000E+00  0.14623139769E+04  0.14623139769E+04  0.25500000920E-02 0.  1.
       -2   -1    0    0    0  501  0.00000000000E+00  0.00000000000E+00 -0.43906175622E+03  0.43906175622E+03  0.25500000920E-02 0. -1.
    10030    2    1    2    0    0  0.00000000000E+00  0.00000000000E+00  0.10232522207E+04  0.19013757331E+04  0.16025556375E+04 0.  0.
        4    1    3    3  502    0  0.27661404520E+03  0.16367352207E+03 -0.35922620988E+03  0.48202638371E+03  0.12699999809E+01 0. -1.
       -4    1    3    3    0  502 -0.27661404520E+03 -0.16367352207E+03  0.13824784306E+04  0.14193493494E+04  0.12699999809E+01 0.  1.
</event>
<event>
 5   0  0.9616567E-05  0.1611147E+04  0.7818609E-02  0.8813729E-01
        1   -1    0    0  501    0  0.00000000000E+00  0.00000000000E+00  0.69981718776E+03  0.69981718778E+03  0.50400001928E-02 0. -1.
       -1   -1    0    0    0  501  0.00000000000E+00  0.00000000000E+00 -0.92731122451E+03  0.92731122452E+03  0.50400001928E-02 0.  1.
    10030    2    1    2    0    0  0.00000000000E+00  0.00000000000E+00 -0.22749403675E+03  0.16271284123E+04  0.16111465897E+04 0.  0.
        5    1    3    3  502    0 -0.72199745400E+03 -0.27176796465E+03 -0.34797018403E+03  0.84631169741E+03  0.46999998093E+01 0.  1.
       -5    1    3    3    0  502  0.72199745400E+03  0.27176796465E+03  0.12047614728E+03  0.78081671490E+03  0.46999998093E+01 0. -1.
</event>
<event>
 5   0  0.1914170E-04  0.1598206E+04  0.7818609E-02  0.8821651E-01
        2   -1    0    0  501    0  0.00000000000E+00  0.00000000000E+00  0.11558066537E+04  0.11558066537E+04  0.25500000920E-02 0. -1.
       -2   -1    0    0    0  501  0.00000000000E+00  0.00000000000E+00 -0.55248492602E+03  0.55248492603E+03  0.25500000920E-02 0.  1.
    10030    2    1    2    0    0  0.00000000000E+00  0.00000000000E+00  0.60332172764E+03  0.17082915797E+04  0.15982061864E+04 0.  0.
        3    1    3    3  502    0 -0.37120393228E+03 -0.36047148477E+03  0.95256762944E+03  0.10840282051E+04  0.10100000352E+00 0. -1.
       -3    1    3    3    0  502  0.37120393228E+03  0.36047148477E+03 -0.34924590181E+03  0.62426337455E+03  0.10100000352E+00 0.  1.
</event>
<event>
 5   0  0.1914170E-04  0.1601326E+04  0.7818609E-02  0.8819734E-01
        2   -1    0    0  501    0  0.00000000000E+00  0.00000000000E+00  0.39737321012E+03  0.39737321013E+03  0.25500000920E-02 0. -1.
       -2   -1    0    0    0  501  0.00000000000E+00  0.00000000000E+00 -0.16132464369E+04  0.16132464369E+04  0.25500000920E-02 0.  1.
    10030    2    1    2    0    0  0.00000000000E+00  0.00000000000E+00 -0.12158732267E+04  0.20106196470E+04  0.16013255950E+04 0.  0.
        3    1    3    3  502    0  0.63476149027E+03 -0.10487441549E+03 -0.12063443435E+04  0.13671823133E+04  0.10100000352E+00 0.  1.
       -3    1    3    3    0  502 -0.63476149027E+03  0.10487441549E+03 -0.95288832515E+01  0.64343733368E+03  0.10100000352E+00 0. -1.
</event>
<event>
 5   0  0.9939872E-05  0.1592726E+04  0.7818609E-02  0.8825029E-01
       -1   -1    0    0    0  501  0.00000000000E+00  0.00000000000E+00  0.10033996113E+04  0.10033996113E+04  0.50400001928E-02 0. -1.
        1   -1    0    0  501    0  0.00000000000E+00  0.00000000000E+00 -0.63204526156E+03  0.63204526158E+03  0.50400001928E-02 0.  1.
    10030    2    1    2    0    0  0.00000000000E+00  0.00000000000E+00  0.37135434971E+03  0.16354448729E+04  0.15927259272E+04 0.  0.
        3    1    3    3  502    0 -0.78451865785E+02  0.54011427537E+03 -0.40980465894E+03  0.68250860390E+03  0.10100000352E+00 0.  1.
       -3    1    3    3    0  502  0.78451865785E+02 -0.54011427537E+03  0.78115900865E+03  0.95293626896E+03  0.10100000352E+00 0. -1.
</event>
<event>
 5   0  0.1832646E-04  0.1597925E+04  0.7818609E-02  0.8821824E-01
        2   -1    0    0  501    0  0.00000000000E+00  0.00000000000E+00  0.84763929170E+03  0.84763929171E+03  0.25500000920E-02 0. -1.
       -2   -1    0    0    0  501  0.00000000000E+00  0.00000000000E+00 -0.75308107069E+03  0.75308107070E+03  0.25500000920E-02 0.  1.
    10030    2    1    2    0    0  0.00000000000E+00  0.00000000000E+00  0.94558221012E+02  0.16007203624E+04  0.15979250362E+04 0.  0.
        2    1    3    3  502    0 -0.10821533731E+03  0.25362720177E+03  0.79846007331E+03  0.84473416255E+03  0.25500000920E-02 0. -1.
       -2    1    3    3    0  502  0.10821533731E+03 -0.25362720177E+03 -0.70390185229E+03  0.75598619986E+03  0.25500000920E-02 0.  1.
</event>
<event>
 5   0  0.1858913E-04  0.1604962E+04  0.7818609E-02  0.8817505E-01
       -2   -1    0    0    0  501  0.00000000000E+00  0.00000000000E+00  0.53625802251E+03  0.53625802251E+03  0.25500000920E-02 0.  1.
        2   -1    0    0  501    0  0.00000000000E+00  0.00000000000E+00 -0.12008691263E+04  0.12008691263E+04  0.25500000920E-02 0. -1.
    10030    2    1    2    0    0  0.00000000000E+00  0.00000000000E+00 -0.66461110381E+03  0.17371271488E+04  0.16049619347E+04 0.  0.
        4    1    3    3  502    0 -0.33532403435E+03 -0.37352921401E+03 -0.10099692634E+04  0.11278323491E+04  0.12699999809E+01 0. -1.
       -4    1    3    3    0  502  0.33532403435E+03  0.37352921401E+03  0.34535815957E+03  0.60929479976E+03  0.12699999809E+01 0.  1.
</event>
<event>
 5   0  0.1858913E-04  0.1557869E+04  0.7818609E-02  0.8846857E-01
        2   -1    0    0  501    0  0.00000000000E+00  0.00000000000E+00  0.45447762389E+03  0.45447762390E+03  0.25500000920E-02 0.  1.
       -2   -1    0    0    0  501  0.00000000000E+00  0.00000000000E+00 -0.13350246831E+04  0.13350246831E+04  0.25500000920E-02 0. -1.
    10030    2    1    2    0    0  0.00000000000E+00  0.00000000000E+00 -0.88054705917E+03  0.17895023070E+04  0.15578688594E+04 0.  0.
        4    1    3    3  502    0 -0.51769116520E+03  0.16248931293E+03 -0.10822342193E+04  0.12106359642E+04  0.12699999809E+01 0. -1.
       -4    1    3    3    0  502  0.51769116520E+03 -0.16248931293E+03  0.20168716016E+03  0.57886634279E+03  0.12699999809E+01 0.  1.
</event>
<event>
 5   0  0.9432152E-05  0.1603501E+04  0.7818609E-02  0.8818400E-01
        1   -1    0    0  501    0  0.00000000000E+00  0.00000000000E+00  0.14779722469E+04  0.14779722469E+04  0.50400001928E-02 0.  1.
       -1   -1    0    0    0  501  0.00000000000E+00  0.00000000000E+00 -0.43492266538E+03  0.43492266541E+03  0.50400001928E-02 0. -1.
    10030    2    1    2    0    0  0.00000000000E+00  0.00000000000E+00  0.10430495815E+04  0.19128949123E+04  0.16035007066E+04 0.  0.
        4    1    3    3  502    0  0.45445196708E+03 -0.12988663540E+03  0.12940963210E+04  0.13777097044E+04  0.12699999809E+01 0.  1.
       -4    1    3    3    0  502 -0.45445196708E+03  0.12988663540E+03 -0.25104673956E+03  0.53518520792E+03  0.12699999809E+01 0. -1.
</event>
<event>
 5   0  0.9939872E-05  0.1600716E+04  0.7818609E-02  0.8820108E-01
        1   -1    0    0  501    0  0.00000000000E+00  0.00000000000E+00  0.11892142843E+04  0.11892142843E+04  0.50400001928E-02 0.  1.
       -1   -1    0    0    0  501  0.00000000000E+00  0.00000000000E+00 -0.53865251368E+03  0.53865251370E+03  0.50400001928E-02 0. -1.
    10030    2    1    2    0    0  0.00000000000E+00  0.00000000000E+00  0.65056177061E+03  0.17278667980E+04  0.16007164191E+04 0.  0.
        3    1    3    3  502    0 -0.39279126347E+03 -0.66381415250E+03  0.94678313475E+02  0.77710887201E+03  0.10100000352E+00 0. -1.
       -3    1    3    3    0  502  0.39279126347E+03  0.66381415250E+03  0.55588345713E+03  0.95075792599E+03  0.10100000352E+00 0.  1.
</event>
<event>
 5   0  0.9673017E-05  0.1602187E+04  0.7818609E-02  0.8819206E-01
       -1   -1    0    0    0  501  0.00000000000E+00  0.00000000000E+00  0.88308869539E+03  0.88308869540E+03  0.50400001928E-02 0.  1.
        1   -1    0    0  501    0  0.00000000000E+00  0.00000000000E+00 -0.72671147966E+03  0.72671147967E+03  0.50400001928E-02 0. -1.
    10030    2    1    2    0    0  0.00000000000E+00  0.00000000000E+00  0.15637721573E+03  0.16098001751E+04  0.16021868711E+04 0.  0.
        1    1    3    3  502    0  0.61104322750E+03  0.33883806470E+03  0.47192523629E+03  0.84314796366E+03  0.50400001928E-02 0.  1.
       -1    1    3    3    0  502 -0.61104322750E+03 -0.33883806470E+03 -0.31554802056E+03  0.76665221141E+03  0.50400001928E-02 0. -1.
</event>
<event>
 5   0  0.9432152E-05  0.1599701E+04  0.7818609E-02  0.8820732E-01
        1   -1    0    0  501    0  0.00000000000E+00  0.00000000000E+00  0.30203210848E+03  0.30203210853E+03  0.50400001928E-02 0.  1.
       -1   -1    0    0    0  501  0.00000000000E+00  0.00000000000E+00 -0.21181872873E+04  0.21181872873E+04  0.50400001928E-02 0. -1.
    10030    2    1    2    0    0  0.00000000000E+00  0.00000000000E+00 -0.18161551788E+04  0.24202193958E+04  0.15997006877E+04 0.  0.
        4    1    3    3  502    0 -0.36457575344E+02 -0.78942674111E+03 -0.10948189189E+04  0.13502421310E+04  0.12699999809E+01 0.  1.
       -4    1    3    3    0  502  0.36457575344E+02  0.78942674111E+03 -0.72133625992E+03  0.10699772648E+04  0.12699999809E+01 0. -1.
</event>
<event>
 5   0  0.9673017E-05  0.1590805E+04  0.7818609E-02  0.8826217E-01
        1   -1    0    0  501    0  0.00000000000E+00  0.00000000000E+00  0.86696211585E+03  0.86696211587E+03  0.50400001928E-02 0.  1.
       -1   -1    0    0    0  501  0.00000000000E+00  0.00000000000E+00 -0.72974914218E+03  0.72974914220E+03  0.50400001928E-02 0. -1.
    10030    2    1    2    0    0  0.00000000000E+00  0.00000000000E+00  0.13721297367E+03  0.15967112581E+04  0.15908046522E+04 0.  0.
        1    1    3    3  502    0 -0.11482259429E+03  0.77517380508E+03  0.20544390964E+03  0.81011471797E+03  0.50400001928E-02 0.  1.
       -1    1    3    3    0  502  0.11482259429E+03 -0.77517380508E+03 -0.68230935969E+02  0.78659654009E+03  0.50400001928E-02 0. -1.
</event>
<event>
 5   0  0.1832646E-04  0.1610660E+04  0.7818609E-02  0.8814026E-01
       -2   -1    0    0    0  501  0.00000000000E+00  0.00000000000E+00  0.61867231858E+03  0.61867231859E+03  0.25500000920E-02 0.  1.
        2   -1    0    0  501    0  0.00000000000E+00  0.00000000000E+00 -0.10483030090E+04  0.10483030090E+04  0.25500000920E-02 0. -1.
    10030    2    1    2    0    0  0.00000000000E+00  0.00000000000E+00 -0.42963069044E+03  0.16669753276E+04  0.16106595583E+04 0.  0.
        2    1    3    3  502    0  0.57239372660E+03  0.48708801386E+03 -0.51418091187E+03  0.91064335589E+03  0.25500000920E-02 0.  1.
       -2    1    3    3    0  502 -0.57239372660E+03 -0.48708801386E+03  0.84550221434E+02  0.75633197172E+03  0.25500000920E-02 0. -1.
</event>
<event>
 5   0  0.9432152E-05  0.1597163E+04  0.7818609E-02  0.8822293E-01
       -1   -1    0    0    0  501  0.00000000000E+00  0.00000000000E+00  0.62058580748E+03  0.62058580750E+03  0.50400001928E-02 0.  1.
        1   -1    0    0  501    0  0.00000000000E+00  0.00000000000E+00 -0.10276298294E+04  0.10276298295E+04  0.50400001928E-02 0. -1.
    10030    2    1    2    0    0  0.00000000000E+00  0.00000000000E+00 -0.40704402196E+03  0.16482156370E+04  0.15971630944E+04 0.  0.
        4    1    3    3  502    0  0.39112149128E+03 -0.59187090686E+03  0.17486390648E+03  0.73066147430E+03  0.12699999809E+01 0.  1.
       -4    1    3    3    0  502 -0.39112149128E+03  0.59187090686E+03 -0.58190792844E+03  0.91755416266E+03  0.12699999809E+01 0. -1.
</event>
<event>
 5   0  0.1832646E-04  0.1601848E+04  0.7818609E-02  0.8819413E-01
        2   -1    0    0  501    0  0.00000000000E+00  0.00000000000E+00  0.16229060425E+04  0.16229060425E+04  0.25500000920E-02 0.  1.
       -2   -1    0    0    0  501  0.00000000000E+00  0.00000000000E+00 -0.39526598154E+03  0.39526598155E+03  0.25500000920E-02 0. -1.
    10030    2    1    2    0    0  0.00000000000E+00  0.00000000000E+00  0.12276400610E+04  0.20181720240E+04  0.16018483697E+04 0.  0.
        2    1    3    3  502    0  0.33417318633E+03 -0.37461155181E+03 -0.17245778585E+03  0.53079866344E+03  0.25500000920E-02 0. -1.
       -2    1    3    3    0  502 -0.33417318633E+03  0.37461155181E+03  0.14000978468E+04  0.14873733606E+04  0.25500000920E-02 0.  1.
</event>
<event>
 5   0  0.9673017E-05  0.1607122E+04  0.7818609E-02  0.8816185E-01
       -1   -1    0    0    0  501  0.00000000000E+00  0.00000000000E+00  0.10026661838E+04  0.10026661839E+04  0.50400001928E-02 0.  1.
        1   -1    0    0  501    0  0.00000000000E+00  0.00000000000E+00 -0.64399287989E+03  0.64399287991E+03  0.50400001928E-02 0. -1.
    10030    2    1    2    0    0  0.00000000000E+00  0.00000000000E+00  0.35867330394E+03  0.16466590638E+04  0.16071215055E+04 0.  0.
        1    1    3    3  502    0  0.60284597285E+03 -0.48986157169E+03 -0.31448194590E+02  0.77741662921E+03  0.50400001928E-02 0. -1.
       -1    1    3    3    0  502 -0.60284597285E+03  0.48986157169E+03  0.39012149853E+03  0.86924243456E+03  0.50400001928E-02 0.  1.
</event>
<event>
 5   0  0.9939872E-05  0.1597560E+04  0.7818609E-02  0.8822048E-01
       -1   -1    0    0    0  501  0.00000000000E+00  0.00000000000E+00  0.57777278956E+03  0.57777278958E+03  0.50400001928E-02 0.  1.
        1   -1    0    0  501    0  0.00000000000E+00  0.00000000000E+00 -0.11043258359E+04  0.11043258359E+04  0.50400001928E-02 0. -1.
    10030    2    1    2    0    0  0.00000000000E+00  0.00000000000E+00 -0.52655304632E+03  0.16820986255E+04  0.15975599129E+04 0.  0.
        3    1    3    3  502    0  0.50236933672E+02 -0.49774178338E+03  0.39239499611E+03  0.63580222994E+03  0.10100000352E+00 0.  1.
       -3    1    3    3    0  502 -0.50236933672E+02  0.49774178338E+03 -0.91894804244E+03  0.10462963955E+04  0.10100000352E+00 0. -1.
</event>
<event>
 5   0  0.1832646E-04  0.1600195E+04  0.7818609E-02  0.8820428E-01
        2   -1    0    0  501    0  0.00000000000E+00  0.00000000000E+00  0.18787362997E+04  0.18787362997E+04  0.25500000920E-02 0.  1.
       -2   -1    0    0    0  501  0.00000000000E+00  0.00000000000E+00 -0.34073741895E+03  0.34073741896E+03  0.25500000920E-02 0. -1.
    10030    2    1    2    0    0  0.00000000000E+00  0.00000000000E+00  0.15379988807E+04  0.22194737186E+04  0.16001946852E+04 0.  0.
        2    1    3    3  502    0 -0.78035697382E+02  0.67736666065E+03  0.13496228506E+04  0.15120836623E+04  0.25500000920E-02 0. -1.
       -2    1    3    3    0  502  0.78035697382E+02 -0.67736666065E+03  0.18837603014E+03  0.70739005631E+03  0.25500000920E-02 0.  1.
</event>
<event>
 5   0  0.1774934E-04  0.1602594E+04  0.7818609E-02  0.8818956E-01
       -2   -1    0    0    0  501  0.00000000000E+00  0.00000000000E+00  0.51811192429E+03  0.51811192429E+03  0.25500000920E-02 0. -1.
        2   -1    0    0  501    0  0.00000000000E+00  0.00000000000E+00 -0.12392631531E+04  0.12392631531E+04  0.25500000920E-02 0.  1.
    10030    2    1    2    0    0  0.00000000000E+00  0.00000000000E+00 -0.72115122885E+03  0.17573750774E+04  0.16025941682E+04 0.  0.
        1    1    3    3  502    0  0.58340594490E+03 -0.50003075473E+03 -0.11127808449E+03  0.77638654312E+03  0.50400001928E-02 0.  1.
       -1    1    3    3    0  502 -0.58340594490E+03  0.50003075473E+03 -0.60987314436E+03  0.98098853432E+03  0.50400001928E-02 0. -1.
</event>
<event>
 5   0  0.1835088E-04  0.1612992E+04  0.7818609E-02  0.8812606E-01
        2   -1    0    0  501    0  0.00000000000E+00  0.00000000000E+00  0.18151436048E+04  0.18151436048E+04  0.25500000920E-02 0.  1.
       -2   -1    0    0    0  501  0.00000000000E+00  0.00000000000E+00 -0.35833849604E+03  0.35833849605E+03  0.25500000920E-02 0. -1.
    10030    2    1    2    0    0  0.00000000000E+00  0.00000000000E+00  0.14568051088E+04  0.21734821009E+04  0.16129920390E+04 0.  0.
        5    1    3    3  502    0  0.76147786998E+03 -0.15823569661E+03  0.44089005745E+03  0.89403199882E+03  0.46999998093E+01 0. -1.
       -5    1    3    3    0  502 -0.76147786998E+03  0.15823569661E+03  0.10159150514E+04  0.12794501021E+04  0.46999998093E+01 0.  1.
</event>
<event>
 5   0  0.9432152E-05  0.1603917E+04  0.7818609E-02  0.8818145E-01
        1   -1    0    0  501    0  0.00000000000E+00  0.00000000000E+00  0.77887754696E+03  0.77887754698E+03  0.50400001928E-02 0. -1.
       -1   -1    0    0    0  501  0.00000000000E+00  0.00000000000E+00 -0.82572371057E+03  0.82572371059E+03  0.50400001928E-02 0.  1.
    10030    2    1    2    0    0  0.00000000000E+00  0.00000000000E+00 -0.46846163614E+02  0.16046012576E+04  0.16039172774E+04 0.  0.
        4    1    3    3  502    0 -0.48302592473E+03  0.83910472176E+02 -0.65834404852E+03  0.82083707910E+03  0.12699999809E+01 0.  1.
       -4    1    3    3    0  502  0.48302592473E+03 -0.83910472176E+02  0.61149788491E+03  0.78376417847E+03  0.12699999809E+01 0. -1.
</event>
<event>
 5   0  0.9673017E-05  0.1595793E+04  0.7818609E-02  0.8823137E-01
        1   -1    0    0  501    0  0.00000000000E+00  0.00000000000E+00  0.15642228634E+04  0.15642228634E+04  0.50400001928E-02 0. -1.
       -1   -1    0    0    0  501  0.00000000000E+00  0.00000000000E+00 -0.40699984080E+03  0.40699984083E+03  0.50400001928E-02 0.  1.
    10030    2    1    2    0    0  0.00000000000E+00  0.00000000000E+00  0.11572230226E+04  0.19712227043E+04  0.15957925384E+04 0.  0.
        1    1    3    3  502    0  0.29849868327E+03 -0.73954657531E+03  0.54815645465E+03  0.96773245258E+03  0.50400001928E-02 0.  1.
       -1    1    3    3    0  502 -0.29849868327E+03  0.73954657531E+03  0.60906656796E+03  0.10034902517E+04  0.50400001928E-02 0. -1.
</event>
<event>
 5   0  0.9939872E-05  0.1594539E+04  0.7818609E-02  0.8823910E-01
       -1   -1    0    0    0  501  0.00000000000E+00  0.00000000000E+00  0.34176620556E+03  0.34176620559E+03  0.50400001928E-02 0. -1.
        1   -1    0    0  501    0  0.00000000000E+00  0.00000000000E+00 -0.18598644782E+04  0.18598644782E+04  0.50400001928E-02 0.  1.
    10030    2    1    2    0    0  0.00000000000E+00  0.00000000000E+00 -0.15180982726E+04  0.22016306838E+04  0.15945392132E+04 0.  0.
        3    1    3    3  502    0  0.42619787117E+03 -0.24496670372E+03 -0.16257104022E+04  0.16984073815E+04  0.10100000352E+00 0.  1.
       -3    1    3    3    0  502 -0.42619787117E+03  0.24496670372E+03  0.10761212963E+03  0.50322330229E+03  0.10100000352E+00 0. -1.
</event>
<event>
 5   0  0.1914170E-04  0.1599529E+04  0.7818609E-02  0.8820838E-01
        2   -1    0    0  501    0  0.00000000000E+00  0.00000000000E+00  0.11776299762E+04  0.11776299762E+04  0.25500000920E-02 0. -1.
       -2   -1    0    0    0  501  0.00000000000E+00  0.00000000000E+00 -0.54314429533E+03  0.54314429533E+03  0.25500000920E-02 0.  1.
    10030    2    1    2    0    0  0.00000000000E+00  0.00000000000E+00  0.63448568091E+03  0.17207742716E+04  0.15995286851E+04 0.  0.
        3    1    3    3  502    0  0.24965479835E+03 -0.54623548606E+03  0.88540651762E+03  0.10698810383E+04  0.10100000352E+00 0. -1.
       -3    1    3    3    0  502 -0.24965479835E+03  0.54623548606E+03 -0.25092083671E+03  0.65089323323E+03  0.10100000352E+00 0.  1.
</event>
<event>
 5   0  0.1832646E-04  0.1597912E+04  0.7818609E-02  0.8821832E-01
       -2   -1    0    0    0  501  0.00000000000E+00  0.00000000000E+00  0.42988371271E+03  0.42988371272E+03  0.25500000920E-02 0. -1.
        2   -1    0    0  501    0  0.00000000000E+00  0.00000000000E+00 -0.14848906604E+04  0.14848906604E+04  0.25500000920E-02 0.  1.
    10030    2    1    2    0    0  0.00000000000E+00  0.00000000000E+00 -0.10550069477E+04  0.19147743731E+04  0.15979115246E+04 0.  0.
        2    1    3    3  502    0 -0.49934827169E+02 -0.70479256798E+03 -0.80578018520E+02  0.71113913401E+03  0.25500000920E-02 0. -1.
       -2    1    3    3    0  502  0.49934827169E+02  0.70479256798E+03 -0.97442892917E+03  0.12036352391E+04  0.25500000920E-02 0.  1.
</event>
<event>
 5   0  0.9726935E-05  0.1598089E+04  0.7818609E-02  0.8821723E-01
        1   -1    0    0  501    0  0.00000000000E+00  0.00000000000E+00  0.14800273531E+04  0.14800273531E+04  0.50400001928E-02 0.  1.
       -1   -1    0    0    0  501  0.00000000000E+00  0.00000000000E+00 -0.43139203567E+03  0.43139203569E+03  0.50400001928E-02 0. -1.
    10030    2    1    2    0    0  0.00000000000E+00  0.00000000000E+00  0.10486353174E+04  0.19114193888E+04  0.15980888745E+04 0.  0.
        2    1    3    3  502    0 -0.66345702948E+03 -0.44048514259E+03  0.60247139907E+03  0.99858608918E+03  0.25500000920E-02 0.  1.
       -2    1    3    3    0  502  0.66345702948E+03  0.44048514259E+03  0.44616391834E+03  0.91283329960E+03  0.25500000920E-02 0. -1.
</event>
<event>
 5   0  0.9726935E-05  0.1623142E+04  0.7818609E-02  0.8806456E-01
       -1   -1    0    0    0  501  0.00000000000E+00  0.00000000000E+00  0.42344515595E+03  0.42344515598E+03  0.50400001928E-02 0.  1.
        1   -1    0    0  501    0  0.00000000000E+00  0.00000000000E+00 -0.15554488013E+04  0.15554488013E+04  0.50400001928E-02 0. -1.
    10030    2    1    2    0    0  0.00000000000E+00  0.00000000000E+00 -0.11320036453E+04  0.19788939573E+04  0.16231417194E+04 0.  0.
        2    1    3    3  502    0  0.36966354284E+03 -0.62832041306E+03 -0.13116531622E+03  0.74070373062E+03  0.25500000920E-02 0.  1.
       -2    1    3    3    0  502 -0.36966354284E+03  0.62832041306E+03 -0.10008383291E+04  0.12381902267E+04  0.25500000920E-02 0. -1.
</event>
<event>
 5   0  0.1858913E-04  0.1599017E+04  0.7818609E-02  0.8821152E-01
        2   -1    0    0  501    0  0.00000000000E+00  0.00000000000E+00  0.65713059825E+03  0.65713059825E+03  0.25500000920E-02 0. -1.
       -2   -1    0    0    0  501  0.00000000000E+00  0.00000000000E+00 -0.97273476812E+03  0.97273476812E+03  0.25500000920E-02 0.  1.
    10030    2    1    2    0    0  0.00000000000E+00  0.00000000000E+00 -0.31560416987E+03  0.16298653664E+04  0.15990169231E+04 0.  0.
        4    1    3    3  502    0 -0.57858597786E+03  0.60945486358E+02 -0.71677586828E+03  0.92317135155E+03  0.12699999809E+01 0.  1.
       -4    1    3    3    0  502  0.57858597786E+03 -0.60945486358E+02  0.40117169841E+03  0.70669401482E+03  0.12699999809E+01 0. -1.
</event>
<event>
 5   0  0.9939872E-05  0.1599259E+04  0.7818609E-02  0.8821003E-01
       -1   -1    0    0    0  501  0.00000000000E+00  0.00000000000E+00  0.64981638629E+03  0.64981638631E+03  0.50400001928E-02 0. -1.
        1   -1    0    0  501    0  0.00000000000E+00  0.00000000000E+00 -0.98398190624E+03  0.98398190626E+03  0.50400001928E-02 0.  1.
    10030    2    1    2    0    0  0.00000000000E+00  0.00000000000E+00 -0.33416551996E+03  0.16337982926E+04  0.15992592867E+04 0.  0.
        3    1    3    3  502    0  0.45359017888E+03 -0.28805929339E+03 -0.77205906901E+03  0.94063671155E+03  0.10100000352E+00 0.  1.
       -3    1    3    3    0  502 -0.45359017888E+03  0.28805929339E+03  0.43789354905E+03  0.69316158101E+03  0.10100000352E+00 0. -1.
</event>
<event>
 5   0  0.1774934E-04  0.1612022E+04  0.7818609E-02  0.8813196E-01
        2   -1    0    0  501    0  0.00000000000E+00  0.00000000000E+00  0.89035277913E+03  0.89035277913E+03  0.25500000920E-02 0. -1.
       -2   -1    0    0    0  501  0.00000000000E+00  0.00000000000E+00 -0.72965913908E+03  0.72965913909E+03  0.25500000920E-02 0.  1.
    10030    2    1    2    0    0  0.00000000000E+00  0.00000000000E+00  0.16069364005E+03  0.16200119182E+04  0.16120223848E+04 0.  0.
        1    1    3    3  502    0  0.24346039757E+03  0.62112249157E+03 -0.37420891645E+03  0.76491726867E+03  0.50400001928E-02 0.  1.
       -1    1    3    3    0  502 -0.24346039757E+03 -0.62112249157E+03  0.53490255650E+03  0.85509464956E+03  0.50400001928E-02 0. -1.
</event>
<event>
 5   0  0.9726935E-05  0.1595368E+04  0.7818609E-02  0.8823399E-01
       -1   -1    0    0    0  501  0.00000000000E+00  0.00000000000E+00  0.10033675859E+04  0.10033675859E+04  0.50400001928E-02 0.  1.
        1   -1    0    0  501    0  0.00000000000E+00  0.00000000000E+00 -0.63416379838E+03  0.63416379840E+03  0.50400001928E-02 0. -1.
    10030    2    1    2    0    0  0.00000000000E+00  0.00000000000E+00  0.36920378752E+03  0.16375313843E+04  0.15953675432E+04 0.  0.
        2    1    3    3  502    0 -0.87622101729E+02 -0.58313142663E+03 -0.36679158157E+03  0.69444651180E+03  0.25500000920E-02 0. -1.
       -2    1    3    3    0  502  0.87622101729E+02  0.58313142663E+03  0.73599536909E+03  0.94308487251E+03  0.25500000920E-02 0.  1.
</event>
<event>
 5   0  0.9432152E-05  0.1522350E+04  0.7818609E-02  0.8869725E-01
       -1   -1    0    0    0  501  0.00000000000E+00  0.00000000000E+00  0.24350538838E+03  0.24350538843E+03  0.50400001928E-02 0.  1.
        1   -1    0    0  501    0  0.00000000000E+00  0.00000000000E+00 -0.23793611891E+04  0.23793611891E+04  0.50400001928E-02 0. -1.
    10030    2    1    2    0    0  0.00000000000E+00  0.00000000000E+00 -0.21358558007E+04  0.26228665775E+04  0.15223498553E+04 0.  0.
        4    1    3    3  502    0  0.71118754468E+03 -0.16878049776E+03 -0.14338623772E+04  0.16094214830E+04  0.12699999809E+01 0. -1.
       -4    1    3    3    0  502 -0.71118754468E+03  0.16878049776E+03 -0.70199342346E+03  0.10134450945E+04  0.12699999809E+01 0.  1.
</event>
<event>
 5   0  0.1858913E-04  0.1600369E+04  0.7818609E-02  0.8820321E-01
       -2   -1    0    0    0  501  0.00000000000E+00  0.00000000000E+00  0.49007353012E+03  0.49007353012E+03  0.25500000920E-02 0. -1.
        2   -1    0    0  501    0  0.00000000000E+00  0.00000000000E+00 -0.13065292608E+04  0.13065292608E+04  0.25500000920E-02 0.  1.
    10030    2    1    2    0    0  0.00000000000E+00  0.00000000000E+00 -0.81645573065E+03  0.17966027909E+04  0.16003692162E+04 0.  0.
        4    1    3    3  502    0  0.73333790869E+03 -0.92196663259E+02 -0.75243255637E+03  0.10547232233E+04  0.12699999809E+01 0.  1.
       -4    1    3    3    0  502 -0.73333790869E+03  0.92196663259E+02 -0.64023174281E+02  0.74187956757E+03  0.12699999809E+01 0. -1.
</event>
<event>
 5   0  0.1832646E-04  0.1604744E+04  0.7818609E-02  0.8817639E-01
       -2   -1    0    0    0  501  0.00000000000E+00  0.00000000000E+00  0.58170105176E+03  0.58170105176E+03  0.25500000920E-02 0.  1.
        2   -1    0    0  501    0  0.00000000000E+00  0.00000000000E+00 -0.11067555195E+04  0.11067555195E+04  0.25500000920E-02 0. -1.
    10030    2    1    2    0    0  0.00000000000E+00  0.00000000000E+00 -0.52505446770E+03  0.16884565712E+04  0.16047440291E+04 0.  0.
        2    1    3    3  502    0 -0.20815083043E+03 -0.10732509618E+03 -0.10699952560E+04  0.10953242864E+04  0.25500000920E-02 0. -1.
       -2    1    3    3    0  502  0.20815083043E+03  0.10732509618E+03  0.54494078833E+03  0.59313228480E+03  0.25500000920E-02 0.  1.
</event>
<event>
 5   0  0.9616567E-05  0.1605532E+04  0.7818609E-02  0.8817156E-01
       -1   -1    0    0    0  501  0.00000000000E+00  0.00000000000E+00  0.43494994858E+03  0.43494994861E+03  0.50400001928E-02 0.  1.
        1   -1    0    0  501    0  0.00000000000E+00  0.00000000000E+00 -0.14816268552E+04  0.14816268552E+04  0.50400001928E-02 0. -1.
    10030    2    1    2    0    0  0.00000000000E+00  0.00000000000E+00 -0.10466769066E+04  0.19165768038E+04  0.16055323410E+04 0.  0.
        5    1    3    3  502    0  0.20510151200E+03 -0.12391767795E+02  0.40301001815E+03  0.45239291646E+03  0.46999998093E+01 0.  1.
       -5    1    3    3    0  502 -0.20510151200E+03  0.12391767795E+02 -0.14496869247E+04  0.14641838873E+04  0.46999998093E+01 0. -1.
</event>
<event>
 5   0  0.1835088E-04  0.1620863E+04  0.7818609E-02  0.8807833E-01
       -2   -1    0    0    0  501  0.00000000000E+00  0.00000000000E+00  0.50877747804E+03  0.50877747804E+03  0.25500000920E-02 0. -1.
        2   -1    0    0  501    0  0.00000000000E+00  0.00000000000E+00 -0.12909359937E+04  0.12909359937E+04  0.25500000920E-02 0.  1.
    10030    2    1    2    0    0  0.00000000000E+00  0.00000000000E+00 -0.78215851569E+03  0.17997134718E+04  0.16208629297E+04 0.  0.
        5    1    3    3  502    0  0.46341857521E+03 -0.57918813211E+03 -0.75353671444E+03  0.10573813589E+04  0.46999998093E+01 0.  1.
       -5    1    3    3    0  502 -0.46341857521E+03  0.57918813211E+03 -0.28621801252E+02  0.74233211283E+03  0.46999998093E+01 0. -1.
</event>
<event>
 5   0  0.1832646E-04  0.1604375E+04  0.7818609E-02  0.8817865E-01
        2   -1    0    0  501    0  0.00000000000E+00  0.00000000000E+00  0.14099561295E+04  0.14099561295E+04  0.25500000920E-02 0.  1.
       -2   -1    0    0    0  501  0.00000000000E+00  0.00000000000E+00 -0.45640064507E+03  0.45640064508E+03  0.25500000920E-02 0. -1.
    10030    2    1    2    0    0  0.00000000000E+00  0.00000000000E+00  0.95355548445E+03  0.18663567746E+04  0.16043751270E+04 0.  0.
        2    1    3    3  502    0 -0.70311518979E+02  0.75492686978E+03  0.78156601912E+03  0.10889002391E+04  0.25500000920E-02 0.  1.
       -2    1    3    3    0  502  0.70311518979E+02 -0.75492686978E+03  0.17198946533E+03  0.77745653551E+03  0.25500000920E-02 0. -1.
</event>
<event>
 5   0  0.6838750E-05  0.1491505E+04  0.7818609E-02  0.8890122E-01
       -4   -1    0    0    0  501  0.00000000000E+00  0.00000000000E+00  0.84249763806E+03  0.84249859528E+03  0.12699999809E+01 0.  1.
        4   -1    0    0  501    0  0.00000000000E+00  0.00000000000E+00 -0.66011507853E+03  0.66011630021E+03  0.12699999809E+01 0. -1.
    10030    2    1    2    0    0  0.00000000000E+00  0.00000000000E+00  0.18238255953E+03  0.15026148955E+04  0.14915053222E+04 0.  0.
        2    1    3    3  502    0  0.92421206651E+02 -0.64944337975E+03 -0.26617424076E+03  0.70793157112E+03  0.25500000920E-02 0. -1.
       -2    1    3    3    0  502 -0.92421206651E+02  0.64944337975E+03  0.44855680029E+03  0.79468332437E+03  0.25500000920E-02 0.  1.
</event>
<event>
 5   0  0.9939872E-05  0.1600213E+04  0.7818609E-02  0.8820417E-01
       -1   -1    0    0    0  501  0.00000000000E+00  0.00000000000E+00  0.73986757239E+03  0.73986757241E+03  0.50400001928E-02 0. -1.
        1   -1    0    0  501    0  0.00000000000E+00  0.00000000000E+00 -0.86525002842E+03  0.86525002844E+03  0.50400001928E-02 0.  1.
    10030    2    1    2    0    0  0.00000000000E+00  0.00000000000E+00 -0.12538245604E+03  0.16051176008E+04  0.16002130334E+04 0.  0.
        3    1    3    3  502    0 -0.25514308831E+03 -0.63649593754E+03 -0.47619902378E+03  0.83485962560E+03  0.10100000352E+00 0.  1.
       -3    1    3    3    0  502  0.25514308831E+03  0.63649593754E+03  0.35081656774E+03  0.77025797524E+03  0.10100000352E+00 0. -1.
</event>
<event>
 5   0  0.1774934E-04  0.1598879E+04  0.7818609E-02  0.8821237E-01
       -2   -1    0    0    0  501  0.00000000000E+00  0.00000000000E+00  0.42005105350E+03  0.42005105350E+03  0.25500000920E-02 0.  1.
        2   -1    0    0  501    0  0.00000000000E+00  0.00000000000E+00 -0.15214895540E+04  0.15214895540E+04  0.25500000920E-02 0. -1.
    10030    2    1    2    0    0  0.00000000000E+00  0.00000000000E+00 -0.11014385005E+04  0.19415406075E+04  0.15988787197E+04 0.  0.
        1    1    3    3  502    0  0.44882270833E+03 -0.39816243573E+03  0.90834086061E+02  0.60681626539E+03  0.50400001928E-02 0.  1.
       -1    1    3    3    0  502 -0.44882270833E+03  0.39816243573E+03 -0.11922725866E+04  0.13347243421E+04  0.50400001928E-02 0. -1.
</event>
<event>
 5   0  0.9939872E-05  0.1606437E+04  0.7818609E-02  0.8816604E-01
        1   -1    0    0  501    0  0.00000000000E+00  0.00000000000E+00  0.50838180318E+03  0.50838180321E+03  0.50400001928E-02 0. -1.
       -1   -1    0    0    0  501  0.00000000000E+00  0.00000000000E+00 -0.12690454677E+04  0.12690454677E+04  0.50400001928E-02 0.  1.
    10030    2    1    2    0    0  0.00000000000E+00  0.00000000000E+00 -0.76066366449E+03  0.17774272709E+04  0.16064365823E+04 0.  0.
        3    1    3    3  502    0 -0.43197822551E+03  0.44082025865E+03  0.18841749812E+03  0.64531298728E+03  0.10100000352E+00 0. -1.
       -3    1    3    3    0  502  0.43197822551E+03 -0.44082025865E+03 -0.94908116261E+03  0.11321142836E+04  0.10100000352E+00 0.  1.
</event>
<event>
 5   0  0.1832646E-04  0.1595152E+04  0.7818609E-02  0.8823532E-01
        2   -1    0    0  501    0  0.00000000000E+00  0.00000000000E+00  0.64436768409E+03  0.64436768410E+03  0.25500000920E-02 0.  1.
       -2   -1    0    0    0  501  0.00000000000E+00  0.00000000000E+00 -0.98721250670E+03  0.98721250670E+03  0.25500000920E-02 0. -1.
    10030    2    1    2    0    0  0.00000000000E+00  0.00000000000E+00 -0.34284482260E+03  0.16315801908E+04  0.15951524525E+04 0.  0.
        2    1    3    3  502    0  0.67359318837E+03  0.40425310623E+03 -0.30510282802E+02  0.78618015409E+03  0.25500000920E-02 0.  1.
       -2    1    3    3    0  502 -0.67359318837E+03 -0.40425310623E+03 -0.31233453980E+03  0.84540003671E+03  0.25500000920E-02 0. -1.
</event>
<event>
 5   0  0.1914170E-04  0.1597914E+04  0.7818609E-02  0.8821830E-01
       -2   -1    0    0    0  501  0.00000000000E+00  0.00000000000E+00  0.33156178160E+03  0.33156178161E+03  0.25500000920E-02 0. -1.
        2   -1    0    0  501    0  0.00000000000E+00  0.00000000000E+00 -0.19252291522E+04  0.19252291522E+04  0.25500000920E-02 0.  1.
    10030    2    1    2    0    0  0.00000000000E+00  0.00000000000E+00 -0.15936673706E+04  0.22567909338E+04  0.15979141500E+04 0.  0.
        3    1    3    3  502    0  0.31963075320E+01 -0.12159351502E+03  0.31840819375E+03  0.34085038847E+03  0.10100000352E+00 0. -1.
       -3    1    3    3    0  502 -0.31963075320E+01  0.12159351502E+03 -0.19120755643E+04  0.19159405453E+04  0.10100000352E+00 0.  1.
</event>
<event>
 5   0  0.1774934E-04  0.1599346E+04  0.7818609E-02  0.8820950E-01
        2   -1    0    0  501    0  0.00000000000E+00  0.00000000000E+00  0.12932376605E+04  0.12932376605E+04  0.25500000920E-02 0. -1.
       -2   -1    0    0    0  501  0.00000000000E+00  0.00000000000E+00 -0.49447726584E+03  0.49447726584E+03  0.25500000920E-02 0.  1.
    10030    2    1    2    0    0  0.00000000000E+00  0.00000000000E+00  0.79876039471E+03  0.17877149264E+04  0.15993456443E+04 0.  0.
        1    1    3    3  502    0  0.45074269941E+03 -0.48465224492E+03  0.90103741003E+03  0.11180005339E+04  0.50400001928E-02 0. -1.
       -1    1    3    3    0  502 -0.45074269941E+03  0.48465224492E+03 -0.10227701532E+03  0.66971439246E+03  0.50400001928E-02 0.  1.
</event>
<event>
 5   0  0.1835088E-04  0.1602584E+04  0.7818609E-02  0.8818962E-01
       -2   -1    0    0    0  501  0.00000000000E+00  0.00000000000E+00  0.45770481118E+03  0.45770481119E+03  0.25500000920E-02 0.  1.
        2   -1    0    0  501    0  0.00000000000E+00  0.00000000000E+00 -0.14028018047E+04  0.14028018048E+04  0.25500000920E-02 0. -1.
    10030    2    1    2    0    0  0.00000000000E+00  0.00000000000E+00 -0.94509699356E+03  0.18605066159E+04  0.16025843319E+04 0.  0.
        5    1    3    3  502    0 -0.12234085970E+02 -0.59128835056E+03  0.15508556064E+03  0.61142882455E+03  0.46999998093E+01 0.  1.
       -5    1    3    3    0  502  0.12234085970E+02  0.59128835056E+03 -0.11001825542E+04  0.12490777914E+04  0.46999998093E+01 0. -1.
</event>
<event>
 5   0  0.9432152E-05  0.1600073E+04  0.7818609E-02  0.8820503E-01
        1   -1    0    0  501    0  0.00000000000E+00  0.00000000000E+00  0.24306128986E+03  0.24306128991E+03  0.50400001928E-02 0. -1.
       -1   -1    0    0    0  501  0.00000000000E+00  0.00000000000E+00 -0.26333206893E+04  0.26333206893E+04  0.50400001928E-02 0.  1.
    10030    2    1    2    0    0  0.00000000000E+00  0.00000000000E+00 -0.23902593995E+04  0.28763819792E+04  0.16000729026E+04 0.  0.
        4    1    3    3  502    0 -0.97508760401E+02  0.70032454649E+03 -0.18679777422E+04  0.19973244321E+04  0.12699999809E+01 0.  1.
       -4    1    3    3    0  502  0.97508760401E+02 -0.70032454649E+03 -0.52228165724E+03  0.87905754712E+03  0.12699999809E+01 0. -1.
</event>
<event>
 5   0  0.9616567E-05  0.1600893E+04  0.7818609E-02  0.8820000E-01
       -1   -1    0    0    0  501  0.00000000000E+00  0.00000000000E+00  0.94701988469E+03  0.94701988471E+03  0.50400001928E-02 0.  1.
        1   -1    0    0  501    0  0.00000000000E+00  0.00000000000E+00 -0.67655837744E+03  0.67655837746E+03  0.50400001928E-02 0. -1.
    10030    2    1    2    0    0  0.00000000000E+00  0.00000000000E+00  0.27046150726E+03  0.16235782622E+04  0.16008925468E+04 0.  0.
        5    1    3    3  502    0 -0.68726078464E+03  0.64812454178E+02  0.54614400668E+03  0.88024053892E+03  0.46999998093E+01 0.  1.
       -5    1    3    3    0  502  0.68726078464E+03 -0.64812454178E+02 -0.27568249942E+03  0.74333772325E+03  0.46999998093E+01 0. -1.
</event>
<event>
 5   0  0.1858913E-04  0.1620788E+04  0.7818609E-02  0.8807878E-01
       -2   -1    0    0    0  501  0.00000000000E+00  0.00000000000E+00  0.14954988808E+04  0.14954988808E+04  0.25500000920E-02 0. -1.
        2   -1    0    0  501    0  0.00000000000E+00  0.00000000000E+00 -0.43914336370E+03  0.43914336370E+03  0.25500000920E-02 0.  1.
    10030    2    1    2    0    0  0.00000000000E+00  0.00000000000E+00  0.10563555171E+04  0.19346422445E+04  0.16207879676E+04 0.  0.
        4    1    3    3  502    0 -0.49065004696E+03  0.98724755627E+02  0.12889814651E+04  0.13827360111E+04  0.12699999809E+01 0. -1.
       -4    1    3    3    0  502  0.49065004696E+03 -0.98724755627E+02 -0.23262594800E+03  0.55190623347E+03  0.12699999809E+01 0.  1.
</event>
<event>
 5   0  0.9432152E-05  0.1599518E+04  0.7818609E-02  0.8820844E-01
        1   -1    0    0  501    0  0.00000000000E+00  0.00000000000E+00  0.73915487994E+03  0.73915487996E+03  0.50400001928E-02 0. -1.
       -1   -1    0    0    0  501  0.00000000000E+00  0.00000000000E+00 -0.86533175008E+03  0.86533175010E+03  0.50400001928E-02 0.  1.
    10030    2    1    2    0    0  0.00000000000E+00  0.00000000000E+00 -0.12617687014E+03  0.16044866301E+04  0.15995176596E+04 0.  0.
        4    1    3    3  502    0  0.25106878101E+03  0.66845587402E+03  0.29823018619E+03  0.77382920929E+03  0.12699999809E+01 0. -1.
       -4    1    3    3    0  502 -0.25106878101E+03 -0.66845587402E+03 -0.42440705633E+03  0.83065742076E+03  0.12699999809E+01 0.  1.
</event>
<event>
 5   0  0.9673017E-05  0.1594213E+04  0.7818609E-02  0.8824111E-01
       -1   -1    0    0    0  501  0.00000000000E+00  0.00000000000E+00  0.21405939013E+03  0.21405939019E+03  0.50400001928E-02 0.  1.
        1   -1    0    0  501    0  0.00000000000E+00  0.00000000000E+00 -0.29682371239E+04  0.29682371239E+04  0.50400001928E-02 0. -1.
    10030    2    1    2    0    0  0.00000000000E+00  0.00000000000E+00 -0.27541777337E+04  0.31822965141E+04  0.15942133215E+04 0.  0.
        1    1    3    3  502    0 -0.57148014761E+03 -0.35744060510E+03 -0.52778264248E+03  0.85610038139E+03  0.50400001928E-02 0.  1.
       -1    1    3    3    0  502  0.57148014761E+03  0.35744060510E+03 -0.22263950912E+04  0.23261961327E+04  0.50400001928E-02 0. -1.
</event>
<event>
 5   0  0.1774934E-04  0.1598780E+04  0.7818609E-02  0.8821298E-01
       -2   -1    0    0    0  501  0.00000000000E+00  0.00000000000E+00  0.38294116684E+03  0.38294116685E+03  0.25500000920E-02 0.  1.
        2   -1    0    0  501    0  0.00000000000E+00  0.00000000000E+00 -0.16687265589E+04  0.16687265589E+04  0.25500000920E-02 0. -1.
    10030    2    1    2    0    0  0.00000000000E+00  0.00000000000E+00 -0.12857853921E+04  0.20516677258E+04  0.15987796541E+04 0.  0.
        1    1    3    3  502    0 -0.56359469249E+03  0.19193739662E+03  0.41639706953E+02  0.59683566151E+03  0.50400001928E-02 0.  1.
       -1    1    3    3    0  502  0.56359469249E+03 -0.19193739662E+03 -0.13274250990E+04  0.14548320642E+04  0.50400001928E-02 0. -1.
</event>
<event>
 5   0  0.9616567E-05  0.1597146E+04  0.7818609E-02  0.8822303E-01
        1   -1    0    0  501    0  0.00000000000E+00  0.00000000000E+00  0.94140691335E+03  0.94140691337E+03  0.50400001928E-02 0. -1.
       -1   -1    0    0    0  501  0.00000000000E+00  0.00000000000E+00 -0.67741081691E+03  0.67741081693E+03  0.50400001928E-02 0.  1.
    10030    2    1    2    0    0  0.00000000000E+00  0.00000000000E+00  0.26399609644E+03  0.16188177303E+04  0.15971464883E+04 0.  0.
        5    1    3    3  502    0  0.12776440719E+03  0.71562770885E+03  0.46701336967E+03  0.86404301911E+03  0.46999998093E+01 0. -1.
       -5    1    3    3    0  502 -0.12776440719E+03 -0.71562770885E+03 -0.20301727322E+03  0.75477471119E+03  0.46999998093E+01 0.  1.
</event>
<event>
 5   0  0.1858913E-04  0.1566855E+04  0.7818609E-02  0.8841173E-01
       -2   -1    0    0    0  501  0.00000000000E+00  0.00000000000E+00  0.13545227658E+04  0.13545227658E+04  0.25500000920E-02 0.  1.
        2   -1    0    0  501    0  0.00000000000E+00  0.00000000000E+00 -0.45311812159E+03  0.45311812160E+03  0.25500000920E-02 0. -1.
    10030    2    1    2    0    0  0.00000000000E+00  0.00000000000E+00  0.90140464422E+03  0.18076408874E+04  0.15668552088E+04 0.  0.
        4    1    3    3  502    0  0.13069694992E+03  0.45794709097E+02  0.13402881108E+04  0.13474244620E+04  0.12699999809E+01 0.  1.
       -4    1    3    3    0  502 -0.13069694992E+03 -0.45794709097E+02 -0.43888346654E+03  0.46021642539E+03  0.12699999809E+01 0. -1.
</event>
<event>
 5   0  0.1774934E-04  0.1622132E+04  0.7818609E-02  0.8807066E-01
        2   -1    0    0  501    0  0.00000000000E+00  0.00000000000E+00  0.16876979817E+04  0.16876979817E+04  0.25500000920E-02 0. -1.
       -2   -1    0    0    0  501  0.00000000000E+00  0.00000000000E+00 -0.38977818621E+03  0.38977818622E+03  0.25500000920E-02 0.  1.
    10030    2    1    2    0    0  0.00000000000E+00  0.00000000000E+00  0.12979197955E+04  0.20774761679E+04  0.16221317557E+04 0.  0.
        1    1    3    3  502    0 -0.16795162193E+02 -0.33405038663E+03 -0.29734000041E+03  0.44752967963E+03  0.50400001928E-02 0.  1.
       -1    1    3    3    0  502  0.16795162193E+02  0.33405038663E+03  0.15952597959E+04  0.16299464883E+04  0.50400001928E-02 0. -1.
</event>
<event>
 5   0  0.1914170E-04  0.1594799E+04  0.7818609E-02  0.8823749E-01
        2   -1    0    0  501    0  0.00000000000E+00  0.00000000000E+00  0.62412470895E+03  0.62412470896E+03  0.25500000920E-02 0.  1.
       -2   -1    0    0    0  501  0.00000000000E+00  0.00000000000E+00 -0.10187806089E+04  0.10187806089E+04  0.25500000920E-02 0. -1.
    10030    2    1    2    0    0  0.00000000000E+00  0.00000000000E+00 -0.39465589993E+03  0.16429053178E+04  0.15947992363E+04 0.  0.
        3    1    3    3  502    0  0.67493688060E+03 -0.19542876151E+03 -0.58567934304E+03  0.91474176503E+03  0.10100000352E+00 0. -1.
       -3    1    3    3    0  502 -0.67493688060E+03  0.19542876151E+03  0.19102344312E+03  0.72816355281E+03  0.10100000352E+00 0.  1.
</event>
<event>
 5   0  0.1832646E-04  0.1598701E+04  0.7818609E-02  0.8821347E-01
       -2   -1    0    0    0  501  0.00000000000E+00  0.00000000000E+00  0.57353490540E+03  0.57353490540E+03  0.25500000920E-02 0.  1.
        2   -1    0    0  501    0  0.00000000000E+00  0.00000000000E+00 -0.11140750920E+04  0.11140750920E+04  0.25500000920E-02 0. -1.
    10030    2    1    2    0    0  0.00000000000E+00  0.00000000000E+00 -0.54054018658E+03  0.16876099974E+04  0.15987006630E+04 0.  0.
        2    1    3    3  502    0 -0.24649601608E+03  0.86630585297E+02  0.52718690880E+03  0.58838013313E+03  0.25500000920E-02 0.  1.
       -2    1    3    3    0  502  0.24649601608E+03 -0.86630585297E+02 -0.10677270954E+04  0.10992298643E+04  0.25500000920E-02 0. -1.
</event>
<event>
 5   0  0.1774934E-04  0.1644298E+04  0.7818609E-02  0.8793787E-01
       -2   -1    0    0    0  501  0.00000000000E+00  0.00000000000E+00  0.15296307837E+04  0.15296307837E+04  0.25500000920E-02 0.  1.
        2   -1    0    0  501    0  0.00000000000E+00  0.00000000000E+00 -0.44189026930E+03  0.44189026930E+03  0.25500000920E-02 0. -1.
    10030    2    1    2    0    0  0.00000000000E+00  0.00000000000E+00  0.10877405144E+04  0.19715210530E+04  0.16442979766E+04 0.  0.
        1    1    3    3  502    0 -0.75514002285E+03 -0.27541935185E+03  0.75097792802E+03  0.11000273278E+04  0.50400001928E-02 0.  1.
       -1    1    3    3    0  502  0.75514002285E+03  0.27541935185E+03  0.33676258639E+03  0.87149372522E+03  0.50400001928E-02 0. -1.
</event>
<event>
 5   0  0.1835088E-04  0.1599546E+04  0.7818609E-02  0.8820827E-01
       -2   -1    0    0    0  501  0.00000000000E+00  0.00000000000E+00  0.44511039052E+03  0.44511039053E+03  0.25500000920E-02 0.  1.
        2   -1    0    0  501    0  0.00000000000E+00  0.00000000000E+00 -0.14370297296E+04  0.14370297296E+04  0.25500000920E-02 0. -1.
    10030    2    1    2    0    0  0.00000000000E+00  0.00000000000E+00 -0.99191933912E+03  0.18821401202E+04  0.15995460158E+04 0.  0.
        5    1    3    3  502    0 -0.49367454546E+03 -0.45038620329E+03  0.21043150859E+02  0.66860092219E+03  0.46999998093E+01 0.  1.
       -5    1    3    3    0  502  0.49367454546E+03  0.45038620329E+03 -0.10129624900E+04  0.12135391980E+04  0.46999998093E+01 0. -1.
</event>
<event>
 5   0  0.1832646E-04  0.1602739E+04  0.7818609E-02  0.8818867E-01
        2   -1    0    0  501    0  0.00000000000E+00  0.00000000000E+00  0.89958975541E+03  0.89958975541E+03  0.25500000920E-02 0. -1.
       -2   -1    0    0    0  501  0.00000000000E+00  0.00000000000E+00 -0.71387345568E+03  0.71387345568E+03  0.25500000920E-02 0.  1.
    10030    2    1    2    0    0  0.00000000000E+00  0.00000000000E+00  0.18571629973E+03  0.16134632111E+04  0.16027392145E+04 0.  0.
        2    1    3    3  502    0  0.75283391937E+03 -0.15372789447E+03  0.32198172053E+03  0.83310467773E+03  0.25500000920E-02 0. -1.
       -2    1    3    3    0  502 -0.75283391937E+03  0.15372789447E+03 -0.13626542080E+03  0.78035853337E+03  0.25500000920E-02 0.  1.
</event>
<event>
 5   0  0.9939872E-05  0.1608190E+04  0.7818609E-02  0.8815532E-01
        1   -1    0    0  501    0  0.00000000000E+00  0.00000000000E+00  0.17570839545E+04  0.17570839545E+04  0.50400001928E-02 0. -1.
       -1   -1    0    0    0  501  0.00000000000E+00  0.00000000000E+00 -0.36797835833E+03  0.36797835836E+03  0.50400001928E-02 0.  1.
    10030    2    1    2    0    0  0.00000000000E+00  0.00000000000E+00  0.13891055962E+04  0.21250623129E+04  0.16081901244E+04 0.  0.
        3    1    3    3  502    0  0.32414179201E+03  0.72005563604E+03  0.49406181381E+03  0.93147469444E+03  0.10100000352E+00 0.  1.
       -3    1    3    3    0  502 -0.32414179201E+03 -0.72005563604E+03  0.89504378236E+03  0.11935876184E+04  0.10100000352E+00 0. -1.
</event>
<event>
 5   0  0.9673017E-05  0.1599487E+04  0.7818609E-02  0.8820863E-01
        1   -1    0    0  501    0  0.00000000000E+00  0.00000000000E+00  0.15654204472E+04  0.15654204472E+04  0.50400001928E-02 0.  1.
       -1   -1    0    0    0  501  0.00000000000E+00  0.00000000000E+00 -0.40857353594E+03  0.40857353598E+03  0.50400001928E-02 0. -1.
    10030    2    1    2    0    0  0.00000000000E+00  0.00000000000E+00  0.11568469113E+04  0.19739939832E+04  0.15994866269E+04 0.  0.
        1    1    3    3  502    0  0.77701147164E+03 -0.31507943979E+02  0.34803257088E+03  0.85197784479E+03  0.50400001928E-02 0. -1.
       -1    1    3    3    0  502 -0.77701147164E+03  0.31507943979E+02  0.80881434040E+03  0.11220161384E+04  0.50400001928E-02 0.  1.
</event>
<event>
 5   0  0.1832646E-04  0.1603653E+04  0.7818609E-02  0.8818307E-01
       -2   -1    0    0    0  501  0.00000000000E+00  0.00000000000E+00  0.53859806105E+03  0.53859806105E+03  0.25500000920E-02 0. -1.
        2   -1    0    0  501    0  0.00000000000E+00  0.00000000000E+00 -0.11937025922E+04  0.11937025922E+04  0.25500000920E-02 0.  1.
    10030    2    1    2    0    0  0.00000000000E+00  0.00000000000E+00 -0.65510453119E+03  0.17323006533E+04  0.16036532065E+04 0.  0.
        2    1    3    3  502    0 -0.38073789085E+03 -0.69260253098E+03 -0.47354728366E+03  0.92136129576E+03  0.25500000920E-02 0.  1.
       -2    1    3    3    0  502  0.38073789085E+03  0.69260253098E+03 -0.18155724753E+03  0.81093935753E+03  0.25500000920E-02 0. -1.
</event>
<event>
 5   0  0.1835088E-04  0.1595767E+04  0.7818609E-02  0.8823153E-01
       -2   -1    0    0    0  501  0.00000000000E+00  0.00000000000E+00  0.36812522672E+03  0.36812522673E+03  0.25500000920E-02 0. -1.
        2   -1    0    0  501    0  0.00000000000E+00  0.00000000000E+00 -0.17293525968E+04  0.17293525968E+04  0.25500000920E-02 0.  1.
    10030    2    1    2    0    0  0.00000000000E+00  0.00000000000E+00 -0.13612273701E+04  0.20974778236E+04  0.15957672973E+04 0.  0.
        5    1    3    3  502    0 -0.54551239118E+02 -0.42144162541E+03 -0.15682064149E+04  0.16247714704E+04  0.46999998093E+01 0.  1.
       -5    1    3    3    0  502  0.54551239118E+02  0.42144162541E+03  0.20697904481E+03  0.47270635315E+03  0.46999998093E+01 0. -1.
</event>
<event>
 5   0  0.1835088E-04  0.1604053E+04  0.7818609E-02  0.8818062E-01
        2   -1    0    0  501    0  0.00000000000E+00  0.00000000000E+00  0.69973227375E+03  0.69973227375E+03  0.25500000920E-02 0. -1.
       -2   -1    0    0    0  501  0.00000000000E+00  0.00000000000E+00 -0.91927506118E+03  0.91927506118E+03  0.25500000920E-02 0.  1.
    10030    2    1    2    0    0  0.00000000000E+00  0.00000000000E+00 -0.21954278743E+03  0.16190073349E+04  0.16040529028E+04 0.  0.
        5    1    3    3  502    0  0.48998513763E+03  0.27918724252E+03  0.46580235985E+03  0.73145394928E+03  0.46999998093E+01 0. -1.
       -5    1    3    3    0  502 -0.48998513763E+03 -0.27918724252E+03 -0.68534514728E+03  0.88755338565E+03  0.46999998093E+01 0.  1.
</event>
<event>
 5   0  0.9432152E-05  0.1600485E+04  0.7818609E-02  0.8820250E-01
       -1   -1    0    0    0  501  0.00000000000E+00  0.00000000000E+00  0.48796989320E+03  0.48796989323E+03  0.50400001928E-02 0. -1.
        1   -1    0    0  501    0  0.00000000000E+00  0.00000000000E+00 -0.13123511895E+04  0.13123511895E+04  0.50400001928E-02 0.  1.
    10030    2    1    2    0    0  0.00000000000E+00  0.00000000000E+00 -0.82438129631E+03  0.18003210827E+04  0.16004847638E+04 0.  0.
        4    1    3    3  502    0 -0.26001479053E+03 -0.42410256231E+03 -0.11172863210E+04  0.12230294398E+04  0.12699999809E+01 0.  1.
       -4    1    3    3    0  502  0.26001479053E+03  0.42410256231E+03  0.29290502467E+03  0.57729164296E+03  0.12699999809E+01 0. -1.
</event>
<event>
 5   0  0.9616567E-05  0.1602111E+04  0.7818609E-02  0.8819252E-01
        1   -1    0    0  501    0  0.00000000000E+00  0.00000000000E+00  0.83994701537E+03  0.83994701538E+03  0.50400001928E-02 0.  1.
       -1   -1    0    0    0  501  0.00000000000E+00  0.00000000000E+00 -0.76396474214E+03  0.76396474215E+03  0.50400001928E-02 0. -1.
    10030    2    1    2    0    0  0.00000000000E+00  0.00000000000E+00  0.75982273230E+02  0.16039117575E+04  0.16021109887E+04 0.  0.
        5    1    3    3  502    0 -0.14324463967E+02 -0.14374150909E+03 -0.75080373231E+03  0.76458822000E+03  0.46999998093E+01 0. -1.
       -5    1    3    3    0  502  0.14324463967E+02  0.14374150909E+03  0.82678600554E+03  0.83932353754E+03  0.46999998093E+01 0.  1.
</event>
<event>
 5   0  0.1774934E-04  0.1596858E+04  0.7818609E-02  0.8822481E-01
       -2   -1    0    0    0  501  0.00000000000E+00  0.00000000000E+00  0.10269494785E+04  0.10269494785E+04  0.25500000920E-02 0. -1.
        2   -1    0    0  501    0  0.00000000000E+00  0.00000000000E+00 -0.62075932981E+03  0.62075932982E+03  0.25500000920E-02 0.  1.
    10030    2    1    2    0    0  0.00000000000E+00  0.00000000000E+00  0.40619014865E+03  0.16477088083E+04  0.15968575015E+04 0.  0.
        1    1    3    3  502    0 -0.13941655830E+03 -0.60040934722E+03  0.72676013773E+03  0.95294735362E+03  0.50400001928E-02 0. -1.
       -1    1    3    3    0  502  0.13941655830E+03  0.60040934722E+03 -0.32056998908E+03  0.69476145466E+03  0.50400001928E-02 0.  1.
</event>
<event>
 5   0  0.1858913E-04  0.1626160E+04  0.7818609E-02  0.8804636E-01
       -2   -1    0    0    0  501  0.00000000000E+00  0.00000000000E+00  0.54951301994E+03  0.54951301995E+03  0.25500000920E-02 0. -1.
        2   -1    0    0  501    0  0.00000000000E+00  0.00000000000E+00 -0.12030632287E+04  0.12030632287E+04  0.25500000920E-02 0.  1.
    10030    2    1    2    0    0  0.00000000000E+00  0.00000000000E+00 -0.65355020877E+03  0.17525762487E+04  0.16261597806E+04 0.  0.
        4    1    3    3  502    0 -0.80048335728E+03 -0.12561904707E+03 -0.25412920339E+03  0.84919786575E+03  0.12699999809E+01 0.  1.
       -4    1    3    3    0  502  0.80048335728E+03  0.12561904707E+03 -0.39942100538E+03  0.90337838291E+03  0.12699999809E+01 0. -1.
</event>
<event>
 5   0  0.1832646E-04  0.1610526E+04  0.7818609E-02  0.8814107E-01
        2   -1    0    0  501    0  0.00000000000E+00  0.00000000000E+00  0.18948721537E+04  0.18948721537E+04  0.25500000920E-02 0.  1.
       -2   -1    0    0    0  501  0.00000000000E+00  0.00000000000E+00 -0.34221225491E+03  0.34221225492E+03  0.25500000920E-02 0. -1.
    10030    2    1    2    0    0  0.00000000000E+00  0.00000000000E+00  0.15526598988E+04  0.22370844086E+04  0.16105259669E+04 0.  0.
        2    1    3    3  502    0  0.21495871398E+03  0.44395080957E+03  0.16604718502E+04  0.17321854218E+04  0.25500000920E-02 0.  1.
       -2    1    3    3    0  502 -0.21495871398E+03 -0.44395080957E+03 -0.10781195144E+03  0.50489898684E+03  0.25500000920E-02 0. -1.
</event>
<event>
 5   0  0.1832646E-04  0.1603773E+04  0.7818609E-02  0.8818234E-01
       -2   -1    0    0    0  501  0.00000000000E+00  0.00000000000E+00  0.25287811946E+03  0.25287811947E+03  0.25500000920E-02 0. -1.
        2   -1    0    0  501    0  0.00000000000E+00  0.00000000000E+00 -0.25428125049E+04  0.25428125049E+04  0.25500000920E-02 0.  1.
    10030    2    1    2    0    0  0.00000000000E+00  0.00000000000E+00 -0.22899343855E+04  0.27956906244E+04  0.16037726078E+04 0.  0.
        2    1    3    3  502    0  0.75887361894E+03  0.25768165151E+03 -0.11921508971E+04  0.14364932177E+04  0.25500000920E-02 0. -1.
       -2    1    3    3    0  502 -0.75887361894E+03 -0.25768165151E+03 -0.10977834884E+04  0.13591974068E+04  0.25500000920E-02 0.  1.
</event>
<event>
 5   0  0.6838750E-05  0.1631387E+04  0.7818609E-02  0.8801495E-01
        4   -1    0    0  501    0  0.00000000000E+00  0.00000000000E+00  0.10032693076E+04  0.10032701114E+04  0.12699999809E+01 0.  1.
       -4   -1    0    0    0  501  0.00000000000E+00  0.00000000000E+00 -0.66318571239E+03  0.66318692841E+03  0.12699999809E+01 0. -1.
    10030    2    1    2    0    0  0.00000000000E+00  0.00000000000E+00  0.34008359518E+03  0.16664570398E+04  0.16313865924E+04 0.  0.
        5    1    3    3  502    0 -0.46625060267E+03 -0.40635114752E+03 -0.37320137445E+03  0.72236572141E+03  0.46999998093E+01 0. -1.
       -5    1    3    3    0  502  0.46625060267E+03  0.40635114752E+03  0.71328496963E+03  0.94409131840E+03  0.46999998093E+01 0.  1.
</event>
<event>
 5   0  0.9939872E-05  0.1600831E+04  0.7818609E-02  0.8820037E-01
       -1   -1    0    0    0  501  0.00000000000E+00  0.00000000000E+00  0.45067023314E+03  0.45067023316E+03  0.50400001928E-02 0. -1.
        1   -1    0    0  501    0  0.00000000000E+00  0.00000000000E+00 -0.14215832994E+04  0.14215832994E+04  0.50400001928E-02 0.  1.
    10030    2    1    2    0    0  0.00000000000E+00  0.00000000000E+00 -0.97091306628E+03  0.18722535326E+04  0.16008313803E+04 0.  0.
        3    1    3    3  502    0  0.70137674464E+03 -0.31366174157E+03 -0.74789559149E+03  0.10722223893E+04  0.10100000352E+00 0.  1.
       -3    1    3    3    0  502 -0.70137674464E+03  0.31366174157E+03 -0.22301747479E+03  0.80003114333E+03  0.10100000352E+00 0. -1.
</event>
<event>
 5   0  0.1835088E-04  0.1573282E+04  0.7818609E-02  0.8837132E-01
       -2   -1    0    0    0  501  0.00000000000E+00  0.00000000000E+00  0.58910517830E+03  0.58910517830E+03  0.25500000920E-02 0.  1.
        2   -1    0    0  501    0  0.00000000000E+00  0.00000000000E+00 -0.10504139047E+04  0.10504139047E+04  0.25500000920E-02 0. -1.
    10030    2    1    2    0    0  0.00000000000E+00  0.00000000000E+00 -0.46130872636E+03  0.16395190830E+04  0.15732822640E+04 0.  0.
        5    1    3    3  502    0  0.65227179537E+03  0.43005349731E+03 -0.13527123012E+03  0.79292174979E+03  0.46999998093E+01 0. -1.
       -5    1    3    3    0  502 -0.65227179537E+03 -0.43005349731E+03 -0.32603749624E+03  0.84659733317E+03  0.46999998093E+01 0.  1.
</event>
<event>
 5   0  0.1774934E-04  0.1618287E+04  0.7818609E-02  0.8809391E-01
       -2   -1    0    0    0  501  0.00000000000E+00  0.00000000000E+00  0.43746773096E+03  0.43746773097E+03  0.25500000920E-02 0. -1.
        2   -1    0    0  501    0  0.00000000000E+00  0.00000000000E+00 -0.14965985122E+04  0.14965985122E+04  0.25500000920E-02 0.  1.
    10030    2    1    2    0    0  0.00000000000E+00  0.00000000000E+00 -0.10591307812E+04  0.19340662431E+04  0.16182874347E+04 0.  0.
        1    1    3    3  502    0 -0.32605982988E+03 -0.37894283185E+03 -0.12899554015E+04  0.13834368870E+04  0.50400001928E-02 0.  1.
       -1    1    3    3    0  502  0.32605982988E+03  0.37894283185E+03  0.23082462029E+03  0.55062935613E+03  0.50400001928E-02 0. -1.
</event>
<event>
 5   0  0.9432152E-05  0.1600638E+04  0.7818609E-02  0.8820156E-01
        1   -1    0    0  501    0  0.00000000000E+00  0.00000000000E+00  0.99198917379E+03  0.99198917380E+03  0.50400001928E-02 0.  1.
       -1   -1    0    0    0  501  0.00000000000E+00  0.00000000000E+00 -0.64568290900E+03  0.64568290902E+03  0.50400001928E-02 0. -1.
    10030    2    1    2    0    0  0.00000000000E+00  0.00000000000E+00  0.34630626479E+03  0.16376720828E+04  0.16006379421E+04 0.  0.
        4    1    3    3  502    0  0.72178719674E+03 -0.60711365430E+02  0.52139001254E+03  0.89247508948E+03  0.12699999809E+01 0.  1.
       -4    1    3    3    0  502 -0.72178719674E+03  0.60711365430E+02 -0.17508374776E+03  0.74519699335E+03  0.12699999809E+01 0. -1.
</event>
<event>
 5   0  0.9939872E-05  0.1637879E+04  0.7818609E-02  0.8797609E-01
       -1   -1    0    0    0  501  0.00000000000E+00  0.00000000000E+00  0.45761730735E+03  0.45761730738E+03  0.50400001928E-02 0.  1.
        1   -1    0    0  501    0  0.00000000000E+00  0.00000000000E+00 -0.14655521088E+04  0.14655521088E+04  0.50400001928E-02 0. -1.
    10030    2    1    2    0    0  0.00000000000E+00  0.00000000000E+00 -0.10079348015E+04  0.19231694162E+04  0.16378791284E+04 0.  0.
        3    1    3    3  502    0  0.41699502526E+03 -0.28404406312E+03  0.25344520274E+03  0.56462408900E+03  0.10100000352E+00 0.  1.
       -3    1    3    3    0  502 -0.41699502526E+03  0.28404406312E+03 -0.12613800042E+04  0.13585453272E+04  0.10100000352E+00 0. -1.
</event>
<event>
 5   0  0.1835088E-04  0.1589277E+04  0.7818609E-02  0.8827163E-01
        2   -1    0    0  501    0  0.00000000000E+00  0.00000000000E+00  0.67297364239E+03  0.67297364240E+03  0.25500000920E-02 0.  1.
       -2   -1    0    0    0  501  0.00000000000E+00  0.00000000000E+00 -0.93829880486E+03  0.93829880486E+03  0.25500000920E-02 0. -1.
    10030    2    1    2    0    0  0.00000000000E+00  0.00000000000E+00 -0.26532516247E+03  0.16112724473E+04  0.15892770235E+04 0.  0.
        5    1    3    3  502    0 -0.50795574904E+03  0.49378534774E+03  0.23229902651E+03  0.74553869138E+03  0.46999998093E+01 0.  1.
       -5    1    3    3    0  502  0.50795574904E+03 -0.49378534774E+03 -0.49762418898E+03  0.86573375589E+03  0.46999998093E+01 0. -1.
</event>
<event>
 5   0  0.1835088E-04  0.1608778E+04  0.7818609E-02  0.8815174E-01
       -2   -1    0    0    0  501  0.00000000000E+00  0.00000000000E+00  0.37240817224E+03  0.37240817225E+03  0.25500000920E-02 0. -1.
        2   -1    0    0  501    0  0.00000000000E+00  0.00000000000E+00 -0.17374523442E+04  0.17374523442E+04  0.25500000920E-02 0.  1.
    10030    2    1    2    0    0  0.00000000000E+00  0.00000000000E+00 -0.13650441720E+04  0.21098605165E+04  0.16087777372E+04 0.  0.
        5    1    3    3  502    0 -0.22286176512E+03 -0.77287904769E+03 -0.67838042494E+03  0.10522506734E+04  0.46999998093E+01 0.  1.
       -5    1    3    3    0  502  0.22286176512E+03  0.77287904769E+03 -0.68666374706E+03  0.10576098431E+04  0.46999998093E+01 0. -1.
</event>
<event>
 5   0  0.1832646E-04  0.1602563E+04  0.7818609E-02  0.8818975E-01
       -2   -1    0    0    0  501  0.00000000000E+00  0.00000000000E+00  0.83990546190E+03  0.83990546190E+03  0.25500000920E-02 0.  1.
        2   -1    0    0  501    0  0.00000000000E+00  0.00000000000E+00 -0.76443415083E+03  0.76443415084E+03  0.25500000920E-02 0. -1.
    10030    2    1    2    0    0  0.00000000000E+00  0.00000000000E+00  0.75471311067E+02  0.16043396127E+04  0.16025634696E+04 0.  0.
        2    1    3    3  502    0  0.23534144923E+03  0.46346224577E+03  0.64822260924E+03  0.83088832109E+03  0.25500000920E-02 0.  1.
       -2    1    3    3    0  502 -0.23534144923E+03 -0.46346224577E+03 -0.57275129818E+03  0.77345129165E+03  0.25500000920E-02 0. -1.
</event>
<event>
 5   0  0.1858913E-04  0.1595850E+04  0.7818609E-02  0.8823101E-01
       -2   -1    0    0    0  501  0.00000000000E+00  0.00000000000E+00  0.27079681116E+03  0.27079681118E+03  0.25500000920E-02 0.  1.
        2   -1    0    0  501    0  0.00000000000E+00  0.00000000000E+00 -0.23511527295E+04  0.23511527295E+04  0.25500000920E-02 0. -1.
    10030    2    1    2    0    0  0.00000000000E+00  0.00000000000E+00 -0.20803559183E+04  0.26219495407E+04  0.15958504463E+04 0.  0.
        4    1    3    3  502    0 -0.14244877065E+03 -0.46814106698E+03 -0.20756922055E+04  0.21325917227E+04  0.12699999809E+01 0. -1.
       -4    1    3    3    0  502  0.14244877065E+03  0.46814106698E+03 -0.46637127823E+01  0.48935781793E+03  0.12699999809E+01 0.  1.
</event>
<event>
 5   0  0.9673017E-05  0.1602436E+04  0.7818609E-02  0.8819053E-01
        1   -1    0    0  501    0  0.00000000000E+00  0.00000000000E+00  0.87089123109E+03  0.87089123111E+03  0.50400001928E-02 0.  1.
       -1   -1    0    0    0  501  0.00000000000E+00  0.00000000000E+00 -0.73711884584E+03  0.73711884586E+03  0.50400001928E-02 0. -1.
    10030    2    1    2    0    0  0.00000000000E+00  0.00000000000E+00  0.13377238525E+03  0.16080100770E+04  0.16024360694E+04 0.  0.
        1    1    3    3  502    0  0.10670961574E+03 -0.76580519449E+03 -0.14385814346E+03  0.78647295151E+03  0.50400001928E-02 0. -1.
       -1    1    3    3    0  502 -0.10670961574E+03  0.76580519449E+03  0.27763052871E+03  0.82153712545E+03  0.50400001928E-02 0.  1.
</event>
<event>
 5   0  0.9673017E-05  0.1593787E+04  0.7818609E-02  0.8824374E-01
        1   -1    0    0  501    0  0.00000000000E+00  0.00000000000E+00  0.10888066232E+04  0.10888066232E+04  0.50400001928E-02 0.  1.
       -1   -1    0    0    0  501  0.00000000000E+00  0.00000000000E+00 -0.58324318900E+03  0.58324318903E+03  0.50400001928E-02 0. -1.
    10030    2    1    2    0    0  0.00000000000E+00  0.00000000000E+00  0.50556343419E+03  0.16720498122E+04  0.15937867450E+04 0.  0.
        1    1    3    3  502    0  0.37555190288E+03  0.64141306078E+01 -0.48455236507E+03  0.61308349133E+03  0.50400001928E-02 0. -1.
       -1    1    3    3    0  502 -0.37555190288E+03 -0.64141306078E+01  0.99011579926E+03  0.10589663209E+04  0.50400001928E-02 0.  1.
</event>
<event>
 5   0  0.9939872E-05  0.1610415E+04  0.7818609E-02  0.8814175E-01
       -1   -1    0    0    0  501  0.00000000000E+00  0.00000000000E+00  0.45276402137E+03  0.45276402139E+03  0.50400001928E-02 0. -1.
        1   -1    0    0  501    0  0.00000000000E+00  0.00000000000E+00 -0.14320025722E+04  0.14320025723E+04  0.50400001928E-02 0.  1.
    10030    2    1    2    0    0  0.00000000000E+00  0.00000000000E+00 -0.97923855088E+03  0.18847665937E+04  0.16104151555E+04 0.  0.
        3    1    3    3  502    0 -0.47020692150E+03 -0.53646711962E+03 -0.52543670670E+02  0.71529879560E+03  0.10100000352E+00 0. -1.
       -3    1    3    3    0  502  0.47020692150E+03  0.53646711962E+03 -0.92669488021E+03  0.11694677980E+04  0.10100000352E+00 0.  1.
</event>
<event>
 5   0  0.1774934E-04  0.1599039E+04  0.7818609E-02  0.8821139E-01
       -2   -1    0    0    0  501  0.00000000000E+00  0.00000000000E+00  0.68229963179E+03  0.68229963179E+03  0.25500000920E-02 0.  1.
        2   -1    0    0  501    0  0.00000000000E+00  0.00000000000E+00 -0.93687743704E+03  0.93687743705E+03  0.25500000920E-02 0. -1.
    10030    2    1    2    0    0  0.00000000000E+00  0.00000000000E+00 -0.25457780525E+03  0.16191770688E+04  0.15990386241E+04 0.  0.
        1    1    3    3  502    0  0.28981432333E+03  0.56491511979E+03  0.36474191082E+03  0.73222817216E+03  0.50400001928E-02 0.  1.
       -1    1    3    3    0  502 -0.28981432333E+03 -0.56491511979E+03 -0.61931971607E+03  0.88694889668E+03  0.50400001928E-02 0. -1.
</event>
<event>
 5   0  0.6838750E-05  0.1600154E+04  0.7818609E-02  0.8820454E-01
        3   -1    0    0  501    0  0.00000000000E+00  0.00000000000E+00  0.11476113464E+04  0.11476113508E+04  0.10100000352E+00 0.  1.
       -3   -1    0    0    0  501  0.00000000000E+00  0.00000000000E+00 -0.55778713428E+03  0.55778714342E+03  0.10100000352E+00 0. -1.
    10030    2    1    2    0    0  0.00000000000E+00  0.00000000000E+00  0.58982421208E+03  0.17053984942E+04  0.16001535623E+04 0.  0.
        3    1    3    3  502    0 -0.29754751756E+03  0.34874416651E+02 -0.49575271412E+03  0.57924218933E+03  0.10100000352E+00 0. -1.
       -3    1    3    3    0  502  0.29754751756E+03 -0.34874416651E+02  0.10855769262E+04  0.11261563049E+04  0.10100000352E+00 0.  1.
</event>
<event>
 5   0  0.1858913E-04  0.1597349E+04  0.7818609E-02  0.8822178E-01
        2   -1    0    0  501    0  0.00000000000E+00  0.00000000000E+00  0.20980727003E+04  0.20980727003E+04  0.25500000920E-02 0.  1.
       -2   -1    0    0    0  501  0.00000000000E+00  0.00000000000E+00 -0.30403192025E+03  0.30403192026E+03  0.25500000920E-02 0. -1.
    10030    2    1    2    0    0  0.00000000000E+00  0.00000000000E+00  0.17940407800E+04  0.24021046205E+04  0.15973491439E+04 0.  0.
        4    1    3    3  502    0 -0.31644542418E+03 -0.13090190959E+03  0.19820631024E+04  0.20114295343E+04  0.12699999809E+01 0.  1.
       -4    1    3    3    0  502  0.31644542418E+03  0.13090190959E+03 -0.18802232239E+03  0.39067508627E+03  0.12699999809E+01 0. -1.
</event>
<event>
 5   0  0.9432152E-05  0.1572621E+04  0.7818609E-02  0.8837547E-01
        1   -1    0    0  501    0  0.00000000000E+00  0.00000000000E+00  0.80437471114E+03  0.80437471115E+03  0.50400001928E-02 0. -1.
       -1   -1    0    0    0  501  0.00000000000E+00  0.00000000000E+00 -0.76865199241E+03  0.76865199243E+03  0.50400001928E-02 0.  1.
    10030    2    1    2    0    0  0.00000000000E+00  0.00000000000E+00  0.35722718721E+02  0.15730267036E+04  0.15726210279E+04 0.  0.
        4    1    3    3  502    0  0.35557787059E+03 -0.27694548585E+03 -0.62662479208E+03  0.77187736535E+03  0.12699999809E+01 0.  1.
       -4    1    3    3    0  502 -0.35557787059E+03  0.27694548585E+03  0.66234751080E+03  0.80114933823E+03  0.12699999809E+01 0. -1.
</event>
<event>
 5   0  0.9616567E-05  0.1599639E+04  0.7818609E-02  0.8820770E-01
       -1   -1    0    0    0  501  0.00000000000E+00  0.00000000000E+00  0.11627714571E+04  0.11627714571E+04  0.50400001928E-02 0. -1.
        1   -1    0    0  501    0  0.00000000000E+00  0.00000000000E+00 -0.55016067276E+03  0.55016067278E+03  0.50400001928E-02 0.  1.
    10030    2    1    2    0    0  0.00000000000E+00  0.00000000000E+00  0.61261078433E+03  0.17129321299E+04  0.15996388681E+04 0.  0.
        5    1    3    3  502    0  0.76811084241E+03 -0.17731676584E+03  0.16163098741E+03  0.80472490192E+03  0.46999998093E+01 0.  1.
       -5    1    3    3    0  502 -0.76811084241E+03  0.17731676584E+03  0.45097979692E+03  0.90820722796E+03  0.46999998093E+01 0. -1.
</event>
<event>
 5   0  0.1774934E-04  0.1605531E+04  0.7818609E-02  0.8817157E-01
       -2   -1    0    0    0  501  0.00000000000E+00  0.00000000000E+00  0.28176253191E+03  0.28176253192E+03  0.25500000920E-02 0. -1.
        2   -1    0    0  501    0  0.00000000000E+00  0.00000000000E+00 -0.22871475594E+04  0.22871475594E+04  0.25500000920E-02 0.  1.
    10030    2    1    2    0    0  0.00000000000E+00  0.00000000000E+00 -0.20053850275E+04  0.25689100913E+04  0.16055310488E+04 0.  0.
        1    1    3    3  502    0  0.50770468472E+03 -0.47337828211E+03 -0.35753511511E+03  0.78082162075E+03  0.50400001928E-02 0. -1.
       -1    1    3    3    0  502 -0.50770468472E+03  0.47337828211E+03 -0.16478499123E+04  0.17880884705E+04  0.50400001928E-02 0.  1.
</event>
<event>
 5   0  0.9939872E-05  0.1598319E+04  0.7818609E-02  0.8821581E-01
       -1   -1    0    0    0  501  0.00000000000E+00  0.00000000000E+00  0.21387536859E+04  0.21387536859E+04  0.50400001928E-02 0. -1.
        1   -1    0    0  501    0  0.00000000000E+00  0.00000000000E+00 -0.29861127256E+03  0.29861127260E+03  0.50400001928E-02 0.  1.
    10030    2    1    2    0    0  0.00000000000E+00  0.00000000000E+00  0.18401424133E+04  0.24373649585E+04  0.15983190669E+04 0.  0.
        3    1    3    3  502    0  0.38706586082E+03  0.55655638113E+03  0.27474129707E+03  0.73147643606E+03  0.10100000352E+00 0.  1.
       -3    1    3    3    0  502 -0.38706586082E+03 -0.55655638113E+03  0.15654011162E+04  0.17058885224E+04  0.10100000352E+00 0. -1.
</event>
<event>
 5   0  0.1832646E-04  0.1600370E+04  0.7818609E-02  0.8820321E-01
        2   -1    0    0  501    0  0.00000000000E+00  0.00000000000E+00  0.18864226137E+04  0.18864226137E+04  0.25500000920E-02 0.  1.
       -2   -1    0    0    0  501  0.00000000000E+00  0.00000000000E+00 -0.33942335694E+03  0.33942335695E+03  0.25500000920E-02 0. -1.
    10030    2    1    2    0    0  0.00000000000E+00  0.00000000000E+00  0.15469992568E+04  0.22258459707E+04  0.16003698275E+04 0.  0.
        2    1    3    3  502    0 -0.52535961410E+03  0.60186535249E+03  0.83649173268E+03  0.11567035253E+04  0.25500000920E-02 0. -1.
       -2    1    3    3    0  502  0.52535961410E+03 -0.60186535249E+03  0.71050752413E+03  0.10691424454E+04  0.25500000920E-02 0.  1.
</event>
<event>
 5   0  0.1832646E-04  0.1601118E+04  0.7818609E-02  0.8819861E-01
       -2   -1    0    0    0  501  0.00000000000E+00  0.00000000000E+00  0.14483489144E+04  0.14483489144E+04  0.25500000920E-02 0.  1.
        2   -1    0    0  501    0  0.00000000000E+00  0.00000000000E+00 -0.44250030319E+03  0.44250030320E+03  0.25500000920E-02 0. -1.
    10030    2    1    2    0    0  0.00000000000E+00  0.00000000000E+00  0.10058486112E+04  0.18908492176E+04  0.16011181515E+04 0.  0.
        2    1    3    3  502    0  0.32706648540E+03 -0.44215979908E+03 -0.18408028844E+03  0.57996838395E+03  0.25500000920E-02 0. -1.
       -2    1    3    3    0  502 -0.32706648540E+03  0.44215979908E+03  0.11899288996E+04  0.13108808336E+04  0.25500000920E-02 0.  1.
</event>
<event>
 5   0  0.1858913E-04  0.1596785E+04  0.7818609E-02  0.8822526E-01
       -2   -1    0    0    0  501  0.00000000000E+00  0.00000000000E+00  0.97914648734E+03  0.97914648735E+03  0.25500000920E-02 0. -1.
        2   -1    0    0  501    0  0.00000000000E+00  0.00000000000E+00 -0.65100629823E+03  0.65100629823E+03  0.25500000920E-02 0.  1.
    10030    2    1    2    0    0  0.00000000000E+00  0.00000000000E+00  0.32814018912E+03  0.16301527856E+04  0.15967849325E+04 0.  0.
        4    1    3    3  502    0 -0.69335925197E+03  0.39184724494E+03  0.10688527130E+03  0.80356542346E+03  0.12699999809E+01 0. -1.
       -4    1    3    3    0  502  0.69335925197E+03 -0.39184724494E+03  0.22125491782E+03  0.82658736212E+03  0.12699999809E+01 0.  1.
</event>
<event>
 5   0  0.1914170E-04  0.1600554E+04  0.7818609E-02  0.8820208E-01
       -2   -1    0    0    0  501  0.00000000000E+00  0.00000000000E+00  0.50038832834E+03  0.50038832834E+03  0.25500000920E-02 0. -1.
        2   -1    0    0  501    0  0.00000000000E+00  0.00000000000E+00 -0.12798928936E+04  0.12798928936E+04  0.25500000920E-02 0.  1.
    10030    2    1    2    0    0  0.00000000000E+00  0.00000000000E+00 -0.77950456524E+03  0.17802812219E+04  0.16005542359E+04 0.  0.
        3    1    3    3  502    0 -0.73951049552E+03  0.11429300921E+03 -0.70534652943E+03  0.10283250467E+04  0.10100000352E+00 0.  1.
       -3    1    3    3    0  502  0.73951049552E+03 -0.11429300921E+03 -0.74158035803E+02  0.75195617520E+03  0.10100000352E+00 0. -1.
</event>
<event>
 5   0  0.1774934E-04  0.1596419E+04  0.7818609E-02  0.8822751E-01
        2   -1    0    0  501    0  0.00000000000E+00  0.00000000000E+00  0.14798525593E+04  0.14798525594E+04  0.25500000920E-02 0. -1.
       -2   -1    0    0    0  501  0.00000000000E+00  0.00000000000E+00 -0.43054170007E+03  0.43054170008E+03  0.25500000920E-02 0.  1.
    10030    2    1    2    0    0  0.00000000000E+00  0.00000000000E+00  0.10493108593E+04  0.19103942594E+04  0.15964187881E+04 0.  0.
        1    1    3    3  502    0  0.68192557131E+03  0.34840401030E+03  0.25512344638E+03  0.80715290505E+03  0.50400001928E-02 0.  1.
       -1    1    3    3    0  502 -0.68192557131E+03 -0.34840401030E+03  0.79418741289E+03  0.11032413544E+04  0.50400001928E-02 0. -1.
</event>
<event>
 5   0  0.1835088E-04  0.1598407E+04  0.7818609E-02  0.8821527E-01
       -2   -1    0    0    0  501  0.00000000000E+00  0.00000000000E+00  0.51735423462E+03  0.51735423463E+03  0.25500000920E-02 0. -1.
        2   -1    0    0  501    0  0.00000000000E+00  0.00000000000E+00 -0.12346017942E+04  0.12346017942E+04  0.25500000920E-02 0.  1.
    10030    2    1    2    0    0  0.00000000000E+00  0.00000000000E+00 -0.71724755955E+03  0.17519560288E+04  0.15984072901E+04 0.  0.
        5    1    3    3  502    0 -0.35980702621E+03  0.26137017517E+03 -0.10864371651E+04  0.11739434689E+04  0.46999998093E+01 0.  1.
       -5    1    3    3    0  502  0.35980702621E+03 -0.26137017517E+03  0.36918960551E+03  0.57801255989E+03  0.46999998093E+01 0. -1.
</event>
<event>
 5   0  0.9432152E-05  0.1601638E+04  0.7818609E-02  0.8819543E-01
        1   -1    0    0  501    0  0.00000000000E+00  0.00000000000E+00  0.99021681293E+03  0.99021681294E+03  0.50400001928E-02 0. -1.
       -1   -1    0    0    0  501  0.00000000000E+00  0.00000000000E+00 -0.64764686460E+03  0.64764686462E+03  0.50400001928E-02 0.  1.
    10030    2    1    2    0    0  0.00000000000E+00  0.00000000000E+00  0.34256994833E+03  0.16378636776E+04  0.16016376796E+04 0.  0.
        4    1    3    3  502    0  0.99274565799E+02 -0.63780283941E+03 -0.31342014687E+03  0.71755257838E+03  0.12699999809E+01 0. -1.
       -4    1    3    3    0  502 -0.99274565799E+02  0.63780283941E+03  0.65599009520E+03  0.92031109918E+03  0.12699999809E+01 0.  1.
</event>
<event>
 5   0  0.9616567E-05  0.1602080E+04  0.7818609E-02  0.8819271E-01
        1   -1    0    0  501    0  0.00000000000E+00  0.00000000000E+00  0.91297686726E+03  0.91297686728E+03  0.50400001928E-02 0. -1.
       -1   -1    0    0    0  501  0.00000000000E+00  0.00000000000E+00 -0.70282718041E+03  0.70282718043E+03  0.50400001928E-02 0.  1.
    10030    2    1    2    0    0  0.00000000000E+00  0.00000000000E+00  0.21014968685E+03  0.16158040477E+04  0.16020798450E+04 0.  0.
        5    1    3    3  502    0  0.44387356743E+03 -0.37877363081E+03 -0.44839724415E+03  0.73591805646E+03  0.46999998093E+01 0.  1.
       -5    1    3    3    0  502 -0.44387356743E+03  0.37877363081E+03  0.65854693100E+03  0.87988599125E+03  0.46999998093E+01 0. -1.
</event>
<event>
 5   0  0.1858913E-04  0.1602692E+04  0.7818609E-02  0.8818896E-01
       -2   -1    0    0    0  501  0.00000000000E+00  0.00000000000E+00  0.34128532875E+03  0.34128532876E+03  0.25500000920E-02 0.  1.
        2   -1    0    0  501    0  0.00000000000E+00  0.00000000000E+00 -0.18815789732E+04  0.18815789732E+04  0.25500000920E-02 0. -1.
    10030    2    1    2    0    0  0.00000000000E+00  0.00000000000E+00 -0.15402936444E+04  0.22228643019E+04  0.16026918586E+04 0.  0.
        4    1    3    3  502    0  0.70215197319E+03  0.34629520040E+03 -0.10072147210E+04  0.12757040669E+04  0.12699999809E+01 0.  1.
       -4    1    3    3    0  502 -0.70215197319E+03 -0.34629520040E+03 -0.53307892341E+03  0.94716023499E+03  0.12699999809E+01 0. -1.
</event>
<event>
 5   0  0.1832646E-04  0.1602235E+04  0.7818609E-02  0.8819176E-01
       -2   -1    0    0    0  501  0.00000000000E+00  0.00000000000E+00  0.10008690801E+04  0.10008690801E+04  0.25500000920E-02 0. -1.
        2   -1    0    0  501    0  0.00000000000E+00  0.00000000000E+00 -0.64123236650E+03  0.64123236651E+03  0.25500000920E-02 0.  1.
    10030    2    1    2    0    0  0.00000000000E+00  0.00000000000E+00  0.35963671355E+03  0.16421014466E+04  0.16022354993E+04 0.  0.
        2    1    3    3  502    0  0.48538273603E+03 -0.51363363240E+03 -0.20689447303E+03  0.73635672859E+03  0.25500000920E-02 0.  1.
       -2    1    3    3    0  502 -0.48538273603E+03  0.51363363240E+03  0.56653118658E+03  0.90574471797E+03  0.25500000920E-02 0. -1.
</event>
<event>
 5   0  0.9616567E-05  0.1603777E+04  0.7818609E-02  0.8818231E-01
       -1   -1    0    0    0  501  0.00000000000E+00  0.00000000000E+00  0.55264004583E+03  0.55264004585E+03  0.50400001928E-02 0. -1.
        1   -1    0    0  501    0  0.00000000000E+00  0.00000000000E+00 -0.11635516384E+04  0.11635516384E+04  0.50400001928E-02 0.  1.
    10030    2    1    2    0    0  0.00000000000E+00  0.00000000000E+00 -0.61091159259E+03  0.17161916843E+04  0.16037770803E+04 0.  0.
        5    1    3    3  502    0  0.35304462345E+03 -0.22625113197E+03  0.42595385376E+03  0.59773644392E+03  0.46999998093E+01 0. -1.
       -5    1    3    3    0  502 -0.35304462345E+03  0.22625113197E+03 -0.10368654463E+04  0.11184552404E+04  0.46999998093E+01 0.  1.
</event>
<event>
 5   0  0.9726935E-05  0.1606683E+04  0.7818609E-02  0.8816453E-01
       -1   -1    0    0    0  501  0.00000000000E+00  0.00000000000E+00  0.37923297158E+03  0.37923297161E+03  0.50400001928E-02 0. -1.
        1   -1    0    0  501    0  0.00000000000E+00  0.00000000000E+00 -0.17017446577E+04  0.17017446577E+04  0.50400001928E-02 0.  1.
    10030    2    1    2    0    0  0.00000000000E+00  0.00000000000E+00 -0.13225116861E+04  0.20809776293E+04  0.16066831467E+04 0.  0.
        2    1    3    3  502    0 -0.42323794771E+03  0.38230365884E+03  0.71502035263E+02  0.57480343509E+03  0.25500000920E-02 0. -1.
       -2    1    3    3    0  502  0.42323794771E+03 -0.38230365884E+03 -0.13940137214E+04  0.15061741943E+04  0.25500000920E-02 0.  1.
</event>
<event>
 5   0  0.1835088E-04  0.1619273E+04  0.7818609E-02  0.8808795E-01
        2   -1    0    0  501    0  0.00000000000E+00  0.00000000000E+00  0.45193978198E+03  0.45193978199E+03  0.25500000920E-02 0. -1.
       -2   -1    0    0    0  501  0.00000000000E+00  0.00000000000E+00 -0.14504385223E+04  0.14504385223E+04  0.25500000920E-02 0.  1.
    10030    2    1    2    0    0  0.00000000000E+00  0.00000000000E+00 -0.99849874034E+03  0.19023783043E+04  0.16192725151E+04 0.  0.
        5    1    3    3  502    0  0.46864475664E+03  0.53008049625E+02  0.27386985333E+03  0.54540310580E+03  0.46999998093E+01 0. -1.
       -5    1    3    3    0  502 -0.46864475664E+03 -0.53008049625E+02 -0.12723685937E+04  0.13569751985E+04  0.46999998093E+01 0.  1.
</event>
<event>
 5   0  0.9726935E-05  0.1599162E+04  0.7818609E-02  0.8821063E-01
        1   -1    0    0  501    0  0.00000000000E+00  0.00000000000E+00  0.12533085908E+04  0.12533085908E+04  0.50400001928E-02 0.  1.
       -1   -1    0    0    0  501  0.00000000000E+00  0.00000000000E+00 -0.51011375978E+03  0.51011375981E+03  0.50400001928E-02 0. -1.
    10030    2    1    2    0    0  0.00000000000E+00  0.00000000000E+00  0.74319483106E+03  0.17634223507E+04  0.15991622275E+04 0.  0.
        2    1    3    3  502    0 -0.38536735949E+03  0.65172063458E+03  0.65506667316E+03  0.10011793713E+04  0.25500000920E-02 0. -1.
       -2    1    3    3    0  502  0.38536735949E+03 -0.65172063458E+03  0.88128157900E+02  0.76224297932E+03  0.25500000920E-02 0.  1.
</event>
<event>
 5   0  0.9939872E-05  0.1598297E+04  0.7818609E-02  0.8821595E-01
        1   -1    0    0  501    0  0.00000000000E+00  0.00000000000E+00  0.84660329930E+03  0.84660329931E+03  0.50400001928E-02 0.  1.
       -1   -1    0    0    0  501  0.00000000000E+00  0.00000000000E+00 -0.75435332248E+03  0.75435332250E+03  0.50400001928E-02 0. -1.
    10030    2    1    2    0    0  0.00000000000E+00  0.00000000000E+00  0.92249976816E+02  0.16009566218E+04  0.15982966079E+04 0.  0.
        3    1    3    3  502    0 -0.58317738449E+03 -0.48749836951E+03  0.29328954040E+03  0.81472037336E+03  0.10100000352E+00 0. -1.
       -3    1    3    3    0  502  0.58317738449E+03  0.48749836951E+03 -0.20103956359E+03  0.78623624845E+03  0.10100000352E+00 0.  1.
</event>
<event>
 5   0  0.9673017E-05  0.1594728E+04  0.7818609E-02  0.8823793E-01
        1   -1    0    0  501    0  0.00000000000E+00  0.00000000000E+00  0.73938955659E+03  0.73938955661E+03  0.50400001928E-02 0.  1.
       -1   -1    0    0    0  501  0.00000000000E+00  0.00000000000E+00 -0.85988443076E+03  0.85988443078E+03  0.50400001928E-02 0. -1.
    10030    2    1    2    0    0  0.00000000000E+00  0.00000000000E+00 -0.12049487417E+03  0.15992739874E+04  0.15947282753E+04 0.  0.
        1    1    3    3  502    0  0.53830873926E+03  0.56881043106E+03  0.90072998749E+02  0.78831132833E+03  0.50400001928E-02 0.  1.
       -1    1    3    3    0  502 -0.53830873926E+03 -0.56881043106E+03 -0.21056787292E+03  0.81096265905E+03  0.50400001928E-02 0. -1.
</event>
<event>
 5   0  0.1774934E-04  0.1595958E+04  0.7818609E-02  0.8823035E-01
        2   -1    0    0  501    0  0.00000000000E+00  0.00000000000E+00  0.17612646012E+04  0.17612646012E+04  0.25500000920E-02 0. -1.
       -2   -1    0    0    0  501  0.00000000000E+00  0.00000000000E+00 -0.36154142186E+03  0.36154142187E+03  0.25500000920E-02 0.  1.
    10030    2    1    2    0    0  0.00000000000E+00  0.00000000000E+00  0.13997231793E+04  0.21228060231E+04  0.15959575285E+04 0.  0.
        1    1    3    3  502    0  0.16570336317E+03 -0.42011959919E+03 -0.17520004031E+03  0.48441009108E+03  0.50400001928E-02 0.  1.
       -1    1    3    3    0  502 -0.16570336317E+03  0.42011959919E+03  0.15749232196E+04  0.16383959320E+04  0.50400001928E-02 0. -1.
</event>
<event>
 5   0  0.6838750E-05  0.1597021E+04  0.7818609E-02  0.8822380E-01
        3   -1    0    0  501    0  0.00000000000E+00  0.00000000000E+00  0.10637148327E+04  0.10637148375E+04  0.10100000352E+00 0. -1.
       -3   -1    0    0    0  501  0.00000000000E+00  0.00000000000E+00 -0.59942658061E+03  0.59942658912E+03  0.10100000352E+00 0.  1.
    10030    2    1    2    0    0  0.00000000000E+00  0.00000000000E+00  0.46428825210E+03  0.16631414266E+04  0.15970209216E+04 0.  0.
        5    1    3    3  502    0  0.66570131620E+02 -0.79537698230E+03  0.20792755436E+03  0.82481033229E+03  0.46999998093E+01 0. -1.
       -5    1    3    3    0  502 -0.66570131620E+02  0.79537698230E+03  0.25636069774E+03  0.83833109434E+03  0.46999998093E+01 0.  1.
</event>
<event>
 5   0  0.1914170E-04  0.1599232E+04  0.7818609E-02  0.8821020E-01
        2   -1    0    0  501    0  0.00000000000E+00  0.00000000000E+00  0.19229363300E+04  0.19229363300E+04  0.25500000920E-02 0.  1.
       -2   -1    0    0    0  501  0.00000000000E+00  0.00000000000E+00 -0.33250502717E+03  0.33250502718E+03  0.25500000920E-02 0. -1.
    10030    2    1    2    0    0  0.00000000000E+00  0.00000000000E+00  0.15904313028E+04  0.22554413571E+04  0.15992323116E+04 0.  0.
        3    1    3    3  502    0 -0.71106273987E+03  0.32836215679E+03  0.10224231390E+04  0.12879367264E+04  0.10100000352E+00 0.  1.
       -3    1    3    3    0  502  0.71106273987E+03 -0.32836215679E+03  0.56800816383E+03  0.96750463070E+03  0.10100000352E+00 0. -1.
</event>
<event>
 5   0  0.1835088E-04  0.1599165E+04  0.7818609E-02  0.8821061E-01
       -2   -1    0    0    0  501  0.00000000000E+00  0.00000000000E+00  0.55029930453E+03  0.55029930454E+03  0.25500000920E-02 0.  1.
        2   -1    0    0  501    0  0.00000000000E+00  0.00000000000E+00 -0.11617903293E+04  0.11617903293E+04  0.25500000920E-02 0. -1.
    10030    2    1    2    0    0  0.00000000000E+00  0.00000000000E+00 -0.61149102473E+03  0.17120896338E+04  0.15991652950E+04 0.  0.
        5    1    3    3  502    0  0.13467991283E+03  0.15342751484E+02  0.53789348286E+03  0.55473017571E+03  0.46999998093E+01 0.  1.
       -5    1    3    3    0  502 -0.13467991283E+03 -0.15342751484E+02 -0.11493845076E+04  0.11573594581E+04  0.46999998093E+01 0. -1.
</event>
<event>
 5   0  0.1858913E-04  0.1582372E+04  0.7818609E-02  0.8831452E-01
        2   -1    0    0  501    0  0.00000000000E+00  0.00000000000E+00  0.17491028375E+04  0.17491028376E+04  0.25500000920E-02 0.  1.
       -2   -1    0    0    0  501  0.00000000000E+00  0.00000000000E+00 -0.35788349736E+03  0.35788349737E+03  0.25500000920E-02 0. -1.
    10030    2    1    2    0    0  0.00000000000E+00  0.00000000000E+00  0.13912193402E+04  0.21069863349E+04  0.15823716893E+04 0.  0.
        4    1    3    3  502    0 -0.75913966217E+03  0.93411529544E+02  0.42614302087E+03  0.87556737472E+03  0.12699999809E+01 0. -1.
       -4    1    3    3    0  502  0.75913966217E+03 -0.93411529544E+02  0.96507631932E+03  0.12314189602E+04  0.12699999809E+01 0.  1.
</event>
<event>
 5   0  0.1774934E-04  0.1596413E+04  0.7818609E-02  0.8822755E-01
       -2   -1    0    0    0  501  0.00000000000E+00  0.00000000000E+00  0.84514716722E+03  0.84514716722E+03  0.25500000920E-02 0.  1.
        2   -1    0    0  501    0  0.00000000000E+00  0.00000000000E+00 -0.75387304771E+03  0.75387304771E+03  0.25500000920E-02 0. -1.
    10030    2    1    2    0    0  0.00000000000E+00  0.00000000000E+00  0.91274119512E+02  0.15990202149E+04  0.15964130677E+04 0.  0.
        1    1    3    3  502    0  0.35077754155E+03  0.13987314191E+03  0.75000972624E+03  0.83971660038E+03  0.50400001928E-02 0.  1.
       -1    1    3    3    0  502 -0.35077754155E+03 -0.13987314191E+03 -0.65873560672E+03  0.75930361455E+03  0.50400001928E-02 0. -1.
</event>
<event>
 5   0  0.9726935E-05  0.1597383E+04  0.7818609E-02  0.8822157E-01
       -1   -1    0    0    0  501  0.00000000000E+00  0.00000000000E+00  0.10025279137E+04  0.10025279137E+04  0.50400001928E-02 0.  1.
        1   -1    0    0  501    0  0.00000000000E+00  0.00000000000E+00 -0.63629943303E+03  0.63629943305E+03  0.50400001928E-02 0. -1.
    10030    2    1    2    0    0  0.00000000000E+00  0.00000000000E+00  0.36622848068E+03  0.16388273468E+04  0.15973827883E+04 0.  0.
        2    1    3    3  502    0  0.35190052949E+03 -0.16807839825E+03 -0.53198038056E+03  0.65961159474E+03  0.25500000920E-02 0. -1.
       -2    1    3    3    0  502 -0.35190052949E+03  0.16807839825E+03  0.89820886125E+03  0.97921575204E+03  0.25500000920E-02 0.  1.
</event>
<event>
 5   0  0.9939872E-05  0.1590289E+04  0.7818609E-02  0.8826536E-01
       -1   -1    0    0    0  501  0.00000000000E+00  0.00000000000E+00  0.35771138839E+03  0.35771138843E+03  0.50400001928E-02 0.  1.
        1   -1    0    0  501    0  0.00000000000E+00  0.00000000000E+00 -0.17674994351E+04  0.17674994351E+04  0.50400001928E-02 0. -1.
    10030    2    1    2    0    0  0.00000000000E+00  0.00000000000E+00 -0.14097880467E+04  0.21252108236E+04  0.15902888756E+04 0.  0.
        3    1    3    3  502    0  0.20815753193E+03  0.56872136616E+03 -0.13934556496E+04  0.15193723073E+04  0.10100000352E+00 0. -1.
       -3    1    3    3    0  502 -0.20815753193E+03 -0.56872136616E+03 -0.16332397106E+02  0.60583851629E+03  0.10100000352E+00 0.  1.
</event>
<event>
 5   0  0.1914170E-04  0.1599059E+04  0.7818609E-02  0.8821126E-01
        2   -1    0    0  501    0  0.00000000000E+00  0.00000000000E+00  0.10843175882E+04  0.10843175882E+04  0.25500000920E-02 0. -1.
       -2   -1    0    0    0  501  0.00000000000E+00  0.00000000000E+00 -0.58953919834E+03  0.58953919835E+03  0.25500000920E-02 0.  1.
    10030    2    1    2    0    0  0.00000000000E+00  0.00000000000E+00  0.49477838987E+03  0.16738567866E+04  0.15990593756E+04 0.  0.
        3    1    3    3  502    0  0.14990459939E+03  0.15990650562E+03  0.10522545041E+04  0.10748400025E+04  0.10100000352E+00 0. -1.
       -3    1    3    3    0  502 -0.14990459939E+03 -0.15990650562E+03 -0.55747611420E+03  0.59901678405E+03  0.10100000352E+00 0.  1.
</event>
<event>
 5   0  0.1914170E-04  0.1599905E+04  0.7818609E-02  0.8820606E-01
       -2   -1    0    0    0  501  0.00000000000E+00  0.00000000000E+00  0.80240425702E+03  0.80240425703E+03  0.25500000920E-02 0.  1.
        2   -1    0    0  501    0  0.00000000000E+00  0.00000000000E+00 -0.79750854170E+03  0.79750854171E+03  0.25500000920E-02 0. -1.
    10030    2    1    2    0    0  0.00000000000E+00  0.00000000000E+00  0.48957153210E+01  0.15999127987E+04  0.15999053083E+04 0.  0.
        3    1    3    3  502    0  0.66319719748E+03  0.31155552979E+03 -0.31853163154E+03  0.79897420571E+03  0.10100000352E+00 0. -1.
       -3    1    3    3    0  502 -0.66319719748E+03 -0.31155552979E+03  0.32342734686E+03  0.80093859303E+03  0.10100000352E+00 0.  1.
</event>
<event>
 5   0  0.9726935E-05  0.1592896E+04  0.7818609E-02  0.8824924E-01
       -1   -1    0    0    0  501  0.00000000000E+00  0.00000000000E+00  0.44650665111E+03  0.44650665114E+03  0.50400001928E-02 0.  1.
        1   -1    0    0  501    0  0.00000000000E+00  0.00000000000E+00 -0.14206492223E+04  0.14206492223E+04  0.50400001928E-02 0. -1.
    10030    2    1    2    0    0  0.00000000000E+00  0.00000000000E+00 -0.97414257120E+03  0.18671558735E+04  0.15928958870E+04 0.  0.
        2    1    3    3  502    0 -0.16761843702E+03  0.33903842976E+03  0.33452889119E+03  0.50492828830E+03  0.25500000920E-02 0.  1.
       -2    1    3    3    0  502  0.16761843702E+03 -0.33903842976E+03 -0.13086714624E+04  0.13622275852E+04  0.25500000920E-02 0. -1.
</event>
<event>
 5   0  0.9673017E-05  0.1599877E+04  0.7818609E-02  0.8820624E-01
       -1   -1    0    0    0  501  0.00000000000E+00  0.00000000000E+00  0.61832431701E+03  0.61832431704E+03  0.50400001928E-02 0. -1.
        1   -1    0    0  501    0  0.00000000000E+00  0.00000000000E+00 -0.10348961231E+04  0.10348961231E+04  0.50400001928E-02 0.  1.
    10030    2    1    2    0    0  0.00000000000E+00  0.00000000000E+00 -0.41657180604E+03  0.16532204401E+04  0.15998767934E+04 0.  0.
        1    1    3    3  502    0  0.28946061062E+02  0.70672424453E+03 -0.59438055870E+03  0.92389679123E+03  0.50400001928E-02 0.  1.
       -1    1    3    3    0  502 -0.28946061062E+02 -0.70672424453E+03  0.17780875266E+03  0.72932364887E+03  0.50400001928E-02 0. -1.
</event>
<event>
 5   0  0.1835088E-04  0.1595399E+04  0.7818609E-02  0.8823379E-01
        2   -1    0    0  501    0  0.00000000000E+00  0.00000000000E+00  0.57620309253E+03  0.57620309253E+03  0.25500000920E-02 0. -1.
       -2   -1    0    0    0  501  0.00000000000E+00  0.00000000000E+00 -0.11043409279E+04  0.11043409279E+04  0.25500000920E-02 0.  1.
    10030    2    1    2    0    0  0.00000000000E+00  0.00000000000E+00 -0.52813783541E+03  0.16805440205E+04  0.15953992076E+04 0.  0.
        5    1    3    3  502    0 -0.21817623129E+03  0.50290543464E+03 -0.87446676439E+03  0.10320992957E+04  0.46999998093E+01 0.  1.
       -5    1    3    3    0  502  0.21817623129E+03 -0.50290543464E+03  0.34632892898E+03  0.64844472481E+03  0.46999998093E+01 0. -1.
</event>
<event>
 5   0  0.9432152E-05  0.1601542E+04  0.7818609E-02  0.8819602E-01
       -1   -1    0    0    0  501  0.00000000000E+00  0.00000000000E+00  0.50388308473E+03  0.50388308475E+03  0.50400001928E-02 0. -1.
        1   -1    0    0  501    0  0.00000000000E+00  0.00000000000E+00 -0.12725845106E+04  0.12725845106E+04  0.50400001928E-02 0.  1.
    10030    2    1    2    0    0  0.00000000000E+00  0.00000000000E+00 -0.76870142590E+03  0.17764675954E+04  0.16015415184E+04 0.  0.
        4    1    3    3  502    0 -0.48674778111E+03  0.85988174962E+02  0.31447318697E+03  0.58584329549E+03  0.12699999809E+01 0.  1.
       -4    1    3    3    0  502  0.48674778111E+03 -0.85988174962E+02 -0.10831746129E+04  0.11906242999E+04  0.12699999809E+01 0. -1.
</event>
<event>
 5   0  0.9673017E-05  0.1599856E+04  0.7818609E-02  0.8820636E-01
       -1   -1    0    0    0  501  0.00000000000E+00  0.00000000000E+00  0.10901434881E+04  0.10901434881E+04  0.50400001928E-02 0. -1.
        1   -1    0    0  501    0  0.00000000000E+00  0.00000000000E+00 -0.58697317388E+03  0.58697317390E+03  0.50400001928E-02 0.  1.
    10030    2    1    2    0    0  0.00000000000E+00  0.00000000000E+00  0.50317031423E+03  0.16771166620E+04  0.15998562226E+04 0.  0.
        1    1    3    3  502    0  0.45174108048E+03  0.65186273780E+02  0.94024664053E+03  0.10451712774E+04  0.50400001928E-02 0. -1.
       -1    1    3    3    0  502 -0.45174108048E+03 -0.65186273780E+02 -0.43707632630E+03  0.63194538460E+03  0.50400001928E-02 0.  1.
</event>
<event>
 5   0  0.1858913E-04  0.1592049E+04  0.7818609E-02  0.8825448E-01
       -2   -1    0    0    0  501  0.00000000000E+00  0.00000000000E+00  0.74831814927E+03  0.74831814928E+03  0.25500000920E-02 0.  1.
        2   -1    0    0  501    0  0.00000000000E+00  0.00000000000E+00 -0.84677191253E+03  0.84677191254E+03  0.25500000920E-02 0. -1.
    10030    2    1    2    0    0  0.00000000000E+00  0.00000000000E+00 -0.98453763263E+02  0.15950900618E+04  0.15920487310E+04 0.  0.
        4    1    3    3  502    0  0.34277069879E+03  0.70935201845E+03 -0.16337933798E+03  0.80459086436E+03  0.12699999809E+01 0. -1.
       -4    1    3    3    0  502 -0.34277069879E+03 -0.70935201845E+03  0.64925574721E+02  0.79049919746E+03  0.12699999809E+01 0.  1.
</event>
<event>
 5   0  0.9673017E-05  0.1594146E+04  0.7818609E-02  0.8824152E-01
       -1   -1    0    0    0  501  0.00000000000E+00  0.00000000000E+00  0.44924728446E+03  0.44924728449E+03  0.50400001928E-02 0.  1.
        1   -1    0    0  501    0  0.00000000000E+00  0.00000000000E+00 -0.14142004293E+04  0.14142004293E+04  0.50400001928E-02 0. -1.
    10030    2    1    2    0    0  0.00000000000E+00  0.00000000000E+00 -0.96495314484E+03  0.18634477138E+04  0.15941464206E+04 0.  0.
        1    1    3    3  502    0  0.18716307169E+03 -0.19449413025E+02 -0.13878645744E+04  0.14005628768E+04  0.50400001928E-02 0. -1.
       -1    1    3    3    0  502 -0.18716307169E+03  0.19449413025E+02  0.42291142953E+03  0.46288483700E+03  0.50400001928E-02 0.  1.
</event>
<event>
 5   0  0.9673017E-05  0.1600184E+04  0.7818609E-02  0.8820435E-01
        1   -1    0    0  501    0  0.00000000000E+00  0.00000000000E+00  0.73845892681E+03  0.73845892683E+03  0.50400001928E-02 0. -1.
       -1   -1    0    0    0  501  0.00000000000E+00  0.00000000000E+00 -0.86686907478E+03  0.86686907479E+03  0.50400001928E-02 0.  1.
    10030    2    1    2    0    0  0.00000000000E+00  0.00000000000E+00 -0.12841014797E+03  0.16053280016E+04  0.16001839978E+04 0.  0.
        1    1    3    3  502    0 -0.76679682247E+03  0.21976260455E+03 -0.12664853536E+03  0.80765885177E+03  0.50400001928E-02 0. -1.
       -1    1    3    3    0  502  0.76679682247E+03 -0.21976260455E+03 -0.17616126059E+01  0.79766914984E+03  0.50400001928E-02 0.  1.
</event>
<event>
 5   0  0.9673017E-05  0.1587910E+04  0.7818609E-02  0.8828010E-01
        1   -1    0    0  501    0  0.00000000000E+00  0.00000000000E+00  0.73154100188E+03  0.73154100190E+03  0.50400001928E-02 0.  1.
       -1   -1    0    0    0  501  0.00000000000E+00  0.00000000000E+00 -0.86169435669E+03  0.86169435670E+03  0.50400001928E-02 0. -1.
    10030    2    1    2    0    0  0.00000000000E+00  0.00000000000E+00 -0.13015335481E+03  0.15932353586E+04  0.15879102658E+04 0.  0.
        1    1    3    3  502    0  0.51116775813E+03  0.60615137675E+03 -0.10586746558E+03  0.79994992892E+03  0.50400001928E-02 0. -1.
       -1    1    3    3    0  502 -0.51116775813E+03 -0.60615137675E+03 -0.24285889230E+02  0.79328542967E+03  0.50400001928E-02 0.  1.
</event>
<event>
 5   0  0.9616567E-05  0.1675134E+04  0.7818609E-02  0.8775675E-01
        1   -1    0    0  501    0  0.00000000000E+00  0.00000000000E+00  0.13140614486E+04  0.13140614486E+04  0.50400001928E-02 0.  1.
       -1   -1    0    0    0  501  0.00000000000E+00  0.00000000000E+00 -0.53385519680E+03  0.53385519683E+03  0.50400001928E-02 0. -1.
    10030    2    1    2    0    0  0.00000000000E+00  0.00000000000E+00  0.78020625183E+03  0.18479166455E+04  0.16751340643E+04 0.  0.
        5    1    3    3  502    0 -0.76472079441E+03  0.19870069933E+03  0.83562461731E+02  0.79453422603E+03  0.46999998093E+01 0. -1.
       -5    1    3    3    0  502  0.76472079441E+03 -0.19870069933E+03  0.69664379010E+03  0.10533824194E+04  0.46999998093E+01 0.  1.
</event>
<event>
 5   0  0.9616567E-05  0.1606378E+04  0.7818609E-02  0.8816639E-01
        1   -1    0    0  501    0  0.00000000000E+00  0.00000000000E+00  0.63376559687E+03  0.63376559689E+03  0.50400001928E-02 0.  1.
       -1   -1    0    0    0  501  0.00000000000E+00  0.00000000000E+00 -0.10179043729E+04  0.10179043729E+04  0.50400001928E-02 0. -1.
    10030    2    1    2    0    0  0.00000000000E+00  0.00000000000E+00 -0.38413877602E+03  0.16516699698E+04  0.16063782524E+04 0.  0.
        5    1    3    3  502    0 -0.74724376035E+03 -0.28576221421E+03 -0.26518989522E+03  0.84284105915E+03  0.46999998093E+01 0.  1.
       -5    1    3    3    0  502  0.74724376035E+03  0.28576221421E+03 -0.11894888080E+03  0.80882891065E+03  0.46999998093E+01 0. -1.
</event>
<event>
 5   0  0.9726935E-05  0.1597769E+04  0.7818609E-02  0.8821920E-01
       -1   -1    0    0    0  501  0.00000000000E+00  0.00000000000E+00  0.42114450710E+03  0.42114450713E+03  0.50400001928E-02 0.  1.
        1   -1    0    0  501    0  0.00000000000E+00  0.00000000000E+00 -0.15154324726E+04  0.15154324726E+04  0.50400001928E-02 0. -1.
    10030    2    1    2    0    0  0.00000000000E+00  0.00000000000E+00 -0.10942879655E+04  0.19365769797E+04  0.15977685211E+04 0.  0.
        2    1    3    3  502    0  0.34766925811E+03  0.49872979637E+03  0.81033826024E+02  0.61332846322E+03  0.25500000920E-02 0.  1.
       -2    1    3    3    0  502 -0.34766925811E+03 -0.49872979637E+03 -0.11753217915E+04  0.13232485165E+04  0.25500000920E-02 0. -1.
</event>
<event>
 5   0  0.9726935E-05  0.1600578E+04  0.7818609E-02  0.8820193E-01
       -1   -1    0    0    0  501  0.00000000000E+00  0.00000000000E+00  0.47134509078E+03  0.47134509081E+03  0.50400001928E-02 0.  1.
        1   -1    0    0  501    0  0.00000000000E+00  0.00000000000E+00 -0.13587966819E+04  0.13587966819E+04  0.50400001928E-02 0. -1.
    10030    2    1    2    0    0  0.00000000000E+00  0.00000000000E+00 -0.88745159115E+03  0.18301417728E+04  0.16005775775E+04 0.  0.
        2    1    3    3  502    0 -0.78705613619E+02  0.76213275911E+03 -0.70800618865E+03  0.10432227371E+04  0.25500000920E-02 0. -1.
       -2    1    3    3    0  502  0.78705613619E+02 -0.76213275911E+03 -0.17944540250E+03  0.78691903561E+03  0.25500000920E-02 0.  1.
</event>
<event>
 5   0  0.9726935E-05  0.1599791E+04  0.7818609E-02  0.8820677E-01
        1   -1    0    0  501    0  0.00000000000E+00  0.00000000000E+00  0.74095168842E+03  0.74095168843E+03  0.50400001928E-02 0. -1.
       -1   -1    0    0    0  501  0.00000000000E+00  0.00000000000E+00 -0.86352806820E+03  0.86352806822E+03  0.50400001928E-02 0.  1.
    10030    2    1    2    0    0  0.00000000000E+00  0.00000000000E+00 -0.12257637978E+03  0.16044797566E+04  0.15997907115E+04 0.  0.
        2    1    3    3  502    0 -0.40282603527E+03 -0.45663007033E+02  0.63028250842E+03  0.74940640865E+03  0.25500000920E-02 0. -1.
       -2    1    3    3    0  502  0.40282603527E+03  0.45663007033E+02 -0.75285888820E+03  0.85507334800E+03  0.25500000920E-02 0.  1.
</event>
<event>
 5   0  0.1835088E-04  0.1601611E+04  0.7818609E-02  0.8819559E-01
        2   -1    0    0  501    0  0.00000000000E+00  0.00000000000E+00  0.99108864926E+03  0.99108864927E+03  0.25500000920E-02 0.  1.
       -2   -1    0    0    0  501  0.00000000000E+00  0.00000000000E+00 -0.64705589617E+03  0.64705589618E+03  0.25500000920E-02 0. -1.
    10030    2    1    2    0    0  0.00000000000E+00  0.00000000000E+00  0.34403275309E+03  0.16381445454E+04  0.16016113813E+04 0.  0.
        5    1    3    3  502    0 -0.60972315558E+03  0.20872820995E+03 -0.31415522926E+03  0.71696958802E+03  0.46999998093E+01 0. -1.
       -5    1    3    3    0  502  0.60972315558E+03 -0.20872820995E+03  0.65818798235E+03  0.92117495742E+03  0.46999998093E+01 0.  1.
</event>
<event>
 5   0  0.9673017E-05  0.1605111E+04  0.7818609E-02  0.8817414E-01
        1   -1    0    0  501    0  0.00000000000E+00  0.00000000000E+00  0.11206713547E+04  0.11206713547E+04  0.50400001928E-02 0.  1.
       -1   -1    0    0    0  501  0.00000000000E+00  0.00000000000E+00 -0.57474059971E+03  0.57474059974E+03  0.50400001928E-02 0. -1.
    10030    2    1    2    0    0  0.00000000000E+00  0.00000000000E+00  0.54593075499E+03  0.16954119544E+04  0.16051109949E+04 0.  0.
        1    1    3    3  502    0  0.36791350214E+03  0.49225661630E+03 -0.27223014881E+03  0.67215041121E+03  0.50400001928E-02 0. -1.
       -1    1    3    3    0  502 -0.36791350214E+03 -0.49225661630E+03  0.81816090379E+03  0.10232615432E+04  0.50400001928E-02 0.  1.
</event>
<event>
 5   0  0.6838750E-05  0.1620374E+04  0.7818609E-02  0.8808129E-01
       -3   -1    0    0    0  501  0.00000000000E+00  0.00000000000E+00  0.63501611056E+03  0.63501611859E+03  0.10100000352E+00 0.  1.
        3   -1    0    0  501    0  0.00000000000E+00  0.00000000000E+00 -0.10336787748E+04  0.10336787798E+04  0.10100000352E+00 0. -1.
    10030    2    1    2    0    0  0.00000000000E+00  0.00000000000E+00 -0.39866266426E+03  0.16686948983E+04  0.16203736433E+04 0.  0.
        2    1    3    3  502    0  0.11637920124E+02  0.80863828946E+03 -0.14918251904E+03  0.82236655353E+03  0.25500000920E-02 0.  1.
       -2    1    3    3    0  502 -0.11637920124E+02 -0.80863828946E+03 -0.24948014521E+03  0.84632834481E+03  0.25500000920E-02 0. -1.
</event>
<event>
 5   0  0.1914170E-04  0.1618887E+04  0.7818609E-02  0.8809028E-01
        2   -1    0    0  501    0  0.00000000000E+00  0.00000000000E+00  0.28782312052E+04  0.28782312052E+04  0.25500000920E-02 0. -1.
       -2   -1    0    0    0  501  0.00000000000E+00  0.00000000000E+00 -0.22763936101E+03  0.22763936102E+03  0.25500000920E-02 0.  1.
    10030    2    1    2    0    0  0.00000000000E+00  0.00000000000E+00  0.26505918442E+04  0.31058705662E+04  0.16188869169E+04 0.  0.
        3    1    3    3  502    0 -0.44882815427E+03 -0.17150823319E+03  0.75548505712E+02  0.48638397695E+03  0.10100000352E+00 0.  1.
       -3    1    3    3    0  502  0.44882815427E+03  0.17150823319E+03  0.25750433385E+04  0.26194865893E+04  0.10100000352E+00 0. -1.
</event>
<event>
 5   0  0.9432152E-05  0.1596667E+04  0.7818609E-02  0.8822598E-01
        1   -1    0    0  501    0  0.00000000000E+00  0.00000000000E+00  0.95001520868E+03  0.95001520869E+03  0.50400001928E-02 0. -1.
       -1   -1    0    0    0  501  0.00000000000E+00  0.00000000000E+00 -0.67086987154E+03  0.67086987156E+03  0.50400001928E-02 0.  1.
    10030    2    1    2    0    0  0.00000000000E+00  0.00000000000E+00  0.27914533714E+03  0.16208850803E+04  0.15966672553E+04 0.  0.
        4    1    3    3  502    0  0.31034039206E+03 -0.62364582882E+03  0.53547466554E+03  0.87862392927E+03  0.12699999809E+01 0. -1.
       -4    1    3    3    0  502 -0.31034039206E+03  0.62364582882E+03 -0.25632932841E+03  0.74226115098E+03  0.12699999809E+01 0.  1.
</event>
<event>
 5   0  0.1858913E-04  0.1597931E+04  0.7818609E-02  0.8821820E-01
        2   -1    0    0  501    0  0.00000000000E+00  0.00000000000E+00  0.86931661550E+03  0.86931661551E+03  0.25500000920E-02 0. -1.
       -2   -1    0    0    0  501  0.00000000000E+00  0.00000000000E+00 -0.73430786118E+03  0.73430786118E+03  0.25500000920E-02 0.  1.
    10030    2    1    2    0    0  0.00000000000E+00  0.00000000000E+00  0.13500875433E+03  0.16036244767E+04  0.15979311933E+04 0.  0.
        4    1    3    3  502    0  0.64969725352E+03 -0.18903878936E+03 -0.35886488061E+03  0.76591631432E+03  0.12699999809E+01 0.  1.
       -4    1    3    3    0  502 -0.64969725352E+03  0.18903878936E+03  0.49387363494E+03  0.83770816237E+03  0.12699999809E+01 0. -1.
</event>
<event>
 5   0  0.1774934E-04  0.1608441E+04  0.7818609E-02  0.8815379E-01
       -2   -1    0    0    0  501  0.00000000000E+00  0.00000000000E+00  0.68990656255E+03  0.68990656256E+03  0.25500000920E-02 0.  1.
        2   -1    0    0  501    0  0.00000000000E+00  0.00000000000E+00 -0.93747563555E+03  0.93747563555E+03  0.25500000920E-02 0. -1.
    10030    2    1    2    0    0  0.00000000000E+00  0.00000000000E+00 -0.24756907300E+03  0.16273821981E+04  0.16084409759E+04 0.  0.
        1    1    3    3  502    0  0.74078026170E+03  0.30924919096E+03 -0.17314568128E+03  0.82120027107E+03  0.50400001928E-02 0.  1.
       -1    1    3    3    0  502 -0.74078026170E+03 -0.30924919096E+03 -0.74423391720E+02  0.80618192704E+03  0.50400001928E-02 0. -1.
</event>
<event>
 5   0  0.9939872E-05  0.1601865E+04  0.7818609E-02  0.8819403E-01
       -1   -1    0    0    0  501  0.00000000000E+00  0.00000000000E+00  0.60902660714E+03  0.60902660716E+03  0.50400001928E-02 0.  1.
        1   -1    0    0  501    0  0.00000000000E+00  0.00000000000E+00 -0.10533082821E+04  0.10533082821E+04  0.50400001928E-02 0. -1.
    10030    2    1    2    0    0  0.00000000000E+00  0.00000000000E+00 -0.44428167493E+03  0.16623348892E+04  0.16018648749E+04 0.  0.
        3    1    3    3  502    0 -0.34555584769E+02 -0.35391951345E+03 -0.96689505811E+03  0.10302131692E+04  0.10100000352E+00 0. -1.
       -3    1    3    3    0  502  0.34555584769E+02  0.35391951345E+03  0.52261338318E+03  0.63212172002E+03  0.10100000352E+00 0.  1.
</event>
<event>
 5   0  0.1914170E-04  0.1614648E+04  0.7818609E-02  0.8811599E-01
        2   -1    0    0  501    0  0.00000000000E+00  0.00000000000E+00  0.18971499097E+04  0.18971499097E+04  0.25500000920E-02 0. -1.
       -2   -1    0    0    0  501  0.00000000000E+00  0.00000000000E+00 -0.34355343180E+03  0.34355343181E+03  0.25500000920E-02 0.  1.
    10030    2    1    2    0    0  0.00000000000E+00  0.00000000000E+00  0.15535964779E+04  0.22407033415E+04  0.16146483978E+04 0.  0.
        3    1    3    3  502    0  0.10964616975E+03  0.11060969374E+03 -0.32250788458E+03  0.35814540721E+03  0.10100000352E+00 0.  1.
       -3    1    3    3    0  502 -0.10964616975E+03 -0.11060969374E+03  0.18761043625E+04  0.18825579343E+04  0.10100000352E+00 0. -1.
</event>
<event>
 5   0  0.9432152E-05  0.1613902E+04  0.7818609E-02  0.8812053E-01
       -1   -1    0    0    0  501  0.00000000000E+00  0.00000000000E+00  0.30808928987E+03  0.30808928991E+03  0.50400001928E-02 0. -1.
        1   -1    0    0  501    0  0.00000000000E+00  0.00000000000E+00 -0.21135740733E+04  0.21135740733E+04  0.50400001928E-02 0.  1.
    10030    2    1    2    0    0  0.00000000000E+00  0.00000000000E+00 -0.18054847834E+04  0.24216633632E+04  0.16139015278E+04 0.  0.
        4    1    3    3  502    0 -0.45239345506E+03 -0.65692496098E+03 -0.10862562460E+04  0.13476514710E+04  0.12699999809E+01 0.  1.
       -4    1    3    3    0  502  0.45239345506E+03  0.65692496098E+03 -0.71922853743E+03  0.10740118922E+04  0.12699999809E+01 0. -1.
</event>
<event>
 5   0  0.1832646E-04  0.1601930E+04  0.7818609E-02  0.8819363E-01
        2   -1    0    0  501    0  0.00000000000E+00  0.00000000000E+00  0.83834203941E+03  0.83834203941E+03  0.25500000920E-02 0.  1.
       -2   -1    0    0    0  501  0.00000000000E+00  0.00000000000E+00 -0.76525421784E+03  0.76525421785E+03  0.25500000920E-02 0. -1.
    10030    2    1    2    0    0  0.00000000000E+00  0.00000000000E+00  0.73087821564E+02  0.16035962573E+04  0.16019298133E+04 0.  0.
        2    1    3    3  502    0  0.59212158309E+03 -0.31273773542E+03  0.47646884768E+03  0.82184878361E+03  0.25500000920E-02 0. -1.
       -2    1    3    3    0  502 -0.59212158309E+03  0.31273773542E+03 -0.40338102611E+03  0.78174747364E+03  0.25500000920E-02 0.  1.
</event>
<event>
 5   0  0.9432152E-05  0.1604758E+04  0.7818609E-02  0.8817630E-01
        1   -1    0    0  501    0  0.00000000000E+00  0.00000000000E+00  0.15536718714E+04  0.15536718714E+04  0.50400001928E-02 0. -1.
       -1   -1    0    0    0  501  0.00000000000E+00  0.00000000000E+00 -0.41438088007E+03  0.41438088010E+03  0.50400001928E-02 0.  1.
    10030    2    1    2    0    0  0.00000000000E+00  0.00000000000E+00  0.11392909913E+04  0.19680527515E+04  0.16047578228E+04 0.  0.
        4    1    3    3  502    0 -0.10581233468E+03 -0.79035048213E+03  0.67906340141E+03  0.10473675815E+04  0.12699999809E+01 0.  1.
       -4    1    3    3    0  502  0.10581233468E+03  0.79035048213E+03  0.46022758988E+03  0.92068516995E+03  0.12699999809E+01 0. -1.
</event>
<event>
 5   0  0.9432152E-05  0.1599176E+04  0.7818609E-02  0.8821054E-01
        1   -1    0    0  501    0  0.00000000000E+00  0.00000000000E+00  0.12557657466E+04  0.12557657466E+04  0.50400001928E-02 0.  1.
       -1   -1    0    0    0  501  0.00000000000E+00  0.00000000000E+00 -0.50912438864E+03  0.50912438867E+03  0.50400001928E-02 0. -1.
    10030    2    1    2    0    0  0.00000000000E+00  0.00000000000E+00  0.74664135794E+03  0.17648901353E+04  0.15991759979E+04 0.  0.
        4    1    3    3  502    0  0.10498666509E+03  0.61580433152E+03 -0.17749992548E+03  0.64941897956E+03  0.12699999809E+01 0. -1.
       -4    1    3    3    0  502 -0.10498666509E+03 -0.61580433152E+03  0.92414128342E+03  0.11154711557E+04  0.12699999809E+01 0.  1.
</event>
<event>
 5   0  0.9726935E-05  0.1599444E+04  0.7818609E-02  0.8820890E-01
       -1   -1    0    0    0  501  0.00000000000E+00  0.00000000000E+00  0.47126243838E+03  0.47126243840E+03  0.50400001928E-02 0. -1.
        1   -1    0    0  501    0  0.00000000000E+00  0.00000000000E+00 -0.13571107926E+04  0.13571107927E+04  0.50400001928E-02 0.  1.
    10030    2    1    2    0    0  0.00000000000E+00  0.00000000000E+00 -0.88584835427E+03  0.18283732311E+04  0.15994440801E+04 0.  0.
        2    1    3    3  502    0  0.13207196578E+03  0.56424404415E+03 -0.10729342593E+04  0.12194270254E+04  0.25500000920E-02 0.  1.
       -2    1    3    3    0  502 -0.13207196578E+03 -0.56424404415E+03  0.18708590503E+03  0.60894620565E+03  0.25500000920E-02 0. -1.
</event>
<event>
 5   0  0.1832646E-04  0.1600515E+04  0.7818609E-02  0.8820232E-01
       -2   -1    0    0    0  501  0.00000000000E+00  0.00000000000E+00  0.45784607962E+03  0.45784607963E+03  0.25500000920E-02 0.  1.
        2   -1    0    0  501    0  0.00000000000E+00  0.00000000000E+00 -0.13987500427E+04  0.13987500427E+04  0.25500000920E-02 0. -1.
    10030    2    1    2    0    0  0.00000000000E+00  0.00000000000E+00 -0.94090396303E+03  0.18565961223E+04  0.16005151963E+04 0.  0.
        2    1    3    3  502    0 -0.44093134288E+03  0.27432577902E+03  0.23585042414E+03  0.57035121175E+03  0.25500000920E-02 0.  1.
       -2    1    3    3    0  502  0.44093134288E+03 -0.27432577902E+03 -0.11767543872E+04  0.12862449105E+04  0.25500000920E-02 0. -1.
</event>
<event>
 5   0  0.1774934E-04  0.1590370E+04  0.7818609E-02  0.8826486E-01
        2   -1    0    0  501    0  0.00000000000E+00  0.00000000000E+00  0.94466302789E+03  0.94466302789E+03  0.25500000920E-02 0. -1.
       -2   -1    0    0    0  501  0.00000000000E+00  0.00000000000E+00 -0.66935953666E+03  0.66935953666E+03  0.25500000920E-02 0.  1.
    10030    2    1    2    0    0  0.00000000000E+00  0.00000000000E+00  0.27530349123E+03  0.16140225646E+04  0.15903700282E+04 0.  0.
        1    1    3    3  502    0 -0.58714715927E+03 -0.36947693745E+03 -0.25679848588E+03  0.73972998880E+03  0.50400001928E-02 0.  1.
       -1    1    3    3    0  502  0.58714715927E+03  0.36947693745E+03  0.53210197712E+03  0.87429257576E+03  0.50400001928E-02 0. -1.
</event>
<event>
 5   0  0.1835088E-04  0.1647996E+04  0.7818609E-02  0.8791593E-01
       -2   -1    0    0    0  501  0.00000000000E+00  0.00000000000E+00  0.41292206820E+03  0.41292206821E+03  0.25500000920E-02 0.  1.
        2   -1    0    0  501    0  0.00000000000E+00  0.00000000000E+00 -0.16443120532E+04  0.16443120532E+04  0.25500000920E-02 0. -1.
    10030    2    1    2    0    0  0.00000000000E+00  0.00000000000E+00 -0.12313899850E+04  0.20572341214E+04  0.16479960361E+04 0.  0.
        5    1    3    3  502    0 -0.78827788684E+03  0.23902689892E+03 -0.64172363916E+03  0.10441969184E+04  0.46999998093E+01 0.  1.
       -5    1    3    3    0  502  0.78827788684E+03 -0.23902689892E+03 -0.58966634579E+03  0.10130372030E+04  0.46999998093E+01 0. -1.
</event>
<event>
 5   0  0.1774934E-04  0.1603255E+04  0.7818609E-02  0.8818551E-01
        2   -1    0    0  501    0  0.00000000000E+00  0.00000000000E+00  0.29217054192E+04  0.29217054192E+04  0.25500000920E-02 0. -1.
       -2   -1    0    0    0  501  0.00000000000E+00  0.00000000000E+00 -0.21994243345E+03  0.21994243347E+03  0.25500000920E-02 0.  1.
    10030    2    1    2    0    0  0.00000000000E+00  0.00000000000E+00  0.27017629858E+04  0.31416478527E+04  0.16032554379E+04 0.  0.
        1    1    3    3  502    0 -0.26471628403E+03  0.19351780954E+03  0.27842749498E+04  0.28035175851E+04  0.50400001928E-02 0. -1.
       -1    1    3    3    0  502  0.26471628403E+03 -0.19351780954E+03 -0.82511964050E+02  0.33813026761E+03  0.50400001928E-02 0.  1.
</event>
<event>
 5   0  0.9673017E-05  0.1595125E+04  0.7818609E-02  0.8823549E-01
        1   -1    0    0  501    0  0.00000000000E+00  0.00000000000E+00  0.16985704356E+04  0.16985704357E+04  0.50400001928E-02 0.  1.
       -1   -1    0    0    0  501  0.00000000000E+00  0.00000000000E+00 -0.37449483028E+03  0.37449483032E+03  0.50400001928E-02 0. -1.
    10030    2    1    2    0    0  0.00000000000E+00  0.00000000000E+00  0.13240756054E+04  0.20730652660E+04  0.15951248817E+04 0.  0.
        1    1    3    3  502    0 -0.25092515094E+03  0.40187952274E+03 -0.17178654532E+03  0.50396547436E+03  0.50400001928E-02 0. -1.
       -1    1    3    3    0  502  0.25092515094E+03 -0.40187952274E+03  0.14958621507E+04  0.15690997916E+04  0.50400001928E-02 0.  1.
</event>
<event>
 5   0  0.1835088E-04  0.1597540E+04  0.7818609E-02  0.8822061E-01
       -2   -1    0    0    0  501  0.00000000000E+00  0.00000000000E+00  0.83358385494E+03  0.83358385495E+03  0.25500000920E-02 0.  1.
        2   -1    0    0  501    0  0.00000000000E+00  0.00000000000E+00 -0.76541035954E+03  0.76541035955E+03  0.25500000920E-02 0. -1.
    10030    2    1    2    0    0  0.00000000000E+00  0.00000000000E+00  0.68173495401E+02  0.15989942145E+04  0.15975402569E+04 0.  0.
        5    1    3    3  502    0  0.78420229913E+03  0.10398043151E+03  0.14476067104E+03  0.80421571607E+03  0.46999998093E+01 0.  1.
       -5    1    3    3    0  502 -0.78420229913E+03 -0.10398043151E+03 -0.76587175637E+02  0.79477849843E+03  0.46999998093E+01 0. -1.
</event>
<event>
 5   0  0.6838750E-05  0.1590255E+04  0.7818609E-02  0.8826557E-01
       -3   -1    0    0    0  501  0.00000000000E+00  0.00000000000E+00  0.74591851682E+03  0.74591852366E+03  0.10100000352E+00 0.  1.
        3   -1    0    0  501    0  0.00000000000E+00  0.00000000000E+00 -0.84758274932E+03  0.84758275534E+03  0.10100000352E+00 0. -1.
    10030    2    1    2    0    0  0.00000000000E+00  0.00000000000E+00 -0.10166423250E+03  0.15935012790E+04  0.15902549198E+04 0.  0.
        1    1    3    3  502    0 -0.35107485909E+03 -0.34266469144E+03  0.57618886342E+03  0.75674715315E+03  0.50400001928E-02 0.  1.
       -1    1    3    3    0  502  0.35107485909E+03  0.34266469144E+03 -0.67785309592E+03  0.83675412585E+03  0.50400001928E-02 0. -1.
</event>
<event>
 5   0  0.1858913E-04  0.1589638E+04  0.7818609E-02  0.8826939E-01
       -2   -1    0    0    0  501  0.00000000000E+00  0.00000000000E+00  0.66185353263E+03  0.66185353264E+03  0.25500000920E-02 0. -1.
        2   -1    0    0  501    0  0.00000000000E+00  0.00000000000E+00 -0.95449747794E+03  0.95449747795E+03  0.25500000920E-02 0.  1.
    10030    2    1    2    0    0  0.00000000000E+00  0.00000000000E+00 -0.29264394531E+03  0.16163510106E+04  0.15896383585E+04 0.  0.
        4    1    3    3  502    0  0.62722384702E+03 -0.47670928454E+03 -0.39318514953E+02  0.78880229130E+03  0.12699999809E+01 0. -1.
       -4    1    3    3    0  502 -0.62722384702E+03  0.47670928454E+03 -0.25332543035E+03  0.82754871929E+03  0.12699999809E+01 0.  1.
</event>
<event>
 5   0  0.1858913E-04  0.1598937E+04  0.7818609E-02  0.8821201E-01
        2   -1    0    0  501    0  0.00000000000E+00  0.00000000000E+00  0.53727986749E+03  0.53727986749E+03  0.25500000920E-02 0.  1.
       -2   -1    0    0    0  501  0.00000000000E+00  0.00000000000E+00 -0.11896031339E+04  0.11896031339E+04  0.25500000920E-02 0. -1.
    10030    2    1    2    0    0  0.00000000000E+00  0.00000000000E+00 -0.65232326639E+03  0.17268830014E+04  0.15989369145E+04 0.  0.
        4    1    3    3  502    0 -0.31814251464E+03  0.39619287014E+03 -0.99277494601E+03  0.11152520595E+04  0.12699999809E+01 0. -1.
       -4    1    3    3    0  502  0.31814251464E+03 -0.39619287014E+03  0.34045167962E+03  0.61163094184E+03  0.12699999809E+01 0.  1.
</event>
<event>
 5   0  0.9726935E-05  0.1601168E+04  0.7818609E-02  0.8819831E-01
        1   -1    0    0  501    0  0.00000000000E+00  0.00000000000E+00  0.11427413878E+04  0.11427413878E+04  0.50400001928E-02 0. -1.
       -1   -1    0    0    0  501  0.00000000000E+00  0.00000000000E+00 -0.56087442858E+03  0.56087442861E+03  0.50400001928E-02 0.  1.
    10030    2    1    2    0    0  0.00000000000E+00  0.00000000000E+00  0.58186695920E+03  0.17036158164E+04  0.16011676026E+04 0.  0.
        2    1    3    3  502    0  0.50844971446E+03  0.54790530148E+03 -0.14140634421E+02  0.74761038588E+03  0.25500000920E-02 0.  1.
       -2    1    3    3    0  502 -0.50844971446E+03 -0.54790530148E+03  0.59600759362E+03  0.95600543052E+03  0.25500000920E-02 0. -1.
</event>
<event>
 5   0  0.9673017E-05  0.1599357E+04  0.7818609E-02  0.8820943E-01
       -1   -1    0    0    0  501  0.00000000000E+00  0.00000000000E+00  0.49610481156E+03  0.49610481159E+03  0.50400001928E-02 0. -1.
        1   -1    0    0  501    0  0.00000000000E+00  0.00000000000E+00 -0.12890129699E+04  0.12890129699E+04  0.50400001928E-02 0.  1.
    10030    2    1    2    0    0  0.00000000000E+00  0.00000000000E+00 -0.79290815830E+03  0.17851177815E+04  0.15993567914E+04 0.  0.
        1    1    3    3  502    0  0.24564334620E+03 -0.14671327551E+03  0.43701736763E+03  0.52235009178E+03  0.50400001928E-02 0. -1.
       -1    1    3    3    0  502 -0.24564334620E+03  0.14671327551E+03 -0.12299255259E+04  0.12627676897E+04  0.50400001928E-02 0.  1.
</event>
<event>
 5   0  0.9616567E-05  0.1599646E+04  0.7818609E-02  0.8820765E-01
       -1   -1    0    0    0  501  0.00000000000E+00  0.00000000000E+00  0.77043838537E+03  0.77043838539E+03  0.50400001928E-02 0. -1.
        1   -1    0    0  501    0  0.00000000000E+00  0.00000000000E+00 -0.83032851677E+03  0.83032851679E+03  0.50400001928E-02 0.  1.
    10030    2    1    2    0    0  0.00000000000E+00  0.00000000000E+00 -0.59890131404E+02  0.16007669022E+04  0.15996461631E+04 0.  0.
        5    1    3    3  502    0  0.30430060411E+03 -0.47128802924E+03 -0.60041780400E+03  0.82172677547E+03  0.46999998093E+01 0.  1.
       -5    1    3    3    0  502 -0.30430060411E+03  0.47128802924E+03  0.54052767260E+03  0.77904012670E+03  0.46999998093E+01 0. -1.
</event>
<event>
 5   0  0.1858913E-04  0.1594043E+04  0.7818609E-02  0.8824216E-01
       -2   -1    0    0    0  501  0.00000000000E+00  0.00000000000E+00  0.35488081878E+03  0.35488081879E+03  0.25500000920E-02 0. -1.
        2   -1    0    0  501    0  0.00000000000E+00  0.00000000000E+00 -0.17900192225E+04  0.17900192225E+04  0.25500000920E-02 0.  1.
    10030    2    1    2    0    0  0.00000000000E+00  0.00000000000E+00 -0.14351384037E+04  0.21449000412E+04  0.15940432708E+04 0.  0.
        4    1    3    3  502    0  0.73249020461E+03 -0.28882980830E+03 -0.88388384484E+03  0.11837300461E+04  0.12699999809E+01 0. -1.
       -4    1    3    3    0  502 -0.73249020461E+03  0.28882980830E+03 -0.55125455883E+03  0.96116999513E+03  0.12699999809E+01 0.  1.
</event>
<event>
 5   0  0.1835088E-04  0.1598871E+04  0.7818609E-02  0.8821242E-01
       -2   -1    0    0    0  501  0.00000000000E+00  0.00000000000E+00  0.47535766752E+03  0.47535766753E+03  0.25500000920E-02 0.  1.
        2   -1    0    0  501    0  0.00000000000E+00  0.00000000000E+00 -0.13444544343E+04  0.13444544343E+04  0.25500000920E-02 0. -1.
    10030    2    1    2    0    0  0.00000000000E+00  0.00000000000E+00 -0.86909676679E+03  0.18198121018E+04  0.15988705063E+04 0.  0.
        5    1    3    3  502    0 -0.92054925050E+02 -0.41286621034E+03  0.33752610695E+03  0.54118257524E+03  0.46999998093E+01 0.  1.
       -5    1    3    3    0  502  0.92054925050E+02  0.41286621034E+03 -0.12066228737E+04  0.12786295266E+04  0.46999998093E+01 0. -1.
</event>
<event>
 5   0  0.1774934E-04  0.1598801E+04  0.7818609E-02  0.8821285E-01
       -2   -1    0    0    0  501  0.00000000000E+00  0.00000000000E+00  0.73622667677E+03  0.73622667677E+03  0.25500000920E-02 0. -1.
        2   -1    0    0  501    0  0.00000000000E+00  0.00000000000E+00 -0.86799516568E+03  0.86799516568E+03  0.25500000920E-02 0.  1.
    10030    2    1    2    0    0  0.00000000000E+00  0.00000000000E+00 -0.13176848891E+03  0.16042218425E+04  0.15988010461E+04 0.  0.
        1    1    3    3  502    0 -0.76323756165E+03  0.23748650622E+03 -0.55371119357E+02  0.80124738816E+03  0.50400001928E-02 0. -1.
       -1    1    3    3    0  502  0.76323756165E+03 -0.23748650622E+03 -0.76397369557E+02  0.80297445429E+03  0.50400001928E-02 0.  1.
</event>
<event>
 5   0  0.1774934E-04  0.1592566E+04  0.7818609E-02  0.8825128E-01
        2   -1    0    0  501    0  0.00000000000E+00  0.00000000000E+00  0.70213609801E+03  0.70213609802E+03  0.25500000920E-02 0.  1.
       -2   -1    0    0    0  501  0.00000000000E+00  0.00000000000E+00 -0.90305385203E+03  0.90305385204E+03  0.25500000920E-02 0. -1.
    10030    2    1    2    0    0  0.00000000000E+00  0.00000000000E+00 -0.20091775402E+03  0.16051899501E+04  0.15925661154E+04 0.  0.
        1    1    3    3  502    0 -0.79330858386E+03 -0.46980434093E+02 -0.49850942061E+02  0.79626050188E+03  0.50400001928E-02 0. -1.
       -1    1    3    3    0  502  0.79330858386E+03  0.46980434093E+02 -0.15106681196E+03  0.80892944817E+03  0.50400001928E-02 0.  1.
</event>
<event>
 5   0  0.9616567E-05  0.1596653E+04  0.7818609E-02  0.8822607E-01
       -1   -1    0    0    0  501  0.00000000000E+00  0.00000000000E+00  0.89671557130E+03  0.89671557131E+03  0.50400001928E-02 0.  1.
        1   -1    0    0  501    0  0.00000000000E+00  0.00000000000E+00 -0.71073300784E+03  0.71073300786E+03  0.50400001928E-02 0. -1.
    10030    2    1    2    0    0  0.00000000000E+00  0.00000000000E+00  0.18598256345E+03  0.16074485792E+04  0.15966531936E+04 0.  0.
        5    1    3    3  502    0  0.13760412454E+03  0.61170744490E+03  0.59048047268E+03  0.86128402507E+03  0.46999998093E+01 0.  1.
       -5    1    3    3    0  502 -0.13760412454E+03 -0.61170744490E+03 -0.40449790922E+03  0.74616455410E+03  0.46999998093E+01 0. -1.
</event>
<event>
 5   0  0.9616567E-05  0.1602275E+04  0.7818609E-02  0.8819152E-01
       -1   -1    0    0    0  501  0.00000000000E+00  0.00000000000E+00  0.43558463822E+03  0.43558463825E+03  0.50400001928E-02 0. -1.
        1   -1    0    0  501    0  0.00000000000E+00  0.00000000000E+00 -0.14734702682E+04  0.14734702682E+04  0.50400001928E-02 0.  1.
    10030    2    1    2    0    0  0.00000000000E+00  0.00000000000E+00 -0.10378856300E+04  0.19090549064E+04  0.16022746503E+04 0.  0.
        5    1    3    3  502    0 -0.48079877352E+03 -0.90043820760E+02  0.23697941539E+03  0.54355927330E+03  0.46999998093E+01 0. -1.
       -5    1    3    3    0  502  0.48079877352E+03  0.90043820760E+02 -0.12748650454E+04  0.13654956331E+04  0.46999998093E+01 0.  1.
</event>
<event>
 5   0  0.1858913E-04  0.1599779E+04  0.7818609E-02  0.8820683E-01
        2   -1    0    0  501    0  0.00000000000E+00  0.00000000000E+00  0.79270160833E+03  0.79270160834E+03  0.25500000920E-02 0.  1.
       -2   -1    0    0    0  501  0.00000000000E+00  0.00000000000E+00 -0.80714304534E+03  0.80714304534E+03  0.25500000920E-02 0. -1.
    10030    2    1    2    0    0  0.00000000000E+00  0.00000000000E+00 -0.14441437004E+02  0.15998446537E+04  0.15997794726E+04 0.  0.
        4    1    3    3  502    0 -0.77703974126E+03 -0.16159040483E+03  0.92381325780E+02  0.79902324164E+03  0.12699999809E+01 0.  1.
       -4    1    3    3    0  502  0.77703974126E+03  0.16159040483E+03 -0.10682276278E+03  0.80082141204E+03  0.12699999809E+01 0. -1.
</event>
<event>
 5   0  0.9432152E-05  0.1571542E+04  0.7818609E-02  0.8838224E-01
       -1   -1    0    0    0  501  0.00000000000E+00  0.00000000000E+00  0.23660760311E+03  0.23660760316E+03  0.50400001928E-02 0. -1.
        1   -1    0    0  501    0  0.00000000000E+00  0.00000000000E+00 -0.26095357183E+04  0.26095357183E+04  0.50400001928E-02 0.  1.
    10030    2    1    2    0    0  0.00000000000E+00  0.00000000000E+00 -0.23729281152E+04  0.28461433214E+04  0.15715419073E+04 0.  0.
        4    1    3    3  502    0  0.45311819852E+02 -0.69992434942E+03 -0.54491424846E+03  0.88818939816E+03  0.12699999809E+01 0. -1.
       -4    1    3    3    0  502 -0.45311819852E+02  0.69992434942E+03 -0.18280138667E+04  0.19579539233E+04  0.12699999809E+01 0.  1.
</event>
<event>
 5   0  0.1858913E-04  0.1601273E+04  0.7818609E-02  0.8819766E-01
        2   -1    0    0  501    0  0.00000000000E+00  0.00000000000E+00  0.96417574354E+03  0.96417574355E+03  0.25500000920E-02 0.  1.
       -2   -1    0    0    0  501  0.00000000000E+00  0.00000000000E+00 -0.66483596713E+03  0.66483596713E+03  0.25500000920E-02 0. -1.
    10030    2    1    2    0    0  0.00000000000E+00  0.00000000000E+00  0.29933977641E+03  0.16290117107E+04  0.16012728849E+04 0.  0.
        4    1    3    3  502    0  0.68756902274E+03  0.92322406184E+02 -0.25693173871E+03  0.73979059130E+03  0.12699999809E+01 0. -1.
       -4    1    3    3    0  502 -0.68756902274E+03 -0.92322406184E+02  0.55627151513E+03  0.88922111938E+03  0.12699999809E+01 0.  1.
</event>
<event>
 5   0  0.9939872E-05  0.1626325E+04  0.7818609E-02  0.8804537E-01
        1   -1    0    0  501    0  0.00000000000E+00  0.00000000000E+00  0.18528857358E+04  0.18528857358E+04  0.50400001928E-02 0.  1.
       -1   -1    0    0    0  501  0.00000000000E+00  0.00000000000E+00 -0.35686653181E+03  0.35686653185E+03  0.50400001928E-02 0. -1.
    10030    2    1    2    0    0  0.00000000000E+00  0.00000000000E+00  0.14960192040E+04  0.22097522676E+04  0.16263245757E+04 0.  0.
        3    1    3    3  502    0 -0.41493709910E+03 -0.66044882176E+03  0.43559554911E+03  0.89336942805E+03  0.10100000352E+00 0. -1.
       -3    1    3    3    0  502  0.41493709910E+03  0.66044882176E+03  0.10604236549E+04  0.13163828396E+04  0.10100000352E+00 0.  1.
</event>
<event>
 5   0  0.9432152E-05  0.1597891E+04  0.7818609E-02  0.8821844E-01
        1   -1    0    0  501    0  0.00000000000E+00  0.00000000000E+00  0.69062334690E+03  0.69062334692E+03  0.50400001928E-02 0. -1.
       -1   -1    0    0    0  501  0.00000000000E+00  0.00000000000E+00 -0.92425805261E+03  0.92425805263E+03  0.50400001928E-02 0.  1.
    10030    2    1    2    0    0  0.00000000000E+00  0.00000000000E+00 -0.23363470571E+03  0.16148813995E+04  0.15978913477E+04 0.  0.
        4    1    3    3  502    0 -0.52476638542E+03  0.55321574321E+03  0.12422473220E+03  0.77256767652E+03  0.12699999809E+01 0.  1.
       -4    1    3    3    0  502  0.52476638542E+03 -0.55321574321E+03 -0.35785943791E+03  0.84231372303E+03  0.12699999809E+01 0. -1.
</event>
<event>
 5   0  0.9726935E-05  0.1607261E+04  0.7818609E-02  0.8816100E-01
        1   -1    0    0  501    0  0.00000000000E+00  0.00000000000E+00  0.14131000250E+04  0.14131000250E+04  0.50400001928E-02 0.  1.
       -1   -1    0    0    0  501  0.00000000000E+00  0.00000000000E+00 -0.45702482524E+03  0.45702482527E+03  0.50400001928E-02 0. -1.
    10030    2    1    2    0    0  0.00000000000E+00  0.00000000000E+00  0.95607519972E+03  0.18701248502E+04  0.16072607654E+04 0.  0.
        2    1    3    3  502    0  0.76465942600E+03 -0.50107934165E+02  0.19635578189E+03  0.79105653143E+03  0.25500000920E-02 0. -1.
       -2    1    3    3    0  502 -0.76465942600E+03  0.50107934165E+02  0.75971941783E+03  0.10790683188E+04  0.25500000920E-02 0.  1.
</event>
<event>
 5   0  0.1774934E-04  0.1594343E+04  0.7818609E-02  0.8824031E-01
        2   -1    0    0  501    0  0.00000000000E+00  0.00000000000E+00  0.12785925236E+04  0.12785925236E+04  0.25500000920E-02 0.  1.
       -2   -1    0    0    0  501  0.00000000000E+00  0.00000000000E+00 -0.49701709295E+03  0.49701709296E+03  0.25500000920E-02 0. -1.
    10030    2    1    2    0    0  0.00000000000E+00  0.00000000000E+00  0.78157543062E+03  0.17756096165E+04  0.15943429231E+04 0.  0.
        1    1    3    3  502    0  0.36972916874E+03  0.28629304582E+03 -0.32822983247E+03  0.57131268956E+03  0.50400001928E-02 0. -1.
       -1    1    3    3    0  502 -0.36972916874E+03 -0.28629304582E+03  0.11098052631E+04  0.12042969270E+04  0.50400001928E-02 0.  1.
</event>
<event>
 5   0  0.9673017E-05  0.1595560E+04  0.7818609E-02  0.8823280E-01
        1   -1    0    0  501    0  0.00000000000E+00  0.00000000000E+00  0.79859630675E+03  0.79859630677E+03  0.50400001928E-02 0.  1.
       -1   -1    0    0    0  501  0.00000000000E+00  0.00000000000E+00 -0.79696486844E+03  0.79696486845E+03  0.50400001928E-02 0. -1.
    10030    2    1    2    0    0  0.00000000000E+00  0.00000000000E+00  0.16314383154E+01  0.15955611752E+04  0.15955603412E+04 0.  0.
        1    1    3    3  502    0  0.27154438920E+02 -0.50368190937E+03  0.61889400753E+03  0.79841256376E+03  0.50400001928E-02 0.  1.
       -1    1    3    3    0  502 -0.27154438920E+02  0.50368190937E+03 -0.61726256921E+03  0.79714861146E+03  0.50400001928E-02 0. -1.
</event>
<event>
 5   0  0.1774934E-04  0.1607106E+04  0.7818609E-02  0.8816195E-01
       -2   -1    0    0    0  501  0.00000000000E+00  0.00000000000E+00  0.11629562655E+04  0.11629562655E+04  0.25500000920E-02 0. -1.
        2   -1    0    0  501    0  0.00000000000E+00  0.00000000000E+00 -0.55522054398E+03  0.55522054399E+03  0.25500000920E-02 0.  1.
    10030    2    1    2    0    0  0.00000000000E+00  0.00000000000E+00  0.60773572148E+03  0.17181768094E+04  0.16071057343E+04 0.  0.
        1    1    3    3  502    0  0.44049555761E+03 -0.67193042845E+03  0.31782268127E+03  0.86402435944E+03  0.50400001928E-02 0. -1.
       -1    1    3    3    0  502 -0.44049555761E+03  0.67193042845E+03  0.28991304020E+03  0.85415245001E+03  0.50400001928E-02 0.  1.
</event>
<event>
 5   0  0.1832646E-04  0.1602778E+04  0.7818609E-02  0.8818843E-01
       -2   -1    0    0    0  501  0.00000000000E+00  0.00000000000E+00  0.12023260187E+04  0.12023260187E+04  0.25500000920E-02 0.  1.
        2   -1    0    0  501    0  0.00000000000E+00  0.00000000000E+00 -0.53415124464E+03  0.53415124465E+03  0.25500000920E-02 0. -1.
    10030    2    1    2    0    0  0.00000000000E+00  0.00000000000E+00  0.66817477406E+03  0.17364772634E+04  0.16027775134E+04 0.  0.
        2    1    3    3  502    0 -0.15915190102E+03 -0.53363847641E+03 -0.29028886291E+03  0.62798644495E+03  0.25500000920E-02 0. -1.
       -2    1    3    3    0  502  0.15915190102E+03  0.53363847641E+03  0.95846363697E+03  0.11084908184E+04  0.25500000920E-02 0.  1.
</event>
<event>
 5   0  0.1858913E-04  0.1608237E+04  0.7818609E-02  0.8815504E-01
        2   -1    0    0  501    0  0.00000000000E+00  0.00000000000E+00  0.12858991839E+04  0.12858991839E+04  0.25500000920E-02 0.  1.
       -2   -1    0    0    0  501  0.00000000000E+00  0.00000000000E+00 -0.50284402877E+03  0.50284402877E+03  0.25500000920E-02 0. -1.
    10030    2    1    2    0    0  0.00000000000E+00  0.00000000000E+00  0.78305515515E+03  0.17887432127E+04  0.16082372042E+04 0.  0.
        4    1    3    3  502    0 -0.59936745609E+02 -0.15375464462E+03  0.12668614846E+04  0.12775650818E+04  0.12699999809E+01 0.  1.
       -4    1    3    3    0  502  0.59936745609E+02  0.15375464462E+03 -0.48380632942E+03  0.51117813090E+03  0.12699999809E+01 0. -1.
</event>
<event>
 5   0  0.9432152E-05  0.1600816E+04  0.7818609E-02  0.8820047E-01
        1   -1    0    0  501    0  0.00000000000E+00  0.00000000000E+00  0.83224266758E+03  0.83224266760E+03  0.50400001928E-02 0. -1.
       -1   -1    0    0    0  501  0.00000000000E+00  0.00000000000E+00 -0.76979092887E+03  0.76979092889E+03  0.50400001928E-02 0.  1.
    10030    2    1    2    0    0  0.00000000000E+00  0.00000000000E+00  0.62451738712E+02  0.16020335965E+04  0.16008158622E+04 0.  0.
        4    1    3    3  502    0 -0.61042576128E+02  0.35735809603E+03  0.74536539120E+03  0.82885594901E+03  0.12699999809E+01 0. -1.
       -4    1    3    3    0  502  0.61042576128E+02 -0.35735809603E+03 -0.68291365249E+03  0.77317764748E+03  0.12699999809E+01 0.  1.
</event>
<event>
 5   0  0.9673017E-05  0.1607248E+04  0.7818609E-02  0.8816107E-01
        1   -1    0    0  501    0  0.00000000000E+00  0.00000000000E+00  0.13380185954E+04  0.13380185954E+04  0.50400001928E-02 0.  1.
       -1   -1    0    0    0  501  0.00000000000E+00  0.00000000000E+00 -0.48266275439E+03  0.48266275442E+03  0.50400001928E-02 0. -1.
    10030    2    1    2    0    0  0.00000000000E+00  0.00000000000E+00  0.85535584103E+03  0.18206813499E+04  0.16072482580E+04 0.  0.
        1    1    3    3  502    0 -0.13490299143E+03  0.37398305830E+03 -0.36345496749E+03  0.53866655587E+03  0.50400001928E-02 0. -1.
       -1    1    3    3    0  502  0.13490299143E+03 -0.37398305830E+03  0.12188108085E+04  0.12820147940E+04  0.50400001928E-02 0.  1.
</event>
<event>
 5   0  0.1858913E-04  0.1599859E+04  0.7818609E-02  0.8820635E-01
       -2   -1    0    0    0  501  0.00000000000E+00  0.00000000000E+00  0.55451489209E+03  0.55451489210E+03  0.25500000920E-02 0. -1.
        2   -1    0    0  501    0  0.00000000000E+00  0.00000000000E+00 -0.11539585589E+04  0.11539585589E+04  0.25500000920E-02 0.  1.
    10030    2    1    2    0    0  0.00000000000E+00  0.00000000000E+00 -0.59944366682E+03  0.17084734510E+04  0.15998590010E+04 0.  0.
        4    1    3    3  502    0  0.62082427105E+03 -0.34679163096E+03 -0.69092302170E+03  0.99149556007E+03  0.12699999809E+01 0.  1.
       -4    1    3    3    0  502 -0.62082427105E+03  0.34679163096E+03  0.91479354886E+02  0.71697789094E+03  0.12699999809E+01 0. -1.
</event>
<event>
 5   0  0.1835088E-04  0.1593728E+04  0.7818609E-02  0.8824410E-01
       -2   -1    0    0    0  501  0.00000000000E+00  0.00000000000E+00  0.80907005648E+03  0.80907005648E+03  0.25500000920E-02 0.  1.
        2   -1    0    0  501    0  0.00000000000E+00  0.00000000000E+00 -0.78484239402E+03  0.78484239402E+03  0.25500000920E-02 0. -1.
    10030    2    1    2    0    0  0.00000000000E+00  0.00000000000E+00  0.24227662456E+02  0.15939124505E+04  0.15937283082E+04 0.  0.
        5    1    3    3  502    0 -0.12516702447E+03  0.71520650860E+02 -0.77167844973E+03  0.78504248757E+03  0.46999998093E+01 0. -1.
       -5    1    3    3    0  502  0.12516702447E+03 -0.71520650860E+02  0.79590611219E+03  0.80886996293E+03  0.46999998093E+01 0.  1.
</event>
<event>
 5   0  0.9726935E-05  0.1602229E+04  0.7818609E-02  0.8819180E-01
       -1   -1    0    0    0  501  0.00000000000E+00  0.00000000000E+00  0.22671819682E+04  0.22671819682E+04  0.50400001928E-02 0.  1.
        1   -1    0    0  501    0  0.00000000000E+00  0.00000000000E+00 -0.28307592256E+03  0.28307592261E+03  0.50400001928E-02 0. -1.
    10030    2    1    2    0    0  0.00000000000E+00  0.00000000000E+00  0.19841060456E+04  0.25502578908E+04  0.16022292312E+04 0.  0.
        2    1    3    3  502    0  0.76177478372E+03 -0.20847923214E+03  0.77838504238E+03  0.11088948037E+04  0.25500000920E-02 0.  1.
       -2    1    3    3    0  502 -0.76177478372E+03  0.20847923214E+03  0.12057210033E+04  0.14413630872E+04  0.25500000920E-02 0. -1.
</event>
<event>
 5   0  0.6838750E-05  0.1589166E+04  0.7818609E-02  0.8827231E-01
        3   -1    0    0  501    0  0.00000000000E+00  0.00000000000E+00  0.38282720861E+03  0.38282722193E+03  0.10100000352E+00 0.  1.
       -3   -1    0    0    0  501  0.00000000000E+00  0.00000000000E+00 -0.16492099064E+04  0.16492099094E+04  0.10100000352E+00 0. -1.
    10030    2    1    2    0    0  0.00000000000E+00  0.00000000000E+00 -0.12663826977E+04  0.20320371314E+04  0.15891663746E+04 0.  0.
        5    1    3    3  502    0  0.13436542700E+03 -0.27433749977E+03  0.30472388350E+03  0.43150187360E+03  0.46999998093E+01 0.  1.
       -5    1    3    3    0  502 -0.13436542700E+03  0.27433749977E+03 -0.15711065812E+04  0.16005352578E+04  0.46999998093E+01 0. -1.
</event>
<event>
 5   0  0.9939872E-05  0.1598723E+04  0.7818609E-02  0.8821333E-01
        1   -1    0    0  501    0  0.00000000000E+00  0.00000000000E+00  0.19428335685E+04  0.19428335685E+04  0.50400001928E-02 0.  1.
       -1   -1    0    0    0  501  0.00000000000E+00  0.00000000000E+00 -0.32889003911E+03  0.32889003915E+03  0.50400001928E-02 0. -1.
    10030    2    1    2    0    0  0.00000000000E+00  0.00000000000E+00  0.16139435294E+04  0.22717236077E+04  0.15987227507E+04 0.  0.
        3    1    3    3  502    0 -0.19656215092E+02 -0.74120997175E+03  0.12313614164E+04  0.14373689634E+04  0.10100000352E+00 0.  1.
       -3    1    3    3    0  502  0.19656215092E+02  0.74120997175E+03  0.38258211305E+03  0.83435464428E+03  0.10100000352E+00 0. -1.
</event>
<event>
 5   0  0.1832646E-04  0.1612235E+04  0.7818609E-02  0.8813066E-01
        2   -1    0    0  501    0  0.00000000000E+00  0.00000000000E+00  0.86191896420E+03  0.86191896420E+03  0.25500000920E-02 0.  1.
       -2   -1    0    0    0  501  0.00000000000E+00  0.00000000000E+00 -0.75392914387E+03  0.75392914387E+03  0.25500000920E-02 0. -1.
    10030    2    1    2    0    0  0.00000000000E+00  0.00000000000E+00  0.10798982033E+03  0.16158481081E+04  0.16122354999E+04 0.  0.
        2    1    3    3  502    0  0.46157742801E+03 -0.48213992011E+03 -0.39902810851E+03  0.77764777117E+03  0.25500000920E-02 0. -1.
       -2    1    3    3    0  502 -0.46157742801E+03  0.48213992011E+03  0.50701792884E+03  0.83820033690E+03  0.25500000920E-02 0.  1.
</event>
<event>
 5   0  0.1858913E-04  0.1601318E+04  0.7818609E-02  0.8819739E-01
       -2   -1    0    0    0  501  0.00000000000E+00  0.00000000000E+00  0.91935591947E+03  0.91935591948E+03  0.25500000920E-02 0. -1.
        2   -1    0    0  501    0  0.00000000000E+00  0.00000000000E+00 -0.69728672669E+03  0.69728672670E+03  0.25500000920E-02 0.  1.
    10030    2    1    2    0    0  0.00000000000E+00  0.00000000000E+00  0.22206919278E+03  0.16166426462E+04  0.16013178070E+04 0.  0.
        4    1    3    3  502    0 -0.74853503739E+03 -0.19221249541E+03  0.32232853763E+03  0.83734559452E+03  0.12699999809E+01 0. -1.
       -4    1    3    3    0  502  0.74853503739E+03  0.19221249541E+03 -0.10025934485E+03  0.77929705165E+03  0.12699999809E+01 0.  1.
</event>
<event>
 5   0  0.9673017E-05  0.1603453E+04  0.7818609E-02  0.8818429E-01
       -1   -1    0    0    0  501  0.00000000000E+00  0.00000000000E+00  0.20744134113E+03  0.20744134119E+03  0.50400001928E-02 0. -1.
        1   -1    0    0  501    0  0.00000000000E+00  0.00000000000E+00 -0.30985413993E+04  0.30985413993E+04  0.50400001928E-02 0.  1.
    10030    2    1    2    0    0  0.00000000000E+00  0.00000000000E+00 -0.28911000582E+04  0.33059827405E+04  0.16034532529E+04 0.  0.
        1    1    3    3  502    0 -0.39334895400E+03  0.23761096708E+03 -0.28000423602E+04  0.28375023507E+04  0.50400001928E-02 0.  1.
       -1    1    3    3    0  502  0.39334895400E+03 -0.23761096708E+03 -0.91057698040E+02  0.46848038986E+03  0.50400001928E-02 0. -1.
</event>
<event>
 5   0  0.9673017E-05  0.1592285E+04  0.7818609E-02  0.8825302E-01
       -1   -1    0    0    0  501  0.00000000000E+00  0.00000000000E+00  0.68319824582E+03  0.68319824584E+03  0.50400001928E-02 0. -1.
        1   -1    0    0  501    0  0.00000000000E+00  0.00000000000E+00 -0.92775862622E+03  0.92775862623E+03  0.50400001928E-02 0.  1.
    10030    2    1    2    0    0  0.00000000000E+00  0.00000000000E+00 -0.24456038040E+03  0.16109568721E+04  0.15922852332E+04 0.  0.
        1    1    3    3  502    0  0.14310311374E+03 -0.71660545887E+03 -0.44196198245E+03  0.85400953086E+03  0.50400001928E-02 0.  1.
       -1    1    3    3    0  502 -0.14310311374E+03  0.71660545887E+03  0.19740160205E+03  0.75694734121E+03  0.50400001928E-02 0. -1.
</event>
<event>
 5   0  0.1914170E-04  0.1613287E+04  0.7818609E-02  0.8812427E-01
       -2   -1    0    0    0  501  0.00000000000E+00  0.00000000000E+00  0.65157990730E+03  0.65157990730E+03  0.25500000920E-02 0. -1.
        2   -1    0    0  501    0  0.00000000000E+00  0.00000000000E+00 -0.99860889324E+03  0.99860889325E+03  0.25500000920E-02 0.  1.
    10030    2    1    2    0    0  0.00000000000E+00  0.00000000000E+00 -0.34702898594E+03  0.16501888005E+04  0.16132866950E+04 0.  0.
        3    1    3    3  502    0  0.78142790535E+03 -0.12374072360E+03 -0.33437630202E+03  0.85892308124E+03  0.10100000352E+00 0. -1.
       -3    1    3    3    0  502 -0.78142790535E+03  0.12374072360E+03 -0.12652683929E+02  0.79126571931E+03  0.10100000352E+00 0.  1.
</event>
<event>
 5   0  0.9432152E-05  0.1595592E+04  0.7818609E-02  0.8823260E-01
       -1   -1    0    0    0  501  0.00000000000E+00  0.00000000000E+00  0.75781977874E+03  0.75781977876E+03  0.50400001928E-02 0. -1.
        1   -1    0    0  501    0  0.00000000000E+00  0.00000000000E+00 -0.83988133603E+03  0.83988133605E+03  0.50400001928E-02 0.  1.
    10030    2    1    2    0    0  0.00000000000E+00  0.00000000000E+00 -0.82061557290E+02  0.15977011148E+04  0.15955922891E+04 0.  0.
        4    1    3    3  502    0  0.50592568629E+03  0.38347973966E+03 -0.52484590793E+03  0.82370040108E+03  0.12699999809E+01 0.  1.
       -4    1    3    3    0  502 -0.50592568629E+03 -0.38347973966E+03  0.44278435064E+03  0.77400071373E+03  0.12699999809E+01 0. -1.
</event>
<event>
 5   0  0.9673017E-05  0.1571707E+04  0.7818609E-02  0.8838120E-01
       -1   -1    0    0    0  501  0.00000000000E+00  0.00000000000E+00  0.75814263818E+03  0.75814263820E+03  0.50400001928E-02 0.  1.
        1   -1    0    0  501    0  0.00000000000E+00  0.00000000000E+00 -0.81457754521E+03  0.81457754523E+03  0.50400001928E-02 0. -1.
    10030    2    1    2    0    0  0.00000000000E+00  0.00000000000E+00 -0.56434907032E+02  0.15727201834E+04  0.15717073126E+04 0.  0.
        1    1    3    3  502    0  0.26572498971E+03 -0.75183784067E+02  0.70799005635E+03  0.75994229482E+03  0.50400001928E-02 0.  1.
       -1    1    3    3    0  502 -0.26572498971E+03  0.75183784067E+02 -0.76442496338E+03  0.81277788861E+03  0.50400001928E-02 0. -1.
</event>
<event>
 5   0  0.9673017E-05  0.1601008E+04  0.7818609E-02  0.8819929E-01
        1   -1    0    0  501    0  0.00000000000E+00  0.00000000000E+00  0.57507793023E+03  0.57507793026E+03  0.50400001928E-02 0. -1.
       -1   -1    0    0    0  501  0.00000000000E+00  0.00000000000E+00 -0.11142959144E+04  0.11142959144E+04  0.50400001928E-02 0.  1.
    10030    2    1    2    0    0  0.00000000000E+00  0.00000000000E+00 -0.53921798416E+03  0.16893738447E+04  0.16010084174E+04 0.  0.
        1    1    3    3  502    0 -0.75322280161E+03  0.25525929068E+03 -0.36577119880E+03  0.87538018269E+03  0.50400001928E-02 0. -1.
       -1    1    3    3    0  502  0.75322280161E+03 -0.25525929068E+03 -0.17344678536E+03  0.81399366197E+03  0.50400001928E-02 0.  1.
</event>
<event>
 5   0  0.9939872E-05  0.1599725E+04  0.7818609E-02  0.8820717E-01
        1   -1    0    0  501    0  0.00000000000E+00  0.00000000000E+00  0.89875342797E+03  0.89875342799E+03  0.50400001928E-02 0. -1.
       -1   -1    0    0    0  501  0.00000000000E+00  0.00000000000E+00 -0.71185237336E+03  0.71185237338E+03  0.50400001928E-02 0.  1.
    10030    2    1    2    0    0  0.00000000000E+00  0.00000000000E+00  0.18690105461E+03  0.16106058014E+04  0.15997246773E+04 0.  0.
        3    1    3    3  502    0 -0.53632699132E+03 -0.47973077184E+03  0.44509904619E+03  0.84610958285E+03  0.10100000352E+00 0. -1.
       -3    1    3    3    0  502  0.53632699132E+03  0.47973077184E+03 -0.25819799158E+03  0.76449621852E+03  0.10100000352E+00 0.  1.
</event>
<event>
 5   0  0.1835088E-04  0.1599841E+04  0.7818609E-02  0.8820646E-01
        2   -1    0    0  501    0  0.00000000000E+00  0.00000000000E+00  0.11132610064E+04  0.11132610065E+04  0.25500000920E-02 0. -1.
       -2   -1    0    0    0  501  0.00000000000E+00  0.00000000000E+00 -0.57477350680E+03  0.57477350681E+03  0.25500000920E-02 0.  1.
    10030    2    1    2    0    0  0.00000000000E+00  0.00000000000E+00  0.53848749964E+03  0.16880345133E+04  0.15998411580E+04 0.  0.
        5    1    3    3  502    0 -0.82086472085E+02 -0.63869814393E+02  0.11060815230E+04  0.11109707321E+04  0.46999998093E+01 0. -1.
       -5    1    3    3    0  502  0.82086472085E+02  0.63869814393E+02 -0.56759402339E+03  0.57706378112E+03  0.46999998093E+01 0.  1.
</event>
<event>
 5   0  0.9432152E-05  0.1590891E+04  0.7818609E-02  0.8826164E-01
        1   -1    0    0  501    0  0.00000000000E+00  0.00000000000E+00  0.69140113404E+03  0.69140113406E+03  0.50400001928E-02 0. -1.
       -1   -1    0    0    0  501  0.00000000000E+00  0.00000000000E+00 -0.91514625526E+03  0.91514625528E+03  0.50400001928E-02 0.  1.
    10030    2    1    2    0    0  0.00000000000E+00  0.00000000000E+00 -0.22374512122E+03  0.16065473893E+04  0.15908905163E+04 0.  0.
        4    1    3    3  502    0 -0.25758544395E+03  0.23661193859E+03 -0.83332367897E+03  0.90375076058E+03  0.12699999809E+01 0.  1.
       -4    1    3    3    0  502  0.25758544395E+03 -0.23661193859E+03  0.60957855775E+03  0.70279662875E+03  0.12699999809E+01 0. -1.
</event>
<event>
 5   0  0.9673017E-05  0.1603085E+04  0.7818609E-02  0.8818655E-01
       -1   -1    0    0    0  501  0.00000000000E+00  0.00000000000E+00  0.69469117293E+03  0.69469117294E+03  0.50400001928E-02 0.  1.
        1   -1    0    0  501    0  0.00000000000E+00  0.00000000000E+00 -0.92482910584E+03  0.92482910585E+03  0.50400001928E-02 0. -1.
    10030    2    1    2    0    0  0.00000000000E+00  0.00000000000E+00 -0.23013793291E+03  0.16195202788E+04  0.16030852957E+04 0.  0.
        1    1    3    3  502    0  0.25902435794E+03  0.56300057155E+03  0.39848039666E+03  0.73678347438E+03  0.50400001928E-02 0.  1.
       -1    1    3    3    0  502 -0.25902435794E+03 -0.56300057155E+03 -0.62861832957E+03  0.88273680441E+03  0.50400001928E-02 0. -1.
</event>
<event>
 5   0  0.9673017E-05  0.1596719E+04  0.7818609E-02  0.8822566E-01
        1   -1    0    0  501    0  0.00000000000E+00  0.00000000000E+00  0.11758911755E+04  0.11758911755E+04  0.50400001928E-02 0. -1.
       -1   -1    0    0    0  501  0.00000000000E+00  0.00000000000E+00 -0.54203785718E+03  0.54203785720E+03  0.50400001928E-02 0.  1.
    10030    2    1    2    0    0  0.00000000000E+00  0.00000000000E+00  0.63385331832E+03  0.17179290327E+04  0.15967185514E+04 0.  0.
        1    1    3    3  502    0  0.65144499955E+03  0.27248518192E+03  0.71769316763E+03  0.10068327789E+04  0.50400001928E-02 0. -1.
       -1    1    3    3    0  502 -0.65144499955E+03 -0.27248518192E+03 -0.83839849307E+02  0.71109625380E+03  0.50400001928E-02 0.  1.
</event>
<event>
 5   0  0.1835088E-04  0.1593434E+04  0.7818609E-02  0.8824592E-01
        2   -1    0    0  501    0  0.00000000000E+00  0.00000000000E+00  0.12633297949E+04  0.12633297949E+04  0.25500000920E-02 0. -1.
       -2   -1    0    0    0  501  0.00000000000E+00  0.00000000000E+00 -0.50244856800E+03  0.50244856800E+03  0.25500000920E-02 0.  1.
    10030    2    1    2    0    0  0.00000000000E+00  0.00000000000E+00  0.76088122691E+03  0.17657783629E+04  0.15934343367E+04 0.  0.
        5    1    3    3  502    0  0.23671548507E+03  0.67297220149E+03  0.77350184202E+03  0.10522608966E+04  0.46999998093E+01 0. -1.
       -5    1    3    3    0  502 -0.23671548507E+03 -0.67297220149E+03 -0.12620615114E+02  0.71351746634E+03  0.46999998093E+01 0.  1.
</event>
<event>
 5   0  0.1858913E-04  0.1652598E+04  0.7818609E-02  0.8788871E-01
       -2   -1    0    0    0  501  0.00000000000E+00  0.00000000000E+00  0.12768692704E+04  0.12768692704E+04  0.25500000920E-02 0.  1.
        2   -1    0    0  501    0  0.00000000000E+00  0.00000000000E+00 -0.53472189984E+03  0.53472189985E+03  0.25500000920E-02 0. -1.
    10030    2    1    2    0    0  0.00000000000E+00  0.00000000000E+00  0.74214737056E+03  0.18115911702E+04  0.16525979089E+04 0.  0.
        4    1    3    3  502    0  0.81111315657E+03  0.11571249722E+03  0.48849806165E+03  0.95390036372E+03  0.12699999809E+01 0. -1.
       -4    1    3    3    0  502 -0.81111315657E+03 -0.11571249722E+03  0.25364930891E+03  0.85769080652E+03  0.12699999809E+01 0.  1.
</event>
<event>
 5   0  0.9616567E-05  0.1592690E+04  0.7818609E-02  0.8825051E-01
        1   -1    0    0  501    0  0.00000000000E+00  0.00000000000E+00  0.10633029058E+04  0.10633029058E+04  0.50400001928E-02 0. -1.
       -1   -1    0    0    0  501  0.00000000000E+00  0.00000000000E+00 -0.59641103838E+03  0.59641103840E+03  0.50400001928E-02 0.  1.
    10030    2    1    2    0    0  0.00000000000E+00  0.00000000000E+00  0.46689186741E+03  0.16597139442E+04  0.15926902903E+04 0.  0.
        5    1    3    3  502    0  0.54728798454E+03  0.32662017608E+03 -0.26407444027E+03  0.68990019384E+03  0.46999998093E+01 0.  1.
       -5    1    3    3    0  502 -0.54728798454E+03 -0.32662017608E+03  0.73096630768E+03  0.96981375038E+03  0.46999998093E+01 0. -1.
</event>
<event>
 5   0  0.1858913E-04  0.1601647E+04  0.7818609E-02  0.8819537E-01
        2   -1    0    0  501    0  0.00000000000E+00  0.00000000000E+00  0.10983905099E+04  0.10983905099E+04  0.25500000920E-02 0.  1.
       -2   -1    0    0    0  501  0.00000000000E+00  0.00000000000E+00 -0.58387072114E+03  0.58387072115E+03  0.25500000920E-02 0. -1.
    10030    2    1    2    0    0  0.00000000000E+00  0.00000000000E+00  0.51451978871E+03  0.16822612310E+04  0.16016467265E+04 0.  0.
        4    1    3    3  502    0  0.52637105174E+03 -0.11364330025E+02 -0.37653605388E+03  0.64728405270E+03  0.12699999809E+01 0. -1.
       -4    1    3    3    0  502 -0.52637105174E+03  0.11364330025E+02  0.89105584259E+03  0.10349771783E+04  0.12699999809E+01 0.  1.
</event>
<event>
 5   0  0.9939872E-05  0.1594507E+04  0.7818609E-02  0.8823929E-01
        1   -1    0    0  501    0  0.00000000000E+00  0.00000000000E+00  0.10045012690E+04  0.10045012690E+04  0.50400001928E-02 0. -1.
       -1   -1    0    0    0  501  0.00000000000E+00  0.00000000000E+00 -0.63276526183E+03  0.63276526186E+03  0.50400001928E-02 0.  1.
    10030    2    1    2    0    0  0.00000000000E+00  0.00000000000E+00  0.37173600712E+03  0.16372665308E+04  0.15945074581E+04 0.  0.
        3    1    3    3  502    0  0.56832354285E+02  0.66629794578E+03  0.63159462991E+03  0.91983403708E+03  0.10100000352E+00 0. -1.
       -3    1    3    3    0  502 -0.56832354285E+02 -0.66629794578E+03 -0.25985862279E+03  0.71743249374E+03  0.10100000352E+00 0.  1.
</event>
<event>
 5   0  0.1832646E-04  0.1517198E+04  0.7818609E-02  0.8873096E-01
       -2   -1    0    0    0  501  0.00000000000E+00  0.00000000000E+00  0.86223013535E+03  0.86223013535E+03  0.25500000920E-02 0. -1.
        2   -1    0    0  501    0  0.00000000000E+00  0.00000000000E+00 -0.66742302702E+03  0.66742302702E+03  0.25500000920E-02 0.  1.
    10030    2    1    2    0    0  0.00000000000E+00  0.00000000000E+00  0.19480710833E+03  0.15296531624E+04  0.15171977418E+04 0.  0.
        2    1    3    3  502    0  0.35575191484E+03  0.45355409098E+03  0.59460675236E+03  0.82814728661E+03  0.25500000920E-02 0. -1.
       -2    1    3    3    0  502 -0.35575191484E+03 -0.45355409098E+03 -0.39979964402E+03  0.70150587576E+03  0.25500000920E-02 0.  1.
</event>
<event>
 5   0  0.1774934E-04  0.1599120E+04  0.7818609E-02  0.8821089E-01
       -2   -1    0    0    0  501  0.00000000000E+00  0.00000000000E+00  0.38694125570E+03  0.38694125571E+03  0.25500000920E-02 0.  1.
        2   -1    0    0  501    0  0.00000000000E+00  0.00000000000E+00 -0.16521792689E+04  0.16521792689E+04  0.25500000920E-02 0. -1.
    10030    2    1    2    0    0  0.00000000000E+00  0.00000000000E+00 -0.12652380132E+04  0.20391205246E+04  0.15991201593E+04 0.  0.
        1    1    3    3  502    0  0.13019160757E+03 -0.51049773876E+03  0.13431709127E+03  0.54369005600E+03  0.50400001928E-02 0.  1.
       -1    1    3    3    0  502 -0.13019160757E+03  0.51049773876E+03 -0.13995551045E+04  0.14954304686E+04  0.50400001928E-02 0. -1.
</event>
<event>
 5   0  0.9432152E-05  0.1573416E+04  0.7818609E-02  0.8837048E-01
       -1   -1    0    0    0  501  0.00000000000E+00  0.00000000000E+00  0.69037403924E+03  0.69037403926E+03  0.50400001928E-02 0.  1.
        1   -1    0    0  501    0  0.00000000000E+00  0.00000000000E+00 -0.89648384258E+03  0.89648384260E+03  0.50400001928E-02 0. -1.
    10030    2    1    2    0    0  0.00000000000E+00  0.00000000000E+00 -0.20610980334E+03  0.15868578819E+04  0.15734156114E+04 0.  0.
        4    1    3    3  502    0  0.63082476179E+03 -0.46598349145E+03 -0.40663110325E+02  0.78532515294E+03  0.12699999809E+01 0. -1.
       -4    1    3    3    0  502 -0.63082476179E+03  0.46598349145E+03 -0.16544669302E+03  0.80153272892E+03  0.12699999809E+01 0.  1.
</event>
<event>
 5   0  0.1774934E-04  0.1604817E+04  0.7818609E-02  0.8817594E-01
       -2   -1    0    0    0  501  0.00000000000E+00  0.00000000000E+00  0.70035609393E+03  0.70035609393E+03  0.25500000920E-02 0. -1.
        2   -1    0    0  501    0  0.00000000000E+00  0.00000000000E+00 -0.91933173794E+03  0.91933173795E+03  0.25500000920E-02 0.  1.
    10030    2    1    2    0    0  0.00000000000E+00  0.00000000000E+00 -0.21897564401E+03  0.16196878319E+04  0.16048172295E+04 0.  0.
        1    1    3    3  502    0  0.34786783081E+03 -0.54135641041E+03  0.37430854664E+03  0.74443648414E+03  0.50400001928E-02 0. -1.
       -1    1    3    3    0  502 -0.34786783081E+03  0.54135641041E+03 -0.59328419066E+03  0.87525134774E+03  0.50400001928E-02 0.  1.
</event>
<event>
 5   0  0.9726935E-05  0.1593177E+04  0.7818609E-02  0.8824751E-01
        1   -1    0    0  501    0  0.00000000000E+00  0.00000000000E+00  0.10498953268E+04  0.10498953268E+04  0.50400001928E-02 0. -1.
       -1   -1    0    0    0  501  0.00000000000E+00  0.00000000000E+00 -0.60439661467E+03  0.60439661469E+03  0.50400001928E-02 0.  1.
    10030    2    1    2    0    0  0.00000000000E+00  0.00000000000E+00  0.44549871209E+03  0.16542919415E+04  0.15931769284E+04 0.  0.
        2    1    3    3  502    0  0.16861421489E+03  0.63991793849E+03  0.68318637130E+03  0.95114107229E+03  0.25500000920E-02 0. -1.
       -2    1    3    3    0  502 -0.16861421489E+03 -0.63991793849E+03 -0.23768765921E+03  0.70315086917E+03  0.25500000920E-02 0.  1.
</event>
<event>
 5   0  0.1858913E-04  0.1599579E+04  0.7818609E-02  0.8820807E-01
        2   -1    0    0  501    0  0.00000000000E+00  0.00000000000E+00  0.69271936908E+03  0.69271936908E+03  0.25500000920E-02 0. -1.
       -2   -1    0    0    0  501  0.00000000000E+00  0.00000000000E+00 -0.92340896435E+03  0.92340896435E+03  0.25500000920E-02 0.  1.
    10030    2    1    2    0    0  0.00000000000E+00  0.00000000000E+00 -0.23068959528E+03  0.16161283334E+04  0.15995790386E+04 0.  0.
        4    1    3    3  502    0  0.73806987876E+03 -0.11947966165E+03 -0.40225305531E+03  0.84901806157E+03  0.12699999809E+01 0. -1.
       -4    1    3    3    0  502 -0.73806987876E+03  0.11947966165E+03  0.17156346003E+03  0.76711027186E+03  0.12699999809E+01 0.  1.
</event>
<event>
 5   0  0.1914170E-04  0.1597438E+04  0.7818609E-02  0.8822123E-01
       -2   -1    0    0    0  501  0.00000000000E+00  0.00000000000E+00  0.82694108349E+03  0.82694108349E+03  0.25500000920E-02 0. -1.
        2   -1    0    0  501    0  0.00000000000E+00  0.00000000000E+00 -0.77146049744E+03  0.77146049745E+03  0.25500000920E-02 0.  1.
    10030    2    1    2    0    0  0.00000000000E+00  0.00000000000E+00  0.55480586043E+02  0.15984015809E+04  0.15974384240E+04 0.  0.
        3    1    3    3  502    0 -0.18288068563E+02 -0.23610176372E+03 -0.73552620883E+03  0.77270777812E+03  0.10100000352E+00 0.  1.
       -3    1    3    3    0  502  0.18288068563E+02  0.23610176372E+03  0.79100679487E+03  0.82569380282E+03  0.10100000352E+00 0. -1.
</event>
<event>
 5   0  0.9726935E-05  0.1598480E+04  0.7818609E-02  0.8821482E-01
        1   -1    0    0  501    0  0.00000000000E+00  0.00000000000E+00  0.63379503854E+03  0.63379503856E+03  0.50400001928E-02 0.  1.
       -1   -1    0    0    0  501  0.00000000000E+00  0.00000000000E+00 -0.10078726157E+04  0.10078726157E+04  0.50400001928E-02 0. -1.
    10030    2    1    2    0    0  0.00000000000E+00  0.00000000000E+00 -0.37407757717E+03  0.16416676543E+04  0.15984801073E+04 0.  0.
        2    1    3    3  502    0  0.28564390883E+03 -0.50581089975E+03 -0.75082161308E+03  0.94929984917E+03  0.25500000920E-02 0. -1.
       -2    1    3    3    0  502 -0.28564390883E+03  0.50581089975E+03  0.37674403591E+03  0.69236780511E+03  0.25500000920E-02 0.  1.
</event>
<event>
 5   0  0.9432152E-05  0.1596572E+04  0.7818609E-02  0.8822657E-01
       -1   -1    0    0    0  501  0.00000000000E+00  0.00000000000E+00  0.63882411068E+03  0.63882411070E+03  0.50400001928E-02 0.  1.
        1   -1    0    0  501    0  0.00000000000E+00  0.00000000000E+00 -0.99755184190E+03  0.99755184191E+03  0.50400001928E-02 0. -1.
    10030    2    1    2    0    0  0.00000000000E+00  0.00000000000E+00 -0.35872773122E+03  0.16363759526E+04  0.15965715371E+04 0.  0.
        4    1    3    3  502    0  0.52340168199E+03 -0.20846783242E+03 -0.75901695314E+03  0.94526002027E+03  0.12699999809E+01 0.  1.
       -4    1    3    3    0  502 -0.52340168199E+03  0.20846783242E+03  0.40028922191E+03  0.69111593235E+03  0.12699999809E+01 0. -1.
</event>
<event>
 5   0  0.9939872E-05  0.1601977E+04  0.7818609E-02  0.8819334E-01
        1   -1    0    0  501    0  0.00000000000E+00  0.00000000000E+00  0.13514360854E+04  0.13514360854E+04  0.50400001928E-02 0.  1.
       -1   -1    0    0    0  501  0.00000000000E+00  0.00000000000E+00 -0.47474137084E+03  0.47474137086E+03  0.50400001928E-02 0. -1.
    10030    2    1    2    0    0  0.00000000000E+00  0.00000000000E+00  0.87669471459E+03  0.18261774563E+04  0.16019770533E+04 0.  0.
        3    1    3    3  502    0 -0.68601498994E+02  0.77516168950E+03  0.65464050282E+03  0.10169247802E+04  0.10100000352E+00 0.  1.
       -3    1    3    3    0  502  0.68601498994E+02 -0.77516168950E+03  0.22205421176E+03  0.80925267605E+03  0.10100000352E+00 0. -1.
</event>
<event>
 5   0  0.9939872E-05  0.1642533E+04  0.7818609E-02  0.8794836E-01
       -1   -1    0    0    0  501  0.00000000000E+00  0.00000000000E+00  0.98693853583E+03  0.98693853584E+03  0.50400001928E-02 0. -1.
        1   -1    0    0  501    0  0.00000000000E+00  0.00000000000E+00 -0.68340468783E+03  0.68340468785E+03  0.50400001928E-02 0.  1.
    10030    2    1    2    0    0  0.00000000000E+00  0.00000000000E+00  0.30353384799E+03  0.16703432237E+04  0.16425327053E+04 0.  0.
        3    1    3    3  502    0 -0.70636347376E+03 -0.41850769852E+03  0.13193386528E+03  0.83156755937E+03  0.10100000352E+00 0.  1.
       -3    1    3    3    0  502  0.70636347376E+03  0.41850769852E+03  0.17159998272E+03  0.83877566432E+03  0.10100000352E+00 0. -1.
</event>
<event>
 5   0  0.1774934E-04  0.1616199E+04  0.7818609E-02  0.8810658E-01
        2   -1    0    0  501    0  0.00000000000E+00  0.00000000000E+00  0.97710742337E+03  0.97710742338E+03  0.25500000920E-02 0. -1.
       -2   -1    0    0    0  501  0.00000000000E+00  0.00000000000E+00 -0.66832425127E+03  0.66832425127E+03  0.25500000920E-02 0.  1.
    10030    2    1    2    0    0  0.00000000000E+00  0.00000000000E+00  0.30878317211E+03  0.16454316747E+04  0.16161987342E+04 0.  0.
        1    1    3    3  502    0 -0.15998129587E+03  0.68033965855E+02  0.95784383982E+03  0.97349240215E+03  0.50400001928E-02 0. -1.
       -1    1    3    3    0  502  0.15998129587E+03 -0.68033965855E+02 -0.64906066771E+03  0.67193927250E+03  0.50400001928E-02 0.  1.
</event>
<event>
 5   0  0.1835088E-04  0.1571028E+04  0.7818609E-02  0.8838547E-01
       -2   -1    0    0    0  501  0.00000000000E+00  0.00000000000E+00  0.32361842496E+03  0.32361842497E+03  0.25500000920E-02 0. -1.
        2   -1    0    0  501    0  0.00000000000E+00  0.00000000000E+00 -0.19066649744E+04  0.19066649744E+04  0.25500000920E-02 0.  1.
    10030    2    1    2    0    0  0.00000000000E+00  0.00000000000E+00 -0.15830465494E+04  0.22302833994E+04  0.15710275821E+04 0.  0.
        5    1    3    3  502    0 -0.29649849185E+02  0.24393238363E+03  0.26762960437E+03  0.36335907374E+03  0.46999998093E+01 0. -1.
       -5    1    3    3    0  502  0.29649849185E+02 -0.24393238363E+03 -0.18506761538E+04  0.18669243256E+04  0.46999998093E+01 0.  1.
</event>
<event>
 5   0  0.1832646E-04  0.1594311E+04  0.7818609E-02  0.8824051E-01
        2   -1    0    0  501    0  0.00000000000E+00  0.00000000000E+00  0.82528218464E+03  0.82528218465E+03  0.25500000920E-02 0. -1.
       -2   -1    0    0    0  501  0.00000000000E+00  0.00000000000E+00 -0.76998693515E+03  0.76998693515E+03  0.25500000920E-02 0.  1.
    10030    2    1    2    0    0  0.00000000000E+00  0.00000000000E+00  0.55295249497E+02  0.15952691198E+04  0.15943105093E+04 0.  0.
        2    1    3    3  502    0 -0.78243495830E+02 -0.79249651368E+03 -0.82031124636E+01  0.79639190094E+03  0.25500000920E-02 0. -1.
       -2    1    3    3    0  502  0.78243495830E+02  0.79249651368E+03  0.63498361961E+02  0.79887721886E+03  0.25500000920E-02 0.  1.
</event>
<event>
 5   0  0.9673017E-05  0.1598057E+04  0.7818609E-02  0.8821743E-01
       -1   -1    0    0    0  501  0.00000000000E+00  0.00000000000E+00  0.43517083039E+03  0.43517083042E+03  0.50400001928E-02 0. -1.
        1   -1    0    0  501    0  0.00000000000E+00  0.00000000000E+00 -0.14671163335E+04  0.14671163335E+04  0.50400001928E-02 0.  1.
    10030    2    1    2    0    0  0.00000000000E+00  0.00000000000E+00 -0.10319455031E+04  0.19022871640E+04  0.15980566112E+04 0.  0.
        1    1    3    3  502    0  0.42446611646E+03  0.26775269194E+03 -0.12560983597E+04  0.13526441060E+04  0.50400001928E-02 0.  1.
       -1    1    3    3    0  502 -0.42446611646E+03 -0.26775269194E+03  0.22415285658E+03  0.54964305800E+03  0.50400001928E-02 0. -1.
</event>
<event>
 5   0  0.1832646E-04  0.1601110E+04  0.7818609E-02  0.8819866E-01
       -2   -1    0    0    0  501  0.00000000000E+00  0.00000000000E+00  0.41313038913E+03  0.41313038914E+03  0.25500000920E-02 0.  1.
        2   -1    0    0  501    0  0.00000000000E+00  0.00000000000E+00 -0.15512979232E+04  0.15512979232E+04  0.25500000920E-02 0. -1.
    10030    2    1    2    0    0  0.00000000000E+00  0.00000000000E+00 -0.11381675341E+04  0.19644283124E+04  0.16011100083E+04 0.  0.
        2    1    3    3  502    0  0.65730008137E+03 -0.10247510170E+03 -0.11155008844E+04  0.12988020505E+04  0.25500000920E-02 0. -1.
       -2    1    3    3    0  502 -0.65730008137E+03  0.10247510170E+03 -0.22666649731E+02  0.66562626184E+03  0.25500000920E-02 0.  1.
</event>
<event>
 5   0  0.9673017E-05  0.1611498E+04  0.7818609E-02  0.8813515E-01
        1   -1    0    0  501    0  0.00000000000E+00  0.00000000000E+00  0.81134651739E+03  0.81134651741E+03  0.50400001928E-02 0. -1.
       -1   -1    0    0    0  501  0.00000000000E+00  0.00000000000E+00 -0.80019043178E+03  0.80019043179E+03  0.50400001928E-02 0.  1.
    10030    2    1    2    0    0  0.00000000000E+00  0.00000000000E+00  0.11156085618E+02  0.16115369492E+04  0.16114983340E+04 0.  0.
        1    1    3    3  502    0  0.25985683348E+03  0.63544620184E+03  0.42738700112E+03  0.80868850498E+03  0.50400001928E-02 0. -1.
       -1    1    3    3    0  502 -0.25985683348E+03 -0.63544620184E+03 -0.41623091550E+03  0.80284844422E+03  0.50400001928E-02 0.  1.
</event>
<event>
 5   0  0.9616567E-05  0.1597572E+04  0.7818609E-02  0.8822041E-01
       -1   -1    0    0    0  501  0.00000000000E+00  0.00000000000E+00  0.94638499564E+03  0.94638499565E+03  0.50400001928E-02 0. -1.
        1   -1    0    0  501    0  0.00000000000E+00  0.00000000000E+00 -0.67420675007E+03  0.67420675009E+03  0.50400001928E-02 0.  1.
    10030    2    1    2    0    0  0.00000000000E+00  0.00000000000E+00  0.27217824557E+03  0.16205917457E+04  0.15975720982E+04 0.  0.
        5    1    3    3  502    0  0.52253856563E+03  0.59579666238E+03  0.34562796610E+02  0.79324453504E+03  0.46999998093E+01 0. -1.
       -5    1    3    3    0  502 -0.52253856563E+03 -0.59579666238E+03  0.23761544896E+03  0.82734721070E+03  0.46999998093E+01 0.  1.
</event>
<event>
 5   0  0.1858913E-04  0.1598338E+04  0.7818609E-02  0.8821570E-01
       -2   -1    0    0    0  501  0.00000000000E+00  0.00000000000E+00  0.45884072552E+03  0.45884072553E+03  0.25500000920E-02 0. -1.
        2   -1    0    0  501    0  0.00000000000E+00  0.00000000000E+00 -0.13919232641E+04  0.13919232642E+04  0.25500000920E-02 0.  1.
    10030    2    1    2    0    0  0.00000000000E+00  0.00000000000E+00 -0.93308253863E+03  0.18507639897E+04  0.15983379873E+04 0.  0.
        4    1    3    3  502    0 -0.32379160350E+03 -0.71216772924E+03 -0.65555575703E+03  0.10206756784E+04  0.12699999809E+01 0.  1.
       -4    1    3    3    0  502  0.32379160350E+03  0.71216772924E+03 -0.27752678160E+03  0.83008831125E+03  0.12699999809E+01 0. -1.
</event>
<event>
 5   0  0.9673017E-05  0.1602491E+04  0.7818609E-02  0.8819019E-01
        1   -1    0    0  501    0  0.00000000000E+00  0.00000000000E+00  0.60039994765E+03  0.60039994767E+03  0.50400001928E-02 0.  1.
       -1   -1    0    0    0  501  0.00000000000E+00  0.00000000000E+00 -0.10692773203E+04  0.10692773203E+04  0.50400001928E-02 0. -1.
    10030    2    1    2    0    0  0.00000000000E+00  0.00000000000E+00 -0.46887737267E+03  0.16696772680E+04  0.16024906205E+04 0.  0.
        1    1    3    3  502    0  0.50598677880E+03 -0.40911649702E+03  0.25270521301E+03  0.69803929199E+03  0.50400001928E-02 0.  1.
       -1    1    3    3    0  502 -0.50598677880E+03  0.40911649702E+03 -0.72158258568E+03  0.97163797602E+03  0.50400001928E-02 0. -1.
</event>
<event>
 5   0  0.6838750E-05  0.1590269E+04  0.7818609E-02  0.8826548E-01
        3   -1    0    0  501    0  0.00000000000E+00  0.00000000000E+00  0.31674078696E+03  0.31674080306E+03  0.10100000352E+00 0.  1.
       -3   -1    0    0    0  501  0.00000000000E+00  0.00000000000E+00 -0.19960769154E+04  0.19960769180E+04  0.10100000352E+00 0. -1.
    10030    2    1    2    0    0  0.00000000000E+00  0.00000000000E+00 -0.16793361285E+04  0.23128177210E+04  0.15902691528E+04 0.  0.
        2    1    3    3  502    0 -0.65923947991E+03  0.43527480737E+03 -0.97118999294E+03  0.12519068864E+04  0.25500000920E-02 0. -1.
       -2    1    3    3    0  502  0.65923947991E+03 -0.43527480737E+03 -0.70814613551E+03  0.10609108346E+04  0.25500000920E-02 0.  1.
</event>
<event>
 5   0  0.9673017E-05  0.1606377E+04  0.7818609E-02  0.8816640E-01
       -1   -1    0    0    0  501  0.00000000000E+00  0.00000000000E+00  0.31015541533E+03  0.31015541537E+03  0.50400001928E-02 0.  1.
        1   -1    0    0  501    0  0.00000000000E+00  0.00000000000E+00 -0.20799633406E+04  0.20799633406E+04  0.50400001928E-02 0. -1.
    10030    2    1    2    0    0  0.00000000000E+00  0.00000000000E+00 -0.17698079252E+04  0.23901187559E+04  0.16063771585E+04 0.  0.
        1    1    3    3  502    0  0.39359453328E+03 -0.82389452646E+02  0.14959134228E+03  0.42904807219E+03  0.50400001928E-02 0.  1.
       -1    1    3    3    0  502 -0.39359453328E+03  0.82389452646E+02 -0.19193992675E+04  0.19610706837E+04  0.50400001928E-02 0. -1.
</event>
<event>
 5   0  0.9726935E-05  0.1596827E+04  0.7818609E-02  0.8822500E-01
        1   -1    0    0  501    0  0.00000000000E+00  0.00000000000E+00  0.60734718381E+03  0.60734718383E+03  0.50400001928E-02 0.  1.
       -1   -1    0    0    0  501  0.00000000000E+00  0.00000000000E+00 -0.10495879505E+04  0.10495879505E+04  0.50400001928E-02 0. -1.
    10030    2    1    2    0    0  0.00000000000E+00  0.00000000000E+00 -0.44224076668E+03  0.16569351343E+04  0.15968272116E+04 0.  0.
        2    1    3    3  502    0 -0.23065266517E+03 -0.66061892729E+03 -0.62010188786E+03  0.93495688156E+03  0.25500000920E-02 0. -1.
       -2    1    3    3    0  502  0.23065266517E+03  0.66061892729E+03  0.17786112118E+03  0.72197825278E+03  0.25500000920E-02 0.  1.
</event>
<event>
 5   0  0.9432152E-05  0.1604539E+04  0.7818609E-02  0.8817764E-01
       -1   -1    0    0    0  501  0.00000000000E+00  0.00000000000E+00  0.34249634041E+03  0.34249634045E+03  0.50400001928E-02 0.  1.
        1   -1    0    0  501    0  0.00000000000E+00  0.00000000000E+00 -0.18792500799E+04  0.18792500799E+04  0.50400001928E-02 0. -1.
    10030    2    1    2    0    0  0.00000000000E+00  0.00000000000E+00 -0.15367537394E+04  0.22217464203E+04  0.16045389059E+04 0.  0.
        4    1    3    3  502    0 -0.26404389457E+03 -0.36818268308E+02 -0.18161197078E+04  0.18355836045E+04  0.12699999809E+01 0. -1.
       -4    1    3    3    0  502  0.26404389457E+03  0.36818268308E+02  0.27936596836E+03  0.38616281581E+03  0.12699999809E+01 0.  1.
</event>
<event>
 5   0  0.9616567E-05  0.1604898E+04  0.7818609E-02  0.8817545E-01
        1   -1    0    0  501    0  0.00000000000E+00  0.00000000000E+00  0.63625134079E+03  0.63625134081E+03  0.50400001928E-02 0.  1.
       -1   -1    0    0    0  501  0.00000000000E+00  0.00000000000E+00 -0.10120598748E+04  0.10120598749E+04  0.50400001928E-02 0. -1.
    10030    2    1    2    0    0  0.00000000000E+00  0.00000000000E+00 -0.37580853405E+03  0.16483112157E+04  0.16048980682E+04 0.  0.
        5    1    3    3  502    0 -0.30228718938E+01 -0.74451307874E+03  0.11951424155E+03  0.75406538582E+03  0.46999998093E+01 0.  1.
       -5    1    3    3    0  502  0.30228718938E+01  0.74451307874E+03 -0.49532277561E+03  0.89424582985E+03  0.46999998093E+01 0. -1.
</event>
<event>
 5   0  0.1774934E-04  0.1597837E+04  0.7818609E-02  0.8821878E-01
       -2   -1    0    0    0  501  0.00000000000E+00  0.00000000000E+00  0.56335987924E+03  0.56335987925E+03  0.25500000920E-02 0.  1.
        2   -1    0    0  501    0  0.00000000000E+00  0.00000000000E+00 -0.11329713949E+04  0.11329713949E+04  0.25500000920E-02 0. -1.
    10030    2    1    2    0    0  0.00000000000E+00  0.00000000000E+00 -0.56961151566E+03  0.16963312741E+04  0.15978368230E+04 0.  0.
        1    1    3    3  502    0 -0.40965516881E+03  0.67861911218E+03 -0.17901709634E+03  0.81264283517E+03  0.50400001928E-02 0.  1.
       -1    1    3    3    0  502  0.40965516881E+03 -0.67861911218E+03 -0.39059441932E+03  0.88368843898E+03  0.50400001928E-02 0. -1.
</event>
<event>
 5   0  0.9726935E-05  0.1606052E+04  0.7818609E-02  0.8816838E-01
       -1   -1    0    0    0  501  0.00000000000E+00  0.00000000000E+00  0.33266220246E+03  0.33266220249E+03  0.50400001928E-02 0.  1.
        1   -1    0    0  501    0  0.00000000000E+00  0.00000000000E+00 -0.19384559902E+04  0.19384559902E+04  0.50400001928E-02 0. -1.
    10030    2    1    2    0    0  0.00000000000E+00  0.00000000000E+00 -0.16057937878E+04  0.22711181927E+04  0.16060523517E+04 0.  0.
        2    1    3    3  502    0  0.28261288332E+03  0.64624954320E+03 -0.26009157714E+03  0.75176867612E+03  0.25500000920E-02 0.  1.
       -2    1    3    3    0  502 -0.28261288332E+03 -0.64624954320E+03 -0.13457022106E+04  0.15193495166E+04  0.25500000920E-02 0. -1.
</event>
<event>
 5   0  0.1914170E-04  0.1600331E+04  0.7818609E-02  0.8820345E-01
        2   -1    0    0  501    0  0.00000000000E+00  0.00000000000E+00  0.17500462691E+04  0.17500462691E+04  0.25500000920E-02 0. -1.
       -2   -1    0    0    0  501  0.00000000000E+00  0.00000000000E+00 -0.36585605137E+03  0.36585605138E+03  0.25500000920E-02 0.  1.
    10030    2    1    2    0    0  0.00000000000E+00  0.00000000000E+00  0.13841902177E+04  0.21159023205E+04  0.16003312379E+04 0.  0.
        3    1    3    3  502    0 -0.43946481785E+03  0.60223420312E+02 -0.18842010300E+03  0.48193187474E+03  0.10100000352E+00 0.  1.
       -3    1    3    3    0  502  0.43946481785E+03 -0.60223420312E+02  0.15726103207E+04  0.16339704457E+04  0.10100000352E+00 0. -1.
</event>
<event>
 5   0  0.9432152E-05  0.1601259E+04  0.7818609E-02  0.8819775E-01
       -1   -1    0    0    0  501  0.00000000000E+00  0.00000000000E+00  0.52124562200E+03  0.52124562202E+03  0.50400001928E-02 0.  1.
        1   -1    0    0  501    0  0.00000000000E+00  0.00000000000E+00 -0.12297611513E+04  0.12297611514E+04  0.50400001928E-02 0. -1.
    10030    2    1    2    0    0  0.00000000000E+00  0.00000000000E+00 -0.70851552935E+03  0.17510067734E+04  0.16012590250E+04 0.  0.
        4    1    3    3  502    0 -0.11359420374E+03 -0.74528657320E+03 -0.64900171092E+03  0.99476658217E+03  0.12699999809E+01 0.  1.
       -4    1    3    3    0  502  0.11359420374E+03  0.74528657320E+03 -0.59513818426E+02  0.75624019121E+03  0.12699999809E+01 0. -1.
</event>
<event>
 5   0  0.1774934E-04  0.1606327E+04  0.7818609E-02  0.8816671E-01
       -2   -1    0    0    0  501  0.00000000000E+00  0.00000000000E+00  0.25405551408E+03  0.25405551409E+03  0.25500000920E-02 0. -1.
        2   -1    0    0  501    0  0.00000000000E+00  0.00000000000E+00 -0.25390964512E+04  0.25390964512E+04  0.25500000920E-02 0.  1.
    10030    2    1    2    0    0  0.00000000000E+00  0.00000000000E+00 -0.22850409372E+04  0.27931519653E+04  0.16063268089E+04 0.  0.
        1    1    3    3  502    0 -0.26452773126E+03 -0.75658188121E+03 -0.12325447581E+04  0.14702236715E+04  0.50400001928E-02 0.  1.
       -1    1    3    3    0  502  0.26452773126E+03  0.75658188121E+03 -0.10524961791E+04  0.13229282938E+04  0.50400001928E-02 0. -1.
</event>
<event>
 5   0  0.9939872E-05  0.1595831E+04  0.7818609E-02  0.8823113E-01
        1   -1    0    0  501    0  0.00000000000E+00  0.00000000000E+00  0.60796729251E+03  0.60796729253E+03  0.50400001928E-02 0. -1.
       -1   -1    0    0    0  501  0.00000000000E+00  0.00000000000E+00 -0.10472099117E+04  0.10472099117E+04  0.50400001928E-02 0.  1.
    10030    2    1    2    0    0  0.00000000000E+00  0.00000000000E+00 -0.43924261916E+03  0.16551772042E+04  0.15958312877E+04 0.  0.
        3    1    3    3  502    0  0.54842553912E+03  0.18286950876E+03  0.35079209827E+03  0.67621515482E+03  0.10100000352E+00 0. -1.
       -3    1    3    3    0  502 -0.54842553912E+03 -0.18286950876E+03 -0.79003471743E+03  0.97896204939E+03  0.10100000352E+00 0.  1.
</event>
<event>
 5   0  0.1858913E-04  0.1599443E+04  0.7818609E-02  0.8820890E-01
        2   -1    0    0  501    0  0.00000000000E+00  0.00000000000E+00  0.90337747463E+03  0.90337747464E+03  0.25500000920E-02 0.  1.
       -2   -1    0    0    0  501  0.00000000000E+00  0.00000000000E+00 -0.70795919215E+03  0.70795919215E+03  0.25500000920E-02 0. -1.
    10030    2    1    2    0    0  0.00000000000E+00  0.00000000000E+00  0.19541828248E+03  0.16113366668E+04  0.15994428869E+04 0.  0.
        4    1    3    3  502    0 -0.47121420927E+03  0.48305313219E+03  0.53005026066E+03  0.85810142249E+03  0.12699999809E+01 0.  1.
       -4    1    3    3    0  502  0.47121420927E+03 -0.48305313219E+03 -0.33463197818E+03  0.75323524430E+03  0.12699999809E+01 0. -1.
</event>
<event>
 5   0  0.6838750E-05  0.1595007E+04  0.7818609E-02  0.8823622E-01
       -3   -1    0    0    0  501  0.00000000000E+00  0.00000000000E+00  0.10209112879E+04  0.10209112928E+04  0.10100000352E+00 0. -1.
        3   -1    0    0  501    0  0.00000000000E+00  0.00000000000E+00 -0.62298408676E+03  0.62298409495E+03  0.10100000352E+00 0.  1.
    10030    2    1    2    0    0  0.00000000000E+00  0.00000000000E+00  0.39792720109E+03  0.16438953878E+04  0.15950065795E+04 0.  0.
        5    1    3    3  502    0 -0.74701850449E+03  0.35092757650E+02  0.48443957230E+03  0.89105102934E+03  0.46999998093E+01 0.  1.
       -5    1    3    3    0  502  0.74701850449E+03 -0.35092757650E+02 -0.86512371210E+02  0.75284435845E+03  0.46999998093E+01 0. -1.
</event>
<event>
 5   0  0.1858913E-04  0.1593346E+04  0.7818609E-02  0.8824646E-01
       -2   -1    0    0    0  501  0.00000000000E+00  0.00000000000E+00  0.56015680112E+03  0.56015680113E+03  0.25500000920E-02 0. -1.
        2   -1    0    0  501    0  0.00000000000E+00  0.00000000000E+00 -0.11330544792E+04  0.11330544792E+04  0.25500000920E-02 0.  1.
    10030    2    1    2    0    0  0.00000000000E+00  0.00000000000E+00 -0.57289767806E+03  0.16932112803E+04  0.15933463811E+04 0.  0.
        4    1    3    3  502    0  0.67498166709E+03 -0.33210398639E+03 -0.77251563584E+01  0.75229954116E+03  0.12699999809E+01 0. -1.
       -4    1    3    3    0  502 -0.67498166709E+03  0.33210398639E+03 -0.56517252171E+03  0.94091173916E+03  0.12699999809E+01 0.  1.
</event>
<event>
 5   0  0.1835088E-04  0.1586616E+04  0.7818609E-02  0.8828812E-01
        2   -1    0    0  501    0  0.00000000000E+00  0.00000000000E+00  0.47380144345E+03  0.47380144345E+03  0.25500000920E-02 0.  1.
       -2   -1    0    0    0  501  0.00000000000E+00  0.00000000000E+00 -0.13282735612E+04  0.13282735612E+04  0.25500000920E-02 0. -1.
    10030    2    1    2    0    0  0.00000000000E+00  0.00000000000E+00 -0.85447211774E+03  0.18020750046E+04  0.15866164383E+04 0.  0.
        5    1    3    3  502    0 -0.54075719216E+03  0.48820231501E+03 -0.78380412561E+03  0.10701078631E+04  0.46999998093E+01 0.  1.
       -5    1    3    3    0  502  0.54075719216E+03 -0.48820231501E+03 -0.70667992132E+02  0.73196714159E+03  0.46999998093E+01 0. -1.
</event>
<event>
 5   0  0.1832646E-04  0.1602866E+04  0.7818609E-02  0.8818789E-01
       -2   -1    0    0    0  501  0.00000000000E+00  0.00000000000E+00  0.66206936010E+03  0.66206936010E+03  0.25500000920E-02 0. -1.
        2   -1    0    0  501    0  0.00000000000E+00  0.00000000000E+00 -0.97013263894E+03  0.97013263894E+03  0.25500000920E-02 0.  1.
    10030    2    1    2    0    0  0.00000000000E+00  0.00000000000E+00 -0.30806327884E+03  0.16322019990E+04  0.16028663019E+04 0.  0.
        2    1    3    3  502    0  0.37340997308E+03  0.37301565855E+03 -0.76816097537E+03  0.93201232482E+03  0.25500000920E-02 0.  1.
       -2    1    3    3    0  502 -0.37340997308E+03 -0.37301565855E+03  0.46009769654E+03  0.70018967422E+03  0.25500000920E-02 0. -1.
</event>
<event>
 5   0  0.1914170E-04  0.1600764E+04  0.7818609E-02  0.8820079E-01
       -2   -1    0    0    0  501  0.00000000000E+00  0.00000000000E+00  0.37434700694E+03  0.37434700695E+03  0.25500000920E-02 0.  1.
        2   -1    0    0  501    0  0.00000000000E+00  0.00000000000E+00 -0.17112772704E+04  0.17112772704E+04  0.25500000920E-02 0. -1.
    10030    2    1    2    0    0  0.00000000000E+00  0.00000000000E+00 -0.13369302635E+04  0.20856242774E+04  0.16007642228E+04 0.  0.
        3    1    3    3  502    0  0.49221894721E+03  0.49542077040E+02 -0.14882297525E+04  0.15682989881E+04  0.10100000352E+00 0. -1.
       -3    1    3    3    0  502 -0.49221894721E+03 -0.49542077040E+02  0.15129948905E+03  0.51732528933E+03  0.10100000352E+00 0.  1.
</event>
<event>
 5   0  0.1914170E-04  0.1603246E+04  0.7818609E-02  0.8818557E-01
       -2   -1    0    0    0  501  0.00000000000E+00  0.00000000000E+00  0.10649250379E+04  0.10649250379E+04  0.25500000920E-02 0.  1.
        2   -1    0    0  501    0  0.00000000000E+00  0.00000000000E+00 -0.60342197817E+03  0.60342197818E+03  0.25500000920E-02 0. -1.
    10030    2    1    2    0    0  0.00000000000E+00  0.00000000000E+00  0.46150305975E+03  0.16683470161E+04  0.16032456742E+04 0.  0.
        3    1    3    3  502    0 -0.51080814103E+02  0.56690965454E+03 -0.35661809769E+03  0.67169359368E+03  0.10100000352E+00 0. -1.
       -3    1    3    3    0  502  0.51080814103E+02 -0.56690965454E+03  0.81812115744E+03  0.99665342243E+03  0.10100000352E+00 0.  1.
</event>
<event>
 5   0  0.1832646E-04  0.1599109E+04  0.7818609E-02  0.8821096E-01
        2   -1    0    0  501    0  0.00000000000E+00  0.00000000000E+00  0.21405493798E+04  0.21405493798E+04  0.25500000920E-02 0.  1.
       -2   -1    0    0    0  501  0.00000000000E+00  0.00000000000E+00 -0.29865561811E+03  0.29865561812E+03  0.25500000920E-02 0. -1.
    10030    2    1    2    0    0  0.00000000000E+00  0.00000000000E+00  0.18418937617E+04  0.24392049979E+04  0.15991086244E+04 0.  0.
        2    1    3    3  502    0  0.36935297917E+03  0.67416181901E+03  0.58546869151E+03  0.96627603209E+03  0.25500000920E-02 0.  1.
       -2    1    3    3    0  502 -0.36935297917E+03 -0.67416181901E+03  0.12564250702E+04  0.14729289658E+04  0.25500000920E-02 0. -1.
</event>
<event>
 5   0  0.6838750E-05  0.1599532E+04  0.7818609E-02  0.8820836E-01
       -3   -1    0    0    0  501  0.00000000000E+00  0.00000000000E+00  0.92645200456E+03  0.92645201006E+03  0.10100000352E+00 0. -1.
        3   -1    0    0  501    0  0.00000000000E+00  0.00000000000E+00 -0.69040326246E+03  0.69040326985E+03  0.10100000352E+00 0.  1.
    10030    2    1    2    0    0  0.00000000000E+00  0.00000000000E+00  0.23604874210E+03  0.16168552799E+04  0.15995318026E+04 0.  0.
        1    1    3    3  502    0  0.10858994519E+03  0.47755532429E+03  0.75714948980E+03  0.90173511292E+03  0.50400001928E-02 0. -1.
       -1    1    3    3    0  502 -0.10858994519E+03 -0.47755532429E+03 -0.52110074770E+03  0.71512016699E+03  0.50400001928E-02 0.  1.
</event>
<event>
 5   0  0.6838750E-05  0.1607498E+04  0.7818609E-02  0.8815955E-01
        4   -1    0    0  501    0  0.00000000000E+00  0.00000000000E+00  0.59165990086E+03  0.59166126389E+03  0.12699999809E+01 0.  1.
       -4   -1    0    0    0  501  0.00000000000E+00  0.00000000000E+00 -0.10918610950E+04  0.10918618336E+04  0.12699999809E+01 0. -1.
    10030    2    1    2    0    0  0.00000000000E+00  0.00000000000E+00 -0.50020119418E+03  0.16835230975E+04  0.16074976782E+04 0.  0.
        2    1    3    3  502    0  0.24952217570E+03 -0.50920354407E+03 -0.84665639025E+03  0.10190076588E+04  0.25500000920E-02 0. -1.
       -2    1    3    3    0  502 -0.24952217570E+03  0.50920354407E+03  0.34645519607E+03  0.66451543876E+03  0.25500000920E-02 0.  1.
</event>
<event>
 5   0  0.1914170E-04  0.1603489E+04  0.7818609E-02  0.8818407E-01
        2   -1    0    0  501    0  0.00000000000E+00  0.00000000000E+00  0.33533766654E+03  0.33533766655E+03  0.25500000920E-02 0.  1.
       -2   -1    0    0    0  501  0.00000000000E+00  0.00000000000E+00 -0.19168578055E+04  0.19168578055E+04  0.25500000920E-02 0. -1.
    10030    2    1    2    0    0  0.00000000000E+00  0.00000000000E+00 -0.15815201389E+04  0.22521954720E+04  0.16034894744E+04 0.  0.
        3    1    3    3  502    0  0.69727678113E+03 -0.37169965774E+03 -0.98148587347E+03  0.12600278073E+04  0.10100000352E+00 0.  1.
       -3    1    3    3    0  502 -0.69727678113E+03  0.37169965774E+03 -0.60003426544E+03  0.99216766475E+03  0.10100000352E+00 0. -1.
</event>
<event>
 5   0  0.9432152E-05  0.1575092E+04  0.7818609E-02  0.8835998E-01
       -1   -1    0    0    0  501  0.00000000000E+00  0.00000000000E+00  0.68376354253E+03  0.68376354255E+03  0.50400001928E-02 0. -1.
        1   -1    0    0  501    0  0.00000000000E+00  0.00000000000E+00 -0.90708034151E+03  0.90708034153E+03  0.50400001928E-02 0.  1.
    10030    2    1    2    0    0  0.00000000000E+00  0.00000000000E+00 -0.22331679898E+03  0.15908438841E+04  0.15750917023E+04 0.  0.
        4    1    3    3  502    0 -0.35135812293E+03  0.54571767973E+03  0.33885917887E+03  0.73217994545E+03  0.12699999809E+01 0.  1.
       -4    1    3    3    0  502  0.35135812293E+03 -0.54571767973E+03 -0.56217597785E+03  0.85866393862E+03  0.12699999809E+01 0. -1.
</event>
<event>
 5   0  0.1774934E-04  0.1602785E+04  0.7818609E-02  0.8818839E-01
        2   -1    0    0  501    0  0.00000000000E+00  0.00000000000E+00  0.75963595646E+03  0.75963595646E+03  0.25500000920E-02 0. -1.
       -2   -1    0    0    0  501  0.00000000000E+00  0.00000000000E+00 -0.84544393497E+03  0.84544393498E+03  0.25500000920E-02 0.  1.
    10030    2    1    2    0    0  0.00000000000E+00  0.00000000000E+00 -0.85807978513E+02  0.16050798914E+04  0.16027845921E+04 0.  0.
        1    1    3    3  502    0  0.21681403362E+03 -0.71633660744E+03 -0.32981585335E+03  0.81787832682E+03  0.50400001928E-02 0.  1.
       -1    1    3    3    0  502 -0.21681403362E+03  0.71633660744E+03  0.24400787484E+03  0.78720156462E+03  0.50400001928E-02 0. -1.
</event>
<event>
 5   0  0.1832646E-04  0.1595878E+04  0.7818609E-02  0.8823085E-01
        2   -1    0    0  501    0  0.00000000000E+00  0.00000000000E+00  0.84889000827E+03  0.84889000827E+03  0.25500000920E-02 0. -1.
       -2   -1    0    0    0  501  0.00000000000E+00  0.00000000000E+00 -0.75004569423E+03  0.75004569423E+03  0.25500000920E-02 0.  1.
    10030    2    1    2    0    0  0.00000000000E+00  0.00000000000E+00  0.98844314038E+02  0.15989357025E+04  0.15958775587E+04 0.  0.
        2    1    3    3  502    0  0.19450238174E+03 -0.47533504945E+03  0.66127374063E+03  0.83729179250E+03  0.25500000920E-02 0. -1.
       -2    1    3    3    0  502 -0.19450238174E+03  0.47533504945E+03 -0.56242942659E+03  0.76164391000E+03  0.25500000920E-02 0.  1.
</event>
<event>
 5   0  0.9726935E-05  0.1600427E+04  0.7818609E-02  0.8820286E-01
        1   -1    0    0  501    0  0.00000000000E+00  0.00000000000E+00  0.29511756859E+03  0.29511756864E+03  0.50400001928E-02 0. -1.
       -1   -1    0    0    0  501  0.00000000000E+00  0.00000000000E+00 -0.21697853930E+04  0.21697853930E+04  0.50400001928E-02 0.  1.
    10030    2    1    2    0    0  0.00000000000E+00  0.00000000000E+00 -0.18746678244E+04  0.24649029616E+04  0.16004271800E+04 0.  0.
        2    1    3    3  502    0  0.30225073910E+03  0.68411293400E+03 -0.13756036276E+04  0.15657750017E+04  0.25500000920E-02 0.  1.
       -2    1    3    3    0  502 -0.30225073910E+03 -0.68411293400E+03 -0.49906419680E+03  0.89912795991E+03  0.25500000920E-02 0. -1.
</event>
<event>
 5   0  0.1835088E-04  0.1612674E+04  0.7818609E-02  0.8812800E-01
       -2   -1    0    0    0  501  0.00000000000E+00  0.00000000000E+00  0.41899800421E+03  0.41899800422E+03  0.25500000920E-02 0.  1.
        2   -1    0    0  501    0  0.00000000000E+00  0.00000000000E+00 -0.15517478431E+04  0.15517478431E+04  0.25500000920E-02 0. -1.
    10030    2    1    2    0    0  0.00000000000E+00  0.00000000000E+00 -0.11327498389E+04  0.19707458473E+04  0.16126738657E+04 0.  0.
        5    1    3    3  502    0  0.45524395404E+03  0.94519589012E+02  0.23866423378E+03  0.52265066429E+03  0.46999998093E+01 0.  1.
       -5    1    3    3    0  502 -0.45524395404E+03 -0.94519589012E+02 -0.13714140727E+04  0.14480951830E+04  0.46999998093E+01 0. -1.
</event>
<event>
 5   0  0.9939872E-05  0.1601439E+04  0.7818609E-02  0.8819665E-01
       -1   -1    0    0    0  501  0.00000000000E+00  0.00000000000E+00  0.33417149339E+03  0.33417149343E+03  0.50400001928E-02 0.  1.
        1   -1    0    0  501    0  0.00000000000E+00  0.00000000000E+00 -0.19186296797E+04  0.19186296797E+04  0.50400001928E-02 0. -1.
    10030    2    1    2    0    0  0.00000000000E+00  0.00000000000E+00 -0.15844581863E+04  0.22528011731E+04  0.16014385350E+04 0.  0.
        3    1    3    3  502    0 -0.48519736474E+03 -0.62288055431E+03 -0.97967193514E+03  0.12582343893E+04  0.10100000352E+00 0. -1.
       -3    1    3    3    0  502  0.48519736474E+03  0.62288055431E+03 -0.60478625115E+03  0.99456678382E+03  0.10100000352E+00 0.  1.
</event>
<event>
 5   0  0.9939872E-05  0.1605706E+04  0.7818609E-02  0.8817050E-01
       -1   -1    0    0    0  501  0.00000000000E+00  0.00000000000E+00  0.66411339667E+03  0.66411339669E+03  0.50400001928E-02 0.  1.
        1   -1    0    0  501    0  0.00000000000E+00  0.00000000000E+00 -0.97057662821E+03  0.97057662823E+03  0.50400001928E-02 0. -1.
    10030    2    1    2    0    0  0.00000000000E+00  0.00000000000E+00 -0.30646323154E+03  0.16346900249E+04  0.16057060021E+04 0.  0.
        3    1    3    3  502    0 -0.24629819779E+03 -0.51609201329E+03  0.42046423099E+03  0.70979148217E+03  0.10100000352E+00 0.  1.
       -3    1    3    3    0  502  0.24629819779E+03  0.51609201329E+03 -0.72692746253E+03  0.92489854276E+03  0.10100000352E+00 0. -1.
</event>
<event>
 5   0  0.9432152E-05  0.1589160E+04  0.7818609E-02  0.8827235E-01
       -1   -1    0    0    0  501  0.00000000000E+00  0.00000000000E+00  0.61782460137E+03  0.61782460139E+03  0.50400001928E-02 0.  1.
        1   -1    0    0  501    0  0.00000000000E+00  0.00000000000E+00 -0.10219035574E+04  0.10219035574E+04  0.50400001928E-02 0. -1.
    10030    2    1    2    0    0  0.00000000000E+00  0.00000000000E+00 -0.40407895601E+03  0.16397281588E+04  0.15891597251E+04 0.  0.
        4    1    3    3  502    0 -0.17649136818E+02  0.47157448053E+03 -0.86164791243E+03  0.98241168591E+03  0.12699999809E+01 0. -1.
       -4    1    3    3    0  502  0.17649136818E+02 -0.47157448053E+03  0.45756895642E+03  0.65731647286E+03  0.12699999809E+01 0.  1.
</event>
<event>
 5   0  0.1858913E-04  0.1600328E+04  0.7818609E-02  0.8820346E-01
       -2   -1    0    0    0  501  0.00000000000E+00  0.00000000000E+00  0.10927300471E+04  0.10927300471E+04  0.25500000920E-02 0. -1.
        2   -1    0    0  501    0  0.00000000000E+00  0.00000000000E+00 -0.58592933110E+03  0.58592933110E+03  0.25500000920E-02 0.  1.
    10030    2    1    2    0    0  0.00000000000E+00  0.00000000000E+00  0.50680071605E+03  0.16786593783E+04  0.16003281983E+04 0.  0.
        4    1    3    3  502    0 -0.62040113041E+02  0.30931216686E+02  0.10895731110E+04  0.10917769428E+04  0.12699999809E+01 0. -1.
       -4    1    3    3    0  502  0.62040113041E+02 -0.30931216686E+02 -0.58277239495E+03  0.58688243542E+03  0.12699999809E+01 0.  1.
</event>
<event>
 5   0  0.1832646E-04  0.1598548E+04  0.7818609E-02  0.8821441E-01
        2   -1    0    0  501    0  0.00000000000E+00  0.00000000000E+00  0.11909429102E+04  0.11909429102E+04  0.25500000920E-02 0. -1.
       -2   -1    0    0    0  501  0.00000000000E+00  0.00000000000E+00 -0.53641440027E+03  0.53641440027E+03  0.25500000920E-02 0.  1.
    10030    2    1    2    0    0  0.00000000000E+00  0.00000000000E+00  0.65452850997E+03  0.17273573105E+04  0.15985479999E+04 0.  0.
        2    1    3    3  502    0  0.37859958120E+02  0.73005812983E+03  0.67644457161E+03  0.99598971271E+03  0.25500000920E-02 0. -1.
       -2    1    3    3    0  502 -0.37859958120E+02 -0.73005812983E+03 -0.21916061635E+02  0.73136759781E+03  0.25500000920E-02 0.  1.
</event>
<event>
 5   0  0.1858913E-04  0.1600492E+04  0.7818609E-02  0.8820246E-01
        2   -1    0    0  501    0  0.00000000000E+00  0.00000000000E+00  0.19378948894E+04  0.19378948894E+04  0.25500000920E-02 0.  1.
       -2   -1    0    0    0  501  0.00000000000E+00  0.00000000000E+00 -0.33045847707E+03  0.33045847708E+03  0.25500000920E-02 0. -1.
    10030    2    1    2    0    0  0.00000000000E+00  0.00000000000E+00  0.16074364124E+04  0.22683533665E+04  0.16004921667E+04 0.  0.
        4    1    3    3  502    0  0.43657608915E+03  0.51047192402E+03  0.14202158159E+04  0.15710489628E+04  0.12699999809E+01 0.  1.
       -4    1    3    3    0  502 -0.43657608915E+03 -0.51047192402E+03  0.18722059647E+03  0.69730440374E+03  0.12699999809E+01 0. -1.
</event>
<event>
 5   0  0.1774934E-04  0.1642189E+04  0.7818609E-02  0.8795041E-01
        2   -1    0    0  501    0  0.00000000000E+00  0.00000000000E+00  0.76369618419E+03  0.76369618419E+03  0.25500000920E-02 0.  1.
       -2   -1    0    0    0  501  0.00000000000E+00  0.00000000000E+00 -0.88280699743E+03  0.88280699743E+03  0.25500000920E-02 0. -1.
    10030    2    1    2    0    0  0.00000000000E+00  0.00000000000E+00 -0.11911081324E+03  0.16465031816E+04  0.16421891917E+04 0.  0.
        1    1    3    3  502    0 -0.76794625159E+03 -0.28308920184E+03 -0.12541963368E+03  0.82801631993E+03  0.50400001928E-02 0.  1.
       -1    1    3    3    0  502  0.76794625159E+03  0.28308920184E+03  0.63088204451E+01  0.81848686170E+03  0.50400001928E-02 0. -1.
</event>
<event>
 5   0  0.1914170E-04  0.1600131E+04  0.7818609E-02  0.8820468E-01
        2   -1    0    0  501    0  0.00000000000E+00  0.00000000000E+00  0.21941729670E+04  0.21941729670E+04  0.25500000920E-02 0.  1.
       -2   -1    0    0    0  501  0.00000000000E+00  0.00000000000E+00 -0.29172942402E+03  0.29172942403E+03  0.25500000920E-02 0. -1.
    10030    2    1    2    0    0  0.00000000000E+00  0.00000000000E+00  0.19024435430E+04  0.24859023911E+04  0.16001310145E+04 0.  0.
        3    1    3    3  502    0 -0.52567583406E+03  0.46273110046E+03  0.35023296337E+03  0.78301870519E+03  0.10100000352E+00 0. -1.
       -3    1    3    3    0  502  0.52567583406E+03 -0.46273110046E+03  0.15522105797E+04  0.17028836859E+04  0.10100000352E+00 0.  1.
</event>
<event>
 5   0  0.9673017E-05  0.1593342E+04  0.7818609E-02  0.8824648E-01
        1   -1    0    0  501    0  0.00000000000E+00  0.00000000000E+00  0.11085789170E+04  0.11085789170E+04  0.50400001928E-02 0. -1.
       -1   -1    0    0    0  501  0.00000000000E+00  0.00000000000E+00 -0.57252128053E+03  0.57252128055E+03  0.50400001928E-02 0.  1.
    10030    2    1    2    0    0  0.00000000000E+00  0.00000000000E+00  0.53605763646E+03  0.16811001976E+04  0.15933424254E+04 0.  0.
        1    1    3    3  502    0  0.11202578738E+03 -0.20745154701E+03  0.10709278311E+04  0.10965729984E+04  0.50400001928E-02 0. -1.
       -1    1    3    3    0  502 -0.11202578738E+03  0.20745154701E+03 -0.53487019464E+03  0.58452719914E+03  0.50400001928E-02 0.  1.
</event>
<event>
 5   0  0.1832646E-04  0.1601325E+04  0.7818609E-02  0.8819734E-01
       -2   -1    0    0    0  501  0.00000000000E+00  0.00000000000E+00  0.66884627389E+03  0.66884627389E+03  0.25500000920E-02 0. -1.
        2   -1    0    0  501    0  0.00000000000E+00  0.00000000000E+00 -0.95845707238E+03  0.95845707238E+03  0.25500000920E-02 0.  1.
    10030    2    1    2    0    0  0.00000000000E+00  0.00000000000E+00 -0.28961079849E+03  0.16273033463E+04  0.16013250033E+04 0.  0.
        2    1    3    3  502    0 -0.39742068507E+03 -0.20541063002E+03 -0.81959869788E+03  0.93374447973E+03  0.25500000920E-02 0.  1.
       -2    1    3    3    0  502  0.39742068507E+03  0.20541063002E+03  0.52998789940E+03  0.69355886654E+03  0.25500000920E-02 0. -1.
</event>
<event>
 5   0  0.9726935E-05  0.1600533E+04  0.7818609E-02  0.8820220E-01
        1   -1    0    0  501    0  0.00000000000E+00  0.00000000000E+00  0.73271743229E+03  0.73271743231E+03  0.50400001928E-02 0. -1.
       -1   -1    0    0    0  501  0.00000000000E+00  0.00000000000E+00 -0.87404321999E+03  0.87404322001E+03  0.50400001928E-02 0.  1.
    10030    2    1    2    0    0  0.00000000000E+00  0.00000000000E+00 -0.14132578770E+03  0.16067606523E+04  0.16005332910E+04 0.  0.
        2    1    3    3  502    0 -0.29534350078E+03 -0.61456456283E+03 -0.49123122384E+03  0.84037223932E+03  0.25500000920E-02 0.  1.
       -2    1    3    3    0  502  0.29534350078E+03  0.61456456283E+03  0.34990543614E+03  0.76638841300E+03  0.25500000920E-02 0. -1.
</event>
<event>
 5   0  0.1832646E-04  0.1597689E+04  0.7818609E-02  0.8821969E-01
       -2   -1    0    0    0  501  0.00000000000E+00  0.00000000000E+00  0.53322286756E+03  0.53322286756E+03  0.25500000920E-02 0.  1.
        2   -1    0    0  501    0  0.00000000000E+00  0.00000000000E+00 -0.11967846193E+04  0.11967846193E+04  0.25500000920E-02 0. -1.
    10030    2    1    2    0    0  0.00000000000E+00  0.00000000000E+00 -0.66356175173E+03  0.17300074869E+04  0.15976894899E+04 0.  0.
        2    1    3    3  502    0 -0.64332366686E+03 -0.66328005717E+02 -0.83953861141E+03  0.10597593240E+04  0.25500000920E-02 0. -1.
       -2    1    3    3    0  502  0.64332366686E+03  0.66328005717E+02  0.17597685968E+03  0.67024816288E+03  0.25500000920E-02 0.  1.
</event>
<event>
 5   0  0.1858913E-04  0.1594386E+04  0.7818609E-02  0.8824004E-01
        2   -1    0    0  501    0  0.00000000000E+00  0.00000000000E+00  0.24175436487E+04  0.24175436488E+04  0.25500000920E-02 0. -1.
       -2   -1    0    0    0  501  0.00000000000E+00  0.00000000000E+00 -0.26287703983E+03  0.26287703985E+03  0.25500000920E-02 0.  1.
    10030    2    1    2    0    0  0.00000000000E+00  0.00000000000E+00  0.21546666089E+04  0.26804206886E+04  0.15943860487E+04 0.  0.
        4    1    3    3  502    0 -0.23811242221E+03  0.71553196946E+03  0.15119439310E+04  0.16895737889E+04  0.12699999809E+01 0.  1.
       -4    1    3    3    0  502  0.23811242221E+03 -0.71553196946E+03  0.64272267793E+03  0.99084689966E+03  0.12699999809E+01 0. -1.
</event>
<event>
 5   0  0.9673017E-05  0.1603712E+04  0.7818609E-02  0.8818271E-01
       -1   -1    0    0    0  501  0.00000000000E+00  0.00000000000E+00  0.12007817109E+04  0.12007817109E+04  0.50400001928E-02 0. -1.
        1   -1    0    0  501    0  0.00000000000E+00  0.00000000000E+00 -0.53546223085E+03  0.53546223087E+03  0.50400001928E-02 0.  1.
    10030    2    1    2    0    0  0.00000000000E+00  0.00000000000E+00  0.66531948009E+03  0.17362439418E+04  0.16037122606E+04 0.  0.
        1    1    3    3  502    0  0.50479638910E+02 -0.54088795045E+02  0.11970785432E+04  0.11993626767E+04  0.50400001928E-02 0. -1.
       -1    1    3    3    0  502 -0.50479638910E+02  0.54088795045E+02 -0.53175906306E+03  0.53688126515E+03  0.50400001928E-02 0.  1.
</event>
<event>
 5   0  0.9939872E-05  0.1591022E+04  0.7818609E-02  0.8826083E-01
       -1   -1    0    0    0  501  0.00000000000E+00  0.00000000000E+00  0.80174961654E+03  0.80174961656E+03  0.50400001928E-02 0. -1.
        1   -1    0    0  501    0  0.00000000000E+00  0.00000000000E+00 -0.78932082133E+03  0.78932082135E+03  0.50400001928E-02 0.  1.
    10030    2    1    2    0    0  0.00000000000E+00  0.00000000000E+00  0.12428795208E+02  0.15910704379E+04  0.15910218928E+04 0.  0.
        3    1    3    3  502    0  0.45851788653E+03 -0.16499786643E+03  0.63502186821E+03  0.80044720719E+03  0.10100000352E+00 0. -1.
       -3    1    3    3    0  502 -0.45851788653E+03  0.16499786643E+03 -0.62259307300E+03  0.79062323072E+03  0.10100000352E+00 0.  1.
</event>
<event>
 5   0  0.1914170E-04  0.1600896E+04  0.7818609E-02  0.8819998E-01
        2   -1    0    0  501    0  0.00000000000E+00  0.00000000000E+00  0.34724744889E+03  0.34724744889E+03  0.25500000920E-02 0.  1.
       -2   -1    0    0    0  501  0.00000000000E+00  0.00000000000E+00 -0.18451299372E+04  0.18451299372E+04  0.25500000920E-02 0. -1.
    10030    2    1    2    0    0  0.00000000000E+00  0.00000000000E+00 -0.14978824883E+04  0.21923773861E+04  0.16008955788E+04 0.  0.
        3    1    3    3  502    0 -0.65393507627E+03  0.42945970663E+03 -0.98074159518E+03  0.12545600067E+04  0.10100000352E+00 0.  1.
       -3    1    3    3    0  502  0.65393507627E+03 -0.42945970663E+03 -0.51714089311E+03  0.93781737941E+03  0.10100000352E+00 0. -1.
</event>
<event>
 5   0  0.9616567E-05  0.1601578E+04  0.7818609E-02  0.8819579E-01
       -1   -1    0    0    0  501  0.00000000000E+00  0.00000000000E+00  0.62509149620E+03  0.62509149622E+03  0.50400001928E-02 0.  1.
        1   -1    0    0  501    0  0.00000000000E+00  0.00000000000E+00 -0.10258712769E+04  0.10258712769E+04  0.50400001928E-02 0. -1.
    10030    2    1    2    0    0  0.00000000000E+00  0.00000000000E+00 -0.40077978072E+03  0.16509627731E+04  0.16015784856E+04 0.  0.
        5    1    3    3  502    0 -0.29856895207E+03 -0.73067861146E+03 -0.61297201347E+02  0.79171591450E+03  0.46999998093E+01 0.  1.
       -5    1    3    3    0  502  0.29856895207E+03  0.73067861146E+03 -0.33948257937E+03  0.85924685864E+03  0.46999998093E+01 0. -1.
</event>
<event>
 5   0  0.9432152E-05  0.1601569E+04  0.7818609E-02  0.8819585E-01
        1   -1    0    0  501    0  0.00000000000E+00  0.00000000000E+00  0.69121023554E+03  0.69121023556E+03  0.50400001928E-02 0.  1.
       -1   -1    0    0    0  501  0.00000000000E+00  0.00000000000E+00 -0.92772877418E+03  0.92772877419E+03  0.50400001928E-02 0. -1.
    10030    2    1    2    0    0  0.00000000000E+00  0.00000000000E+00 -0.23651853864E+03  0.16189390097E+04  0.16015687616E+04 0.  0.
        4    1    3    3  502    0 -0.47814897449E+03  0.24518869384E+03 -0.71842426947E+03  0.89715047860E+03  0.12699999809E+01 0. -1.
       -4    1    3    3    0  502  0.47814897449E+03 -0.24518869384E+03  0.48190573083E+03  0.72178853115E+03  0.12699999809E+01 0.  1.
</event>
<event>
 5   0  0.1858913E-04  0.1604160E+04  0.7818609E-02  0.8817996E-01
       -2   -1    0    0    0  501  0.00000000000E+00  0.00000000000E+00  0.13440463714E+04  0.13440463714E+04  0.25500000920E-02 0.  1.
        2   -1    0    0  501    0  0.00000000000E+00  0.00000000000E+00 -0.47865362838E+03  0.47865362838E+03  0.25500000920E-02 0. -1.
    10030    2    1    2    0    0  0.00000000000E+00  0.00000000000E+00  0.86539274301E+03  0.18226999998E+04  0.16041604314E+04 0.  0.
        4    1    3    3  502    0  0.32220999628E+03  0.33771611039E+02 -0.40100079627E+03  0.51552211875E+03  0.12699999809E+01 0. -1.
       -4    1    3    3    0  502 -0.32220999628E+03 -0.33771611039E+02  0.12663935393E+04  0.13071778810E+04  0.12699999809E+01 0.  1.
</event>
<event>
 5   0  0.1774934E-04  0.1595695E+04  0.7818609E-02  0.8823197E-01
       -2   -1    0    0    0  501  0.00000000000E+00  0.00000000000E+00  0.59504333331E+03  0.59504333331E+03  0.25500000920E-02 0.  1.
        2   -1    0    0  501    0  0.00000000000E+00  0.00000000000E+00 -0.10697718634E+04  0.10697718634E+04  0.25500000920E-02 0. -1.
    10030    2    1    2    0    0  0.00000000000E+00  0.00000000000E+00 -0.47472853009E+03  0.16648151967E+04  0.15956949777E+04 0.  0.
        1    1    3    3  502    0  0.38755321794E+03 -0.51912194923E+03  0.24850722988E+03  0.69385945136E+03  0.50400001928E-02 0.  1.
       -1    1    3    3    0  502 -0.38755321794E+03  0.51912194923E+03 -0.72323575997E+03  0.97095574535E+03  0.50400001928E-02 0. -1.
</event>
<event>
 5   0  0.9726935E-05  0.1595662E+04  0.7818609E-02  0.8823217E-01
        1   -1    0    0  501    0  0.00000000000E+00  0.00000000000E+00  0.10340109192E+04  0.10340109192E+04  0.50400001928E-02 0. -1.
       -1   -1    0    0    0  501  0.00000000000E+00  0.00000000000E+00 -0.61559727871E+03  0.61559727873E+03  0.50400001928E-02 0.  1.
    10030    2    1    2    0    0  0.00000000000E+00  0.00000000000E+00  0.41841364045E+03  0.16496081979E+04  0.15956620043E+04 0.  0.
        2    1    3    3  502    0 -0.25367431137E+03  0.71595863566E+03 -0.43150112017E+02  0.76079521318E+03  0.25500000920E-02 0.  1.
       -2    1    3    3    0  502  0.25367431137E+03 -0.71595863566E+03  0.46156375247E+03  0.88881298473E+03  0.25500000920E-02 0. -1.
</event>
<event>
 5   0  0.1832646E-04  0.1604537E+04  0.7818609E-02  0.8817765E-01
       -2   -1    0    0    0  501  0.00000000000E+00  0.00000000000E+00  0.81656998473E+03  0.81656998474E+03  0.25500000920E-02 0.  1.
        2   -1    0    0  501    0  0.00000000000E+00  0.00000000000E+00 -0.78821792525E+03  0.78821792525E+03  0.25500000920E-02 0. -1.
    10030    2    1    2    0    0  0.00000000000E+00  0.00000000000E+00  0.28352059481E+02  0.16047879100E+04  0.16045374401E+04 0.  0.
        2    1    3    3  502    0 -0.41114622760E+03 -0.23969510574E+03 -0.63178865748E+03  0.79098158759E+03  0.25500000920E-02 0. -1.
       -2    1    3    3    0  502  0.41114622760E+03  0.23969510574E+03  0.66014071696E+03  0.81380632240E+03  0.25500000920E-02 0.  1.
</event>
<event>
 5   0  0.1774934E-04  0.1607260E+04  0.7818609E-02  0.8816100E-01
        2   -1    0    0  501    0  0.00000000000E+00  0.00000000000E+00  0.20586929362E+04  0.20586929362E+04  0.25500000920E-02 0. -1.
       -2   -1    0    0    0  501  0.00000000000E+00  0.00000000000E+00 -0.31370439280E+03  0.31370439281E+03  0.25500000920E-02 0.  1.
    10030    2    1    2    0    0  0.00000000000E+00  0.00000000000E+00  0.17449885433E+04  0.23723973290E+04  0.16072598017E+04 0.  0.
        1    1    3    3  502    0  0.54751392487E+03 -0.58785634356E+03  0.90464504985E+03  0.12098467857E+04  0.50400001928E-02 0.  1.
       -1    1    3    3    0  502 -0.54751392487E+03  0.58785634356E+03  0.84034349350E+03  0.11625505433E+04  0.50400001928E-02 0. -1.
</event>
<event>
 5   0  0.1914170E-04  0.1602351E+04  0.7818609E-02  0.8819105E-01
        2   -1    0    0  501    0  0.00000000000E+00  0.00000000000E+00  0.21670158830E+04  0.21670158830E+04  0.25500000920E-02 0. -1.
       -2   -1    0    0    0  501  0.00000000000E+00  0.00000000000E+00 -0.29620572423E+03  0.29620572425E+03  0.25500000920E-02 0.  1.
    10030    2    1    2    0    0  0.00000000000E+00  0.00000000000E+00  0.18708101588E+04  0.24632216073E+04  0.16023514085E+04 0.  0.
        3    1    3    3  502    0  0.14224926304E+03  0.70269969229E+02  0.21426242851E+04  0.21484905303E+04  0.10100000352E+00 0. -1.
       -3    1    3    3    0  502 -0.14224926304E+03 -0.70269969229E+02 -0.27181412627E+03  0.31473107703E+03  0.10100000352E+00 0.  1.
</event>
<event>
 5   0  0.1832646E-04  0.1599138E+04  0.7818609E-02  0.8821078E-01
        2   -1    0    0  501    0  0.00000000000E+00  0.00000000000E+00  0.94137313010E+03  0.94137313010E+03  0.25500000920E-02 0. -1.
       -2   -1    0    0    0  501  0.00000000000E+00  0.00000000000E+00 -0.67912539747E+03  0.67912539747E+03  0.25500000920E-02 0.  1.
    10030    2    1    2    0    0  0.00000000000E+00  0.00000000000E+00  0.26224773263E+03  0.16204985276E+04  0.15991377691E+04 0.  0.
        2    1    3    3  502    0 -0.38750170035E+03 -0.69077509999E+03  0.24205110273E+03  0.82820078657E+03  0.25500000920E-02 0. -1.
       -2    1    3    3    0  502  0.38750170035E+03  0.69077509999E+03  0.20196629908E+02  0.79229774101E+03  0.25500000920E-02 0.  1.
</event>
<event>
 5   0  0.9616567E-05  0.1601832E+04  0.7818609E-02  0.8819423E-01
        1   -1    0    0  501    0  0.00000000000E+00  0.00000000000E+00  0.10380239269E+04  0.10380239269E+04  0.50400001928E-02 0. -1.
       -1   -1    0    0    0  501  0.00000000000E+00  0.00000000000E+00 -0.61796904937E+03  0.61796904939E+03  0.50400001928E-02 0.  1.
    10030    2    1    2    0    0  0.00000000000E+00  0.00000000000E+00  0.42005487752E+03  0.16559929763E+04  0.16018322750E+04 0.  0.
        5    1    3    3  502    0  0.77758047464E+03  0.19175200472E+03  0.21691168435E+03  0.82974272800E+03  0.46999998093E+01 0.  1.
       -5    1    3    3    0  502 -0.77758047464E+03 -0.19175200472E+03  0.20314319316E+03  0.82625024828E+03  0.46999998093E+01 0. -1.
</event>
<event>
 5   0  0.1858913E-04  0.1618075E+04  0.7818609E-02  0.8809520E-01
       -2   -1    0    0    0  501  0.00000000000E+00  0.00000000000E+00  0.39346599722E+03  0.39346599723E+03  0.25500000920E-02 0. -1.
        2   -1    0    0  501    0  0.00000000000E+00  0.00000000000E+00 -0.16635282407E+04  0.16635282407E+04  0.25500000920E-02 0.  1.
    10030    2    1    2    0    0  0.00000000000E+00  0.00000000000E+00 -0.12700622435E+04  0.20569942380E+04  0.16180751505E+04 0.  0.
        4    1    3    3  502    0 -0.58157341528E+03  0.43801392149E+02  0.77775132797E+02  0.58838489400E+03  0.12699999809E+01 0. -1.
       -4    1    3    3    0  502  0.58157341528E+03 -0.43801392149E+02 -0.13478373763E+04  0.14686093440E+04  0.12699999809E+01 0.  1.
</event>
<event>
 5   0  0.9939872E-05  0.1601504E+04  0.7818609E-02  0.8819625E-01
        1   -1    0    0  501    0  0.00000000000E+00  0.00000000000E+00  0.11331404891E+04  0.11331404891E+04  0.50400001928E-02 0.  1.
       -1   -1    0    0    0  501  0.00000000000E+00  0.00000000000E+00 -0.56586408341E+03  0.56586408343E+03  0.50400001928E-02 0. -1.
    10030    2    1    2    0    0  0.00000000000E+00  0.00000000000E+00  0.56727640570E+03  0.16990045725E+04  0.16015036738E+04 0.  0.
        3    1    3    3  502    0  0.22654451011E+02 -0.50759934204E+03 -0.37293749702E+03  0.63027986092E+03  0.10100000352E+00 0. -1.
       -3    1    3    3    0  502 -0.22654451011E+02  0.50759934204E+03  0.94021390272E+03  0.10687247116E+04  0.10100000352E+00 0.  1.
</event>
<event>
 5   0  0.9673017E-05  0.1603739E+04  0.7818609E-02  0.8818254E-01
        1   -1    0    0  501    0  0.00000000000E+00  0.00000000000E+00  0.93722823053E+03  0.93722823055E+03  0.50400001928E-02 0. -1.
       -1   -1    0    0    0  501  0.00000000000E+00  0.00000000000E+00 -0.68606028348E+03  0.68606028350E+03  0.50400001928E-02 0.  1.
    10030    2    1    2    0    0  0.00000000000E+00  0.00000000000E+00  0.25116794705E+03  0.16232885140E+04  0.16037394621E+04 0.  0.
        1    1    3    3  502    0  0.33317725673E+03  0.64932372942E+03  0.46184836506E+03  0.86367372446E+03  0.50400001928E-02 0. -1.
       -1    1    3    3    0  502 -0.33317725673E+03 -0.64932372942E+03 -0.21068041801E+03  0.75961478958E+03  0.50400001928E-02 0.  1.
</event>
<event>
 5   0  0.1914170E-04  0.1589182E+04  0.7818609E-02  0.8827221E-01
       -2   -1    0    0    0  501  0.00000000000E+00  0.00000000000E+00  0.19963966795E+04  0.19963966795E+04  0.25500000920E-02 0. -1.
        2   -1    0    0  501    0  0.00000000000E+00  0.00000000000E+00 -0.31625731544E+03  0.31625731545E+03  0.25500000920E-02 0.  1.
    10030    2    1    2    0    0  0.00000000000E+00  0.00000000000E+00  0.16801393640E+04  0.23126539949E+04  0.15891822481E+04 0.  0.
        3    1    3    3  502    0 -0.15265760781E+03  0.14815478312E+03  0.19541860247E+04  0.19657307075E+04  0.10100000352E+00 0. -1.
       -3    1    3    3    0  502  0.15265760781E+03 -0.14815478312E+03 -0.27404666064E+03  0.34692328747E+03  0.10100000352E+00 0.  1.
</event>
<event>
 5   0  0.6838750E-05  0.1587428E+04  0.7818609E-02  0.8828309E-01
        3   -1    0    0  501    0  0.00000000000E+00  0.00000000000E+00  0.10323998361E+04  0.10323998410E+04  0.10100000352E+00 0.  1.
       -3   -1    0    0    0  501  0.00000000000E+00  0.00000000000E+00 -0.61021118093E+03  0.61021118929E+03  0.10100000352E+00 0. -1.
    10030    2    1    2    0    0  0.00000000000E+00  0.00000000000E+00  0.42218865515E+03  0.16426110303E+04  0.15874280256E+04 0.  0.
        2    1    3    3  502    0  0.23146480016E+03  0.42450853155E+03  0.86241835228E+03  0.98871070664E+03  0.25500000920E-02 0.  1.
       -2    1    3    3    0  502 -0.23146480016E+03 -0.42450853155E+03 -0.44022969712E+03  0.65390032368E+03  0.25500000920E-02 0. -1.
</event>
<event>
 5   0  0.9939872E-05  0.1598313E+04  0.7818609E-02  0.8821585E-01
        1   -1    0    0  501    0  0.00000000000E+00  0.00000000000E+00  0.89586509133E+03  0.89586509135E+03  0.50400001928E-02 0. -1.
       -1   -1    0    0    0  501  0.00000000000E+00  0.00000000000E+00 -0.71288749760E+03  0.71288749762E+03  0.50400001928E-02 0.  1.
    10030    2    1    2    0    0  0.00000000000E+00  0.00000000000E+00  0.18297759373E+03  0.16087525890E+04  0.15983128895E+04 0.  0.
        3    1    3    3  502    0  0.40817716928E+03  0.20635079610E+03  0.75110255725E+03  0.87939997401E+03  0.10100000352E+00 0. -1.
       -3    1    3    3    0  502 -0.40817716928E+03 -0.20635079610E+03 -0.56812496352E+03  0.72935261496E+03  0.10100000352E+00 0.  1.
</event>
<event>
 5   0  0.9432152E-05  0.1594548E+04  0.7818609E-02  0.8823904E-01
        1   -1    0    0  501    0  0.00000000000E+00  0.00000000000E+00  0.93269702654E+03  0.93269702656E+03  0.50400001928E-02 0. -1.
       -1   -1    0    0    0  501  0.00000000000E+00  0.00000000000E+00 -0.68151409359E+03  0.68151409361E+03  0.50400001928E-02 0.  1.
    10030    2    1    2    0    0  0.00000000000E+00  0.00000000000E+00  0.25118293295E+03  0.16142111202E+04  0.15945484234E+04 0.  0.
        4    1    3    3  502    0  0.40427019548E+03 -0.22225676070E+03  0.78384973723E+03  0.90953531108E+03  0.12699999809E+01 0. -1.
       -4    1    3    3    0  502 -0.40427019548E+03  0.22225676070E+03 -0.53266680428E+03  0.70467580909E+03  0.12699999809E+01 0.  1.
</event>
<event>
 5   0  0.9616567E-05  0.1599732E+04  0.7818609E-02  0.8820712E-01
        1   -1    0    0  501    0  0.00000000000E+00  0.00000000000E+00  0.11049114575E+04  0.11049114576E+04  0.50400001928E-02 0. -1.
       -1   -1    0    0    0  501  0.00000000000E+00  0.00000000000E+00 -0.57903824257E+03  0.57903824259E+03  0.50400001928E-02 0.  1.
    10030    2    1    2    0    0  0.00000000000E+00  0.00000000000E+00  0.52587321498E+03  0.16839497001E+04  0.15997324634E+04 0.  0.
        5    1    3    3  502    0  0.42743888739E+02  0.23698445959E+03  0.10658327439E+04  0.10927077387E+04  0.46999998093E+01 0. -1.
       -5    1    3    3    0  502 -0.42743888739E+02 -0.23698445959E+03 -0.53995952895E+03  0.59124196148E+03  0.46999998093E+01 0.  1.
</event>
<event>
 5   0  0.9432152E-05  0.1598843E+04  0.7818609E-02  0.8821259E-01
        1   -1    0    0  501    0  0.00000000000E+00  0.00000000000E+00  0.96331103344E+03  0.96331103345E+03  0.50400001928E-02 0.  1.
       -1   -1    0    0    0  501  0.00000000000E+00  0.00000000000E+00 -0.66341506935E+03  0.66341506937E+03  0.50400001928E-02 0. -1.
    10030    2    1    2    0    0  0.00000000000E+00  0.00000000000E+00  0.29989596409E+03  0.16267261028E+04  0.15988434021E+04 0.  0.
        4    1    3    3  502    0  0.48618672018E+02  0.34986144706E+03  0.87960635483E+03  0.94787961249E+03  0.12699999809E+01 0.  1.
       -4    1    3    3    0  502 -0.48618672018E+02 -0.34986144706E+03 -0.57971039074E+03  0.67884649033E+03  0.12699999809E+01 0. -1.
</event>
<event>
 5   0  0.1774934E-04  0.1606956E+04  0.7818609E-02  0.8816286E-01
        2   -1    0    0  501    0  0.00000000000E+00  0.00000000000E+00  0.22637610706E+04  0.22637610706E+04  0.25500000920E-02 0. -1.
       -2   -1    0    0    0  501  0.00000000000E+00  0.00000000000E+00 -0.28517906648E+03  0.28517906649E+03  0.25500000920E-02 0.  1.
    10030    2    1    2    0    0  0.00000000000E+00  0.00000000000E+00  0.19785820041E+04  0.25489401371E+04  0.16069564635E+04 0.  0.
        1    1    3    3  502    0  0.41803829228E+02  0.45046492981E+03 -0.63957910979E+02  0.45689914372E+03  0.50400001928E-02 0.  1.
       -1    1    3    3    0  502 -0.41803829228E+02 -0.45046492981E+03  0.20425399151E+04  0.20920409934E+04  0.50400001928E-02 0. -1.
</event>
<event>
 5   0  0.9432152E-05  0.1606164E+04  0.7818609E-02  0.8816770E-01
       -1   -1    0    0    0  501  0.00000000000E+00  0.00000000000E+00  0.57024009053E+03  0.57024009056E+03  0.50400001928E-02 0. -1.
        1   -1    0    0  501    0  0.00000000000E+00  0.00000000000E+00 -0.11309980771E+04  0.11309980771E+04  0.50400001928E-02 0.  1.
    10030    2    1    2    0    0  0.00000000000E+00  0.00000000000E+00 -0.56075798659E+03  0.17012381677E+04  0.16061636852E+04 0.  0.
        4    1    3    3  502    0 -0.29875885378E+03  0.46550172461E+03 -0.89707173733E+03  0.10538918460E+04  0.12699999809E+01 0.  1.
       -4    1    3    3    0  502  0.29875885378E+03 -0.46550172461E+03  0.33631375073E+03  0.64734632166E+03  0.12699999809E+01 0. -1.
</event>
<event>
 5   0  0.1914170E-04  0.1609462E+04  0.7818609E-02  0.8814756E-01
        2   -1    0    0  501    0  0.00000000000E+00  0.00000000000E+00  0.80813805555E+03  0.80813805555E+03  0.25500000920E-02 0.  1.
       -2   -1    0    0    0  501  0.00000000000E+00  0.00000000000E+00 -0.80133844281E+03  0.80133844282E+03  0.25500000920E-02 0. -1.
    10030    2    1    2    0    0  0.00000000000E+00  0.00000000000E+00  0.67996127355E+01  0.16094764984E+04  0.16094621350E+04 0.  0.
        3    1    3    3  502    0 -0.88900741578E+02  0.78168418416E+03 -0.16589014229E+03  0.80402304390E+03  0.10100000352E+00 0. -1.
       -3    1    3    3    0  502  0.88900741578E+02 -0.78168418416E+03  0.17268975502E+03  0.80545345446E+03  0.10100000352E+00 0.  1.
</event>
<event>
 5   0  0.1858913E-04  0.1598539E+04  0.7818609E-02  0.8821446E-01
       -2   -1    0    0    0  501  0.00000000000E+00  0.00000000000E+00  0.63797929555E+03  0.63797929555E+03  0.25500000920E-02 0. -1.
        2   -1    0    0  501    0  0.00000000000E+00  0.00000000000E+00 -0.10013367416E+04  0.10013367416E+04  0.25500000920E-02 0.  1.
    10030    2    1    2    0    0  0.00000000000E+00  0.00000000000E+00 -0.36335744610E+03  0.16393160372E+04  0.15985394697E+04 0.  0.
        4    1    3    3  502    0  0.10082963196E+03 -0.77016033573E+03  0.11588001638E+02  0.77682008991E+03  0.12699999809E+01 0.  1.
       -4    1    3    3    0  502 -0.10082963196E+03  0.77016033573E+03 -0.37494544774E+03  0.86249594729E+03  0.12699999809E+01 0. -1.
</event>
<event>
 5   0  0.9432152E-05  0.1597801E+04  0.7818609E-02  0.8821900E-01
        1   -1    0    0  501    0  0.00000000000E+00  0.00000000000E+00  0.20350651347E+04  0.20350651347E+04  0.50400001928E-02 0.  1.
       -1   -1    0    0    0  501  0.00000000000E+00  0.00000000000E+00 -0.31362237387E+03  0.31362237391E+03  0.50400001928E-02 0. -1.
    10030    2    1    2    0    0  0.00000000000E+00  0.00000000000E+00  0.17214427608E+04  0.23486875086E+04  0.15978009370E+04 0.  0.
        4    1    3    3  502    0  0.66950555994E+03  0.25202903756E+03  0.13835030943E+04  0.15575104351E+04  0.12699999809E+01 0. -1.
       -4    1    3    3    0  502 -0.66950555994E+03 -0.25202903756E+03  0.33793966652E+03  0.79117707352E+03  0.12699999809E+01 0.  1.
</event>
<event>
 5   0  0.9673017E-05  0.1602092E+04  0.7818609E-02  0.8819264E-01
       -1   -1    0    0    0  501  0.00000000000E+00  0.00000000000E+00  0.31820705781E+03  0.31820705785E+03  0.50400001928E-02 0. -1.
        1   -1    0    0  501    0  0.00000000000E+00  0.00000000000E+00 -0.20165307060E+04  0.20165307060E+04  0.50400001928E-02 0.  1.
    10030    2    1    2    0    0  0.00000000000E+00  0.00000000000E+00 -0.16983236482E+04  0.23347377639E+04  0.16020915117E+04 0.  0.
        1    1    3    3  502    0 -0.52373358127E+03 -0.53815225279E+03 -0.12555636943E+04  0.14629917641E+04  0.50400001928E-02 0.  1.
       -1    1    3    3    0  502  0.52373358127E+03  0.53815225279E+03 -0.44275995395E+03  0.87174599981E+03  0.50400001928E-02 0. -1.
</event>
<event>
 5   0  0.1832646E-04  0.1600101E+04  0.7818609E-02  0.8820486E-01
       -2   -1    0    0    0  501  0.00000000000E+00  0.00000000000E+00  0.67462916213E+03  0.67462916214E+03  0.25500000920E-02 0.  1.
        2   -1    0    0  501    0  0.00000000000E+00  0.00000000000E+00 -0.94878864197E+03  0.94878864197E+03  0.25500000920E-02 0. -1.
    10030    2    1    2    0    0  0.00000000000E+00  0.00000000000E+00 -0.27415947984E+03  0.16234178041E+04  0.16001006051E+04 0.  0.
        2    1    3    3  502    0 -0.65472237944E+02  0.79336648679E+03 -0.56145795372E+02  0.79804094296E+03  0.25500000920E-02 0.  1.
       -2    1    3    3    0  502  0.65472237944E+02 -0.79336648679E+03 -0.21801368447E+03  0.82537686115E+03  0.25500000920E-02 0. -1.
</event>
<event>
 5   0  0.1914170E-04  0.1596114E+04  0.7818609E-02  0.8822939E-01
       -2   -1    0    0    0  501  0.00000000000E+00  0.00000000000E+00  0.52436600421E+03  0.52436600422E+03  0.25500000920E-02 0. -1.
        2   -1    0    0  501    0  0.00000000000E+00  0.00000000000E+00 -0.12146007880E+04  0.12146007880E+04  0.25500000920E-02 0.  1.
    10030    2    1    2    0    0  0.00000000000E+00  0.00000000000E+00 -0.69023478379E+03  0.17389667922E+04  0.15961144845E+04 0.  0.
        3    1    3    3  502    0 -0.65994587518E+02  0.27588279848E+03 -0.11578207040E+04  0.11920635037E+04  0.10100000352E+00 0.  1.
       -3    1    3    3    0  502  0.65994587518E+02 -0.27588279848E+03  0.46758592017E+03  0.54690328855E+03  0.10100000352E+00 0. -1.
</event>
<event>
 5   0  0.9432152E-05  0.1612151E+04  0.7818609E-02  0.8813118E-01
       -1   -1    0    0    0  501  0.00000000000E+00  0.00000000000E+00  0.50650893255E+03  0.50650893258E+03  0.50400001928E-02 0. -1.
        1   -1    0    0  501    0  0.00000000000E+00  0.00000000000E+00 -0.12828162041E+04  0.12828162041E+04  0.50400001928E-02 0.  1.
    10030    2    1    2    0    0  0.00000000000E+00  0.00000000000E+00 -0.77630727157E+03  0.17893251367E+04  0.16121511917E+04 0.  0.
        4    1    3    3  502    0 -0.77273501908E+03  0.18522714713E+03 -0.53841178739E+03  0.95985278634E+03  0.12699999809E+01 0.  1.
       -4    1    3    3    0  502  0.77273501908E+03 -0.18522714713E+03 -0.23789548418E+03  0.82947235037E+03  0.12699999809E+01 0. -1.
</event>
<event>
 5   0  0.9726935E-05  0.1597868E+04  0.7818609E-02  0.8821859E-01
       -1   -1    0    0    0  501  0.00000000000E+00  0.00000000000E+00  0.68185606072E+03  0.68185606074E+03  0.50400001928E-02 0.  1.
        1   -1    0    0  501    0  0.00000000000E+00  0.00000000000E+00 -0.93611493305E+03  0.93611493306E+03  0.50400001928E-02 0. -1.
    10030    2    1    2    0    0  0.00000000000E+00  0.00000000000E+00 -0.25425887233E+03  0.16179709938E+04  0.15978681305E+04 0.  0.
        2    1    3    3  502    0  0.40082956022E+03 -0.46808546980E+03 -0.64198214213E+03  0.88989292289E+03  0.25500000920E-02 0. -1.
       -2    1    3    3    0  502 -0.40082956022E+03  0.46808546980E+03  0.38772326980E+03  0.72807807091E+03  0.25500000920E-02 0.  1.
</event>
<event>
 5   0  0.9673017E-05  0.1605061E+04  0.7818609E-02  0.8817445E-01
        1   -1    0    0  501    0  0.00000000000E+00  0.00000000000E+00  0.61053632891E+03  0.61053632893E+03  0.50400001928E-02 0.  1.
       -1   -1    0    0    0  501  0.00000000000E+00  0.00000000000E+00 -0.10549004552E+04  0.10549004552E+04  0.50400001928E-02 0. -1.
    10030    2    1    2    0    0  0.00000000000E+00  0.00000000000E+00 -0.44436412631E+03  0.16654367842E+04  0.16050608105E+04 0.  0.
        1    1    3    3  502    0 -0.30916974455E+03 -0.56767351885E+03  0.27133050985E+03  0.70104165393E+03  0.50400001928E-02 0.  1.
       -1    1    3    3    0  502  0.30916974455E+03  0.56767351885E+03 -0.71569463616E+03  0.96439513022E+03  0.50400001928E-02 0. -1.
</event>
<event>
 5   0  0.1832646E-04  0.1599019E+04  0.7818609E-02  0.8821151E-01
       -2   -1    0    0    0  501  0.00000000000E+00  0.00000000000E+00  0.13988939132E+04  0.13988939132E+04  0.25500000920E-02 0.  1.
        2   -1    0    0  501    0  0.00000000000E+00  0.00000000000E+00 -0.45694350137E+03  0.45694350138E+03  0.25500000920E-02 0. -1.
    10030    2    1    2    0    0  0.00000000000E+00  0.00000000000E+00  0.94195041182E+03  0.18558374146E+04  0.15990190527E+04 0.  0.
        2    1    3    3  502    0 -0.58466112370E+03  0.16297695357E+03  0.10749668866E+04  0.12344812369E+04  0.25500000920E-02 0.  1.
       -2    1    3    3    0  502  0.58466112370E+03 -0.16297695357E+03 -0.13301647478E+03  0.62135617767E+03  0.25500000920E-02 0. -1.
</event>
<event>
 5   0  0.9616567E-05  0.1606496E+04  0.7818609E-02  0.8816567E-01
       -1   -1    0    0    0  501  0.00000000000E+00  0.00000000000E+00  0.16167752674E+04  0.16167752674E+04  0.50400001928E-02 0.  1.
        1   -1    0    0  501    0  0.00000000000E+00  0.00000000000E+00 -0.39907045009E+03  0.39907045013E+03  0.50400001928E-02 0. -1.
    10030    2    1    2    0    0  0.00000000000E+00  0.00000000000E+00  0.12177048173E+04  0.20158457175E+04  0.16064958558E+04 0.  0.
        5    1    3    3  502    0  0.20028309491E+03  0.76995761995E+03  0.47004369130E+03  0.92407316613E+03  0.46999998093E+01 0. -1.
       -5    1    3    3    0  502 -0.20028309491E+03 -0.76995761995E+03  0.74766112597E+03  0.10917725514E+04  0.46999998093E+01 0.  1.
</event>
<event>
 5   0  0.9939872E-05  0.1627421E+04  0.7818609E-02  0.8803877E-01
        1   -1    0    0  501    0  0.00000000000E+00  0.00000000000E+00  0.13726803245E+04  0.13726803245E+04  0.50400001928E-02 0.  1.
       -1   -1    0    0    0  501  0.00000000000E+00  0.00000000000E+00 -0.48235887702E+03  0.48235887704E+03  0.50400001928E-02 0. -1.
    10030    2    1    2    0    0  0.00000000000E+00  0.00000000000E+00  0.89032144746E+03  0.18550392015E+04  0.16274207076E+04 0.  0.
        3    1    3    3  502    0  0.31604557601E+03 -0.73680761753E+03  0.60373820673E+03  0.10036284690E+04  0.10100000352E+00 0.  1.
       -3    1    3    3    0  502 -0.31604557601E+03  0.73680761753E+03  0.28658324074E+03  0.85141073251E+03  0.10100000352E+00 0. -1.
</event>
<event>
 5   0  0.1914170E-04  0.1595592E+04  0.7818609E-02  0.8823261E-01
        2   -1    0    0  501    0  0.00000000000E+00  0.00000000000E+00  0.91585338472E+03  0.91585338472E+03  0.25500000920E-02 0.  1.
       -2   -1    0    0    0  501  0.00000000000E+00  0.00000000000E+00 -0.69495643160E+03  0.69495643160E+03  0.25500000920E-02 0. -1.
    10030    2    1    2    0    0  0.00000000000E+00  0.00000000000E+00  0.22089695312E+03  0.16108098163E+04  0.15955916772E+04 0.  0.
        3    1    3    3  502    0  0.24384775849E+03 -0.50204074949E+03 -0.46505131911E+03  0.72648426210E+03  0.10100000352E+00 0. -1.
       -3    1    3    3    0  502 -0.24384775849E+03  0.50204074949E+03  0.68594827223E+03  0.88432555422E+03  0.10100000352E+00 0.  1.
</event>
<event>
 5   0  0.1914170E-04  0.1589526E+04  0.7818609E-02  0.8827008E-01
       -2   -1    0    0    0  501  0.00000000000E+00  0.00000000000E+00  0.49774620821E+03  0.49774620822E+03  0.25500000920E-02 0.  1.
        2   -1    0    0  501    0  0.00000000000E+00  0.00000000000E+00 -0.12690167654E+04  0.12690167654E+04  0.25500000920E-02 0. -1.
    10030    2    1    2    0    0  0.00000000000E+00  0.00000000000E+00 -0.77127055720E+03  0.17667629736E+04  0.15895260717E+04 0.  0.
        3    1    3    3  502    0  0.28463454140E+03 -0.11676674357E+03  0.42887497225E+03  0.52781156352E+03  0.10100000352E+00 0.  1.
       -3    1    3    3    0  502 -0.28463454140E+03  0.11676674357E+03 -0.12001455294E+04  0.12389514101E+04  0.10100000352E+00 0. -1.
</event>
<event>
 5   0  0.9673017E-05  0.1611931E+04  0.7818609E-02  0.8813252E-01
       -1   -1    0    0    0  501  0.00000000000E+00  0.00000000000E+00  0.71454420499E+03  0.71454420501E+03  0.50400001928E-02 0. -1.
        1   -1    0    0  501    0  0.00000000000E+00  0.00000000000E+00 -0.90908341768E+03  0.90908341770E+03  0.50400001928E-02 0.  1.
    10030    2    1    2    0    0  0.00000000000E+00  0.00000000000E+00 -0.19453921269E+03  0.16236276227E+04  0.16119308769E+04 0.  0.
        1    1    3    3  502    0 -0.90261644405E+02  0.46030418479E+03  0.56288929982E+03  0.73271513623E+03  0.50400001928E-02 0. -1.
       -1    1    3    3    0  502  0.90261644405E+02 -0.46030418479E+03 -0.75742851250E+03  0.89091248648E+03  0.50400001928E-02 0.  1.
</event>
<event>
 5   0  0.1774934E-04  0.1601096E+04  0.7818609E-02  0.8819875E-01
       -2   -1    0    0    0  501  0.00000000000E+00  0.00000000000E+00  0.60065028055E+03  0.60065028056E+03  0.25500000920E-02 0. -1.
        2   -1    0    0  501    0  0.00000000000E+00  0.00000000000E+00 -0.10669719947E+04  0.10669719947E+04  0.25500000920E-02 0.  1.
    10030    2    1    2    0    0  0.00000000000E+00  0.00000000000E+00 -0.46632171414E+03  0.16676222753E+04  0.16010959096E+04 0.  0.
        1    1    3    3  502    0 -0.44796761979E+03  0.42635374490E+03 -0.76263798187E+03  0.98187025395E+03  0.50400001928E-02 0.  1.
       -1    1    3    3    0  502  0.44796761979E+03 -0.42635374490E+03  0.29631626773E+03  0.68575202130E+03  0.50400001928E-02 0. -1.
</event>
<event>
 5   0  0.9726935E-05  0.1594325E+04  0.7818609E-02  0.8824042E-01
       -1   -1    0    0    0  501  0.00000000000E+00  0.00000000000E+00  0.91596135354E+03  0.91596135355E+03  0.50400001928E-02 0. -1.
        1   -1    0    0  501    0  0.00000000000E+00  0.00000000000E+00 -0.69377127811E+03  0.69377127812E+03  0.50400001928E-02 0.  1.
    10030    2    1    2    0    0  0.00000000000E+00  0.00000000000E+00  0.22219007543E+03  0.16097326317E+04  0.15943245328E+04 0.  0.
        2    1    3    3  502    0  0.67547338843E+03 -0.12792493103E+03 -0.29633748125E+03  0.74862873927E+03  0.25500000920E-02 0.  1.
       -2    1    3    3    0  502 -0.67547338843E+03  0.12792493103E+03  0.51852755669E+03  0.86110389241E+03  0.25500000920E-02 0. -1.
</event>
<event>
 5   0  0.9673017E-05  0.1590939E+04  0.7818609E-02  0.8826134E-01
       -1   -1    0    0    0  501  0.00000000000E+00  0.00000000000E+00  0.55864957540E+03  0.55864957542E+03  0.50400001928E-02 0.  1.
        1   -1    0    0  501    0  0.00000000000E+00  0.00000000000E+00 -0.11326815215E+04  0.11326815215E+04  0.50400001928E-02 0. -1.
    10030    2    1    2    0    0  0.00000000000E+00  0.00000000000E+00 -0.57403194612E+03  0.16913310970E+04  0.15909394094E+04 0.  0.
        1    1    3    3  502    0 -0.17781054615E+03 -0.68468457882E+03  0.99758190310E+02  0.71439573022E+03  0.50400001928E-02 0.  1.
       -1    1    3    3    0  502  0.17781054615E+03  0.68468457882E+03 -0.67379013643E+03  0.97693536673E+03  0.50400001928E-02 0. -1.
</event>
<event>
 5   0  0.6838750E-05  0.1605982E+04  0.7818609E-02  0.8816882E-01
        4   -1    0    0  501    0  0.00000000000E+00  0.00000000000E+00  0.13276591638E+04  0.13276597712E+04  0.12699999809E+01 0. -1.
       -4   -1    0    0    0  501  0.00000000000E+00  0.00000000000E+00 -0.48566088834E+03  0.48566254886E+03  0.12699999809E+01 0.  1.
    10030    2    1    2    0    0  0.00000000000E+00  0.00000000000E+00  0.84199827545E+03  0.18133223201E+04  0.16059815505E+04 0.  0.
        4    1    3    3  502    0 -0.10738198981E+03 -0.28574115093E+03 -0.41759528104E+03  0.51726814006E+03  0.12699999809E+01 0.  1.
       -4    1    3    3    0  502  0.10738198981E+03  0.28574115093E+03  0.12595935565E+04  0.12960541800E+04  0.12699999809E+01 0. -1.
</event>
<event>
 5   0  0.1774934E-04  0.1596529E+04  0.7818609E-02  0.8822683E-01
       -2   -1    0    0    0  501  0.00000000000E+00  0.00000000000E+00  0.13593049440E+04  0.13593049440E+04  0.25500000920E-02 0.  1.
        2   -1    0    0  501    0  0.00000000000E+00  0.00000000000E+00 -0.46878832748E+03  0.46878832749E+03  0.25500000920E-02 0. -1.
    10030    2    1    2    0    0  0.00000000000E+00  0.00000000000E+00  0.89051661654E+03  0.18280932715E+04  0.15965290993E+04 0.  0.
        1    1    3    3  502    0  0.10737328496E+03  0.79069095952E+03  0.47099185429E+03  0.92658218342E+03  0.50400001928E-02 0.  1.
       -1    1    3    3    0  502 -0.10737328496E+03 -0.79069095952E+03  0.41952476225E+03  0.90151108809E+03  0.50400001928E-02 0. -1.
</event>
<event>
 5   0  0.9726935E-05  0.1579624E+04  0.7818609E-02  0.8833164E-01
       -1   -1    0    0    0  501  0.00000000000E+00  0.00000000000E+00  0.10996998406E+04  0.10996998406E+04  0.50400001928E-02 0. -1.
        1   -1    0    0  501    0  0.00000000000E+00  0.00000000000E+00 -0.56724859807E+03  0.56724859809E+03  0.50400001928E-02 0.  1.
    10030    2    1    2    0    0  0.00000000000E+00  0.00000000000E+00  0.53245124256E+03  0.16669484387E+04  0.15796242502E+04 0.  0.
        2    1    3    3  502    0  0.40563501519E+03  0.47917513285E+03  0.77194077457E+03  0.99500810697E+03  0.25500000920E-02 0. -1.
       -2    1    3    3    0  502 -0.40563501519E+03 -0.47917513285E+03 -0.23948953200E+03  0.67194033176E+03  0.25500000920E-02 0.  1.
</event>
<event>
 5   0  0.9726935E-05  0.1600689E+04  0.7818609E-02  0.8820125E-01
       -1   -1    0    0    0  501  0.00000000000E+00  0.00000000000E+00  0.69069175033E+03  0.69069175035E+03  0.50400001928E-02 0.  1.
        1   -1    0    0  501    0  0.00000000000E+00  0.00000000000E+00 -0.92740580241E+03  0.92740580243E+03  0.50400001928E-02 0. -1.
    10030    2    1    2    0    0  0.00000000000E+00  0.00000000000E+00 -0.23671405208E+03  0.16180975528E+04  0.16006892727E+04 0.  0.
        2    1    3    3  502    0 -0.44108194131E+03 -0.56109852739E+03 -0.48446523236E+03  0.86260732536E+03  0.25500000920E-02 0. -1.
       -2    1    3    3    0  502  0.44108194131E+03  0.56109852739E+03  0.24775118028E+03  0.75549022742E+03  0.25500000920E-02 0.  1.
</event>
<event>
 5   0  0.1832646E-04  0.1601144E+04  0.7818609E-02  0.8819846E-01
       -2   -1    0    0    0  501  0.00000000000E+00  0.00000000000E+00  0.13290680098E+04  0.13290680098E+04  0.25500000920E-02 0.  1.
        2   -1    0    0  501    0  0.00000000000E+00  0.00000000000E+00 -0.48222913472E+03  0.48222913473E+03  0.25500000920E-02 0. -1.
    10030    2    1    2    0    0  0.00000000000E+00  0.00000000000E+00  0.84683887506E+03  0.18112971445E+04  0.16011437366E+04 0.  0.
        2    1    3    3  502    0 -0.77553804906E+00 -0.11452225114E+03  0.13197533312E+04  0.13247131021E+04  0.25500000920E-02 0.  1.
       -2    1    3    3    0  502  0.77553804906E+00  0.11452225114E+03 -0.47291445619E+03  0.48658404243E+03  0.25500000920E-02 0. -1.
</event>
<event>
 5   0  0.6838750E-05  0.1600690E+04  0.7818609E-02  0.8820124E-01
        3   -1    0    0  501    0  0.00000000000E+00  0.00000000000E+00  0.92110585116E+03  0.92110585669E+03  0.10100000352E+00 0. -1.
       -3   -1    0    0    0  501  0.00000000000E+00  0.00000000000E+00 -0.69541645591E+03  0.69541646325E+03  0.10100000352E+00 0.  1.
    10030    2    1    2    0    0  0.00000000000E+00  0.00000000000E+00  0.22568939524E+03  0.16165223199E+04  0.16006900724E+04 0.  0.
        5    1    3    3  502    0 -0.53290587396E+03  0.48701457242E+03  0.46174442146E+03  0.85697249956E+03  0.46999998093E+01 0. -1.
       -5    1    3    3    0  502  0.53290587396E+03 -0.48701457242E+03 -0.23605502621E+03  0.75954982039E+03  0.46999998093E+01 0.  1.
</event>
<event>
 5   0  0.9939872E-05  0.1599775E+04  0.7818609E-02  0.8820686E-01
        1   -1    0    0  501    0  0.00000000000E+00  0.00000000000E+00  0.13265349562E+04  0.13265349562E+04  0.50400001928E-02 0.  1.
       -1   -1    0    0    0  501  0.00000000000E+00  0.00000000000E+00 -0.48232422692E+03  0.48232422695E+03  0.50400001928E-02 0. -1.
    10030    2    1    2    0    0  0.00000000000E+00  0.00000000000E+00  0.84421072931E+03  0.18088591832E+04  0.15997749183E+04 0.  0.
        3    1    3    3  502    0  0.32919518759E+03 -0.10037845612E+03 -0.39432814827E+03  0.52339278243E+03  0.10100000352E+00 0. -1.
       -3    1    3    3    0  502 -0.32919518759E+03  0.10037845612E+03  0.12385388776E+04  0.12854664008E+04  0.10100000352E+00 0.  1.
</event>
<event>
 5   0  0.1835088E-04  0.1599466E+04  0.7818609E-02  0.8820876E-01
        2   -1    0    0  501    0  0.00000000000E+00  0.00000000000E+00  0.12220154772E+04  0.12220154772E+04  0.25500000920E-02 0.  1.
       -2   -1    0    0    0  501  0.00000000000E+00  0.00000000000E+00 -0.52337559450E+03  0.52337559450E+03  0.25500000920E-02 0. -1.
    10030    2    1    2    0    0  0.00000000000E+00  0.00000000000E+00  0.69863988270E+03  0.17453910717E+04  0.15994662571E+04 0.  0.
        5    1    3    3  502    0 -0.31102350383E+03  0.46572661698E+03  0.97229295293E+03  0.11220572971E+04  0.46999998093E+01 0.  1.
       -5    1    3    3    0  502  0.31102350383E+03 -0.46572661698E+03 -0.27365307022E+03  0.62333377459E+03  0.46999998093E+01 0. -1.
</event>
<event>
 5   0  0.9939872E-05  0.1594782E+04  0.7818609E-02  0.8823760E-01
       -1   -1    0    0    0  501  0.00000000000E+00  0.00000000000E+00  0.93619766663E+03  0.93619766664E+03  0.50400001928E-02 0.  1.
        1   -1    0    0  501    0  0.00000000000E+00  0.00000000000E+00 -0.67916511714E+03  0.67916511716E+03  0.50400001928E-02 0. -1.
    10030    2    1    2    0    0  0.00000000000E+00  0.00000000000E+00  0.25703254949E+03  0.16153627838E+04  0.15947824904E+04 0.  0.
        3    1    3    3  502    0 -0.38393121470E+02 -0.52682547356E+03  0.73356362078E+03  0.90395503610E+03  0.10100000352E+00 0.  1.
       -3    1    3    3    0  502  0.38393121470E+02  0.52682547356E+03 -0.47653107129E+03  0.71140774769E+03  0.10100000352E+00 0. -1.
</event>
<event>
 5   0  0.1832646E-04  0.1602664E+04  0.7818609E-02  0.8818913E-01
       -2   -1    0    0    0  501  0.00000000000E+00  0.00000000000E+00  0.46303079051E+03  0.46303079051E+03  0.25500000920E-02 0. -1.
        2   -1    0    0  501    0  0.00000000000E+00  0.00000000000E+00 -0.13868032313E+04  0.13868032313E+04  0.25500000920E-02 0.  1.
    10030    2    1    2    0    0  0.00000000000E+00  0.00000000000E+00 -0.92377244076E+03  0.18498340218E+04  0.16026635286E+04 0.  0.
        2    1    3    3  502    0  0.30650927853E+03  0.44601407271E+03  0.22023633799E+03  0.58427778963E+03  0.25500000920E-02 0. -1.
       -2    1    3    3    0  502 -0.30650927853E+03 -0.44601407271E+03 -0.11440087787E+04  0.12655562322E+04  0.25500000920E-02 0.  1.
</event>
<event>
 5   0  0.1832646E-04  0.1600154E+04  0.7818609E-02  0.8820453E-01
        2   -1    0    0  501    0  0.00000000000E+00  0.00000000000E+00  0.13152591337E+04  0.13152591337E+04  0.25500000920E-02 0. -1.
       -2   -1    0    0    0  501  0.00000000000E+00  0.00000000000E+00 -0.48669005533E+03  0.48669005534E+03  0.25500000920E-02 0.  1.
    10030    2    1    2    0    0  0.00000000000E+00  0.00000000000E+00  0.82856907833E+03  0.18019491890E+04  0.16001544182E+04 0.  0.
        2    1    3    3  502    0 -0.25103698030E+03 -0.11420595556E+03 -0.43146870524E+03  0.51208183854E+03  0.25500000920E-02 0.  1.
       -2    1    3    3    0  502  0.25103698030E+03  0.11420595556E+03  0.12600377836E+04  0.12898673505E+04  0.25500000920E-02 0. -1.
</event>
<event>
 5   0  0.9673017E-05  0.1599910E+04  0.7818609E-02  0.8820604E-01
       -1   -1    0    0    0  501  0.00000000000E+00  0.00000000000E+00  0.14404641473E+04  0.14404641473E+04  0.50400001928E-02 0. -1.
        1   -1    0    0  501    0  0.00000000000E+00  0.00000000000E+00 -0.44425103726E+03  0.44425103729E+03  0.50400001928E-02 0.  1.
    10030    2    1    2    0    0  0.00000000000E+00  0.00000000000E+00  0.99621311007E+03  0.18847151846E+04  0.15999096120E+04 0.  0.
        1    1    3    3  502    0  0.34666392855E+03  0.11324326766E+02 -0.35106356461E+03  0.49350759483E+03  0.50400001928E-02 0.  1.
       -1    1    3    3    0  502 -0.34666392855E+03 -0.11324326766E+02  0.13472766747E+04  0.13912075898E+04  0.50400001928E-02 0. -1.
</event>
<event>
 5   0  0.1914170E-04  0.1608028E+04  0.7818609E-02  0.8815631E-01
       -2   -1    0    0    0  501  0.00000000000E+00  0.00000000000E+00  0.66454777781E+03  0.66454777781E+03  0.25500000920E-02 0.  1.
        2   -1    0    0  501    0  0.00000000000E+00  0.00000000000E+00 -0.97274952597E+03  0.97274952597E+03  0.25500000920E-02 0. -1.
    10030    2    1    2    0    0  0.00000000000E+00  0.00000000000E+00 -0.30820174816E+03  0.16372973038E+04  0.16080280294E+04 0.  0.
        3    1    3    3  502    0  0.34205262007E+03 -0.60249605775E+03  0.26129187577E+03  0.74045590621E+03  0.10100000352E+00 0.  1.
       -3    1    3    3    0  502 -0.34205262007E+03  0.60249605775E+03 -0.56949362393E+03  0.89684139757E+03  0.10100000352E+00 0. -1.
</event>
<event>
 5   0  0.1832646E-04  0.1600137E+04  0.7818609E-02  0.8820464E-01
        2   -1    0    0  501    0  0.00000000000E+00  0.00000000000E+00  0.12291024173E+04  0.12291024173E+04  0.25500000920E-02 0. -1.
       -2   -1    0    0    0  501  0.00000000000E+00  0.00000000000E+00 -0.52079439653E+03  0.52079439653E+03  0.25500000920E-02 0.  1.
    10030    2    1    2    0    0  0.00000000000E+00  0.00000000000E+00  0.70830802079E+03  0.17498968139E+04  0.16001370588E+04 0.  0.
        2    1    3    3  502    0  0.46336474091E+02 -0.31914454439E+03 -0.44656832838E+03  0.55083897916E+03  0.25500000920E-02 0.  1.
       -2    1    3    3    0  502 -0.46336474091E+02  0.31914454439E+03  0.11548763492E+04  0.11990578347E+04  0.25500000920E-02 0. -1.
</event>
<event>
 5   0  0.9939872E-05  0.1599962E+04  0.7818609E-02  0.8820571E-01
        1   -1    0    0  501    0  0.00000000000E+00  0.00000000000E+00  0.12080452377E+04  0.12080452377E+04  0.50400001928E-02 0.  1.
       -1   -1    0    0    0  501  0.00000000000E+00  0.00000000000E+00 -0.52975617867E+03  0.52975617869E+03  0.50400001928E-02 0. -1.
    10030    2    1    2    0    0  0.00000000000E+00  0.00000000000E+00  0.67828905905E+03  0.17378014164E+04  0.15999617856E+04 0.  0.
        3    1    3    3  502    0  0.12552431635E+03 -0.33540302565E+03 -0.43782829815E+03  0.56563696173E+03  0.10100000352E+00 0. -1.
       -3    1    3    3    0  502 -0.12552431635E+03  0.33540302565E+03  0.11161173572E+04  0.11721644547E+04  0.10100000352E+00 0.  1.
</event>
<event>
 5   0  0.9939872E-05  0.1576478E+04  0.7818609E-02  0.8835130E-01
       -1   -1    0    0    0  501  0.00000000000E+00  0.00000000000E+00  0.26992747533E+03  0.26992747537E+03  0.50400001928E-02 0.  1.
        1   -1    0    0  501    0  0.00000000000E+00  0.00000000000E+00 -0.23018058958E+04  0.23018058958E+04  0.50400001928E-02 0. -1.
    10030    2    1    2    0    0  0.00000000000E+00  0.00000000000E+00 -0.20318784204E+04  0.25717333711E+04  0.15764779151E+04 0.  0.
        3    1    3    3  502    0  0.52112941950E+03  0.58386804700E+03 -0.11693425491E+04  0.14070677935E+04  0.10100000352E+00 0. -1.
       -3    1    3    3    0  502 -0.52112941950E+03 -0.58386804700E+03 -0.86253587131E+03  0.11646655776E+04  0.10100000352E+00 0.  1.
</event>
<event>
 5   0  0.9432152E-05  0.1607238E+04  0.7818609E-02  0.8816114E-01
        1   -1    0    0  501    0  0.00000000000E+00  0.00000000000E+00  0.98653708968E+03  0.98653708970E+03  0.50400001928E-02 0.  1.
       -1   -1    0    0    0  501  0.00000000000E+00  0.00000000000E+00 -0.65461665100E+03  0.65461665102E+03  0.50400001928E-02 0. -1.
    10030    2    1    2    0    0  0.00000000000E+00  0.00000000000E+00  0.33192043868E+03  0.16411537407E+04  0.16072381351E+04 0.  0.
        4    1    3    3  502    0  0.30251033041E+03  0.59562974855E+03  0.62205645034E+03  0.91282152564E+03  0.12699999809E+01 0.  1.
       -4    1    3    3    0  502 -0.30251033041E+03 -0.59562974855E+03 -0.29013601166E+03  0.72833221508E+03  0.12699999809E+01 0. -1.
</event>
<event>
 5   0  0.1914170E-04  0.1603807E+04  0.7818609E-02  0.8818212E-01
       -2   -1    0    0    0  501  0.00000000000E+00  0.00000000000E+00  0.53512444189E+03  0.53512444190E+03  0.25500000920E-02 0. -1.
        2   -1    0    0  501    0  0.00000000000E+00  0.00000000000E+00 -0.12016821330E+04  0.12016821330E+04  0.25500000920E-02 0.  1.
    10030    2    1    2    0    0  0.00000000000E+00  0.00000000000E+00 -0.66655769111E+03  0.17368065749E+04  0.16038073210E+04 0.  0.
        3    1    3    3  502    0 -0.71758568350E+03  0.24130116616E+03 -0.46980245087E+02  0.75852661099E+03  0.10100000352E+00 0. -1.
       -3    1    3    3    0  502  0.71758568350E+03 -0.24130116616E+03 -0.61957744602E+03  0.97827996390E+03  0.10100000352E+00 0.  1.
</event>
<event>
 5   0  0.1832646E-04  0.1600285E+04  0.7818609E-02  0.8820373E-01
       -2   -1    0    0    0  501  0.00000000000E+00  0.00000000000E+00  0.28289273109E+03  0.28289273110E+03  0.25500000920E-02 0.  1.
        2   -1    0    0  501    0  0.00000000000E+00  0.00000000000E+00 -0.22631490404E+04  0.22631490404E+04  0.25500000920E-02 0. -1.
    10030    2    1    2    0    0  0.00000000000E+00  0.00000000000E+00 -0.19802563093E+04  0.25460417715E+04  0.16002854907E+04 0.  0.
        2    1    3    3  502    0 -0.68255817032E+03 -0.41708331730E+03 -0.10213158010E+04  0.12972779636E+04  0.25500000920E-02 0.  1.
       -2    1    3    3    0  502  0.68255817032E+03  0.41708331730E+03 -0.95894050835E+03  0.12487638079E+04  0.25500000920E-02 0. -1.
</event>
<event>
 5   0  0.1858913E-04  0.1604720E+04  0.7818609E-02  0.8817653E-01
       -2   -1    0    0    0  501  0.00000000000E+00  0.00000000000E+00  0.51895774841E+03  0.51895774842E+03  0.25500000920E-02 0.  1.
        2   -1    0    0  501    0  0.00000000000E+00  0.00000000000E+00 -0.12405283107E+04  0.12405283107E+04  0.25500000920E-02 0. -1.
    10030    2    1    2    0    0  0.00000000000E+00  0.00000000000E+00 -0.72157056227E+03  0.17594860591E+04  0.16047202609E+04 0.  0.
        4    1    3    3  502    0  0.61030057826E+03  0.51950552568E+03 -0.31936088847E+03  0.86275476065E+03  0.12699999809E+01 0.  1.
       -4    1    3    3    0  502 -0.61030057826E+03 -0.51950552568E+03 -0.40220967380E+03  0.89673129846E+03  0.12699999809E+01 0. -1.
</event>
<event>
 5   0  0.9726935E-05  0.1624492E+04  0.7818609E-02  0.8805641E-01
        1   -1    0    0  501    0  0.00000000000E+00  0.00000000000E+00  0.50611008386E+03  0.50611008389E+03  0.50400001928E-02 0.  1.
       -1   -1    0    0    0  501  0.00000000000E+00  0.00000000000E+00 -0.13035582367E+04  0.13035582368E+04  0.50400001928E-02 0. -1.
    10030    2    1    2    0    0  0.00000000000E+00  0.00000000000E+00 -0.79744815288E+03  0.18096683206E+04  0.16244924974E+04 0.  0.
        2    1    3    3  502    0  0.34437742858E+03 -0.28074520690E+03 -0.11561801372E+04  0.12386146270E+04  0.25500000920E-02 0. -1.
       -2    1    3    3    0  502 -0.34437742858E+03  0.28074520690E+03  0.35873198429E+03  0.57105369368E+03  0.25500000920E-02 0.  1.
</event>
<event>
 5   0  0.6838750E-05  0.1610177E+04  0.7818609E-02  0.8814320E-01
       -3   -1    0    0    0  501  0.00000000000E+00  0.00000000000E+00  0.35745645703E+03  0.35745647130E+03  0.10100000352E+00 0.  1.
        3   -1    0    0  501    0  0.00000000000E+00  0.00000000000E+00 -0.18132756078E+04  0.18132756106E+04  0.10100000352E+00 0. -1.
    10030    2    1    2    0    0  0.00000000000E+00  0.00000000000E+00 -0.14558191508E+04  0.21707320819E+04  0.16101765033E+04 0.  0.
        4    1    3    3  502    0 -0.30747290093E+03  0.69399339062E+03 -0.36616987017E+03  0.84276236138E+03  0.12699999809E+01 0.  1.
       -4    1    3    3    0  502  0.30747290093E+03 -0.69399339062E+03 -0.10896492806E+04  0.13279697205E+04  0.12699999809E+01 0. -1.
</event>
<event>
 5   0  0.1774934E-04  0.1600345E+04  0.7818609E-02  0.8820336E-01
        2   -1    0    0  501    0  0.00000000000E+00  0.00000000000E+00  0.79787546147E+03  0.79787546148E+03  0.25500000920E-02 0. -1.
       -2   -1    0    0    0  501  0.00000000000E+00  0.00000000000E+00 -0.80247655707E+03  0.80247655707E+03  0.25500000920E-02 0.  1.
    10030    2    1    2    0    0  0.00000000000E+00  0.00000000000E+00 -0.46010955959E+01  0.16003520185E+04  0.16003454043E+04 0.  0.
        1    1    3    3  502    0  0.54914992889E+02  0.56247078421E+02  0.79400479844E+03  0.79788658984E+03  0.50400001928E-02 0. -1.
       -1    1    3    3    0  502 -0.54914992889E+02 -0.56247078421E+02 -0.79860589403E+03  0.80246542871E+03  0.50400001928E-02 0.  1.
</event>
<event>
 5   0  0.1832646E-04  0.1599138E+04  0.7818609E-02  0.8821078E-01
        2   -1    0    0  501    0  0.00000000000E+00  0.00000000000E+00  0.14195326184E+04  0.14195326184E+04  0.25500000920E-02 0.  1.
       -2   -1    0    0    0  501  0.00000000000E+00  0.00000000000E+00 -0.45036696561E+03  0.45036696562E+03  0.25500000920E-02 0. -1.
    10030    2    1    2    0    0  0.00000000000E+00  0.00000000000E+00  0.96916565278E+03  0.18698995840E+04  0.15991380152E+04 0.  0.
        2    1    3    3  502    0  0.30496731440E+03  0.15281073778E+03  0.13301814234E+04  0.13732220518E+04  0.25500000920E-02 0.  1.
       -2    1    3    3    0  502 -0.30496731440E+03 -0.15281073778E+03 -0.36101577057E+03  0.49667753225E+03  0.25500000920E-02 0. -1.
</event>
<event>
 5   0  0.9673017E-05  0.1585780E+04  0.7818609E-02  0.8829332E-01
       -1   -1    0    0    0  501  0.00000000000E+00  0.00000000000E+00  0.48455936690E+03  0.48455936693E+03  0.50400001928E-02 0. -1.
        1   -1    0    0  501    0  0.00000000000E+00  0.00000000000E+00 -0.12974145000E+04  0.12974145000E+04  0.50400001928E-02 0.  1.
    10030    2    1    2    0    0  0.00000000000E+00  0.00000000000E+00 -0.81285513306E+03  0.17819738669E+04  0.15857797435E+04 0.  0.
        1    1    3    3  502    0 -0.79172323088E+03 -0.42971897555E+02 -0.40480285792E+03  0.89024581555E+03  0.50400001928E-02 0.  1.
       -1    1    3    3    0  502  0.79172323088E+03  0.42971897555E+02 -0.40805227514E+03  0.89172805136E+03  0.50400001928E-02 0. -1.
</event>
<event>
 5   0  0.9939872E-05  0.1570822E+04  0.7818609E-02  0.8838676E-01
        1   -1    0    0  501    0  0.00000000000E+00  0.00000000000E+00  0.73869671899E+03  0.73869671900E+03  0.50400001928E-02 0.  1.
       -1   -1    0    0    0  501  0.00000000000E+00  0.00000000000E+00 -0.83507956016E+03  0.83507956018E+03  0.50400001928E-02 0. -1.
    10030    2    1    2    0    0  0.00000000000E+00  0.00000000000E+00 -0.96382841174E+02  0.15737762792E+04  0.15708221175E+04 0.  0.
        3    1    3    3  502    0 -0.56276733212E+03 -0.36617451991E+03 -0.45648657570E+03  0.81189337547E+03  0.10100000352E+00 0.  1.
       -3    1    3    3    0  502  0.56276733212E+03  0.36617451991E+03  0.36010373453E+03  0.76188290371E+03  0.10100000352E+00 0. -1.
</event>
<event>
 5   0  0.9432152E-05  0.1599660E+04  0.7818609E-02  0.8820757E-01
        1   -1    0    0  501    0  0.00000000000E+00  0.00000000000E+00  0.10889893854E+04  0.10889893854E+04  0.50400001928E-02 0. -1.
       -1   -1    0    0    0  501  0.00000000000E+00  0.00000000000E+00 -0.58745101673E+03  0.58745101675E+03  0.50400001928E-02 0.  1.
    10030    2    1    2    0    0  0.00000000000E+00  0.00000000000E+00  0.50153836867E+03  0.16764404022E+04  0.15996598660E+04 0.  0.
        4    1    3    3  502    0  0.40839003885E+03  0.68017543182E+03  0.35715655907E+03  0.87004796561E+03  0.12699999809E+01 0. -1.
       -4    1    3    3    0  502 -0.40839003885E+03 -0.68017543182E+03  0.14438180960E+03  0.80639243655E+03  0.12699999809E+01 0.  1.
</event>
<event>
 5   0  0.6838750E-05  0.1602110E+04  0.7818609E-02  0.8819253E-01
        3   -1    0    0  501    0  0.00000000000E+00  0.00000000000E+00  0.42996091490E+03  0.42996092677E+03  0.10100000352E+00 0.  1.
       -3   -1    0    0    0  501  0.00000000000E+00  0.00000000000E+00 -0.14924367660E+04  0.14924367695E+04  0.10100000352E+00 0. -1.
    10030    2    1    2    0    0  0.00000000000E+00  0.00000000000E+00 -0.10624758511E+04  0.19223976962E+04  0.16021104732E+04 0.  0.
        5    1    3    3  502    0 -0.29908020532E+03  0.38376803221E+03 -0.12948036084E+04  0.13832083524E+04  0.46999998093E+01 0. -1.
       -5    1    3    3    0  502  0.29908020532E+03 -0.38376803221E+03  0.23232775724E+03  0.53918934387E+03  0.46999998093E+01 0.  1.
</event>
<event>
 5   0  0.9673017E-05  0.1597310E+04  0.7818609E-02  0.8822202E-01
        1   -1    0    0  501    0  0.00000000000E+00  0.00000000000E+00  0.53329548037E+03  0.53329548039E+03  0.50400001928E-02 0.  1.
       -1   -1    0    0    0  501  0.00000000000E+00  0.00000000000E+00 -0.11960537317E+04  0.11960537317E+04  0.50400001928E-02 0. -1.
    10030    2    1    2    0    0  0.00000000000E+00  0.00000000000E+00 -0.66275825130E+03  0.17293492121E+04  0.15973103010E+04 0.  0.
        1    1    3    3  502    0 -0.31935929946E+03  0.19577235399E+03 -0.10950466077E+04  0.11573436178E+04  0.50400001928E-02 0. -1.
       -1    1    3    3    0  502  0.31935929946E+03 -0.19577235399E+03  0.43228835638E+03  0.57200559423E+03  0.50400001928E-02 0.  1.
</event>
<event>
 5   0  0.1914170E-04  0.1601683E+04  0.7818609E-02  0.8819515E-01
       -2   -1    0    0    0  501  0.00000000000E+00  0.00000000000E+00  0.45086598714E+03  0.45086598714E+03  0.25500000920E-02 0.  1.
        2   -1    0    0  501    0  0.00000000000E+00  0.00000000000E+00 -0.14224779069E+04  0.14224779069E+04  0.25500000920E-02 0. -1.
    10030    2    1    2    0    0  0.00000000000E+00  0.00000000000E+00 -0.97161191975E+03  0.18733438940E+04  0.16016827472E+04 0.  0.
        3    1    3    3  502    0  0.29151903030E+03 -0.26310158264E+03  0.33052901035E+03  0.51327889563E+03  0.10100000352E+00 0.  1.
       -3    1    3    3    0  502 -0.29151903030E+03  0.26310158264E+03 -0.13021409301E+04  0.13600649984E+04  0.10100000352E+00 0. -1.
</event>
<event>
 5   0  0.9726935E-05  0.1594687E+04  0.7818609E-02  0.8823819E-01
       -1   -1    0    0    0  501  0.00000000000E+00  0.00000000000E+00  0.33125746054E+03  0.33125746058E+03  0.50400001928E-02 0. -1.
        1   -1    0    0  501    0  0.00000000000E+00  0.00000000000E+00 -0.19192216632E+04  0.19192216632E+04  0.50400001928E-02 0.  1.
    10030    2    1    2    0    0  0.00000000000E+00  0.00000000000E+00 -0.15879642027E+04  0.22504791238E+04  0.15946867961E+04 0.  0.
        2    1    3    3  502    0  0.19596498139E+03  0.55349219035E+03 -0.32698378328E+02  0.58806892680E+03  0.25500000920E-02 0. -1.
       -2    1    3    3    0  502 -0.19596498139E+03 -0.55349219035E+03 -0.15552658244E+04  0.16624101970E+04  0.25500000920E-02 0.  1.
</event>
<event>
 5   0  0.1774934E-04  0.1593808E+04  0.7818609E-02  0.8824361E-01
       -2   -1    0    0    0  501  0.00000000000E+00  0.00000000000E+00  0.56994407001E+03  0.56994407002E+03  0.25500000920E-02 0.  1.
        2   -1    0    0  501    0  0.00000000000E+00  0.00000000000E+00 -0.11142432890E+04  0.11142432890E+04  0.25500000920E-02 0. -1.
    10030    2    1    2    0    0  0.00000000000E+00  0.00000000000E+00 -0.54429921902E+03  0.16841873591E+04  0.15938084642E+04 0.  0.
        1    1    3    3  502    0  0.43643770184E+03  0.53827222187E+03  0.14366329488E+03  0.70771038903E+03  0.50400001928E-02 0.  1.
       -1    1    3    3    0  502 -0.43643770184E+03 -0.53827222187E+03 -0.68796251390E+03  0.97647697002E+03  0.50400001928E-02 0. -1.
</event>
<event>
 5   0  0.9726935E-05  0.1599142E+04  0.7818609E-02  0.8821075E-01
       -1   -1    0    0    0  501  0.00000000000E+00  0.00000000000E+00  0.60322731507E+03  0.60322731509E+03  0.50400001928E-02 0.  1.
        1   -1    0    0  501    0  0.00000000000E+00  0.00000000000E+00 -0.10598222633E+04  0.10598222633E+04  0.50400001928E-02 0. -1.
    10030    2    1    2    0    0  0.00000000000E+00  0.00000000000E+00 -0.45659494826E+03  0.16630495784E+04  0.15991419429E+04 0.  0.
        2    1    3    3  502    0  0.52041009077E+02 -0.75737960198E+03  0.32693243951E+02  0.75986905209E+03  0.25500000920E-02 0. -1.
       -2    1    3    3    0  502 -0.52041009077E+02  0.75737960198E+03 -0.48928819221E+03  0.90318052634E+03  0.25500000920E-02 0.  1.
</event>
<event>
 5   0  0.9939872E-05  0.1597512E+04  0.7818609E-02  0.8822078E-01
       -1   -1    0    0    0  501  0.00000000000E+00  0.00000000000E+00  0.46132560924E+03  0.46132560927E+03  0.50400001928E-02 0.  1.
        1   -1    0    0  501    0  0.00000000000E+00  0.00000000000E+00 -0.13829951358E+04  0.13829951358E+04  0.50400001928E-02 0. -1.
    10030    2    1    2    0    0  0.00000000000E+00  0.00000000000E+00 -0.92166952655E+03  0.18443207451E+04  0.15975119075E+04 0.  0.
        3    1    3    3  502    0 -0.15496829323E+03 -0.75417149513E+03 -0.70634161467E+03  0.10448484592E+04  0.10100000352E+00 0. -1.
       -3    1    3    3    0  502  0.15496829323E+03  0.75417149513E+03 -0.21532791188E+03  0.79947228583E+03  0.10100000352E+00 0.  1.
</event>
<event>
 5   0  0.1858913E-04  0.1599532E+04  0.7818609E-02  0.8820835E-01
        2   -1    0    0  501    0  0.00000000000E+00  0.00000000000E+00  0.77068073723E+03  0.77068073723E+03  0.25500000920E-02 0. -1.
       -2   -1    0    0    0  501  0.00000000000E+00  0.00000000000E+00 -0.82994923809E+03  0.82994923809E+03  0.25500000920E-02 0.  1.
    10030    2    1    2    0    0  0.00000000000E+00  0.00000000000E+00 -0.59268500857E+02  0.16006299753E+04  0.15995322950E+04 0.  0.
        4    1    3    3  502    0 -0.46610724924E+03  0.64421280732E+03 -0.11547288645E+03  0.80349344074E+03  0.12699999809E+01 0.  1.
       -4    1    3    3    0  502  0.46610724924E+03 -0.64421280732E+03  0.56204385589E+02  0.79713653458E+03  0.12699999809E+01 0. -1.
</event>
<event>
 5   0  0.9432152E-05  0.1600704E+04  0.7818609E-02  0.8820115E-01
        1   -1    0    0  501    0  0.00000000000E+00  0.00000000000E+00  0.68190940902E+03  0.68190940904E+03  0.50400001928E-02 0. -1.
       -1   -1    0    0    0  501  0.00000000000E+00  0.00000000000E+00 -0.93936766760E+03  0.93936766761E+03  0.50400001928E-02 0.  1.
    10030    2    1    2    0    0  0.00000000000E+00  0.00000000000E+00 -0.25745825858E+03  0.16212770766E+04  0.16007044088E+04 0.  0.
        4    1    3    3  502    0 -0.68098554458E+03 -0.32051915949E+03  0.14696061289E+03  0.76685909929E+03  0.12699999809E+01 0. -1.
       -4    1    3    3    0  502  0.68098554458E+03  0.32051915949E+03 -0.40441887147E+03  0.85441797735E+03  0.12699999809E+01 0.  1.
</event>
<event>
 5   0  0.1832646E-04  0.1604454E+04  0.7818609E-02  0.8817816E-01
       -2   -1    0    0    0  501  0.00000000000E+00  0.00000000000E+00  0.49797335727E+03  0.49797335728E+03  0.25500000920E-02 0.  1.
        2   -1    0    0  501    0  0.00000000000E+00  0.00000000000E+00 -0.12923749305E+04  0.12923749305E+04  0.25500000920E-02 0. -1.
    10030    2    1    2    0    0  0.00000000000E+00  0.00000000000E+00 -0.79440157318E+03  0.17903482877E+04  0.16044541539E+04 0.  0.
        2    1    3    3  502    0 -0.69232834102E+02 -0.53357725702E+03 -0.10611808344E+04  0.11897910059E+04  0.25500000920E-02 0. -1.
       -2    1    3    3    0  502  0.69232834102E+02  0.53357725702E+03  0.26677926119E+03  0.60055728181E+03  0.25500000920E-02 0.  1.
</event>
<event>
 5   0  0.9616567E-05  0.1553903E+04  0.7818609E-02  0.8849379E-01
        1   -1    0    0  501    0  0.00000000000E+00  0.00000000000E+00  0.49861745225E+03  0.49861745228E+03  0.50400001928E-02 0.  1.
       -1   -1    0    0    0  501  0.00000000000E+00  0.00000000000E+00 -0.12106541592E+04  0.12106541592E+04  0.50400001928E-02 0. -1.
    10030    2    1    2    0    0  0.00000000000E+00  0.00000000000E+00 -0.71203670697E+03  0.17092716115E+04  0.15539025612E+04 0.  0.
        5    1    3    3  502    0 -0.26317837322E+03 -0.23501923810E+03 -0.11174237139E+04  0.11718168564E+04  0.46999998093E+01 0. -1.
       -5    1    3    3    0  502  0.26317837322E+03  0.23501923810E+03  0.40538700696E+03  0.53745475514E+03  0.46999998093E+01 0.  1.
</event>
<event>
 5   0  0.1914170E-04  0.1607456E+04  0.7818609E-02  0.8815980E-01
        2   -1    0    0  501    0  0.00000000000E+00  0.00000000000E+00  0.15929269054E+04  0.15929269054E+04  0.25500000920E-02 0.  1.
       -2   -1    0    0    0  501  0.00000000000E+00  0.00000000000E+00 -0.40552946173E+03  0.40552946174E+03  0.25500000920E-02 0. -1.
    10030    2    1    2    0    0  0.00000000000E+00  0.00000000000E+00  0.11873974437E+04  0.19984563672E+04  0.16074561152E+04 0.  0.
        3    1    3    3  502    0  0.30188664770E+03  0.20964462582E+03  0.14823272487E+04  0.15272133118E+04  0.10100000352E+00 0.  1.
       -3    1    3    3    0  502 -0.30188664770E+03 -0.20964462582E+03 -0.29492980499E+03  0.47124305541E+03  0.10100000352E+00 0. -1.
</event>
<event>
 5   0  0.9726935E-05  0.1622218E+04  0.7818609E-02  0.8807014E-01
        1   -1    0    0  501    0  0.00000000000E+00  0.00000000000E+00  0.82254326452E+03  0.82254326454E+03  0.50400001928E-02 0.  1.
       -1   -1    0    0    0  501  0.00000000000E+00  0.00000000000E+00 -0.79983335960E+03  0.79983335961E+03  0.50400001928E-02 0. -1.
    10030    2    1    2    0    0  0.00000000000E+00  0.00000000000E+00  0.22709904924E+02  0.16223766242E+04  0.16222176706E+04 0.  0.
        2    1    3    3  502    0  0.15345414182E+02  0.58985239615E+03 -0.54523907725E+03  0.80339715107E+03  0.25500000920E-02 0. -1.
       -2    1    3    3    0  502 -0.15345414182E+02 -0.58985239615E+03  0.56794898217E+03  0.81897947308E+03  0.25500000920E-02 0.  1.
</event>
<event>
 5   0  0.1832646E-04  0.1602248E+04  0.7818609E-02  0.8819168E-01
       -2   -1    0    0    0  501  0.00000000000E+00  0.00000000000E+00  0.10944495537E+04  0.10944495537E+04  0.25500000920E-02 0. -1.
        2   -1    0    0  501    0  0.00000000000E+00  0.00000000000E+00 -0.58641309652E+03  0.58641309652E+03  0.25500000920E-02 0.  1.
    10030    2    1    2    0    0  0.00000000000E+00  0.00000000000E+00  0.50803645722E+03  0.16808626503E+04  0.16022478607E+04 0.  0.
        2    1    3    3  502    0  0.18314354070E+03  0.96185268426E+01  0.10721314460E+04  0.10877039625E+04  0.25500000920E-02 0. -1.
       -2    1    3    3    0  502 -0.18314354070E+03 -0.96185268426E+01 -0.56409498875E+03  0.59315868779E+03  0.25500000920E-02 0.  1.
</event>
<event>
 5   0  0.1774934E-04  0.1600504E+04  0.7818609E-02  0.8820239E-01
       -2   -1    0    0    0  501  0.00000000000E+00  0.00000000000E+00  0.39564319577E+03  0.39564319578E+03  0.25500000920E-02 0.  1.
        2   -1    0    0  501    0  0.00000000000E+00  0.00000000000E+00 -0.16186376771E+04  0.16186376771E+04  0.25500000920E-02 0. -1.
    10030    2    1    2    0    0  0.00000000000E+00  0.00000000000E+00 -0.12229944813E+04  0.20142808729E+04  0.16005036499E+04 0.  0.
        1    1    3    3  502    0  0.49291000830E+03  0.62679394477E+03 -0.52639926709E+03  0.95547219420E+03  0.50400001928E-02 0. -1.
       -1    1    3    3    0  502 -0.49291000830E+03 -0.62679394477E+03 -0.69659521423E+03  0.10588086787E+04  0.50400001928E-02 0.  1.
</event>
<event>
 5   0  0.9939872E-05  0.1548060E+04  0.7818609E-02  0.8853108E-01
       -1   -1    0    0    0  501  0.00000000000E+00  0.00000000000E+00  0.78312849258E+03  0.78312849260E+03  0.50400001928E-02 0.  1.
        1   -1    0    0  501    0  0.00000000000E+00  0.00000000000E+00 -0.76503685422E+03  0.76503685423E+03  0.50400001928E-02 0. -1.
    10030    2    1    2    0    0  0.00000000000E+00  0.00000000000E+00  0.18091638367E+02  0.15481653468E+04  0.15480596351E+04 0.  0.
        3    1    3    3  502    0 -0.39469669706E+03 -0.64425592287E+03  0.17719703866E+03  0.77604766447E+03  0.10100000352E+00 0.  1.
       -3    1    3    3    0  502  0.39469669706E+03  0.64425592287E+03 -0.15910540029E+03  0.77211768236E+03  0.10100000352E+00 0. -1.
</event>
<event>
 5   0  0.9432152E-05  0.1602631E+04  0.7818609E-02  0.8818933E-01
        1   -1    0    0  501    0  0.00000000000E+00  0.00000000000E+00  0.14738117345E+04  0.14738117346E+04  0.50400001928E-02 0.  1.
       -1   -1    0    0    0  501  0.00000000000E+00  0.00000000000E+00 -0.43567755528E+03  0.43567755531E+03  0.50400001928E-02 0. -1.
    10030    2    1    2    0    0  0.00000000000E+00  0.00000000000E+00  0.10381341793E+04  0.19094892899E+04  0.16026312033E+04 0.  0.
        4    1    3    3  502    0 -0.26538057325E+03  0.73576557979E+03  0.72655849002E+03  0.10675517268E+04  0.12699999809E+01 0.  1.
       -4    1    3    3    0  502  0.26538057325E+03 -0.73576557979E+03  0.31157568924E+03  0.84193756306E+03  0.12699999809E+01 0. -1.
</event>
<event>
 5   0  0.1832646E-04  0.1601603E+04  0.7818609E-02  0.8819564E-01
       -2   -1    0    0    0  501  0.00000000000E+00  0.00000000000E+00  0.67177448424E+03  0.67177448424E+03  0.25500000920E-02 0. -1.
        2   -1    0    0  501    0  0.00000000000E+00  0.00000000000E+00 -0.95461013960E+03  0.95461013960E+03  0.25500000920E-02 0.  1.
    10030    2    1    2    0    0  0.00000000000E+00  0.00000000000E+00 -0.28283565536E+03  0.16263846238E+04  0.16016026151E+04 0.  0.
        2    1    3    3  502    0 -0.87758180047E+01  0.49141898916E+03  0.50059348307E+03  0.70154363598E+03  0.25500000920E-02 0. -1.
       -2    1    3    3    0  502  0.87758180047E+01 -0.49141898916E+03 -0.78342913843E+03  0.92484098787E+03  0.25500000920E-02 0.  1.
</event>
<event>
 5   0  0.1858913E-04  0.1595925E+04  0.7818609E-02  0.8823055E-01
        2   -1    0    0  501    0  0.00000000000E+00  0.00000000000E+00  0.84983619696E+03  0.84983619697E+03  0.25500000920E-02 0.  1.
       -2   -1    0    0    0  501  0.00000000000E+00  0.00000000000E+00 -0.74925524641E+03  0.74925524642E+03  0.25500000920E-02 0. -1.
    10030    2    1    2    0    0  0.00000000000E+00  0.00000000000E+00  0.10058095055E+03  0.15990914434E+04  0.15959250975E+04 0.  0.
        4    1    3    3  502    0 -0.34259163984E+03 -0.25467445452E+03 -0.62522401522E+03  0.75705666339E+03  0.12699999809E+01 0. -1.
       -4    1    3    3    0  502  0.34259163984E+03  0.25467445452E+03  0.72580496577E+03  0.84203477999E+03  0.12699999809E+01 0.  1.
</event>
<event>
 5   0  0.1914170E-04  0.1599468E+04  0.7818609E-02  0.8820875E-01
        2   -1    0    0  501    0  0.00000000000E+00  0.00000000000E+00  0.20169874533E+04  0.20169874533E+04  0.25500000920E-02 0.  1.
       -2   -1    0    0    0  501  0.00000000000E+00  0.00000000000E+00 -0.31709397277E+03  0.31709397278E+03  0.25500000920E-02 0. -1.
    10030    2    1    2    0    0  0.00000000000E+00  0.00000000000E+00  0.16998934805E+04  0.23340814260E+04  0.15994681173E+04 0.  0.
        3    1    3    3  502    0  0.77896260609E+03 -0.15633344479E+02  0.58667839675E+03  0.97530441122E+03  0.10100000352E+00 0. -1.
       -3    1    3    3    0  502 -0.77896260609E+03  0.15633344479E+02  0.11132150837E+04  0.13587770148E+04  0.10100000352E+00 0.  1.
</event>
<event>
 5   0  0.1835088E-04  0.1592798E+04  0.7818609E-02  0.8824985E-01
        2   -1    0    0  501    0  0.00000000000E+00  0.00000000000E+00  0.69454738076E+03  0.69454738076E+03  0.25500000920E-02 0. -1.
       -2   -1    0    0    0  501  0.00000000000E+00  0.00000000000E+00 -0.91318653783E+03  0.91318653783E+03  0.25500000920E-02 0.  1.
    10030    2    1    2    0    0  0.00000000000E+00  0.00000000000E+00 -0.21863915707E+03  0.16077339186E+04  0.15927979382E+04 0.  0.
        5    1    3    3  502    0 -0.55623840560E+03 -0.56636685374E+03 -0.17360867459E+03  0.81260977029E+03  0.46999998093E+01 0. -1.
       -5    1    3    3    0  502  0.55623840560E+03  0.56636685374E+03 -0.45030482477E+02  0.79512414831E+03  0.46999998093E+01 0.  1.
</event>
<event>
 5   0  0.9432152E-05  0.1639233E+04  0.7818609E-02  0.8796801E-01
        1   -1    0    0  501    0  0.00000000000E+00  0.00000000000E+00  0.11747685475E+04  0.11747685475E+04  0.50400001928E-02 0.  1.
       -1   -1    0    0    0  501  0.00000000000E+00  0.00000000000E+00 -0.57183310384E+03  0.57183310386E+03  0.50400001928E-02 0. -1.
    10030    2    1    2    0    0  0.00000000000E+00  0.00000000000E+00  0.60293544362E+03  0.17466016513E+04  0.16392334121E+04 0.  0.
        4    1    3    3  502    0  0.47114784301E+02 -0.78052589433E+03  0.56317619160E+03  0.96364387109E+03  0.12699999809E+01 0.  1.
       -4    1    3    3    0  502 -0.47114784301E+02  0.78052589433E+03  0.39759252026E+02  0.78295778024E+03  0.12699999809E+01 0. -1.
</event>
<event>
 5   0  0.9616567E-05  0.1594131E+04  0.7818609E-02  0.8824162E-01
        1   -1    0    0  501    0  0.00000000000E+00  0.00000000000E+00  0.10347712551E+04  0.10347712551E+04  0.50400001928E-02 0. -1.
       -1   -1    0    0    0  501  0.00000000000E+00  0.00000000000E+00 -0.61396477384E+03  0.61396477386E+03  0.50400001928E-02 0.  1.
    10030    2    1    2    0    0  0.00000000000E+00  0.00000000000E+00  0.42080648122E+03  0.16487360289E+04  0.15941306090E+04 0.  0.
        5    1    3    3  502    0 -0.48759728941E+03  0.20188756433E+03  0.82817531421E+03  0.98204182514E+03  0.46999998093E+01 0. -1.
       -5    1    3    3    0  502  0.48759728941E+03 -0.20188756433E+03 -0.40736883299E+03  0.66669420378E+03  0.46999998093E+01 0.  1.
</event>
<event>
 5   0  0.9673017E-05  0.1603815E+04  0.7818609E-02  0.8818208E-01
       -1   -1    0    0    0  501  0.00000000000E+00  0.00000000000E+00  0.56483589280E+03  0.56483589283E+03  0.50400001928E-02 0.  1.
        1   -1    0    0  501    0  0.00000000000E+00  0.00000000000E+00 -0.11384817021E+04  0.11384817022E+04  0.50400001928E-02 0. -1.
    10030    2    1    2    0    0  0.00000000000E+00  0.00000000000E+00 -0.57364580934E+03  0.17033175950E+04  0.16038146136E+04 0.  0.
        1    1    3    3  502    0  0.55965381666E+03  0.46444478813E+03  0.71974203312E+02  0.73082257881E+03  0.50400001928E-02 0.  1.
       -1    1    3    3    0  502 -0.55965381666E+03 -0.46444478813E+03 -0.64562001265E+03  0.97249501618E+03  0.50400001928E-02 0. -1.
</event>
<event>
 5   0  0.1858913E-04  0.1590216E+04  0.7818609E-02  0.8826581E-01
       -2   -1    0    0    0  501  0.00000000000E+00  0.00000000000E+00  0.80967307795E+03  0.80967307795E+03  0.25500000920E-02 0.  1.
        2   -1    0    0  501    0  0.00000000000E+00  0.00000000000E+00 -0.78080524353E+03  0.78080524354E+03  0.25500000920E-02 0. -1.
    10030    2    1    2    0    0  0.00000000000E+00  0.00000000000E+00  0.28867834412E+02  0.15904783215E+04  0.15902163184E+04 0.  0.
        4    1    3    3  502    0  0.53085339137E+03  0.59088722817E+03 -0.20818625673E+02  0.79459931262E+03  0.12699999809E+01 0. -1.
       -4    1    3    3    0  502 -0.53085339137E+03 -0.59088722817E+03  0.49686460085E+02  0.79587900887E+03  0.12699999809E+01 0.  1.
</event>
<event>
 5   0  0.1858913E-04  0.1598068E+04  0.7818609E-02  0.8821736E-01
       -2   -1    0    0    0  501  0.00000000000E+00  0.00000000000E+00  0.56732891539E+03  0.56732891539E+03  0.25500000920E-02 0. -1.
        2   -1    0    0  501    0  0.00000000000E+00  0.00000000000E+00 -0.11253704597E+04  0.11253704597E+04  0.25500000920E-02 0.  1.
    10030    2    1    2    0    0  0.00000000000E+00  0.00000000000E+00 -0.55804154432E+03  0.16926993751E+04  0.15980678363E+04 0.  0.
        4    1    3    3  502    0 -0.35740729479E+03 -0.14470101242E+03  0.46226050772E+03  0.60196739718E+03  0.12699999809E+01 0. -1.
       -4    1    3    3    0  502  0.35740729479E+03  0.14470101242E+03 -0.10203020520E+04  0.10907319779E+04  0.12699999809E+01 0.  1.
</event>
<event>
 5   0  0.9616567E-05  0.1602158E+04  0.7818609E-02  0.8819223E-01
       -1   -1    0    0    0  501  0.00000000000E+00  0.00000000000E+00  0.12028715801E+04  0.12028715801E+04  0.50400001928E-02 0.  1.
        1   -1    0    0  501    0  0.00000000000E+00  0.00000000000E+00 -0.53349656366E+03  0.53349656369E+03  0.50400001928E-02 0. -1.
    10030    2    1    2    0    0  0.00000000000E+00  0.00000000000E+00  0.66937501645E+03  0.17363681438E+04  0.16021583624E+04 0.  0.
        5    1    3    3  502    0  0.29688079294E+01  0.50984028992E+03  0.10043122356E+04  0.11263263700E+04  0.46999998093E+01 0.  1.
       -5    1    3    3    0  502 -0.29688079294E+01 -0.50984028992E+03 -0.33493721918E+03  0.61004177385E+03  0.46999998093E+01 0. -1.
</event>
<event>
 5   0  0.1832646E-04  0.1644672E+04  0.7818609E-02  0.8793564E-01
       -2   -1    0    0    0  501  0.00000000000E+00  0.00000000000E+00  0.44344900255E+03  0.44344900256E+03  0.25500000920E-02 0.  1.
        2   -1    0    0  501    0  0.00000000000E+00  0.00000000000E+00 -0.15249483393E+04  0.15249483393E+04  0.25500000920E-02 0. -1.
    10030    2    1    2    0    0  0.00000000000E+00  0.00000000000E+00 -0.10814993367E+04  0.19683973418E+04  0.16446723929E+04 0.  0.
        2    1    3    3  502    0 -0.73845405420E+03 -0.82252993035E+02 -0.11903495474E+03  0.75249535911E+03  0.25500000920E-02 0.  1.
       -2    1    3    3    0  502  0.73845405420E+03  0.82252993035E+02 -0.96246438199E+03  0.12159019827E+04  0.25500000920E-02 0. -1.
</event>
<event>
 5   0  0.9726935E-05  0.1599487E+04  0.7818609E-02  0.8820863E-01
        1   -1    0    0  501    0  0.00000000000E+00  0.00000000000E+00  0.85572565685E+03  0.85572565687E+03  0.50400001928E-02 0. -1.
       -1   -1    0    0    0  501  0.00000000000E+00  0.00000000000E+00 -0.74742388890E+03  0.74742388891E+03  0.50400001928E-02 0.  1.
    10030    2    1    2    0    0  0.00000000000E+00  0.00000000000E+00  0.10830176796E+03  0.16031495458E+04  0.15994871657E+04 0.  0.
        2    1    3    3  502    0  0.13118659131E+03  0.66022802698E+03 -0.37866983615E+03  0.77233529905E+03  0.25500000920E-02 0.  1.
       -2    1    3    3    0  502 -0.13118659131E+03 -0.66022802698E+03  0.48697160410E+03  0.83081424673E+03  0.25500000920E-02 0. -1.
</event>
<event>
 5   0  0.9939872E-05  0.1630982E+04  0.7818609E-02  0.8801738E-01
        1   -1    0    0  501    0  0.00000000000E+00  0.00000000000E+00  0.11085322890E+04  0.11085322890E+04  0.50400001928E-02 0. -1.
       -1   -1    0    0    0  501  0.00000000000E+00  0.00000000000E+00 -0.59991509340E+03  0.59991509342E+03  0.50400001928E-02 0.  1.
    10030    2    1    2    0    0  0.00000000000E+00  0.00000000000E+00  0.50861719558E+03  0.17084473824E+04  0.16309816084E+04 0.  0.
        3    1    3    3  502    0 -0.20401892219E+03 -0.68026044616E+03 -0.16553659676E+03  0.72923272711E+03  0.10100000352E+00 0.  1.
       -3    1    3    3    0  502  0.20401892219E+03  0.68026044616E+03  0.67415379235E+03  0.97921465530E+03  0.10100000352E+00 0. -1.
</event>
<event>
 5   0  0.1835088E-04  0.1600395E+04  0.7818609E-02  0.8820305E-01
        2   -1    0    0  501    0  0.00000000000E+00  0.00000000000E+00  0.23991298757E+04  0.23991298757E+04  0.25500000920E-02 0. -1.
       -2   -1    0    0    0  501  0.00000000000E+00  0.00000000000E+00 -0.26689519590E+03  0.26689519591E+03  0.25500000920E-02 0.  1.
    10030    2    1    2    0    0  0.00000000000E+00  0.00000000000E+00  0.21322346798E+04  0.26660250716E+04  0.16003952489E+04 0.  0.
        5    1    3    3  502    0 -0.31504167909E+03 -0.16958562561E+02  0.22911209441E+04  0.23127464459E+04  0.46999998093E+01 0. -1.
       -5    1    3    3    0  502  0.31504167909E+03  0.16958562561E+02 -0.15888626431E+03  0.35327862573E+03  0.46999998093E+01 0.  1.
</event>
<event>
 5   0  0.1774934E-04  0.1598985E+04  0.7818609E-02  0.8821172E-01
        2   -1    0    0  501    0  0.00000000000E+00  0.00000000000E+00  0.43594571754E+03  0.43594571755E+03  0.25500000920E-02 0.  1.
       -2   -1    0    0    0  501  0.00000000000E+00  0.00000000000E+00 -0.14662112020E+04  0.14662112020E+04  0.25500000920E-02 0. -1.
    10030    2    1    2    0    0  0.00000000000E+00  0.00000000000E+00 -0.10302654844E+04  0.19021569195E+04  0.15989852964E+04 0.  0.
        1    1    3    3  502    0 -0.38567841944E+03 -0.41717019231E+03  0.15402229776E+03  0.58864393381E+03  0.50400001928E-02 0.  1.
       -1    1    3    3    0  502  0.38567841944E+03  0.41717019231E+03 -0.11842877822E+04  0.13135129857E+04  0.50400001928E-02 0. -1.
</event>
<event>
 5   0  0.9432152E-05  0.1577865E+04  0.7818609E-02  0.8834263E-01
        1   -1    0    0  501    0  0.00000000000E+00  0.00000000000E+00  0.12281767269E+04  0.12281767269E+04  0.50400001928E-02 0.  1.
       -1   -1    0    0    0  501  0.00000000000E+00  0.00000000000E+00 -0.50677933901E+03  0.50677933903E+03  0.50400001928E-02 0. -1.
    10030    2    1    2    0    0  0.00000000000E+00  0.00000000000E+00  0.72139738791E+03  0.17349560660E+04  0.15778651272E+04 0.  0.
        4    1    3    3  502    0 -0.30779455841E+03  0.68938298167E+03  0.61246314898E+03  0.97216207875E+03  0.12699999809E+01 0.  1.
       -4    1    3    3    0  502  0.30779455841E+03 -0.68938298167E+03  0.10893423893E+03  0.76279398721E+03  0.12699999809E+01 0. -1.
</event>
<event>
 5   0  0.9432152E-05  0.1596237E+04  0.7818609E-02  0.8822863E-01
       -1   -1    0    0    0  501  0.00000000000E+00  0.00000000000E+00  0.75821742246E+03  0.75821742248E+03  0.50400001928E-02 0. -1.
        1   -1    0    0  501    0  0.00000000000E+00  0.00000000000E+00 -0.84011895448E+03  0.84011895450E+03  0.50400001928E-02 0.  1.
    10030    2    1    2    0    0  0.00000000000E+00  0.00000000000E+00 -0.81901532023E+02  0.15983363770E+04  0.15962366093E+04 0.  0.
        4    1    3    3  502    0  0.72527020333E+03  0.10431020105E+03  0.27584134097E+03  0.78293521071E+03  0.12699999809E+01 0. -1.
       -4    1    3    3    0  502 -0.72527020333E+03 -0.10431020105E+03 -0.35774287299E+03  0.81540116627E+03  0.12699999809E+01 0.  1.
</event>
<event>
 5   0  0.9616567E-05  0.1558463E+04  0.7818609E-02  0.8846480E-01
       -1   -1    0    0    0  501  0.00000000000E+00  0.00000000000E+00  0.92277473228E+03  0.92277473229E+03  0.50400001928E-02 0. -1.
        1   -1    0    0  501    0  0.00000000000E+00  0.00000000000E+00 -0.65801751944E+03  0.65801751946E+03  0.50400001928E-02 0.  1.
    10030    2    1    2    0    0  0.00000000000E+00  0.00000000000E+00  0.26475721284E+03  0.15807922517E+04  0.15584632692E+04 0.  0.
        5    1    3    3  502    0  0.76158612823E+02  0.75979809379E+03 -0.25043504581E+02  0.76403046062E+03  0.46999998093E+01 0.  1.
       -5    1    3    3    0  502 -0.76158612823E+02 -0.75979809379E+03  0.28980071742E+03  0.81676179113E+03  0.46999998093E+01 0. -1.
</event>
<event>
 5   0  0.1858913E-04  0.1601111E+04  0.7818609E-02  0.8819866E-01
        2   -1    0    0  501    0  0.00000000000E+00  0.00000000000E+00  0.89097187208E+03  0.89097187209E+03  0.25500000920E-02 0.  1.
       -2   -1    0    0    0  501  0.00000000000E+00  0.00000000000E+00 -0.71931436758E+03  0.71931436758E+03  0.25500000920E-02 0. -1.
    10030    2    1    2    0    0  0.00000000000E+00  0.00000000000E+00  0.17165750451E+03  0.16102862397E+04  0.16011107004E+04 0.  0.
        4    1    3    3  502    0  0.66526367228E+03  0.34790241188E+03 -0.19374886031E+03  0.77533997421E+03  0.12699999809E+01 0.  1.
       -4    1    3    3    0  502 -0.66526367228E+03 -0.34790241188E+03  0.36540636482E+03  0.83494626545E+03  0.12699999809E+01 0. -1.
</event>
<event>
 5   0  0.9616567E-05  0.1603065E+04  0.7818609E-02  0.8818667E-01
        1   -1    0    0  501    0  0.00000000000E+00  0.00000000000E+00  0.19017086393E+04  0.19017086394E+04  0.50400001928E-02 0. -1.
       -1   -1    0    0    0  501  0.00000000000E+00  0.00000000000E+00 -0.33782992421E+03  0.33782992425E+03  0.50400001928E-02 0.  1.
    10030    2    1    2    0    0  0.00000000000E+00  0.00000000000E+00  0.15638787151E+04  0.22395385636E+04  0.16030646719E+04 0.  0.
        5    1    3    3  502    0 -0.23834323152E+03  0.75102532290E+03  0.57668698062E+03  0.97644072798E+03  0.46999998093E+01 0. -1.
       -5    1    3    3    0  502  0.23834323152E+03 -0.75102532290E+03  0.98719173452E+03  0.12630978356E+04  0.46999998093E+01 0.  1.
</event>
<event>
 5   0  0.1914170E-04  0.1600815E+04  0.7818609E-02  0.8820048E-01
        2   -1    0    0  501    0  0.00000000000E+00  0.00000000000E+00  0.15178250958E+04  0.15178250958E+04  0.25500000920E-02 0. -1.
       -2   -1    0    0    0  501  0.00000000000E+00  0.00000000000E+00 -0.42208552128E+03  0.42208552128E+03  0.25500000920E-02 0.  1.
    10030    2    1    2    0    0  0.00000000000E+00  0.00000000000E+00  0.10957395745E+04  0.19399106171E+04  0.16008147885E+04 0.  0.
        3    1    3    3  502    0  0.16947214954E+03  0.25213667084E+03 -0.34950287204E+03  0.46308312215E+03  0.10100000352E+00 0.  1.
       -3    1    3    3    0  502 -0.16947214954E+03 -0.25213667084E+03  0.14452424465E+04  0.14768274949E+04  0.10100000352E+00 0. -1.
</event>
<event>
 5   0  0.1914170E-04  0.1601418E+04  0.7818609E-02  0.8819677E-01
        2   -1    0    0  501    0  0.00000000000E+00  0.00000000000E+00  0.89983144834E+03  0.89983144835E+03  0.25500000920E-02 0.  1.
       -2   -1    0    0    0  501  0.00000000000E+00  0.00000000000E+00 -0.71250547731E+03  0.71250547731E+03  0.25500000920E-02 0. -1.
    10030    2    1    2    0    0  0.00000000000E+00  0.00000000000E+00  0.18732597103E+03  0.16123369257E+04  0.16014179162E+04 0.  0.
        3    1    3    3  502    0 -0.24930809184E+03 -0.89198806331E+02 -0.66715058467E+03  0.71777494002E+03  0.10100000352E+00 0. -1.
       -3    1    3    3    0  502  0.24930809184E+03  0.89198806331E+02  0.85447655570E+03  0.89456198564E+03  0.10100000352E+00 0.  1.
</event>
<event>
 5   0  0.6838750E-05  0.1599754E+04  0.7818609E-02  0.8820699E-01
        3   -1    0    0  501    0  0.00000000000E+00  0.00000000000E+00  0.40145829792E+03  0.40145831063E+03  0.10100000352E+00 0.  1.
       -3   -1    0    0    0  501  0.00000000000E+00  0.00000000000E+00 -0.15936975212E+04  0.15936975244E+04  0.10100000352E+00 0. -1.
    10030    2    1    2    0    0  0.00000000000E+00  0.00000000000E+00 -0.11922392232E+04  0.19951558350E+04  0.15997538687E+04 0.  0.
        4    1    3    3  502    0  0.79039427507E+03 -0.10473097541E+03 -0.67607256717E+03  0.10453551627E+04  0.12699999809E+01 0. -1.
       -4    1    3    3    0  502 -0.79039427507E+03  0.10473097541E+03 -0.51616665607E+03  0.94980067226E+03  0.12699999809E+01 0.  1.
</event>
<event>
 5   0  0.9616567E-05  0.1592464E+04  0.7818609E-02  0.8825191E-01
        1   -1    0    0  501    0  0.00000000000E+00  0.00000000000E+00  0.12351811371E+04  0.12351811371E+04  0.50400001928E-02 0. -1.
       -1   -1    0    0    0  501  0.00000000000E+00  0.00000000000E+00 -0.51327319822E+03  0.51327319824E+03  0.50400001928E-02 0.  1.
    10030    2    1    2    0    0  0.00000000000E+00  0.00000000000E+00  0.72190793888E+03  0.17484543354E+04  0.15924639684E+04 0.  0.
        5    1    3    3  502    0 -0.58838800891E+03 -0.15838563256E+03  0.92367812586E+03  0.11065666848E+04  0.46999998093E+01 0. -1.
       -5    1    3    3    0  502  0.58838800891E+03  0.15838563256E+03 -0.20177018698E+03  0.64188765059E+03  0.46999998093E+01 0.  1.
</event>
<event>
 5   0  0.1914170E-04  0.1598303E+04  0.7818609E-02  0.8821591E-01
        2   -1    0    0  501    0  0.00000000000E+00  0.00000000000E+00  0.13132246633E+04  0.13132246633E+04  0.25500000920E-02 0. -1.
       -2   -1    0    0    0  501  0.00000000000E+00  0.00000000000E+00 -0.48631701225E+03  0.48631701225E+03  0.25500000920E-02 0.  1.
    10030    2    1    2    0    0  0.00000000000E+00  0.00000000000E+00  0.82690765106E+03  0.17995416756E+04  0.15983034689E+04 0.  0.
        3    1    3    3  502    0 -0.29997035833E+03  0.91939757281E+02 -0.41407534781E+03  0.51951278974E+03  0.10100000352E+00 0.  1.
       -3    1    3    3    0  502  0.29997035833E+03 -0.91939757281E+02  0.12409829989E+04  0.12800288858E+04  0.10100000352E+00 0. -1.
</event>
<event>
 5   0  0.6838750E-05  0.1603645E+04  0.7818609E-02  0.8818312E-01
       -3   -1    0    0    0  501  0.00000000000E+00  0.00000000000E+00  0.72069165276E+03  0.72069165984E+03  0.10100000352E+00 0. -1.
        3   -1    0    0  501    0  0.00000000000E+00  0.00000000000E+00 -0.89208625728E+03  0.89208626299E+03  0.10100000352E+00 0.  1.
    10030    2    1    2    0    0  0.00000000000E+00  0.00000000000E+00 -0.17139460451E+03  0.16127779228E+04  0.16036447605E+04 0.  0.
        1    1    3    3  502    0 -0.30633661362E+03 -0.39275328864E+03 -0.71762442616E+03  0.87354569636E+03  0.50400001928E-02 0.  1.
       -1    1    3    3    0  502  0.30633661362E+03  0.39275328864E+03  0.54622982164E+03  0.73923222648E+03  0.50400001928E-02 0. -1.
</event>
<event>
 5   0  0.1832646E-04  0.1610080E+04  0.7818609E-02  0.8814379E-01
       -2   -1    0    0    0  501  0.00000000000E+00  0.00000000000E+00  0.99428774111E+03  0.99428774111E+03  0.25500000920E-02 0. -1.
        2   -1    0    0  501    0  0.00000000000E+00  0.00000000000E+00 -0.65181303205E+03  0.65181303206E+03  0.25500000920E-02 0.  1.
    10030    2    1    2    0    0  0.00000000000E+00  0.00000000000E+00  0.34247470906E+03  0.16461007732E+04  0.16100803797E+04 0.  0.
        2    1    3    3  502    0  0.30890812996E+02 -0.53097596666E+03 -0.44660010818E+03  0.69450801012E+03  0.25500000920E-02 0.  1.
       -2    1    3    3    0  502 -0.30890812996E+02  0.53097596666E+03  0.78907481723E+03  0.95159276305E+03  0.25500000920E-02 0. -1.
</event>
<event>
 5   0  0.1774934E-04  0.1612518E+04  0.7818609E-02  0.8812894E-01
       -2   -1    0    0    0  501  0.00000000000E+00  0.00000000000E+00  0.10291145075E+04  0.10291145075E+04  0.25500000920E-02 0. -1.
        2   -1    0    0  501    0  0.00000000000E+00  0.00000000000E+00 -0.63166317575E+03  0.63166317575E+03  0.25500000920E-02 0.  1.
    10030    2    1    2    0    0  0.00000000000E+00  0.00000000000E+00  0.39745133171E+03  0.16607776832E+04  0.16125182021E+04 0.  0.
        1    1    3    3  502    0  0.24548992124E+03  0.75504711346E+03  0.54196658755E+02  0.79580068033E+03  0.50400001928E-02 0.  1.
       -1    1    3    3    0  502 -0.24548992124E+03 -0.75504711346E+03  0.34325467296E+03  0.86497700288E+03  0.50400001928E-02 0. -1.
</event>
<event>
 5   0  0.9673017E-05  0.1609191E+04  0.7818609E-02  0.8814921E-01
       -1   -1    0    0    0  501  0.00000000000E+00  0.00000000000E+00  0.60297739436E+03  0.60297739438E+03  0.50400001928E-02 0.  1.
        1   -1    0    0  501    0  0.00000000000E+00  0.00000000000E+00 -0.10736293258E+04  0.10736293259E+04  0.50400001928E-02 0. -1.
    10030    2    1    2    0    0  0.00000000000E+00  0.00000000000E+00 -0.47065193149E+03  0.16766067202E+04  0.16091913664E+04 0.  0.
        1    1    3    3  502    0  0.35242143388E+03  0.39515741829E+03 -0.86653138337E+03  0.10154934223E+04  0.50400001928E-02 0. -1.
       -1    1    3    3    0  502 -0.35242143388E+03 -0.39515741829E+03  0.39587945188E+03  0.66111329796E+03  0.50400001928E-02 0.  1.
</event>
<event>
 5   0  0.1858913E-04  0.1586478E+04  0.7818609E-02  0.8828899E-01
       -2   -1    0    0    0  501  0.00000000000E+00  0.00000000000E+00  0.42138506849E+03  0.42138506849E+03  0.25500000920E-02 0. -1.
        2   -1    0    0  501    0  0.00000000000E+00  0.00000000000E+00 -0.14932368891E+04  0.14932368891E+04  0.25500000920E-02 0.  1.
    10030    2    1    2    0    0  0.00000000000E+00  0.00000000000E+00 -0.10718518206E+04  0.19146219576E+04  0.15864775180E+04 0.  0.
        4    1    3    3  502    0  0.71804616168E+03 -0.11668200421E+03 -0.91760204329E+03  0.11709825375E+04  0.12699999809E+01 0.  1.
       -4    1    3    3    0  502 -0.71804616168E+03  0.11668200421E+03 -0.15424977733E+03  0.74363942009E+03  0.12699999809E+01 0. -1.
</event>
<event>
 5   0  0.1858913E-04  0.1601338E+04  0.7818609E-02  0.8819727E-01
        2   -1    0    0  501    0  0.00000000000E+00  0.00000000000E+00  0.10998443808E+04  0.10998443808E+04  0.25500000920E-02 0.  1.
       -2   -1    0    0    0  501  0.00000000000E+00  0.00000000000E+00 -0.58287399769E+03  0.58287399770E+03  0.25500000920E-02 0. -1.
    10030    2    1    2    0    0  0.00000000000E+00  0.00000000000E+00  0.51697038309E+03  0.16827183785E+04  0.16013378045E+04 0.  0.
        4    1    3    3  502    0 -0.23592869256E+03 -0.75876857113E+03  0.36185614689E+03  0.87311716079E+03  0.12699999809E+01 0.  1.
       -4    1    3    3    0  502  0.23592869256E+03  0.75876857113E+03  0.15511423620E+03  0.80960121769E+03  0.12699999809E+01 0. -1.
</event>
<event>
 5   0  0.1835088E-04  0.1608135E+04  0.7818609E-02  0.8815566E-01
       -2   -1    0    0    0  501  0.00000000000E+00  0.00000000000E+00  0.54970346550E+03  0.54970346551E+03  0.25500000920E-02 0. -1.
        2   -1    0    0  501    0  0.00000000000E+00  0.00000000000E+00 -0.11761334931E+04  0.11761334931E+04  0.25500000920E-02 0.  1.
    10030    2    1    2    0    0  0.00000000000E+00  0.00000000000E+00 -0.62643002759E+03  0.17258369586E+04  0.16081351399E+04 0.  0.
        5    1    3    3  502    0 -0.20405895430E+03  0.56259813943E+02 -0.11456805640E+04  0.11650799407E+04  0.46999998093E+01 0.  1.
       -5    1    3    3    0  502  0.20405895430E+03 -0.56259813943E+02  0.51925053644E+03  0.56075701787E+03  0.46999998093E+01 0. -1.
</event>
<event>
 5   0  0.9432152E-05  0.1599145E+04  0.7818609E-02  0.8821074E-01
        1   -1    0    0  501    0  0.00000000000E+00  0.00000000000E+00  0.42659431610E+03  0.42659431613E+03  0.50400001928E-02 0. -1.
       -1   -1    0    0    0  501  0.00000000000E+00  0.00000000000E+00 -0.14986511527E+04  0.14986511527E+04  0.50400001928E-02 0.  1.
    10030    2    1    2    0    0  0.00000000000E+00  0.00000000000E+00 -0.10720568366E+04  0.19252454689E+04  0.15991448510E+04 0.  0.
        4    1    3    3  502    0 -0.66389925455E+02 -0.19880502733E+02 -0.14950272696E+04  0.14966332237E+04  0.12699999809E+01 0.  1.
       -4    1    3    3    0  502  0.66389925455E+02  0.19880502733E+02  0.42297043299E+03  0.42861224513E+03  0.12699999809E+01 0. -1.
</event>
<event>
 5   0  0.9726935E-05  0.1596147E+04  0.7818609E-02  0.8822918E-01
        1   -1    0    0  501    0  0.00000000000E+00  0.00000000000E+00  0.84679338882E+03  0.84679338884E+03  0.50400001928E-02 0. -1.
       -1   -1    0    0    0  501  0.00000000000E+00  0.00000000000E+00 -0.75215699141E+03  0.75215699143E+03  0.50400001928E-02 0.  1.
    10030    2    1    2    0    0  0.00000000000E+00  0.00000000000E+00  0.94636397408E+02  0.15989503803E+04  0.15961473212E+04 0.  0.
        2    1    3    3  502    0  0.90851295971E+02  0.44595007003E+03 -0.60942150254E+03  0.76060501622E+03  0.25500000920E-02 0.  1.
       -2    1    3    3    0  502 -0.90851295971E+02 -0.44595007003E+03  0.70405789994E+03  0.83834536405E+03  0.25500000920E-02 0. -1.
</event>
<event>
 5   0  0.1914170E-04  0.1589687E+04  0.7818609E-02  0.8826909E-01
       -2   -1    0    0    0  501  0.00000000000E+00  0.00000000000E+00  0.47129505568E+03  0.47129505569E+03  0.25500000920E-02 0.  1.
        2   -1    0    0  501    0  0.00000000000E+00  0.00000000000E+00 -0.13405108945E+04  0.13405108945E+04  0.25500000920E-02 0. -1.
    10030    2    1    2    0    0  0.00000000000E+00  0.00000000000E+00 -0.86921583887E+03  0.18118059502E+04  0.15896869587E+04 0.  0.
        3    1    3    3  502    0 -0.28537756369E+03 -0.71810953175E+03 -0.64677590120E+03  0.10076907909E+04  0.10100000352E+00 0. -1.
       -3    1    3    3    0  502  0.28537756369E+03  0.71810953175E+03 -0.22243993767E+03  0.80411515936E+03  0.10100000352E+00 0.  1.
</event>
<event>
 5   0  0.1858913E-04  0.1630835E+04  0.7818609E-02  0.8801826E-01
       -2   -1    0    0    0  501  0.00000000000E+00  0.00000000000E+00  0.10613976253E+04  0.10613976253E+04  0.25500000920E-02 0. -1.
        2   -1    0    0  501    0  0.00000000000E+00  0.00000000000E+00 -0.62644363717E+03  0.62644363718E+03  0.25500000920E-02 0.  1.
    10030    2    1    2    0    0  0.00000000000E+00  0.00000000000E+00  0.43495398814E+03  0.16878412625E+04  0.16308351099E+04 0.  0.
        4    1    3    3  502    0  0.39105991957E+03 -0.64772427182E+03  0.53212649263E+03  0.92500530272E+03  0.12699999809E+01 0. -1.
       -4    1    3    3    0  502 -0.39105991957E+03  0.64772427182E+03 -0.97172504485E+02  0.76283595977E+03  0.12699999809E+01 0.  1.
</event>
<event>
 5   0  0.1858913E-04  0.1607530E+04  0.7818609E-02  0.8815935E-01
       -2   -1    0    0    0  501  0.00000000000E+00  0.00000000000E+00  0.11521464698E+04  0.11521464698E+04  0.25500000920E-02 0. -1.
        2   -1    0    0  501    0  0.00000000000E+00  0.00000000000E+00 -0.56072607620E+03  0.56072607620E+03  0.25500000920E-02 0.  1.
    10030    2    1    2    0    0  0.00000000000E+00  0.00000000000E+00  0.59142039358E+03  0.17128725460E+04  0.16075304902E+04 0.  0.
        4    1    3    3  502    0 -0.21953340754E+01 -0.12073690432E+03  0.11424245898E+04  0.11487897004E+04  0.12699999809E+01 0. -1.
       -4    1    3    3    0  502  0.21953340754E+01  0.12073690432E+03 -0.55100419619E+03  0.56408284558E+03  0.12699999809E+01 0.  1.
</event>
<event>
 5   0  0.9939872E-05  0.1609787E+04  0.7818609E-02  0.8814558E-01
        1   -1    0    0  501    0  0.00000000000E+00  0.00000000000E+00  0.52451156817E+03  0.52451156819E+03  0.50400001928E-02 0.  1.
       -1   -1    0    0    0  501  0.00000000000E+00  0.00000000000E+00 -0.12351552058E+04  0.12351552059E+04  0.50400001928E-02 0. -1.
    10030    2    1    2    0    0  0.00000000000E+00  0.00000000000E+00 -0.71064363768E+03  0.17596667740E+04  0.16097865622E+04 0.  0.
        3    1    3    3  502    0  0.67652631203E+03 -0.11601170472E+03 -0.81482502141E+03  0.10654043327E+04  0.10100000352E+00 0. -1.
       -3    1    3    3    0  502 -0.67652631203E+03  0.11601170472E+03  0.10418138372E+03  0.69426244131E+03  0.10100000352E+00 0.  1.
</event>
<event>
 5   0  0.9673017E-05  0.1589355E+04  0.7818609E-02  0.8827114E-01
       -1   -1    0    0    0  501  0.00000000000E+00  0.00000000000E+00  0.67288507276E+03  0.67288507278E+03  0.50400001928E-02 0. -1.
        1   -1    0    0  501    0  0.00000000000E+00  0.00000000000E+00 -0.93851465293E+03  0.93851465294E+03  0.50400001928E-02 0.  1.
    10030    2    1    2    0    0  0.00000000000E+00  0.00000000000E+00 -0.26562958016E+03  0.16113997257E+04  0.15893552159E+04 0.  0.
        1    1    3    3  502    0 -0.69745296308E+02  0.10989715608E+03 -0.92763379458E+03  0.93672100870E+03  0.50400001928E-02 0.  1.
       -1    1    3    3    0  502  0.69745296308E+02 -0.10989715608E+03  0.66200421442E+03  0.67467871702E+03  0.50400001928E-02 0. -1.
</event>
<event>
 5   0  0.9726935E-05  0.1590032E+04  0.7818609E-02  0.8826695E-01
       -1   -1    0    0    0  501  0.00000000000E+00  0.00000000000E+00  0.50531855405E+03  0.50531855407E+03  0.50400001928E-02 0.  1.
        1   -1    0    0  501    0  0.00000000000E+00  0.00000000000E+00 -0.12507954922E+04  0.12507954922E+04  0.50400001928E-02 0. -1.
    10030    2    1    2    0    0  0.00000000000E+00  0.00000000000E+00 -0.74547693816E+03  0.17561140463E+04  0.15900316595E+04 0.  0.
        2    1    3    3  502    0  0.29046877793E+02  0.66270011860E+03  0.11125236969E+03  0.67260111364E+03  0.25500000920E-02 0.  1.
       -2    1    3    3    0  502 -0.29046877793E+02 -0.66270011860E+03 -0.85672930785E+03  0.10835129327E+04  0.25500000920E-02 0. -1.
</event>
<event>
 5   0  0.1774934E-04  0.1601474E+04  0.7818609E-02  0.8819643E-01
       -2   -1    0    0    0  501  0.00000000000E+00  0.00000000000E+00  0.69015652708E+03  0.69015652708E+03  0.25500000920E-02 0.  1.
        2   -1    0    0  501    0  0.00000000000E+00  0.00000000000E+00 -0.92903527323E+03  0.92903527324E+03  0.25500000920E-02 0. -1.
    10030    2    1    2    0    0  0.00000000000E+00  0.00000000000E+00 -0.23887874616E+03  0.16191918003E+04  0.16014740182E+04 0.  0.
        1    1    3    3  502    0 -0.75407476660E+02 -0.21223759510E+03  0.65746841361E+03  0.69497899194E+03  0.50400001928E-02 0.  1.
       -1    1    3    3    0  502  0.75407476660E+02  0.21223759510E+03 -0.89634715977E+03  0.92421280838E+03  0.50400001928E-02 0. -1.
</event>
<event>
 5   0  0.1858913E-04  0.1600709E+04  0.7818609E-02  0.8820113E-01
        2   -1    0    0  501    0  0.00000000000E+00  0.00000000000E+00  0.23494959003E+04  0.23494959003E+04  0.25500000920E-02 0. -1.
       -2   -1    0    0    0  501  0.00000000000E+00  0.00000000000E+00 -0.27264023191E+03  0.27264023192E+03  0.25500000920E-02 0.  1.
    10030    2    1    2    0    0  0.00000000000E+00  0.00000000000E+00  0.20768556684E+04  0.26221361322E+04  0.16007087270E+04 0.  0.
        4    1    3    3  502    0 -0.11312974837E+03 -0.75836780956E+03  0.14142853322E+04  0.16087649575E+04  0.12699999809E+01 0.  1.
       -4    1    3    3    0  502  0.11312974837E+03  0.75836780956E+03  0.66257033615E+03  0.10133711747E+04  0.12699999809E+01 0. -1.
</event>
<event>
 5   0  0.9616567E-05  0.1602623E+04  0.7818609E-02  0.8818938E-01
       -1   -1    0    0    0  501  0.00000000000E+00  0.00000000000E+00  0.84271461447E+03  0.84271461449E+03  0.50400001928E-02 0. -1.
        1   -1    0    0  501    0  0.00000000000E+00  0.00000000000E+00 -0.76194277366E+03  0.76194277368E+03  0.50400001928E-02 0.  1.
    10030    2    1    2    0    0  0.00000000000E+00  0.00000000000E+00  0.80771840810E+02  0.16046573882E+04  0.16026232380E+04 0.  0.
        5    1    3    3  502    0 -0.65304045351E+03 -0.27498936661E+03  0.41502287430E+03  0.82118637462E+03  0.46999998093E+01 0. -1.
       -5    1    3    3    0  502  0.65304045351E+03  0.27498936661E+03 -0.33425103349E+03  0.78347101354E+03  0.46999998093E+01 0.  1.
</event>
<event>
 5   0  0.1774934E-04  0.1599813E+04  0.7818609E-02  0.8820663E-01
       -2   -1    0    0    0  501  0.00000000000E+00  0.00000000000E+00  0.11041268046E+04  0.11041268046E+04  0.25500000920E-02 0. -1.
        2   -1    0    0  501    0  0.00000000000E+00  0.00000000000E+00 -0.57950835213E+03  0.57950835213E+03  0.25500000920E-02 0.  1.
    10030    2    1    2    0    0  0.00000000000E+00  0.00000000000E+00  0.52461845249E+03  0.16836351568E+04  0.15998133705E+04 0.  0.
        1    1    3    3  502    0 -0.57563845000E+03 -0.31785596922E+03  0.74165008642E+03  0.99117954630E+03  0.50400001928E-02 0. -1.
       -1    1    3    3    0  502  0.57563845000E+03  0.31785596922E+03 -0.21703163394E+03  0.69245561045E+03  0.50400001928E-02 0.  1.
</event>
<event>
 5   0  0.9939872E-05  0.1599627E+04  0.7818609E-02  0.8820777E-01
        1   -1    0    0  501    0  0.00000000000E+00  0.00000000000E+00  0.99476910080E+03  0.99476910082E+03  0.50400001928E-02 0.  1.
       -1   -1    0    0    0  501  0.00000000000E+00  0.00000000000E+00 -0.64306542133E+03  0.64306542135E+03  0.50400001928E-02 0. -1.
    10030    2    1    2    0    0  0.00000000000E+00  0.00000000000E+00  0.35170367947E+03  0.16378345222E+04  0.15996269702E+04 0.  0.
        3    1    3    3  502    0  0.44936425156E+01 -0.79445840255E+03  0.27034516159E+03  0.83920847398E+03  0.10100000352E+00 0.  1.
       -3    1    3    3    0  502 -0.44936425156E+01  0.79445840255E+03  0.81358517886E+02  0.79862604819E+03  0.10100000352E+00 0. -1.
</event>
<event>
 5   0  0.9616567E-05  0.1610431E+04  0.7818609E-02  0.8814165E-01
        1   -1    0    0  501    0  0.00000000000E+00  0.00000000000E+00  0.96607393480E+03  0.96607393482E+03  0.50400001928E-02 0.  1.
       -1   -1    0    0    0  501  0.00000000000E+00  0.00000000000E+00 -0.67114122282E+03  0.67114122284E+03  0.50400001928E-02 0. -1.
    10030    2    1    2    0    0  0.00000000000E+00  0.00000000000E+00  0.29493271198E+03  0.16372151577E+04  0.16104310503E+04 0.  0.
        5    1    3    3  502    0  0.12698920299E+03 -0.76161805310E+03 -0.84721350245E+02  0.77678060846E+03  0.46999998093E+01 0.  1.
       -5    1    3    3    0  502 -0.12698920299E+03  0.76161805310E+03  0.37965406223E+03  0.86043454920E+03  0.46999998093E+01 0. -1.
</event>
<event>
 5   0  0.9616567E-05  0.1600148E+04  0.7818609E-02  0.8820457E-01
       -1   -1    0    0    0  501  0.00000000000E+00  0.00000000000E+00  0.28945889649E+03  0.28945889653E+03  0.50400001928E-02 0.  1.
        1   -1    0    0  501    0  0.00000000000E+00  0.00000000000E+00 -0.22114317490E+04  0.22114317490E+04  0.50400001928E-02 0. -1.
    10030    2    1    2    0    0  0.00000000000E+00  0.00000000000E+00 -0.19219728525E+04  0.25008906456E+04  0.16001482354E+04 0.  0.
        5    1    3    3  502    0  0.40161564342E+03  0.19440149318E+02  0.12005097235E+03  0.41965148684E+03  0.46999998093E+01 0.  1.
       -5    1    3    3    0  502 -0.40161564342E+03 -0.19440149318E+02 -0.20420238249E+04  0.20812391587E+04  0.46999998093E+01 0. -1.
</event>
<event>
 5   0  0.1835088E-04  0.1601300E+04  0.7818609E-02  0.8819750E-01
        2   -1    0    0  501    0  0.00000000000E+00  0.00000000000E+00  0.11166406948E+04  0.11166406948E+04  0.25500000920E-02 0.  1.
       -2   -1    0    0    0  501  0.00000000000E+00  0.00000000000E+00 -0.57407949491E+03  0.57407949492E+03  0.25500000920E-02 0. -1.
    10030    2    1    2    0    0  0.00000000000E+00  0.00000000000E+00  0.54256119991E+03  0.16907201897E+04  0.16013001294E+04 0.  0.
        5    1    3    3  502    0  0.73608220551E+03 -0.23550981265E+03  0.49209188541E+03  0.91621962368E+03  0.46999998093E+01 0. -1.
       -5    1    3    3    0  502 -0.73608220551E+03  0.23550981265E+03  0.50469314494E+02  0.77450056606E+03  0.46999998093E+01 0.  1.
</event>
<event>
 5   0  0.1835088E-04  0.1600967E+04  0.7818609E-02  0.8819954E-01
       -2   -1    0    0    0  501  0.00000000000E+00  0.00000000000E+00  0.66846901519E+03  0.66846901520E+03  0.25500000920E-02 0.  1.
        2   -1    0    0  501    0  0.00000000000E+00  0.00000000000E+00 -0.95856926808E+03  0.95856926808E+03  0.25500000920E-02 0. -1.
    10030    2    1    2    0    0  0.00000000000E+00  0.00000000000E+00 -0.29010025289E+03  0.16270382833E+04  0.16009670261E+04 0.  0.
        5    1    3    3  502    0  0.16242864439E+03  0.55294439441E+03  0.41953347551E+03  0.71285411895E+03  0.46999998093E+01 0.  1.
       -5    1    3    3    0  502 -0.16242864439E+03 -0.55294439441E+03 -0.70963372840E+03  0.91418416433E+03  0.46999998093E+01 0. -1.
</event>
<event>
 5   0  0.1858913E-04  0.1572097E+04  0.7818609E-02  0.8837876E-01
        2   -1    0    0  501    0  0.00000000000E+00  0.00000000000E+00  0.11537342261E+04  0.11537342261E+04  0.25500000920E-02 0.  1.
       -2   -1    0    0    0  501  0.00000000000E+00  0.00000000000E+00 -0.53554111082E+03  0.53554111082E+03  0.25500000920E-02 0. -1.
    10030    2    1    2    0    0  0.00000000000E+00  0.00000000000E+00  0.61819311524E+03  0.16892753369E+04  0.15720968278E+04 0.  0.
        4    1    3    3  502    0  0.32838827827E+03 -0.78559066806E+00  0.10764924044E+04  0.11254674531E+04  0.12699999809E+01 0.  1.
       -4    1    3    3    0  502 -0.32838827827E+03  0.78559066806E+00 -0.45829928914E+03  0.56380788375E+03  0.12699999809E+01 0. -1.
</event>
<event>
 5   0  0.9673017E-05  0.1601884E+04  0.7818609E-02  0.8819391E-01
       -1   -1    0    0    0  501  0.00000000000E+00  0.00000000000E+00  0.47919077372E+03  0.47919077374E+03  0.50400001928E-02 0.  1.
        1   -1    0    0  501    0  0.00000000000E+00  0.00000000000E+00 -0.13387321521E+04  0.13387321521E+04  0.50400001928E-02 0. -1.
    10030    2    1    2    0    0  0.00000000000E+00  0.00000000000E+00 -0.85954137842E+03  0.18179229259E+04  0.16018840106E+04 0.  0.
        1    1    3    3  502    0  0.74473182677E+03  0.53774399452E+02 -0.75866817899E+03  0.10644691568E+04  0.50400001928E-02 0. -1.
       -1    1    3    3    0  502 -0.74473182677E+03 -0.53774399452E+02 -0.10087319943E+03  0.75345376914E+03  0.50400001928E-02 0.  1.
</event>
<event>
 5   0  0.1835088E-04  0.1591343E+04  0.7818609E-02  0.8825884E-01
       -2   -1    0    0    0  501  0.00000000000E+00  0.00000000000E+00  0.37493802642E+03  0.37493802643E+03  0.25500000920E-02 0. -1.
        2   -1    0    0  501    0  0.00000000000E+00  0.00000000000E+00 -0.16885271304E+04  0.16885271304E+04  0.25500000920E-02 0.  1.
    10030    2    1    2    0    0  0.00000000000E+00  0.00000000000E+00 -0.13135891040E+04  0.20634651568E+04  0.15913428667E+04 0.  0.
        5    1    3    3  502    0 -0.61349102615E+03 -0.49041381369E+03 -0.49178452376E+03  0.92668821921E+03  0.46999998093E+01 0. -1.
       -5    1    3    3    0  502  0.61349102615E+03  0.49041381369E+03 -0.82180458020E+03  0.11367769376E+04  0.46999998093E+01 0.  1.
</event>
<event>
 5   0  0.9616567E-05  0.1623667E+04  0.7818609E-02  0.8806139E-01
       -1   -1    0    0    0  501  0.00000000000E+00  0.00000000000E+00  0.11916542476E+04  0.11916542476E+04  0.50400001928E-02 0. -1.
        1   -1    0    0  501    0  0.00000000000E+00  0.00000000000E+00 -0.55307452543E+03  0.55307452545E+03  0.50400001928E-02 0.  1.
    10030    2    1    2    0    0  0.00000000000E+00  0.00000000000E+00  0.63857972220E+03  0.17447287731E+04  0.16236669702E+04 0.  0.
        5    1    3    3  502    0  0.45663400856E+03  0.15360483010E+03  0.10214168049E+04  0.11293464663E+04  0.46999998093E+01 0. -1.
       -5    1    3    3    0  502 -0.45663400856E+03 -0.15360483010E+03 -0.38283708272E+03  0.61538230678E+03  0.46999998093E+01 0.  1.
</event>
<event>
 5   0  0.1914170E-04  0.1565456E+04  0.7818609E-02  0.8842055E-01
       -2   -1    0    0    0  501  0.00000000000E+00  0.00000000000E+00  0.54963314340E+03  0.54963314340E+03  0.25500000920E-02 0.  1.
        2   -1    0    0  501    0  0.00000000000E+00  0.00000000000E+00 -0.11146768425E+04  0.11146768425E+04  0.25500000920E-02 0. -1.
    10030    2    1    2    0    0  0.00000000000E+00  0.00000000000E+00 -0.56504369909E+03  0.16643099859E+04  0.15654562745E+04 0.  0.
        3    1    3    3  502    0 -0.64623986714E+03  0.14280466451E+03  0.16177204644E+03  0.68131442322E+03  0.10100000352E+00 0.  1.
       -3    1    3    3    0  502  0.64623986714E+03 -0.14280466451E+03 -0.72681574553E+03  0.98299556267E+03  0.10100000352E+00 0. -1.
</event>
<event>
 5   0  0.1835088E-04  0.1593056E+04  0.7818609E-02  0.8824825E-01
       -2   -1    0    0    0  501  0.00000000000E+00  0.00000000000E+00  0.97402210758E+03  0.97402210759E+03  0.25500000920E-02 0. -1.
        2   -1    0    0  501    0  0.00000000000E+00  0.00000000000E+00 -0.65137815331E+03  0.65137815331E+03  0.25500000920E-02 0.  1.
    10030    2    1    2    0    0  0.00000000000E+00  0.00000000000E+00  0.32264395428E+03  0.16254002609E+04  0.15930558330E+04 0.  0.
        5    1    3    3  502    0  0.34844891032E+03 -0.59636757724E+03 -0.24342313169E+03  0.73235772770E+03  0.46999998093E+01 0.  1.
       -5    1    3    3    0  502 -0.34844891032E+03  0.59636757724E+03  0.56606708597E+03  0.89304253320E+03  0.46999998093E+01 0. -1.
</event>
<event>
 5   0  0.9432152E-05  0.1608773E+04  0.7818609E-02  0.8815176E-01
       -1   -1    0    0    0  501  0.00000000000E+00  0.00000000000E+00  0.17785042938E+04  0.17785042938E+04  0.50400001928E-02 0.  1.
        1   -1    0    0  501    0  0.00000000000E+00  0.00000000000E+00 -0.36381005343E+03  0.36381005346E+03  0.50400001928E-02 0. -1.
    10030    2    1    2    0    0  0.00000000000E+00  0.00000000000E+00  0.14146942403E+04  0.21423143472E+04  0.16087731253E+04 0.  0.
        4    1    3    3  502    0 -0.44601085877E+03 -0.26827442377E+03 -0.10935321933E+03  0.53184263845E+03  0.12699999809E+01 0. -1.
       -4    1    3    3    0  502  0.44601085877E+03  0.26827442377E+03  0.15240474597E+04  0.16104717088E+04  0.12699999809E+01 0.  1.
</event>
<event>
 5   0  0.1914170E-04  0.1617639E+04  0.7818609E-02  0.8809784E-01
       -2   -1    0    0    0  501  0.00000000000E+00  0.00000000000E+00  0.47657907679E+03  0.47657907680E+03  0.25500000920E-02 0. -1.
        2   -1    0    0  501    0  0.00000000000E+00  0.00000000000E+00 -0.13726771651E+04  0.13726771651E+04  0.25500000920E-02 0.  1.
    10030    2    1    2    0    0  0.00000000000E+00  0.00000000000E+00 -0.89609808827E+03  0.18492562419E+04  0.16176392874E+04 0.  0.
        3    1    3    3  502    0 -0.50090984442E+02  0.58760129591E+03 -0.10808442802E+04  0.12312630742E+04  0.10100000352E+00 0.  1.
       -3    1    3    3    0  502  0.50090984442E+02 -0.58760129591E+03  0.18474619189E+03  0.61799316768E+03  0.10100000352E+00 0. -1.
</event>
<event>
 5   0  0.1832646E-04  0.1603152E+04  0.7818609E-02  0.8818614E-01
        2   -1    0    0  501    0  0.00000000000E+00  0.00000000000E+00  0.95977860745E+03  0.95977860745E+03  0.25500000920E-02 0. -1.
       -2   -1    0    0    0  501  0.00000000000E+00  0.00000000000E+00 -0.66945061579E+03  0.66945061580E+03  0.25500000920E-02 0.  1.
    10030    2    1    2    0    0  0.00000000000E+00  0.00000000000E+00  0.29032799166E+03  0.16292292233E+04  0.16031523693E+04 0.  0.
        2    1    3    3  502    0  0.60929847159E+02  0.22108503210E+03 -0.63540062222E+03  0.67551831095E+03  0.25500000920E-02 0.  1.
       -2    1    3    3    0  502 -0.60929847159E+02 -0.22108503210E+03  0.92572861388E+03  0.95371091231E+03  0.25500000920E-02 0. -1.
</event>
<event>
 5   0  0.1858913E-04  0.1604650E+04  0.7818609E-02  0.8817696E-01
        2   -1    0    0  501    0  0.00000000000E+00  0.00000000000E+00  0.11611997798E+04  0.11611997798E+04  0.25500000920E-02 0. -1.
       -2   -1    0    0    0  501  0.00000000000E+00  0.00000000000E+00 -0.55436247827E+03  0.55436247827E+03  0.25500000920E-02 0.  1.
    10030    2    1    2    0    0  0.00000000000E+00  0.00000000000E+00  0.60683730152E+03  0.17155622581E+04  0.16046502269E+04 0.  0.
        4    1    3    3  502    0 -0.90860311496E+02  0.43286647932E+03  0.10190859035E+04  0.11109305455E+04  0.12699999809E+01 0. -1.
       -4    1    3    3    0  502  0.90860311496E+02 -0.43286647932E+03 -0.41224860202E+03  0.60463171261E+03  0.12699999809E+01 0.  1.
</event>
<event>
 5   0  0.1835088E-04  0.1600576E+04  0.7818609E-02  0.8820194E-01
       -2   -1    0    0    0  501  0.00000000000E+00  0.00000000000E+00  0.81190765847E+03  0.81190765847E+03  0.25500000920E-02 0. -1.
        2   -1    0    0  501    0  0.00000000000E+00  0.00000000000E+00 -0.78883477287E+03  0.78883477287E+03  0.25500000920E-02 0.  1.
    10030    2    1    2    0    0  0.00000000000E+00  0.00000000000E+00  0.23072885601E+02  0.16007424313E+04  0.16005761380E+04 0.  0.
        5    1    3    3  502    0 -0.15526128727E+03 -0.29816929086E+02 -0.77304731796E+03  0.78906233112E+03  0.46999998093E+01 0.  1.
       -5    1    3    3    0  502  0.15526128727E+03  0.29816929086E+02  0.79612020356E+03  0.81168010022E+03  0.46999998093E+01 0. -1.
</event>
<event>
 5   0  0.1774934E-04  0.1609684E+04  0.7818609E-02  0.8814621E-01
       -2   -1    0    0    0  501  0.00000000000E+00  0.00000000000E+00  0.61290080017E+03  0.61290080018E+03  0.25500000920E-02 0. -1.
        2   -1    0    0  501    0  0.00000000000E+00  0.00000000000E+00 -0.10568927032E+04  0.10568927032E+04  0.25500000920E-02 0.  1.
    10030    2    1    2    0    0  0.00000000000E+00  0.00000000000E+00 -0.44399190303E+03  0.16697935034E+04  0.16096836751E+04 0.  0.
        1    1    3    3  502    0 -0.59438836171E+03  0.32066214645E+03 -0.67612063265E+03  0.95564682107E+03  0.50400001928E-02 0.  1.
       -1    1    3    3    0  502  0.59438836171E+03 -0.32066214645E+03  0.23212872963E+03  0.71414668230E+03  0.50400001928E-02 0. -1.
</event>
<event>
 5   0  0.1774934E-04  0.1609333E+04  0.7818609E-02  0.8814835E-01
       -2   -1    0    0    0  501  0.00000000000E+00  0.00000000000E+00  0.31311401521E+03  0.31311401522E+03  0.25500000920E-02 0. -1.
        2   -1    0    0  501    0  0.00000000000E+00  0.00000000000E+00 -0.20678981648E+04  0.20678981648E+04  0.25500000920E-02 0.  1.
    10030    2    1    2    0    0  0.00000000000E+00  0.00000000000E+00 -0.17547841496E+04  0.23810121800E+04  0.16093326536E+04 0.  0.
        1    1    3    3  502    0 -0.32195672321E+03  0.24864116379E+03 -0.19045648960E+04  0.19475230430E+04  0.50400001928E-02 0.  1.
       -1    1    3    3    0  502  0.32195672321E+03 -0.24864116379E+03  0.14978074635E+03  0.43348913707E+03  0.50400001928E-02 0. -1.
</event>
<event>
 5   0  0.9673017E-05  0.1596279E+04  0.7818609E-02  0.8822837E-01
       -1   -1    0    0    0  501  0.00000000000E+00  0.00000000000E+00  0.12752297822E+04  0.12752297822E+04  0.50400001928E-02 0. -1.
        1   -1    0    0  501    0  0.00000000000E+00  0.00000000000E+00 -0.49953901723E+03  0.49953901725E+03  0.50400001928E-02 0.  1.
    10030    2    1    2    0    0  0.00000000000E+00  0.00000000000E+00  0.77569076497E+03  0.17747687995E+04  0.15962794645E+04 0.  0.
        1    1    3    3  502    0 -0.23217420089E+03 -0.56448212183E+03  0.95962807622E+03  0.11372910666E+04  0.50400001928E-02 0. -1.
       -1    1    3    3    0  502  0.23217420089E+03  0.56448212183E+03 -0.18393731125E+03  0.63747773288E+03  0.50400001928E-02 0.  1.
</event>
<event>
 5   0  0.9726935E-05  0.1602193E+04  0.7818609E-02  0.8819202E-01
        1   -1    0    0  501    0  0.00000000000E+00  0.00000000000E+00  0.10647276010E+04  0.10647276010E+04  0.50400001928E-02 0.  1.
       -1   -1    0    0    0  501  0.00000000000E+00  0.00000000000E+00 -0.60274148464E+03  0.60274148466E+03  0.50400001928E-02 0. -1.
    10030    2    1    2    0    0  0.00000000000E+00  0.00000000000E+00  0.46198611633E+03  0.16674690856E+04  0.16021928660E+04 0.  0.
        2    1    3    3  502    0 -0.12052591684E+03 -0.47977650323E+03 -0.42479279776E+03  0.65204364172E+03  0.25500000920E-02 0. -1.
       -2    1    3    3    0  502  0.12052591684E+03  0.47977650323E+03  0.88677891409E+03  0.10154254439E+04  0.25500000920E-02 0.  1.
</event>
<event>
 5   0  0.1774934E-04  0.1592617E+04  0.7818609E-02  0.8825097E-01
       -2   -1    0    0    0  501  0.00000000000E+00  0.00000000000E+00  0.50131712768E+03  0.50131712768E+03  0.25500000920E-02 0.  1.
        2   -1    0    0  501    0  0.00000000000E+00  0.00000000000E+00 -0.12648818074E+04  0.12648818074E+04  0.25500000920E-02 0. -1.
    10030    2    1    2    0    0  0.00000000000E+00  0.00000000000E+00 -0.76356467975E+03  0.17661989351E+04  0.15926166074E+04 0.  0.
        1    1    3    3  502    0 -0.38327898268E+02 -0.40981821618E+03  0.37419469183E+03  0.55627481115E+03  0.50400001928E-02 0.  1.
       -1    1    3    3    0  502  0.38327898268E+02  0.40981821618E+03 -0.11377593716E+04  0.12099241240E+04  0.50400001928E-02 0. -1.
</event>
<event>
 5   0  0.9939872E-05  0.1639843E+04  0.7818609E-02  0.8796438E-01
        1   -1    0    0  501    0  0.00000000000E+00  0.00000000000E+00  0.82237724330E+03  0.82237724332E+03  0.50400001928E-02 0.  1.
       -1   -1    0    0    0  501  0.00000000000E+00  0.00000000000E+00 -0.81747285481E+03  0.81747285482E+03  0.50400001928E-02 0. -1.
    10030    2    1    2    0    0  0.00000000000E+00  0.00000000000E+00  0.49043884945E+01  0.16398500981E+04  0.16398427642E+04 0.  0.
        3    1    3    3  502    0  0.20764481232E+03 -0.47359435855E+03 -0.63383916941E+03  0.81802205803E+03  0.10100000352E+00 0. -1.
       -3    1    3    3    0  502 -0.20764481232E+03  0.47359435855E+03  0.63874355791E+03  0.82182804011E+03  0.10100000352E+00 0.  1.
</event>
<event>
 5   0  0.1835088E-04  0.1598028E+04  0.7818609E-02  0.8821760E-01
        2   -1    0    0  501    0  0.00000000000E+00  0.00000000000E+00  0.42936025922E+03  0.42936025923E+03  0.25500000920E-02 0. -1.
       -2   -1    0    0    0  501  0.00000000000E+00  0.00000000000E+00 -0.14869175862E+04  0.14869175862E+04  0.25500000920E-02 0.  1.
    10030    2    1    2    0    0  0.00000000000E+00  0.00000000000E+00 -0.10575573270E+04  0.19162778455E+04  0.15980279350E+04 0.  0.
        5    1    3    3  502    0 -0.16780276194E+03  0.69959353322E+03 -0.11197667644E+03  0.72811382675E+03  0.46999998093E+01 0. -1.
       -5    1    3    3    0  502  0.16780276194E+03 -0.69959353322E+03 -0.94558065059E+03  0.11881640187E+04  0.46999998093E+01 0.  1.
</event>
<event>
 5   0  0.9939872E-05  0.1587210E+04  0.7818609E-02  0.8828444E-01
       -1   -1    0    0    0  501  0.00000000000E+00  0.00000000000E+00  0.36346000393E+03  0.36346000396E+03  0.50400001928E-02 0. -1.
        1   -1    0    0  501    0  0.00000000000E+00  0.00000000000E+00 -0.17328156888E+04  0.17328156888E+04  0.50400001928E-02 0.  1.
    10030    2    1    2    0    0  0.00000000000E+00  0.00000000000E+00 -0.13693556848E+04  0.20962756927E+04  0.15872103794E+04 0.  0.
        3    1    3    3  502    0 -0.13153228683E+03 -0.40653451286E+03 -0.15679271735E+04  0.16251051302E+04  0.10100000352E+00 0.  1.
       -3    1    3    3    0  502  0.13153228683E+03  0.40653451286E+03  0.19857148870E+03  0.47117056249E+03  0.10100000352E+00 0. -1.
</event>
<event>
 5   0  0.1832646E-04  0.1596866E+04  0.7818609E-02  0.8822476E-01
        2   -1    0    0  501    0  0.00000000000E+00  0.00000000000E+00  0.12383457161E+04  0.12383457161E+04  0.25500000920E-02 0. -1.
       -2   -1    0    0    0  501  0.00000000000E+00  0.00000000000E+00 -0.51479556877E+03  0.51479556877E+03  0.25500000920E-02 0.  1.
    10030    2    1    2    0    0  0.00000000000E+00  0.00000000000E+00  0.72355014735E+03  0.17531412849E+04  0.15968655388E+04 0.  0.
        2    1    3    3  502    0 -0.64343239476E+02  0.65388079447E+03  0.85981677158E+03  0.10821206155E+04  0.25500000920E-02 0.  1.
       -2    1    3    3    0  502  0.64343239476E+02 -0.65388079447E+03 -0.13626662423E+03  0.67102066937E+03  0.25500000920E-02 0. -1.
</event>
<event>
 5   0  0.9432152E-05  0.1605003E+04  0.7818609E-02  0.8817480E-01
        1   -1    0    0  501    0  0.00000000000E+00  0.00000000000E+00  0.86784136288E+03  0.86784136289E+03  0.50400001928E-02 0. -1.
       -1   -1    0    0    0  501  0.00000000000E+00  0.00000000000E+00 -0.74208100082E+03  0.74208100084E+03  0.50400001928E-02 0.  1.
    10030    2    1    2    0    0  0.00000000000E+00  0.00000000000E+00  0.12576036206E+03  0.16099223637E+04  0.16050029123E+04 0.  0.
        4    1    3    3  502    0  0.52554775031E+03  0.63896885402E+02  0.66782383226E+03  0.85221683488E+03  0.12699999809E+01 0. -1.
       -4    1    3    3    0  502 -0.52554775031E+03 -0.63896885402E+02 -0.54206347020E+03  0.75770552885E+03  0.12699999809E+01 0.  1.
</event>
<event>
 5   0  0.9616567E-05  0.1602325E+04  0.7818609E-02  0.8819121E-01
       -1   -1    0    0    0  501  0.00000000000E+00  0.00000000000E+00  0.76541309562E+03  0.76541309564E+03  0.50400001928E-02 0. -1.
        1   -1    0    0  501    0  0.00000000000E+00  0.00000000000E+00 -0.83858156652E+03  0.83858156654E+03  0.50400001928E-02 0.  1.
    10030    2    1    2    0    0  0.00000000000E+00  0.00000000000E+00 -0.73168470902E+02  0.16039946622E+04  0.16023249518E+04 0.  0.
        5    1    3    3  502    0  0.57137638891E+03  0.25345562824E+03  0.46506518545E+03  0.77911388769E+03  0.46999998093E+01 0. -1.
       -5    1    3    3    0  502 -0.57137638891E+03 -0.25345562824E+03 -0.53823365635E+03  0.82488077448E+03  0.46999998093E+01 0.  1.
</event>
<event>
 5   0  0.9673017E-05  0.1598648E+04  0.7818609E-02  0.8821379E-01
        1   -1    0    0  501    0  0.00000000000E+00  0.00000000000E+00  0.18223243075E+04  0.18223243075E+04  0.50400001928E-02 0.  1.
       -1   -1    0    0    0  501  0.00000000000E+00  0.00000000000E+00 -0.35060638849E+03  0.35060638853E+03  0.50400001928E-02 0. -1.
    10030    2    1    2    0    0  0.00000000000E+00  0.00000000000E+00  0.14717179190E+04  0.21729306960E+04  0.15986476086E+04 0.  0.
        1    1    3    3  502    0 -0.32777502756E+03  0.67409635166E+03  0.35850124278E+03  0.83088236297E+03  0.50400001928E-02 0. -1.
       -1    1    3    3    0  502  0.32777502756E+03 -0.67409635166E+03  0.11132166762E+04  0.13420483330E+04  0.50400001928E-02 0.  1.
</event>
<event>
 5   0  0.9726935E-05  0.1600191E+04  0.7818609E-02  0.8820430E-01
        1   -1    0    0  501    0  0.00000000000E+00  0.00000000000E+00  0.46007371061E+03  0.46007371064E+03  0.50400001928E-02 0.  1.
       -1   -1    0    0    0  501  0.00000000000E+00  0.00000000000E+00 -0.13914142689E+04  0.13914142689E+04  0.50400001928E-02 0. -1.
    10030    2    1    2    0    0  0.00000000000E+00  0.00000000000E+00 -0.93134055825E+03  0.18514879795E+04  0.16001913957E+04 0.  0.
        2    1    3    3  502    0  0.67479324750E+03 -0.28702997721E+03 -0.95379026561E+02  0.73947906894E+03  0.25500000920E-02 0.  1.
       -2    1    3    3    0  502 -0.67479324750E+03  0.28702997721E+03 -0.83596153169E+03  0.11120089106E+04  0.25500000920E-02 0. -1.
</event>
<event>
 5   0  0.1914170E-04  0.1589598E+04  0.7818609E-02  0.8826964E-01
       -2   -1    0    0    0  501  0.00000000000E+00  0.00000000000E+00  0.93032239376E+03  0.93032239377E+03  0.25500000920E-02 0. -1.
        2   -1    0    0  501    0  0.00000000000E+00  0.00000000000E+00 -0.67901743689E+03  0.67901743690E+03  0.25500000920E-02 0.  1.
    10030    2    1    2    0    0  0.00000000000E+00  0.00000000000E+00  0.25130495687E+03  0.16093398307E+04  0.15895975935E+04 0.  0.
        3    1    3    3  502    0 -0.76500912650E+03  0.21512345448E+03  0.11176893023E+03  0.80250194284E+03  0.10100000352E+00 0. -1.
       -3    1    3    3    0  502  0.76500912650E+03 -0.21512345448E+03  0.13953602664E+03  0.80683788782E+03  0.10100000352E+00 0.  1.
</event>
<event>
 5   0  0.1774934E-04  0.1496737E+04  0.7818609E-02  0.8886626E-01
       -2   -1    0    0    0  501  0.00000000000E+00  0.00000000000E+00  0.15608413194E+04  0.15608413194E+04  0.25500000920E-02 0.  1.
        2   -1    0    0  501    0  0.00000000000E+00  0.00000000000E+00 -0.35881645831E+03  0.35881645832E+03  0.25500000920E-02 0. -1.
    10030    2    1    2    0    0  0.00000000000E+00  0.00000000000E+00  0.12020248611E+04  0.19196577777E+04  0.14967371903E+04 0.  0.
        1    1    3    3  502    0 -0.25939646068E+03  0.36803476021E+03  0.13676791101E+04  0.14398896683E+04  0.50400001928E-02 0.  1.
       -1    1    3    3    0  502  0.25939646068E+03 -0.36803476021E+03 -0.16565424908E+03  0.47976810940E+03  0.50400001928E-02 0. -1.
</event>
<event>
 5   0  0.9726935E-05  0.1591423E+04  0.7818609E-02  0.8825835E-01
        1   -1    0    0  501    0  0.00000000000E+00  0.00000000000E+00  0.11330592544E+04  0.11330592544E+04  0.50400001928E-02 0.  1.
       -1   -1    0    0    0  501  0.00000000000E+00  0.00000000000E+00 -0.55880292919E+03  0.55880292921E+03  0.50400001928E-02 0. -1.
    10030    2    1    2    0    0  0.00000000000E+00  0.00000000000E+00  0.57425632524E+03  0.16918621837E+04  0.15914230492E+04 0.  0.
        2    1    3    3  502    0  0.54595134798E+03  0.29453987550E+03 -0.24266075365E+03  0.66610874036E+03  0.25500000920E-02 0. -1.
       -2    1    3    3    0  502 -0.54595134798E+03 -0.29453987550E+03  0.81691707889E+03  0.10257534433E+04  0.25500000920E-02 0.  1.
</event>
<event>
 5   0  0.9432152E-05  0.1599965E+04  0.7818609E-02  0.8820569E-01
       -1   -1    0    0    0  501  0.00000000000E+00  0.00000000000E+00  0.69363042046E+03  0.69363042048E+03  0.50400001928E-02 0. -1.
        1   -1    0    0  501    0  0.00000000000E+00  0.00000000000E+00 -0.92264122653E+03  0.92264122654E+03  0.50400001928E-02 0.  1.
    10030    2    1    2    0    0  0.00000000000E+00  0.00000000000E+00 -0.22901080607E+03  0.16162716470E+04  0.15999650270E+04 0.  0.
        4    1    3    3  502    0 -0.25751862522E+03 -0.24873158915E+03  0.60817879573E+03  0.70573812867E+03  0.12699999809E+01 0. -1.
       -4    1    3    3    0  502  0.25751862522E+03  0.24873158915E+03 -0.83718960180E+03  0.91053351835E+03  0.12699999809E+01 0.  1.
</event>
<event>
 5   0  0.9939872E-05  0.1595438E+04  0.7818609E-02  0.8823355E-01
       -1   -1    0    0    0  501  0.00000000000E+00  0.00000000000E+00  0.70754012192E+03  0.70754012193E+03  0.50400001928E-02 0.  1.
        1   -1    0    0  501    0  0.00000000000E+00  0.00000000000E+00 -0.89939175423E+03  0.89939175424E+03  0.50400001928E-02 0. -1.
    10030    2    1    2    0    0  0.00000000000E+00  0.00000000000E+00 -0.19185163231E+03  0.16069318762E+04  0.15954381862E+04 0.  0.
        3    1    3    3  502    0  0.79219820614E+03  0.34211529179E+02 -0.18377407847E+03  0.81395414407E+03  0.10100000352E+00 0. -1.
       -3    1    3    3    0  502 -0.79219820614E+03 -0.34211529179E+02 -0.80775538434E+01  0.79297773210E+03  0.10100000352E+00 0.  1.
</event>
<event>
 5   0  0.9432152E-05  0.1616888E+04  0.7818609E-02  0.8810240E-01
       -1   -1    0    0    0  501  0.00000000000E+00  0.00000000000E+00  0.10224106687E+04  0.10224106688E+04  0.50400001928E-02 0.  1.
        1   -1    0    0  501    0  0.00000000000E+00  0.00000000000E+00 -0.63925575471E+03  0.63925575473E+03  0.50400001928E-02 0. -1.
    10030    2    1    2    0    0  0.00000000000E+00  0.00000000000E+00  0.38315491404E+03  0.16616664235E+04  0.16168882506E+04 0.  0.
        4    1    3    3  502    0  0.43474078625E+03 -0.62259369137E+03 -0.93517975808E+02  0.76509455655E+03  0.12699999809E+01 0. -1.
       -4    1    3    3    0  502 -0.43474078625E+03  0.62259369137E+03  0.47667288984E+03  0.89657186693E+03  0.12699999809E+01 0.  1.
</event>
<event>
 5   0  0.1832646E-04  0.1590243E+04  0.7818609E-02  0.8826565E-01
       -2   -1    0    0    0  501  0.00000000000E+00  0.00000000000E+00  0.58353548163E+03  0.58353548164E+03  0.25500000920E-02 0. -1.
        2   -1    0    0  501    0  0.00000000000E+00  0.00000000000E+00 -0.10834272070E+04  0.10834272070E+04  0.25500000920E-02 0.  1.
    10030    2    1    2    0    0  0.00000000000E+00  0.00000000000E+00 -0.49989172537E+03  0.16669626886E+04  0.15902430218E+04 0.  0.
        2    1    3    3  502    0  0.26522638622E+03 -0.47188456628E+03  0.36055897542E+03  0.65040207150E+03  0.25500000920E-02 0. -1.
       -2    1    3    3    0  502 -0.26522638622E+03  0.47188456628E+03 -0.86045070079E+03  0.10165606172E+04  0.25500000920E-02 0.  1.
</event>
<event>
 5   0  0.1774934E-04  0.1602993E+04  0.7818609E-02  0.8818711E-01
        2   -1    0    0  501    0  0.00000000000E+00  0.00000000000E+00  0.17586979351E+04  0.17586979351E+04  0.25500000920E-02 0. -1.
       -2   -1    0    0    0  501  0.00000000000E+00  0.00000000000E+00 -0.36526853933E+03  0.36526853934E+03  0.25500000920E-02 0.  1.
    10030    2    1    2    0    0  0.00000000000E+00  0.00000000000E+00  0.13934293958E+04  0.21239664744E+04  0.16029934821E+04 0.  0.
        1    1    3    3  502    0  0.69733642824E+03 -0.26681206728E+03  0.31057263851E+03  0.80865452278E+03  0.50400001928E-02 0.  1.
       -1    1    3    3    0  502 -0.69733642824E+03  0.26681206728E+03  0.10828567573E+04  0.13153119517E+04  0.50400001928E-02 0. -1.
</event>
<event>
 5   0  0.9673017E-05  0.1601297E+04  0.7818609E-02  0.8819752E-01
       -1   -1    0    0    0  501  0.00000000000E+00  0.00000000000E+00  0.38098333728E+03  0.38098333731E+03  0.50400001928E-02 0. -1.
        1   -1    0    0  501    0  0.00000000000E+00  0.00000000000E+00 -0.16825870665E+04  0.16825870665E+04  0.50400001928E-02 0.  1.
    10030    2    1    2    0    0  0.00000000000E+00  0.00000000000E+00 -0.13016037292E+04  0.20635704038E+04  0.16012965196E+04 0.  0.
        1    1    3    3  502    0  0.47847681818E+03 -0.63467485684E+03 -0.52662297968E+03  0.95345896723E+03  0.50400001928E-02 0. -1.
       -1    1    3    3    0  502 -0.47847681818E+03  0.63467485684E+03 -0.77498074949E+03  0.11101114365E+04  0.50400001928E-02 0.  1.
</event>
<event>
 5   0  0.1832646E-04  0.1599007E+04  0.7818609E-02  0.8821158E-01
        2   -1    0    0  501    0  0.00000000000E+00  0.00000000000E+00  0.12808786090E+04  0.12808786090E+04  0.25500000920E-02 0.  1.
       -2   -1    0    0    0  501  0.00000000000E+00  0.00000000000E+00 -0.49903718133E+03  0.49903718133E+03  0.25500000920E-02 0. -1.
    10030    2    1    2    0    0  0.00000000000E+00  0.00000000000E+00  0.78184142768E+03  0.17799157903E+04  0.15990072554E+04 0.  0.
        2    1    3    3  502    0  0.19405897647E+02 -0.33812486230E+03 -0.41524105431E+03  0.53584526177E+03  0.25500000920E-02 0. -1.
       -2    1    3    3    0  502 -0.19405897647E+02  0.33812486230E+03  0.11970824820E+04  0.12440705286E+04  0.25500000920E-02 0.  1.
</event>
<event>
 5   0  0.9939872E-05  0.1602742E+04  0.7818609E-02  0.8818865E-01
       -1   -1    0    0    0  501  0.00000000000E+00  0.00000000000E+00  0.28852047969E+03  0.28852047973E+03  0.50400001928E-02 0. -1.
        1   -1    0    0  501    0  0.00000000000E+00  0.00000000000E+00 -0.22258236151E+04  0.22258236151E+04  0.50400001928E-02 0.  1.
    10030    2    1    2    0    0  0.00000000000E+00  0.00000000000E+00 -0.19373031354E+04  0.25143440948E+04  0.16027422715E+04 0.  0.
        3    1    3    3  502    0  0.11718438394E+03 -0.75710107074E+03 -0.13374357285E+04  0.15413203915E+04  0.10100000352E+00 0.  1.
       -3    1    3    3    0  502 -0.11718438394E+03  0.75710107074E+03 -0.59986740687E+03  0.97302370330E+03  0.10100000352E+00 0. -1.
</event>
<event>
 5   0  0.1774934E-04  0.1600600E+04  0.7818609E-02  0.8820179E-01
       -2   -1    0    0    0  501  0.00000000000E+00  0.00000000000E+00  0.31024189738E+03  0.31024189739E+03  0.25500000920E-02 0.  1.
        2   -1    0    0  501    0  0.00000000000E+00  0.00000000000E+00 -0.20644547319E+04  0.20644547319E+04  0.25500000920E-02 0. -1.
    10030    2    1    2    0    0  0.00000000000E+00  0.00000000000E+00 -0.17542128345E+04  0.23746966293E+04  0.16006003287E+04 0.  0.
        1    1    3    3  502    0 -0.33575828570E+03  0.43609168110E+03 -0.15105649362E+02  0.55057947783E+03  0.50400001928E-02 0.  1.
       -1    1    3    3    0  502  0.33575828570E+03 -0.43609168110E+03 -0.17391071852E+04  0.18241171515E+04  0.50400001928E-02 0. -1.
</event>
<event>
 5   0  0.9939872E-05  0.1606282E+04  0.7818609E-02  0.8816698E-01
       -1   -1    0    0    0  501  0.00000000000E+00  0.00000000000E+00  0.12155014826E+04  0.12155014826E+04  0.50400001928E-02 0.  1.
        1   -1    0    0  501    0  0.00000000000E+00  0.00000000000E+00 -0.53067408783E+03  0.53067408786E+03  0.50400001928E-02 0. -1.
    10030    2    1    2    0    0  0.00000000000E+00  0.00000000000E+00  0.68482739477E+03  0.17461755705E+04  0.16062815950E+04 0.  0.
        3    1    3    3  502    0  0.16635211782E+03  0.20296617445E+03  0.11675778504E+04  0.11967064561E+04  0.10100000352E+00 0.  1.
       -3    1    3    3    0  502 -0.16635211782E+03 -0.20296617445E+03 -0.48275045562E+03  0.54946911440E+03  0.10100000352E+00 0. -1.
</event>
<event>
 5   0  0.1835088E-04  0.1599464E+04  0.7818609E-02  0.8820878E-01
       -2   -1    0    0    0  501  0.00000000000E+00  0.00000000000E+00  0.30015436843E+03  0.30015436845E+03  0.25500000920E-02 0.  1.
        2   -1    0    0  501    0  0.00000000000E+00  0.00000000000E+00 -0.21308066536E+04  0.21308066536E+04  0.25500000920E-02 0. -1.
    10030    2    1    2    0    0  0.00000000000E+00  0.00000000000E+00 -0.18306522852E+04  0.24309610221E+04  0.15994635668E+04 0.  0.
        5    1    3    3  502    0  0.13070303014E+02  0.50578355703E+03 -0.18566105451E+04  0.19243213467E+04  0.46999998093E+01 0. -1.
       -5    1    3    3    0  502 -0.13070303014E+02 -0.50578355703E+03  0.25958259883E+02  0.50663967535E+03  0.46999998093E+01 0.  1.
</event>
<event>
 5   0  0.1774934E-04  0.1607540E+04  0.7818609E-02  0.8815929E-01
        2   -1    0    0  501    0  0.00000000000E+00  0.00000000000E+00  0.14916213610E+04  0.14916213610E+04  0.25500000920E-02 0.  1.
       -2   -1    0    0    0  501  0.00000000000E+00  0.00000000000E+00 -0.43311660331E+03  0.43311660332E+03  0.25500000920E-02 0. -1.
    10030    2    1    2    0    0  0.00000000000E+00  0.00000000000E+00  0.10585047577E+04  0.19247379643E+04  0.16075397069E+04 0.  0.
        1    1    3    3  502    0 -0.28988406680E+03 -0.32834100067E+03 -0.27767796421E+03  0.51859968833E+03  0.50400001928E-02 0. -1.
       -1    1    3    3    0  502  0.28988406680E+03  0.32834100067E+03  0.13361827219E+04  0.14061382760E+04  0.50400001928E-02 0.  1.
</event>
<event>
 5   0  0.9726935E-05  0.1602334E+04  0.7818609E-02  0.8819116E-01
       -1   -1    0    0    0  501  0.00000000000E+00  0.00000000000E+00  0.40687928137E+03  0.40687928140E+03  0.50400001928E-02 0. -1.
        1   -1    0    0  501    0  0.00000000000E+00  0.00000000000E+00 -0.15775399768E+04  0.15775399768E+04  0.50400001928E-02 0.  1.
    10030    2    1    2    0    0  0.00000000000E+00  0.00000000000E+00 -0.11706606954E+04  0.19844192582E+04  0.16023337132E+04 0.  0.
        2    1    3    3  502    0 -0.26377651098E+03 -0.37299483138E+03 -0.14004234389E+04  0.14730543100E+04  0.25500000920E-02 0.  1.
       -2    1    3    3    0  502  0.26377651098E+03  0.37299483138E+03  0.22976274346E+03  0.51136494822E+03  0.25500000920E-02 0. -1.
</event>
<event>
 5   0  0.1832646E-04  0.1583614E+04  0.7818609E-02  0.8830678E-01
        2   -1    0    0  501    0  0.00000000000E+00  0.00000000000E+00  0.11707315389E+04  0.11707315389E+04  0.25500000920E-02 0. -1.
       -2   -1    0    0    0  501  0.00000000000E+00  0.00000000000E+00 -0.53552691518E+03  0.53552691519E+03  0.25500000920E-02 0.  1.
    10030    2    1    2    0    0  0.00000000000E+00  0.00000000000E+00  0.63520462370E+03  0.17062584541E+04  0.15836139044E+04 0.  0.
        2    1    3    3  502    0 -0.46967286202E+03  0.14518583024E+03 -0.35118424349E+03  0.60415386741E+03  0.25500000920E-02 0.  1.
       -2    1    3    3    0  502  0.46967286202E+03 -0.14518583024E+03  0.98638886719E+03  0.11021045867E+04  0.25500000920E-02 0. -1.
</event>
<event>
 5   0  0.1774934E-04  0.1605552E+04  0.7818609E-02  0.8817145E-01
        2   -1    0    0  501    0  0.00000000000E+00  0.00000000000E+00  0.88063810037E+03  0.88063810037E+03  0.25500000920E-02 0. -1.
       -2   -1    0    0    0  501  0.00000000000E+00  0.00000000000E+00 -0.73179773137E+03  0.73179773138E+03  0.25500000920E-02 0.  1.
    10030    2    1    2    0    0  0.00000000000E+00  0.00000000000E+00  0.14884036900E+03  0.16124358317E+04  0.16055515738E+04 0.  0.
        1    1    3    3  502    0 -0.10317534222E+03  0.14939584595E+03  0.85974799150E+03  0.87870978084E+03  0.50400001928E-02 0. -1.
       -1    1    3    3    0  502  0.10317534222E+03 -0.14939584595E+03 -0.71090762250E+03  0.73372605091E+03  0.50400001928E-02 0.  1.
</event>
<event>
 5   0  0.9726935E-05  0.1599637E+04  0.7818609E-02  0.8820771E-01
       -1   -1    0    0    0  501  0.00000000000E+00  0.00000000000E+00  0.73189553207E+03  0.73189553209E+03  0.50400001928E-02 0. -1.
        1   -1    0    0  501    0  0.00000000000E+00  0.00000000000E+00 -0.87404481889E+03  0.87404481890E+03  0.50400001928E-02 0.  1.
    10030    2    1    2    0    0  0.00000000000E+00  0.00000000000E+00 -0.14214928681E+03  0.16059403510E+04  0.15996368310E+04 0.  0.
        2    1    3    3  502    0  0.48774173500E+03 -0.10500363670E+03 -0.69867141347E+03  0.85852169907E+03  0.25500000920E-02 0.  1.
       -2    1    3    3    0  502 -0.48774173500E+03  0.10500363670E+03  0.55652212665E+03  0.74741865192E+03  0.25500000920E-02 0. -1.
</event>
<event>
 5   0  0.9432152E-05  0.1598556E+04  0.7818609E-02  0.8821436E-01
       -1   -1    0    0    0  501  0.00000000000E+00  0.00000000000E+00  0.42322287668E+03  0.42322287671E+03  0.50400001928E-02 0.  1.
        1   -1    0    0  501    0  0.00000000000E+00  0.00000000000E+00 -0.15094770802E+04  0.15094770802E+04  0.50400001928E-02 0. -1.
    10030    2    1    2    0    0  0.00000000000E+00  0.00000000000E+00 -0.10862542035E+04  0.19326999569E+04  0.15985558886E+04 0.  0.
        4    1    3    3  502    0  0.63086374852E+03  0.30597293345E+02  0.49072826611E+02  0.63351007788E+03  0.12699999809E+01 0.  1.
       -4    1    3    3    0  502 -0.63086374852E+03 -0.30597293345E+02 -0.11353270302E+04  0.12991898791E+04  0.12699999809E+01 0. -1.
</event>
<event>
 5   0  0.1835088E-04  0.1589982E+04  0.7818609E-02  0.8826726E-01
        2   -1    0    0  501    0  0.00000000000E+00  0.00000000000E+00  0.15119227049E+04  0.15119227049E+04  0.25500000920E-02 0.  1.
       -2   -1    0    0    0  501  0.00000000000E+00  0.00000000000E+00 -0.41801777524E+03  0.41801777524E+03  0.25500000920E-02 0. -1.
    10030    2    1    2    0    0  0.00000000000E+00  0.00000000000E+00  0.10939049297E+04  0.19299404802E+04  0.15899818432E+04 0.  0.
        5    1    3    3  502    0  0.45469674413E+02 -0.41479355612E+03 -0.27438486096E+03  0.49943000251E+03  0.46999998093E+01 0. -1.
       -5    1    3    3    0  502 -0.45469674413E+02  0.41479355612E+03  0.13682897907E+04  0.14305104777E+04  0.46999998093E+01 0.  1.
</event>
<event>
 5   0  0.9939872E-05  0.1595071E+04  0.7818609E-02  0.8823582E-01
        1   -1    0    0  501    0  0.00000000000E+00  0.00000000000E+00  0.11051880919E+04  0.11051880919E+04  0.50400001928E-02 0. -1.
       -1   -1    0    0    0  501  0.00000000000E+00  0.00000000000E+00 -0.57552444927E+03  0.57552444929E+03  0.50400001928E-02 0.  1.
    10030    2    1    2    0    0  0.00000000000E+00  0.00000000000E+00  0.52966364258E+03  0.16807125412E+04  0.15950708673E+04 0.  0.
        3    1    3    3  502    0  0.10829260299E+03  0.24797956418E+03  0.10553403399E+04  0.10894789559E+04  0.10100000352E+00 0. -1.
       -3    1    3    3    0  502 -0.10829260299E+03 -0.24797956418E+03 -0.52567669728E+03  0.59123358530E+03  0.10100000352E+00 0.  1.
</event>
<event>
 5   0  0.9939872E-05  0.1592312E+04  0.7818609E-02  0.8825285E-01
        1   -1    0    0  501    0  0.00000000000E+00  0.00000000000E+00  0.14999773211E+04  0.14999773211E+04  0.50400001928E-02 0.  1.
       -1   -1    0    0    0  501  0.00000000000E+00  0.00000000000E+00 -0.42258280621E+03  0.42258280624E+03  0.50400001928E-02 0. -1.
    10030    2    1    2    0    0  0.00000000000E+00  0.00000000000E+00  0.10773945149E+04  0.19225601274E+04  0.15923123131E+04 0.  0.
        3    1    3    3  502    0  0.41382609287E+03 -0.56583645336E+03  0.83006485437E+02  0.70591289400E+03  0.10100000352E+00 0.  1.
       -3    1    3    3    0  502 -0.41382609287E+03  0.56583645336E+03  0.99438802947E+03  0.12166472334E+04  0.10100000352E+00 0. -1.
</event>
<event>
 5   0  0.1914170E-04  0.1602911E+04  0.7818609E-02  0.8818762E-01
       -2   -1    0    0    0  501  0.00000000000E+00  0.00000000000E+00  0.77854150438E+03  0.77854150438E+03  0.25500000920E-02 0.  1.
        2   -1    0    0  501    0  0.00000000000E+00  0.00000000000E+00 -0.82504405380E+03  0.82504405380E+03  0.25500000920E-02 0. -1.
    10030    2    1    2    0    0  0.00000000000E+00  0.00000000000E+00 -0.46502549420E+02  0.16035855582E+04  0.16029111502E+04 0.  0.
        3    1    3    3  502    0  0.97535795982E+02 -0.77506298839E+03  0.15597532555E+03  0.79659536771E+03  0.10100000352E+00 0. -1.
       -3    1    3    3    0  502 -0.97535795982E+02  0.77506298839E+03 -0.20247787497E+03  0.80699019047E+03  0.10100000352E+00 0.  1.
</event>
<event>
 5   0  0.1835088E-04  0.1605986E+04  0.7818609E-02  0.8816879E-01
       -2   -1    0    0    0  501  0.00000000000E+00  0.00000000000E+00  0.81602870697E+03  0.81602870697E+03  0.25500000920E-02 0.  1.
        2   -1    0    0  501    0  0.00000000000E+00  0.00000000000E+00 -0.79016573488E+03  0.79016573489E+03  0.25500000920E-02 0. -1.
    10030    2    1    2    0    0  0.00000000000E+00  0.00000000000E+00  0.25862972087E+02  0.16061944419E+04  0.16059862053E+04 0.  0.
        5    1    3    3  502    0  0.43468135242E+03 -0.55315737122E+03  0.40007969869E+03  0.80933108848E+03  0.46999998093E+01 0.  1.
       -5    1    3    3    0  502 -0.43468135242E+03  0.55315737122E+03 -0.37421672661E+03  0.79686335337E+03  0.46999998093E+01 0. -1.
</event>
<event>
 5   0  0.9616567E-05  0.1604777E+04  0.7818609E-02  0.8817619E-01
        1   -1    0    0  501    0  0.00000000000E+00  0.00000000000E+00  0.96654254091E+03  0.96654254093E+03  0.50400001928E-02 0.  1.
       -1   -1    0    0    0  501  0.00000000000E+00  0.00000000000E+00 -0.66611383501E+03  0.66611383503E+03  0.50400001928E-02 0. -1.
    10030    2    1    2    0    0  0.00000000000E+00  0.00000000000E+00  0.30042870591E+03  0.16326563760E+04  0.16047770670E+04 0.  0.
        5    1    3    3  502    0  0.46942204096E+03 -0.18343388236E+03 -0.48497194794E+03  0.69944615377E+03  0.46999998093E+01 0. -1.
       -5    1    3    3    0  502 -0.46942204096E+03  0.18343388236E+03  0.78540065384E+03  0.93321022219E+03  0.46999998093E+01 0.  1.
</event>
<event>
 5   0  0.9726935E-05  0.1613284E+04  0.7818609E-02  0.8812429E-01
       -1   -1    0    0    0  501  0.00000000000E+00  0.00000000000E+00  0.75264163524E+03  0.75264163526E+03  0.50400001928E-02 0.  1.
        1   -1    0    0  501    0  0.00000000000E+00  0.00000000000E+00 -0.86451629842E+03  0.86451629844E+03  0.50400001928E-02 0. -1.
    10030    2    1    2    0    0  0.00000000000E+00  0.00000000000E+00 -0.11187466318E+03  0.16171579337E+04  0.16132835592E+04 0.  0.
        2    1    3    3  502    0 -0.38980844217E+03 -0.68883822819E+03  0.10007137225E+03  0.79778631584E+03  0.25500000920E-02 0. -1.
       -2    1    3    3    0  502  0.38980844217E+03  0.68883822819E+03 -0.21194603543E+03  0.81937161785E+03  0.25500000920E-02 0.  1.
</event>
<event>
 5   0  0.1858913E-04  0.1601466E+04  0.7818609E-02  0.8819648E-01
       -2   -1    0    0    0  501  0.00000000000E+00  0.00000000000E+00  0.12733755822E+04  0.12733755822E+04  0.25500000920E-02 0. -1.
        2   -1    0    0  501    0  0.00000000000E+00  0.00000000000E+00 -0.50352249083E+03  0.50352249083E+03  0.25500000920E-02 0.  1.
    10030    2    1    2    0    0  0.00000000000E+00  0.00000000000E+00  0.76985309136E+03  0.17768980730E+04  0.16014658846E+04 0.  0.
        4    1    3    3  502    0 -0.31027252097E+03 -0.71017728593E+03  0.16149492754E+03  0.79164577889E+03  0.12699999809E+01 0.  1.
       -4    1    3    3    0  502  0.31027252097E+03  0.71017728593E+03  0.60835816381E+03  0.98525229413E+03  0.12699999809E+01 0. -1.
</event>
<event>
 5   0  0.1835088E-04  0.1615562E+04  0.7818609E-02  0.8811044E-01
        2   -1    0    0  501    0  0.00000000000E+00  0.00000000000E+00  0.67393001115E+03  0.67393001116E+03  0.25500000920E-02 0.  1.
       -2   -1    0    0    0  501  0.00000000000E+00  0.00000000000E+00 -0.96821696233E+03  0.96821696234E+03  0.25500000920E-02 0. -1.
    10030    2    1    2    0    0  0.00000000000E+00  0.00000000000E+00 -0.29428695118E+03  0.16421469735E+04  0.16155624014E+04 0.  0.
        5    1    3    3  502    0  0.55073552147E+03  0.30748374790E+03  0.36577130117E+03  0.72915471924E+03  0.46999998093E+01 0.  1.
       -5    1    3    3    0  502 -0.55073552147E+03 -0.30748374790E+03 -0.66005825235E+03  0.91299225425E+03  0.46999998093E+01 0. -1.
</event>
<event>
 5   0  0.9673017E-05  0.1591976E+04  0.7818609E-02  0.8825493E-01
        1   -1    0    0  501    0  0.00000000000E+00  0.00000000000E+00  0.16554615641E+04  0.16554615641E+04  0.50400001928E-02 0. -1.
       -1   -1    0    0    0  501  0.00000000000E+00  0.00000000000E+00 -0.38273120794E+03  0.38273120797E+03  0.50400001928E-02 0.  1.
    10030    2    1    2    0    0  0.00000000000E+00  0.00000000000E+00  0.12727303562E+04  0.20381927721E+04  0.15919758845E+04 0.  0.
        1    1    3    3  502    0 -0.29103626046E+03  0.66262536976E+03  0.10606466596E+04  0.12840349770E+04  0.50400001928E-02 0. -1.
       -1    1    3    3    0  502  0.29103626046E+03 -0.66262536976E+03  0.21208369657E+03  0.75415779511E+03  0.50400001928E-02 0.  1.
</event>
<event>
 5   0  0.1832646E-04  0.1614661E+04  0.7818609E-02  0.8811591E-01
       -2   -1    0    0    0  501  0.00000000000E+00  0.00000000000E+00  0.54227681095E+03  0.54227681095E+03  0.25500000920E-02 0. -1.
        2   -1    0    0  501    0  0.00000000000E+00  0.00000000000E+00 -0.12019375540E+04  0.12019375540E+04  0.25500000920E-02 0.  1.
    10030    2    1    2    0    0  0.00000000000E+00  0.00000000000E+00 -0.65966074302E+03  0.17442143649E+04  0.16146614057E+04 0.  0.
        2    1    3    3  502    0 -0.75342846290E+03 -0.18030045402E+03 -0.57526061194E+03  0.96492874042E+03  0.25500000920E-02 0.  1.
       -2    1    3    3    0  502  0.75342846290E+03  0.18030045402E+03 -0.84400131082E+02  0.77928562451E+03  0.25500000920E-02 0. -1.
</event>
<event>
 5   0  0.9726935E-05  0.1605598E+04  0.7818609E-02  0.8817116E-01
        1   -1    0    0  501    0  0.00000000000E+00  0.00000000000E+00  0.10710940945E+04  0.10710940945E+04  0.50400001928E-02 0.  1.
       -1   -1    0    0    0  501  0.00000000000E+00  0.00000000000E+00 -0.60170861041E+03  0.60170861044E+03  0.50400001928E-02 0. -1.
    10030    2    1    2    0    0  0.00000000000E+00  0.00000000000E+00  0.46938548408E+03  0.16728027049E+04  0.16055983797E+04 0.  0.
        2    1    3    3  502    0  0.26898373465E+03  0.32654444409E+03  0.94552814618E+03  0.10358605112E+04  0.25500000920E-02 0.  1.
       -2    1    3    3    0  502 -0.26898373465E+03 -0.32654444409E+03 -0.47614266210E+03  0.63694219373E+03  0.25500000920E-02 0. -1.
</event>
<event>
 5   0  0.1774934E-04  0.1606232E+04  0.7818609E-02  0.8816729E-01
        2   -1    0    0  501    0  0.00000000000E+00  0.00000000000E+00  0.16884333812E+04  0.16884333812E+04  0.25500000920E-02 0.  1.
       -2   -1    0    0    0  501  0.00000000000E+00  0.00000000000E+00 -0.38200813532E+03  0.38200813533E+03  0.25500000920E-02 0. -1.
    10030    2    1    2    0    0  0.00000000000E+00  0.00000000000E+00  0.13064252459E+04  0.20704415165E+04  0.16062319728E+04 0.  0.
        1    1    3    3  502    0  0.31135505827E+03 -0.38671382159E+02  0.16061684391E+04  0.16365251305E+04  0.50400001928E-02 0.  1.
       -1    1    3    3    0  502 -0.31135505827E+03  0.38671382159E+02 -0.29974319323E+03  0.43391638598E+03  0.50400001928E-02 0. -1.
</event>
<event>
 5   0  0.9939872E-05  0.1598614E+04  0.7818609E-02  0.8821400E-01
       -1   -1    0    0    0  501  0.00000000000E+00  0.00000000000E+00  0.60123608193E+03  0.60123608195E+03  0.50400001928E-02 0.  1.
        1   -1    0    0  501    0  0.00000000000E+00  0.00000000000E+00 -0.10626305079E+04  0.10626305080E+04  0.50400001928E-02 0. -1.
    10030    2    1    2    0    0  0.00000000000E+00  0.00000000000E+00 -0.46139442601E+03  0.16638665899E+04  0.15986141538E+04 0.  0.
        3    1    3    3  502    0 -0.16453700793E+03  0.33907127333E+03  0.50295040360E+03  0.62849094987E+03  0.10100000352E+00 0.  1.
       -3    1    3    3    0  502  0.16453700793E+03 -0.33907127333E+03 -0.96434482961E+03  0.10353756400E+04  0.10100000352E+00 0. -1.
</event>
<event>
 5   0  0.9939872E-05  0.1562116E+04  0.7818609E-02  0.8844166E-01
        1   -1    0    0  501    0  0.00000000000E+00  0.00000000000E+00  0.99078136557E+03  0.99078136558E+03  0.50400001928E-02 0. -1.
       -1   -1    0    0    0  501  0.00000000000E+00  0.00000000000E+00 -0.61572780204E+03  0.61572780206E+03  0.50400001928E-02 0.  1.
    10030    2    1    2    0    0  0.00000000000E+00  0.00000000000E+00  0.37505356352E+03  0.16065091676E+04  0.15621160425E+04 0.  0.
        3    1    3    3  502    0  0.68915409871E+03  0.12527876569E+03  0.54292461815E+03  0.88622530549E+03  0.10100000352E+00 0. -1.
       -3    1    3    3    0  502 -0.68915409871E+03 -0.12527876569E+03 -0.16787105463E+03  0.72028386215E+03  0.10100000352E+00 0.  1.
</event>
<event>
 5   0  0.1858913E-04  0.1596468E+04  0.7818609E-02  0.8822721E-01
       -2   -1    0    0    0  501  0.00000000000E+00  0.00000000000E+00  0.34506128823E+03  0.34506128824E+03  0.25500000920E-02 0. -1.
        2   -1    0    0  501    0  0.00000000000E+00  0.00000000000E+00 -0.18465640521E+04  0.18465640521E+04  0.25500000920E-02 0.  1.
    10030    2    1    2    0    0  0.00000000000E+00  0.00000000000E+00 -0.15015027639E+04  0.21916253404E+04  0.15964683156E+04 0.  0.
        4    1    3    3  502    0 -0.26559439678E+03 -0.59609409187E+03 -0.13818010989E+04  0.15281506600E+04  0.12699999809E+01 0.  1.
       -4    1    3    3    0  502  0.26559439678E+03  0.59609409187E+03 -0.11970166503E+03  0.66347468036E+03  0.12699999809E+01 0. -1.
</event>
<event>
 5   0  0.1774934E-04  0.1606227E+04  0.7818609E-02  0.8816731E-01
        2   -1    0    0  501    0  0.00000000000E+00  0.00000000000E+00  0.85418601731E+03  0.85418601731E+03  0.25500000920E-02 0.  1.
       -2   -1    0    0    0  501  0.00000000000E+00  0.00000000000E+00 -0.75509510200E+03  0.75509510201E+03  0.25500000920E-02 0. -1.
    10030    2    1    2    0    0  0.00000000000E+00  0.00000000000E+00  0.99090915307E+02  0.16092811193E+04  0.16062274781E+04 0.  0.
        1    1    3    3  502    0 -0.51712422599E+03  0.32437790184E+03 -0.47332137959E+03  0.77244521923E+03  0.50400001928E-02 0. -1.
       -1    1    3    3    0  502  0.51712422599E+03 -0.32437790184E+03  0.57241229489E+03  0.83683590009E+03  0.50400001928E-02 0.  1.
</event>
<event>
 5   0  0.6838750E-05  0.1595770E+04  0.7818609E-02  0.8823151E-01
        4   -1    0    0  501    0  0.00000000000E+00  0.00000000000E+00  0.76714260045E+03  0.76714365169E+03  0.12699999809E+01 0. -1.
       -4   -1    0    0    0  501  0.00000000000E+00  0.00000000000E+00 -0.82985718594E+03  0.82985815774E+03  0.12699999809E+01 0.  1.
    10030    2    1    2    0    0  0.00000000000E+00  0.00000000000E+00 -0.62714585488E+02  0.15970018094E+04  0.15957699271E+04 0.  0.
        4    1    3    3  502    0  0.27292858893E+02 -0.79044462706E+03 -0.13665825818E+03  0.80263609502E+03  0.12699999809E+01 0. -1.
       -4    1    3    3    0  502 -0.27292858893E+02  0.79044462706E+03  0.73943672692E+02  0.79436571441E+03  0.12699999809E+01 0.  1.
</event>
<event>
 5   0  0.9432152E-05  0.1595495E+04  0.7818609E-02  0.8823320E-01
        1   -1    0    0  501    0  0.00000000000E+00  0.00000000000E+00  0.77041897316E+03  0.77041897318E+03  0.50400001928E-02 0. -1.
       -1   -1    0    0    0  501  0.00000000000E+00  0.00000000000E+00 -0.82604590675E+03  0.82604590677E+03  0.50400001928E-02 0.  1.
    10030    2    1    2    0    0  0.00000000000E+00  0.00000000000E+00 -0.55626933591E+02  0.15964648799E+04  0.15954954582E+04 0.  0.
        4    1    3    3  502    0  0.53230572274E+03 -0.17859748438E+03  0.53923482580E+03  0.77847431180E+03  0.12699999809E+01 0. -1.
       -4    1    3    3    0  502 -0.53230572274E+03  0.17859748438E+03 -0.59486175939E+03  0.81799056814E+03  0.12699999809E+01 0.  1.
</event>
<event>
 5   0  0.9616567E-05  0.1556598E+04  0.7818609E-02  0.8847665E-01
        1   -1    0    0  501    0  0.00000000000E+00  0.00000000000E+00  0.10447622044E+04  0.10447622044E+04  0.50400001928E-02 0. -1.
       -1   -1    0    0    0  501  0.00000000000E+00  0.00000000000E+00 -0.57979611286E+03  0.57979611288E+03  0.50400001928E-02 0.  1.
    10030    2    1    2    0    0  0.00000000000E+00  0.00000000000E+00  0.46496609158E+03  0.16245583173E+04  0.15565976552E+04 0.  0.
        5    1    3    3  502    0 -0.17485469035E+03  0.74334657243E+03  0.38934022974E+03  0.85717337452E+03  0.46999998093E+01 0.  1.
       -5    1    3    3    0  502  0.17485469035E+03 -0.74334657243E+03  0.75625861831E+02  0.76738494281E+03  0.46999998093E+01 0. -1.
</event>
<event>
 5   0  0.1832646E-04  0.1596481E+04  0.7818609E-02  0.8822712E-01
        2   -1    0    0  501    0  0.00000000000E+00  0.00000000000E+00  0.13886557136E+04  0.13886557136E+04  0.25500000920E-02 0. -1.
       -2   -1    0    0    0  501  0.00000000000E+00  0.00000000000E+00 -0.45885258290E+03  0.45885258291E+03  0.25500000920E-02 0.  1.
    10030    2    1    2    0    0  0.00000000000E+00  0.00000000000E+00  0.92980313072E+03  0.18475082965E+04  0.15964814574E+04 0.  0.
        2    1    3    3  502    0 -0.15809589464E+03  0.22999949476E+02 -0.44016248872E+03  0.46825882379E+03  0.25500000920E-02 0.  1.
       -2    1    3    3    0  502  0.15809589464E+03 -0.22999949476E+02  0.13699656194E+04  0.13792494727E+04  0.25500000920E-02 0. -1.
</event>
<event>
 5   0  0.9432152E-05  0.1596943E+04  0.7818609E-02  0.8822428E-01
       -1   -1    0    0    0  501  0.00000000000E+00  0.00000000000E+00  0.81431359483E+03  0.81431359484E+03  0.50400001928E-02 0.  1.
        1   -1    0    0  501    0  0.00000000000E+00  0.00000000000E+00 -0.78293749246E+03  0.78293749247E+03  0.50400001928E-02 0. -1.
    10030    2    1    2    0    0  0.00000000000E+00  0.00000000000E+00  0.31376102373E+02  0.15972510873E+04  0.15969428844E+04 0.  0.
        4    1    3    3  502    0 -0.59950950758E+03 -0.39161469209E+03  0.36900021276E+03  0.80556594185E+03  0.12699999809E+01 0. -1.
       -4    1    3    3    0  502  0.59950950758E+03  0.39161469209E+03 -0.33762411039E+03  0.79168514547E+03  0.12699999809E+01 0.  1.
</event>
<event>
 5   0  0.1835088E-04  0.1615413E+04  0.7818609E-02  0.8811135E-01
       -2   -1    0    0    0  501  0.00000000000E+00  0.00000000000E+00  0.11393134749E+04  0.11393134749E+04  0.25500000920E-02 0. -1.
        2   -1    0    0  501    0  0.00000000000E+00  0.00000000000E+00 -0.57261668962E+03  0.57261668962E+03  0.25500000920E-02 0.  1.
    10030    2    1    2    0    0  0.00000000000E+00  0.00000000000E+00  0.56669678528E+03  0.17119301645E+04  0.16154131489E+04 0.  0.
        5    1    3    3  502    0 -0.27282891185E+03 -0.27313085388E+03 -0.46849881399E+03  0.60708261974E+03  0.46999998093E+01 0.  1.
       -5    1    3    3    0  502  0.27282891185E+03  0.27313085388E+03  0.10351955993E+04  0.11048475448E+04  0.46999998093E+01 0. -1.
</event>
<event>
 5   0  0.9616567E-05  0.1610978E+04  0.7818609E-02  0.8813832E-01
        1   -1    0    0  501    0  0.00000000000E+00  0.00000000000E+00  0.11158470661E+04  0.11158470661E+04  0.50400001928E-02 0.  1.
       -1   -1    0    0    0  501  0.00000000000E+00  0.00000000000E+00 -0.58145271314E+03  0.58145271316E+03  0.50400001928E-02 0. -1.
    10030    2    1    2    0    0  0.00000000000E+00  0.00000000000E+00  0.53439435296E+03  0.16972997793E+04  0.16109777206E+04 0.  0.
        5    1    3    3  502    0 -0.52357653113E+03  0.17922657562E+03 -0.34942894573E+03  0.65450533036E+03  0.46999998093E+01 0. -1.
       -5    1    3    3    0  502  0.52357653113E+03 -0.17922657562E+03  0.88382329870E+03  0.10427944489E+04  0.46999998093E+01 0.  1.
</event>
<event>
 5   0  0.9673017E-05  0.1596299E+04  0.7818609E-02  0.8822825E-01
        1   -1    0    0  501    0  0.00000000000E+00  0.00000000000E+00  0.77189068812E+03  0.77189068813E+03  0.50400001928E-02 0.  1.
       -1   -1    0    0    0  501  0.00000000000E+00  0.00000000000E+00 -0.82530164350E+03  0.82530164352E+03  0.50400001928E-02 0. -1.
    10030    2    1    2    0    0  0.00000000000E+00  0.00000000000E+00 -0.53410955389E+02  0.15971923317E+04  0.15962990366E+04 0.  0.
        1    1    3    3  502    0 -0.21248376704E+03 -0.76898756260E+03 -0.32097725778E+01  0.79781045703E+03  0.50400001928E-02 0. -1.
       -1    1    3    3    0  502  0.21248376704E+03  0.76898756260E+03 -0.50201182811E+02  0.79938187462E+03  0.50400001928E-02 0.  1.
</event>
<event>
 5   0  0.1832646E-04  0.1602467E+04  0.7818609E-02  0.8819034E-01
        2   -1    0    0  501    0  0.00000000000E+00  0.00000000000E+00  0.58339135401E+03  0.58339135401E+03  0.25500000920E-02 0. -1.
       -2   -1    0    0    0  501  0.00000000000E+00  0.00000000000E+00 -0.11004198631E+04  0.11004198631E+04  0.25500000920E-02 0.  1.
    10030    2    1    2    0    0  0.00000000000E+00  0.00000000000E+00 -0.51702850912E+03  0.16838112171E+04  0.16024673899E+04 0.  0.
        2    1    3    3  502    0  0.45083240447E+03  0.63628862436E+03 -0.45187256017E+03  0.90127791555E+03  0.25500000920E-02 0.  1.
       -2    1    3    3    0  502 -0.45083240447E+03 -0.63628862436E+03 -0.65155948948E+02  0.78253330159E+03  0.25500000920E-02 0. -1.
</event>
<event>
 5   0  0.9616567E-05  0.1598740E+04  0.7818609E-02  0.8821322E-01
       -1   -1    0    0    0  501  0.00000000000E+00  0.00000000000E+00  0.87532173492E+03  0.87532173493E+03  0.50400001928E-02 0. -1.
        1   -1    0    0  501    0  0.00000000000E+00  0.00000000000E+00 -0.73000889917E+03  0.73000889918E+03  0.50400001928E-02 0.  1.
    10030    2    1    2    0    0  0.00000000000E+00  0.00000000000E+00  0.14531283575E+03  0.16053306341E+04  0.15987403243E+04 0.  0.
        5    1    3    3  502    0  0.70427909773E+01  0.65907913216E+02  0.87254365295E+03  0.87507026588E+03  0.46999998093E+01 0. -1.
       -5    1    3    3    0  502 -0.70427909773E+01 -0.65907913216E+02 -0.72723081720E+03  0.73026036823E+03  0.46999998093E+01 0.  1.
</event>
<event>
 5   0  0.1774934E-04  0.1602818E+04  0.7818609E-02  0.8818819E-01
        2   -1    0    0  501    0  0.00000000000E+00  0.00000000000E+00  0.11029522061E+04  0.11029522061E+04  0.25500000920E-02 0. -1.
       -2   -1    0    0    0  501  0.00000000000E+00  0.00000000000E+00 -0.58230666554E+03  0.58230666555E+03  0.25500000920E-02 0.  1.
    10030    2    1    2    0    0  0.00000000000E+00  0.00000000000E+00  0.52064554059E+03  0.16852588717E+04  0.16028180451E+04 0.  0.
        1    1    3    3  502    0 -0.19014689851E+03 -0.14969731429E+03 -0.54297027341E+03  0.59445928939E+03  0.50400001928E-02 0.  1.
       -1    1    3    3    0  502  0.19014689851E+03  0.14969731429E+03  0.10636158140E+04  0.10907995823E+04  0.50400001928E-02 0. -1.
</event>
<event>
 5   0  0.9673017E-05  0.1599461E+04  0.7818609E-02  0.8820879E-01
       -1   -1    0    0    0  501  0.00000000000E+00  0.00000000000E+00  0.10121238180E+04  0.10121238180E+04  0.50400001928E-02 0. -1.
        1   -1    0    0  501    0  0.00000000000E+00  0.00000000000E+00 -0.63190745698E+03  0.63190745700E+03  0.50400001928E-02 0.  1.
    10030    2    1    2    0    0  0.00000000000E+00  0.00000000000E+00  0.38021636102E+03  0.16440312750E+04  0.15994606441E+04 0.  0.
        1    1    3    3  502    0 -0.56659556016E+03  0.44173602561E+03  0.55119115995E+03  0.90552357228E+03  0.50400001928E-02 0. -1.
       -1    1    3    3    0  502  0.56659556016E+03 -0.44173602561E+03 -0.17097479893E+03  0.73850770274E+03  0.50400001928E-02 0.  1.
</event>
<event>
 5   0  0.9726935E-05  0.1618030E+04  0.7818609E-02  0.8809547E-01
        1   -1    0    0  501    0  0.00000000000E+00  0.00000000000E+00  0.13395007612E+04  0.13395007613E+04  0.50400001928E-02 0. -1.
       -1   -1    0    0    0  501  0.00000000000E+00  0.00000000000E+00 -0.48861900112E+03  0.48861900115E+03  0.50400001928E-02 0.  1.
    10030    2    1    2    0    0  0.00000000000E+00  0.00000000000E+00  0.85088176012E+03  0.18281197624E+04  0.16180303137E+04 0.  0.
        2    1    3    3  502    0 -0.17500021336E+03 -0.11721879600E+03 -0.45709589393E+03  0.50329114543E+03  0.25500000920E-02 0.  1.
       -2    1    3    3    0  502  0.17500021336E+03  0.11721879600E+03  0.13079776541E+04  0.13248286170E+04  0.25500000920E-02 0. -1.
</event>
<event>
 5   0  0.1858913E-04  0.1597207E+04  0.7818609E-02  0.8822266E-01
        2   -1    0    0  501    0  0.00000000000E+00  0.00000000000E+00  0.16874546991E+04  0.16874546991E+04  0.25500000920E-02 0.  1.
       -2   -1    0    0    0  501  0.00000000000E+00  0.00000000000E+00 -0.37794641226E+03  0.37794641227E+03  0.25500000920E-02 0. -1.
    10030    2    1    2    0    0  0.00000000000E+00  0.00000000000E+00  0.13095082869E+04  0.20654011114E+04  0.15972068738E+04 0.  0.
        4    1    3    3  502    0  0.72396354743E+03  0.32947095452E+03  0.56248287778E+03  0.97419860838E+03  0.12699999809E+01 0.  1.
       -4    1    3    3    0  502 -0.72396354743E+03 -0.32947095452E+03  0.74702540908E+03  0.10912025030E+04  0.12699999809E+01 0. -1.
</event>
<event>
 5   0  0.1832646E-04  0.1601626E+04  0.7818609E-02  0.8819549E-01
       -2   -1    0    0    0  501  0.00000000000E+00  0.00000000000E+00  0.46408138808E+03  0.46408138809E+03  0.25500000920E-02 0. -1.
        2   -1    0    0  501    0  0.00000000000E+00  0.00000000000E+00 -0.13818735241E+04  0.13818735241E+04  0.25500000920E-02 0.  1.
    10030    2    1    2    0    0  0.00000000000E+00  0.00000000000E+00 -0.91779213607E+03  0.18459549122E+04  0.16016264024E+04 0.  0.
        2    1    3    3  502    0 -0.53537763290E+03  0.54723198188E+03 -0.18808420373E+03  0.78833223929E+03  0.25500000920E-02 0. -1.
       -2    1    3    3    0  502  0.53537763290E+03 -0.54723198188E+03 -0.72970793234E+03  0.10576226729E+04  0.25500000920E-02 0.  1.
</event>
<event>
 5   0  0.1858913E-04  0.1628489E+04  0.7818609E-02  0.8803235E-01
       -2   -1    0    0    0  501  0.00000000000E+00  0.00000000000E+00  0.44391338304E+03  0.44391338305E+03  0.25500000920E-02 0. -1.
        2   -1    0    0  501    0  0.00000000000E+00  0.00000000000E+00 -0.14935219566E+04  0.14935219566E+04  0.25500000920E-02 0.  1.
    10030    2    1    2    0    0  0.00000000000E+00  0.00000000000E+00 -0.10496085736E+04  0.19374353397E+04  0.16284893422E+04 0.  0.
        4    1    3    3  502    0 -0.52882669352E+03  0.37110159640E+03 -0.11144253847E+04  0.12881458060E+04  0.12699999809E+01 0.  1.
       -4    1    3    3    0  502  0.52882669352E+03 -0.37110159640E+03  0.64816811087E+02  0.64928953367E+03  0.12699999809E+01 0. -1.
</event>
<event>
 5   0  0.9726935E-05  0.1596023E+04  0.7818609E-02  0.8822995E-01
       -1   -1    0    0    0  501  0.00000000000E+00  0.00000000000E+00  0.52877420945E+03  0.52877420947E+03  0.50400001928E-02 0.  1.
        1   -1    0    0  501    0  0.00000000000E+00  0.00000000000E+00 -0.12043376796E+04  0.12043376797E+04  0.50400001928E-02 0. -1.
    10030    2    1    2    0    0  0.00000000000E+00  0.00000000000E+00 -0.67556347020E+03  0.17331118891E+04  0.15960234390E+04 0.  0.
        2    1    3    3  502    0 -0.65109212487E+03  0.36834939960E+03 -0.36027374576E+02  0.74893271191E+03  0.25500000920E-02 0.  1.
       -2    1    3    3    0  502  0.65109212487E+03 -0.36834939960E+03 -0.63953609562E+03  0.98417917721E+03  0.25500000920E-02 0. -1.
</event>
<event>
 5   0  0.1774934E-04  0.1615481E+04  0.7818609E-02  0.8811093E-01
        2   -1    0    0  501    0  0.00000000000E+00  0.00000000000E+00  0.86512364341E+03  0.86512364341E+03  0.25500000920E-02 0. -1.
       -2   -1    0    0    0  501  0.00000000000E+00  0.00000000000E+00 -0.75416366768E+03  0.75416366768E+03  0.25500000920E-02 0.  1.
    10030    2    1    2    0    0  0.00000000000E+00  0.00000000000E+00  0.11095997573E+03  0.16192873111E+04  0.16154811295E+04 0.  0.
        1    1    3    3  502    0 -0.22886726937E+03  0.11361875832E+03  0.82354599067E+03  0.86227457808E+03  0.50400001928E-02 0. -1.
       -1    1    3    3    0  502  0.22886726937E+03 -0.11361875832E+03 -0.71258601494E+03  0.75701273301E+03  0.50400001928E-02 0.  1.
</event>
<event>
 5   0  0.9432152E-05  0.1598121E+04  0.7818609E-02  0.8821703E-01
       -1   -1    0    0    0  501  0.00000000000E+00  0.00000000000E+00  0.85219325238E+03  0.85219325239E+03  0.50400001928E-02 0.  1.
        1   -1    0    0  501    0  0.00000000000E+00  0.00000000000E+00 -0.74924075607E+03  0.74924075609E+03  0.50400001928E-02 0. -1.
    10030    2    1    2    0    0  0.00000000000E+00  0.00000000000E+00  0.10295249630E+03  0.16014340085E+04  0.15981212930E+04 0.  0.
        4    1    3    3  502    0  0.14891916270E+03  0.70935325225E+03  0.38853244087E+03  0.82238556895E+03  0.12699999809E+01 0.  1.
       -4    1    3    3    0  502 -0.14891916270E+03 -0.70935325225E+03 -0.28557994457E+03  0.77904843954E+03  0.12699999809E+01 0. -1.
</event>
<event>
 5   0  0.9726935E-05  0.1598930E+04  0.7818609E-02  0.8821205E-01
        1   -1    0    0  501    0  0.00000000000E+00  0.00000000000E+00  0.89044009980E+03  0.89044009982E+03  0.50400001928E-02 0.  1.
       -1   -1    0    0    0  501  0.00000000000E+00  0.00000000000E+00 -0.71778512619E+03  0.71778512621E+03  0.50400001928E-02 0. -1.
    10030    2    1    2    0    0  0.00000000000E+00  0.00000000000E+00  0.17265497361E+03  0.16082252260E+04  0.15989304668E+04 0.  0.
        2    1    3    3  502    0 -0.19856209883E+03  0.49729821347E+03  0.68342159201E+03  0.86821511887E+03  0.25500000920E-02 0.  1.
       -2    1    3    3    0  502  0.19856209883E+03 -0.49729821347E+03 -0.51076661840E+03  0.74001010715E+03  0.25500000920E-02 0. -1.
</event>
<event>
 5   0  0.9673017E-05  0.1611910E+04  0.7818609E-02  0.8813264E-01
       -1   -1    0    0    0  501  0.00000000000E+00  0.00000000000E+00  0.32630501590E+03  0.32630501593E+03  0.50400001928E-02 0.  1.
        1   -1    0    0  501    0  0.00000000000E+00  0.00000000000E+00 -0.19906639571E+04  0.19906639571E+04  0.50400001928E-02 0. -1.
    10030    2    1    2    0    0  0.00000000000E+00  0.00000000000E+00 -0.16643589412E+04  0.23169689730E+04  0.16119102136E+04 0.  0.
        1    1    3    3  502    0  0.43778007956E+03  0.90525644559E+02 -0.17961176664E+04  0.18509146285E+04  0.50400001928E-02 0. -1.
       -1    1    3    3    0  502 -0.43778007956E+03 -0.90525644559E+02  0.13175872520E+03  0.46605434455E+03  0.50400001928E-02 0.  1.
</event>
<event>
 5   0  0.1774934E-04  0.1600619E+04  0.7818609E-02  0.8820168E-01
        2   -1    0    0  501    0  0.00000000000E+00  0.00000000000E+00  0.15657099146E+04  0.15657099147E+04  0.25500000920E-02 0.  1.
       -2   -1    0    0    0  501  0.00000000000E+00  0.00000000000E+00 -0.40907682677E+03  0.40907682678E+03  0.25500000920E-02 0. -1.
    10030    2    1    2    0    0  0.00000000000E+00  0.00000000000E+00  0.11566330879E+04  0.19747867414E+04  0.16006194345E+04 0.  0.
        1    1    3    3  502    0  0.68604321300E+03  0.27155571679E+03  0.96077911818E+03  0.12114017960E+04  0.50400001928E-02 0.  1.
       -1    1    3    3    0  502 -0.68604321300E+03 -0.27155571679E+03  0.19585396970E+03  0.76338494542E+03  0.50400001928E-02 0. -1.
</event>
<event>
 5   0  0.9939872E-05  0.1558460E+04  0.7818609E-02  0.8846482E-01
        1   -1    0    0  501    0  0.00000000000E+00  0.00000000000E+00  0.12603481259E+04  0.12603481259E+04  0.50400001928E-02 0.  1.
       -1   -1    0    0    0  501  0.00000000000E+00  0.00000000000E+00 -0.48177135016E+03  0.48177135018E+03  0.50400001928E-02 0. -1.
    10030    2    1    2    0    0  0.00000000000E+00  0.00000000000E+00  0.77857677575E+03  0.17421194761E+04  0.15584602893E+04 0.  0.
        3    1    3    3  502    0 -0.31288436361E+03 -0.31295747034E+03  0.11062461060E+04  0.11914778472E+04  0.10100000352E+00 0.  1.
       -3    1    3    3    0  502  0.31288436361E+03  0.31295747034E+03 -0.32766933026E+03  0.55064162885E+03  0.10100000352E+00 0. -1.
</event>
<event>
 5   0  0.9616567E-05  0.1571048E+04  0.7818609E-02  0.8838534E-01
       -1   -1    0    0    0  501  0.00000000000E+00  0.00000000000E+00  0.39928708450E+03  0.39928708453E+03  0.50400001928E-02 0. -1.
        1   -1    0    0  501    0  0.00000000000E+00  0.00000000000E+00 -0.15453747598E+04  0.15453747598E+04  0.50400001928E-02 0.  1.
    10030    2    1    2    0    0  0.00000000000E+00  0.00000000000E+00 -0.11460876753E+04  0.19446618443E+04  0.15710482899E+04 0.  0.
        5    1    3    3  502    0 -0.71906297261E+03  0.21442554431E+03 -0.86067519888E+03  0.11418466450E+04  0.46999998093E+01 0.  1.
       -5    1    3    3    0  502  0.71906297261E+03 -0.21442554431E+03 -0.28541247639E+03  0.80281519935E+03  0.46999998093E+01 0. -1.
</event>
<event>
 5   0  0.9939872E-05  0.1587779E+04  0.7818609E-02  0.8828091E-01
       -1   -1    0    0    0  501  0.00000000000E+00  0.00000000000E+00  0.56923882700E+03  0.56923882702E+03  0.50400001928E-02 0. -1.
        1   -1    0    0  501    0  0.00000000000E+00  0.00000000000E+00 -0.11071987452E+04  0.11071987452E+04  0.50400001928E-02 0.  1.
    10030    2    1    2    0    0  0.00000000000E+00  0.00000000000E+00 -0.53795991823E+03  0.16764375723E+04  0.15877789708E+04 0.  0.
        3    1    3    3  502    0 -0.27637510678E+03  0.66313921427E+03  0.87705363089E+02  0.72376035956E+03  0.10100000352E+00 0. -1.
       -3    1    3    3    0  502  0.27637510678E+03 -0.66313921427E+03 -0.62566528132E+03  0.95267721270E+03  0.10100000352E+00 0.  1.
</event>
<event>
 5   0  0.1832646E-04  0.1599518E+04  0.7818609E-02  0.8820844E-01
       -2   -1    0    0    0  501  0.00000000000E+00  0.00000000000E+00  0.55657823195E+03  0.55657823196E+03  0.25500000920E-02 0.  1.
        2   -1    0    0  501    0  0.00000000000E+00  0.00000000000E+00 -0.11491912625E+04  0.11491912625E+04  0.25500000920E-02 0. -1.
    10030    2    1    2    0    0  0.00000000000E+00  0.00000000000E+00 -0.59261303054E+03  0.17057694945E+04  0.15995184789E+04 0.  0.
        2    1    3    3  502    0  0.40276480903E+03  0.14664955113E+03 -0.10163533764E+04  0.11030411452E+04  0.25500000920E-02 0. -1.
       -2    1    3    3    0  502 -0.40276480903E+03 -0.14664955113E+03  0.42374034589E+03  0.60272834924E+03  0.25500000920E-02 0.  1.
</event>
<event>
 5   0  0.1832646E-04  0.1512250E+04  0.7818609E-02  0.8876348E-01
       -2   -1    0    0    0  501  0.00000000000E+00  0.00000000000E+00  0.30339238088E+03  0.30339238089E+03  0.25500000920E-02 0. -1.
        2   -1    0    0  501    0  0.00000000000E+00  0.00000000000E+00 -0.18844405858E+04  0.18844405858E+04  0.25500000920E-02 0.  1.
    10030    2    1    2    0    0  0.00000000000E+00  0.00000000000E+00 -0.15810482050E+04  0.21878329667E+04  0.15122498682E+04 0.  0.
        2    1    3    3  502    0  0.47093780657E+03 -0.38115213077E+03 -0.14450291223E+04  0.15668977404E+04  0.25500000920E-02 0.  1.
       -2    1    3    3    0  502 -0.47093780657E+03  0.38115213077E+03 -0.13601908261E+03  0.62093522632E+03  0.25500000920E-02 0. -1.
</event>
<event>
 5   0  0.1858913E-04  0.1602282E+04  0.7818609E-02  0.8819147E-01
        2   -1    0    0  501    0  0.00000000000E+00  0.00000000000E+00  0.23326860069E+03  0.23326860070E+03  0.25500000920E-02 0.  1.
       -2   -1    0    0    0  501  0.00000000000E+00  0.00000000000E+00 -0.27514515111E+04  0.27514515111E+04  0.25500000920E-02 0. -1.
    10030    2    1    2    0    0  0.00000000000E+00  0.00000000000E+00 -0.25181829104E+04  0.29847201118E+04  0.16022824269E+04 0.  0.
        4    1    3    3  502    0 -0.24845158683E+03 -0.10471594668E+03  0.14621502493E+03  0.30671496035E+03  0.12699999809E+01 0.  1.
       -4    1    3    3    0  502  0.24845158683E+03  0.10471594668E+03 -0.26643979353E+04  0.26780051514E+04  0.12699999809E+01 0. -1.
</event>
<event>
 5   0  0.6838750E-05  0.1599821E+04  0.7818609E-02  0.8820658E-01
       -3   -1    0    0    0  501  0.00000000000E+00  0.00000000000E+00  0.47286276801E+03  0.47286277880E+03  0.10100000352E+00 0. -1.
        3   -1    0    0  501    0  0.00000000000E+00  0.00000000000E+00 -0.13531559779E+04  0.13531559816E+04  0.10100000352E+00 0.  1.
    10030    2    1    2    0    0  0.00000000000E+00  0.00000000000E+00 -0.88029320985E+03  0.18260187604E+04  0.15998213582E+04 0.  0.
        2    1    3    3  502    0  0.25493328940E+03 -0.75572839864E+03 -0.50995540660E+03  0.94666303999E+03  0.25500000920E-02 0. -1.
       -2    1    3    3    0  502 -0.25493328940E+03  0.75572839864E+03 -0.37033780325E+03  0.87935572044E+03  0.25500000920E-02 0.  1.
</event>
<event>
 5   0  0.9939872E-05  0.1492848E+04  0.7818609E-02  0.8889223E-01
        1   -1    0    0  501    0  0.00000000000E+00  0.00000000000E+00  0.10799825345E+04  0.10799825345E+04  0.50400001928E-02 0.  1.
       -1   -1    0    0    0  501  0.00000000000E+00  0.00000000000E+00 -0.51588664045E+03  0.51588664047E+03  0.50400001928E-02 0. -1.
    10030    2    1    2    0    0  0.00000000000E+00  0.00000000000E+00  0.56409589406E+03  0.15958691750E+04  0.14928476969E+04 0.  0.
        3    1    3    3  502    0  0.18835387112E+03 -0.12833841504E+03 -0.47777730350E+03  0.52935724373E+03  0.10100000352E+00 0. -1.
       -3    1    3    3    0  502 -0.18835387112E+03  0.12833841504E+03  0.10418731976E+04  0.10665119313E+04  0.10100000352E+00 0.  1.
</event>
<event>
 5   0  0.9432152E-05  0.1599495E+04  0.7818609E-02  0.8820858E-01
       -1   -1    0    0    0  501  0.00000000000E+00  0.00000000000E+00  0.86625238577E+03  0.86625238578E+03  0.50400001928E-02 0. -1.
        1   -1    0    0  501    0  0.00000000000E+00  0.00000000000E+00 -0.73834841460E+03  0.73834841462E+03  0.50400001928E-02 0.  1.
    10030    2    1    2    0    0  0.00000000000E+00  0.00000000000E+00  0.12790397117E+03  0.16046008004E+04  0.15994950149E+04 0.  0.
        4    1    3    3  502    0 -0.46992620559E+03 -0.12536022555E+03  0.70083965767E+03  0.85306720926E+03  0.12699999809E+01 0. -1.
       -4    1    3    3    0  502  0.46992620559E+03  0.12536022555E+03 -0.57293568650E+03  0.75153359114E+03  0.12699999809E+01 0.  1.
</event>
<event>
 5   0  0.1835088E-04  0.1595737E+04  0.7818609E-02  0.8823171E-01
       -2   -1    0    0    0  501  0.00000000000E+00  0.00000000000E+00  0.67775315672E+03  0.67775315672E+03  0.25500000920E-02 0.  1.
        2   -1    0    0  501    0  0.00000000000E+00  0.00000000000E+00 -0.93927173012E+03  0.93927173013E+03  0.25500000920E-02 0. -1.
    10030    2    1    2    0    0  0.00000000000E+00  0.00000000000E+00 -0.26151857341E+03  0.16170248868E+04  0.15957372968E+04 0.  0.
        5    1    3    3  502    0  0.48362891087E+03 -0.36718265442E+03 -0.65520793417E+03  0.89333059510E+03  0.46999998093E+01 0. -1.
       -5    1    3    3    0  502 -0.48362891087E+03  0.36718265442E+03  0.39368936076E+03  0.72369429175E+03  0.46999998093E+01 0.  1.
</event>
<event>
 5   0  0.9939872E-05  0.1597235E+04  0.7818609E-02  0.8822248E-01
        1   -1    0    0  501    0  0.00000000000E+00  0.00000000000E+00  0.76903626625E+03  0.76903626627E+03  0.50400001928E-02 0.  1.
       -1   -1    0    0    0  501  0.00000000000E+00  0.00000000000E+00 -0.82933694190E+03  0.82933694192E+03  0.50400001928E-02 0. -1.
    10030    2    1    2    0    0  0.00000000000E+00  0.00000000000E+00 -0.60300675655E+02  0.15983732082E+04  0.15972353431E+04 0.  0.
        3    1    3    3  502    0  0.37550154178E+03  0.32756659122E+03 -0.65468539238E+03  0.82274798861E+03  0.10100000352E+00 0. -1.
       -3    1    3    3    0  502 -0.37550154178E+03 -0.32756659122E+03  0.59438471673E+03  0.77562521958E+03  0.10100000352E+00 0.  1.
</event>
<event>
 5   0  0.9726935E-05  0.1567486E+04  0.7818609E-02  0.8840775E-01
        1   -1    0    0  501    0  0.00000000000E+00  0.00000000000E+00  0.69687532684E+03  0.69687532685E+03  0.50400001928E-02 0. -1.
       -1   -1    0    0    0  501  0.00000000000E+00  0.00000000000E+00 -0.88143882721E+03  0.88143882722E+03  0.50400001928E-02 0.  1.
    10030    2    1    2    0    0  0.00000000000E+00  0.00000000000E+00 -0.18456350037E+03  0.15783141541E+04  0.15674858479E+04 0.  0.
        2    1    3    3  502    0  0.28410565121E+02 -0.67144888491E+03  0.31374349643E+03  0.74167765695E+03  0.25500000920E-02 0. -1.
       -2    1    3    3    0  502 -0.28410565121E+02  0.67144888491E+03 -0.49830699680E+03  0.83663649713E+03  0.25500000920E-02 0.  1.
</event>
<event>
 5   0  0.1914170E-04  0.1593833E+04  0.7818609E-02  0.8824346E-01
       -2   -1    0    0    0  501  0.00000000000E+00  0.00000000000E+00  0.36050832248E+03  0.36050832249E+03  0.25500000920E-02 0. -1.
        2   -1    0    0  501    0  0.00000000000E+00  0.00000000000E+00 -0.17616121456E+04  0.17616121456E+04  0.25500000920E-02 0.  1.
    10030    2    1    2    0    0  0.00000000000E+00  0.00000000000E+00 -0.14011038232E+04  0.21221204681E+04  0.15938329141E+04 0.  0.
        3    1    3    3  502    0 -0.31370299967E+03 -0.16345524980E+03  0.25025090901E+03  0.43330441765E+03  0.10100000352E+00 0. -1.
       -3    1    3    3    0  502  0.31370299967E+03  0.16345524980E+03 -0.16513547322E+04  0.16888160505E+04  0.10100000352E+00 0.  1.
</event>
<event>
 5   0  0.9939872E-05  0.1607334E+04  0.7818609E-02  0.8816055E-01
        1   -1    0    0  501    0  0.00000000000E+00  0.00000000000E+00  0.11014494724E+04  0.11014494724E+04  0.50400001928E-02 0.  1.
       -1   -1    0    0    0  501  0.00000000000E+00  0.00000000000E+00 -0.58639148567E+03  0.58639148570E+03  0.50400001928E-02 0. -1.
    10030    2    1    2    0    0  0.00000000000E+00  0.00000000000E+00  0.51505798675E+03  0.16878409581E+04  0.16073339324E+04 0.  0.
        3    1    3    3  502    0  0.60093317282E+03 -0.14346416738E+03 -0.28219743009E+03  0.67921870209E+03  0.10100000352E+00 0.  1.
       -3    1    3    3    0  502 -0.60093317282E+03  0.14346416738E+03  0.79725541683E+03  0.10086222560E+04  0.10100000352E+00 0. -1.
</event>
<event>
 5   0  0.9939872E-05  0.1579366E+04  0.7818609E-02  0.8833325E-01
        1   -1    0    0  501    0  0.00000000000E+00  0.00000000000E+00  0.14590580269E+04  0.14590580269E+04  0.50400001928E-02 0. -1.
       -1   -1    0    0    0  501  0.00000000000E+00  0.00000000000E+00 -0.42739852991E+03  0.42739852994E+03  0.50400001928E-02 0.  1.
    10030    2    1    2    0    0  0.00000000000E+00  0.00000000000E+00  0.10316594970E+04  0.18864565568E+04  0.15793660194E+04 0.  0.
        3    1    3    3  502    0  0.33492243868E+03  0.51445787832E+03  0.11091658595E+04  0.12677100862E+04  0.10100000352E+00 0. -1.
       -3    1    3    3    0  502 -0.33492243868E+03 -0.51445787832E+03 -0.77506362543E+02  0.61874647065E+03  0.10100000352E+00 0.  1.
</event>
<event>
 5   0  0.9939872E-05  0.1593148E+04  0.7818609E-02  0.8824769E-01
       -1   -1    0    0    0  501  0.00000000000E+00  0.00000000000E+00  0.96576175311E+03  0.96576175312E+03  0.50400001928E-02 0. -1.
        1   -1    0    0  501    0  0.00000000000E+00  0.00000000000E+00 -0.65702541751E+03  0.65702541753E+03  0.50400001928E-02 0.  1.
    10030    2    1    2    0    0  0.00000000000E+00  0.00000000000E+00  0.30873633560E+03  0.16227871706E+04  0.15931478514E+04 0.  0.
        3    1    3    3  502    0  0.63548115207E+03  0.44946309664E+03  0.32686042607E+03  0.84421035187E+03  0.10100000352E+00 0. -1.
       -3    1    3    3    0  502 -0.63548115207E+03 -0.44946309664E+03 -0.18124090475E+02  0.77857681878E+03  0.10100000352E+00 0.  1.
</event>
<event>
 5   0  0.6838750E-05  0.1640168E+04  0.7818609E-02  0.8796245E-01
        4   -1    0    0  501    0  0.00000000000E+00  0.00000000000E+00  0.67145998731E+03  0.67146118835E+03  0.12699999809E+01 0.  1.
       -4   -1    0    0    0  501  0.00000000000E+00  0.00000000000E+00 -0.10016021043E+04  0.10016029094E+04  0.12699999809E+01 0. -1.
    10030    2    1    2    0    0  0.00000000000E+00  0.00000000000E+00 -0.33014211697E+03  0.16730640978E+04  0.16401675701E+04 0.  0.
        1    1    3    3  502    0  0.51078154710E+03  0.61553164936E+03  0.19557573371E+02  0.80009968061E+03  0.50400001928E-02 0.  1.
       -1    1    3    3    0  502 -0.51078154710E+03 -0.61553164936E+03 -0.34969969034E+03  0.87296441718E+03  0.50400001928E-02 0. -1.
</event>
<event>
 5   0  0.9432152E-05  0.1603271E+04  0.7818609E-02  0.8818541E-01
       -1   -1    0    0    0  501  0.00000000000E+00  0.00000000000E+00  0.42970685306E+03  0.42970685309E+03  0.50400001928E-02 0.  1.
        1   -1    0    0  501    0  0.00000000000E+00  0.00000000000E+00 -0.14954837180E+04  0.14954837180E+04  0.50400001928E-02 0. -1.
    10030    2    1    2    0    0  0.00000000000E+00  0.00000000000E+00 -0.10657768649E+04  0.19251905711E+04  0.16032711590E+04 0.  0.
        4    1    3    3  502    0  0.20363757681E+03 -0.41619292274E+03 -0.13184038712E+04  0.13974531091E+04  0.12699999809E+01 0. -1.
       -4    1    3    3    0  502 -0.20363757681E+03  0.41619292274E+03  0.25262700625E+03  0.52773746202E+03  0.12699999809E+01 0.  1.
</event>
<event>
 5   0  0.9432152E-05  0.1611789E+04  0.7818609E-02  0.8813338E-01
        1   -1    0    0  501    0  0.00000000000E+00  0.00000000000E+00  0.20430602939E+04  0.20430602939E+04  0.50400001928E-02 0. -1.
       -1   -1    0    0    0  501  0.00000000000E+00  0.00000000000E+00 -0.31788878625E+03  0.31788878629E+03  0.50400001928E-02 0.  1.
    10030    2    1    2    0    0  0.00000000000E+00  0.00000000000E+00  0.17251715076E+04  0.23609490801E+04  0.16117890149E+04 0.  0.
        4    1    3    3  502    0 -0.11060122430E+03 -0.79605234615E+03  0.77552711638E+03  0.11168598344E+04  0.12699999809E+01 0. -1.
       -4    1    3    3    0  502  0.11060122430E+03  0.79605234615E+03  0.94964439122E+03  0.12440892457E+04  0.12699999809E+01 0.  1.
</event>
<event>
 5   0  0.1914170E-04  0.1596100E+04  0.7818609E-02  0.8822948E-01
        2   -1    0    0  501    0  0.00000000000E+00  0.00000000000E+00  0.82742332763E+03  0.82742332763E+03  0.25500000920E-02 0. -1.
       -2   -1    0    0    0  501  0.00000000000E+00  0.00000000000E+00 -0.76971941880E+03  0.76971941881E+03  0.25500000920E-02 0.  1.
    10030    2    1    2    0    0  0.00000000000E+00  0.00000000000E+00  0.57703908825E+02  0.15971427464E+04  0.15961000004E+04 0.  0.
        3    1    3    3  502    0 -0.61409654720E+03  0.45074782734E+03 -0.20920180527E+03  0.78997061886E+03  0.10100000352E+00 0.  1.
       -3    1    3    3    0  502  0.61409654720E+03 -0.45074782734E+03  0.26690571409E+03  0.80717212758E+03  0.10100000352E+00 0. -1.
</event>
<event>
 5   0  0.1858913E-04  0.1588418E+04  0.7818609E-02  0.8827695E-01
        2   -1    0    0  501    0  0.00000000000E+00  0.00000000000E+00  0.17194841082E+04  0.17194841082E+04  0.25500000920E-02 0.  1.
       -2   -1    0    0    0  501  0.00000000000E+00  0.00000000000E+00 -0.36683574833E+03  0.36683574834E+03  0.25500000920E-02 0. -1.
    10030    2    1    2    0    0  0.00000000000E+00  0.00000000000E+00  0.13526483599E+04  0.20863198565E+04  0.15884183827E+04 0.  0.
        4    1    3    3  502    0 -0.11466903880E+03 -0.31288409166E+03  0.16232178129E+04  0.16570706456E+04  0.12699999809E+01 0.  1.
       -4    1    3    3    0  502  0.11466903880E+03  0.31288409166E+03 -0.27056945308E+03  0.42924921097E+03  0.12699999809E+01 0. -1.
</event>
<event>
 5   0  0.1858913E-04  0.1599150E+04  0.7818609E-02  0.8821070E-01
        2   -1    0    0  501    0  0.00000000000E+00  0.00000000000E+00  0.13843496919E+04  0.13843496919E+04  0.25500000920E-02 0. -1.
       -2   -1    0    0    0  501  0.00000000000E+00  0.00000000000E+00 -0.46181998113E+03  0.46181998113E+03  0.25500000920E-02 0.  1.
    10030    2    1    2    0    0  0.00000000000E+00  0.00000000000E+00  0.92252971074E+03  0.18461696730E+04  0.15991502101E+04 0.  0.
        4    1    3    3  502    0  0.27403751739E+03  0.33090882654E+03 -0.31722885586E+03  0.53407206659E+03  0.12699999809E+01 0.  1.
       -4    1    3    3    0  502 -0.27403751739E+03 -0.33090882654E+03  0.12397585666E+04  0.13120976064E+04  0.12699999809E+01 0. -1.
</event>
<event>
 5   0  0.9616567E-05  0.1592972E+04  0.7818609E-02  0.8824877E-01
       -1   -1    0    0    0  501  0.00000000000E+00  0.00000000000E+00  0.73961237745E+03  0.73961237746E+03  0.50400001928E-02 0.  1.
        1   -1    0    0  501    0  0.00000000000E+00  0.00000000000E+00 -0.85773282060E+03  0.85773282062E+03  0.50400001928E-02 0. -1.
    10030    2    1    2    0    0  0.00000000000E+00  0.00000000000E+00 -0.11812044315E+03  0.15973451981E+04  0.15929718274E+04 0.  0.
        5    1    3    3  502    0 -0.35017487767E+03  0.63288078893E+03 -0.39345316551E+03  0.82340028018E+03  0.46999998093E+01 0. -1.
       -5    1    3    3    0  502  0.35017487767E+03 -0.63288078893E+03  0.27533272235E+03  0.77394491790E+03  0.46999998093E+01 0.  1.
</event>
<event>
 5   0  0.9939872E-05  0.1601434E+04  0.7818609E-02  0.8819667E-01
        1   -1    0    0  501    0  0.00000000000E+00  0.00000000000E+00  0.14747601108E+04  0.14747601108E+04  0.50400001928E-02 0. -1.
       -1   -1    0    0    0  501  0.00000000000E+00  0.00000000000E+00 -0.43474735819E+03  0.43474735822E+03  0.50400001928E-02 0.  1.
    10030    2    1    2    0    0  0.00000000000E+00  0.00000000000E+00  0.10400127526E+04  0.19095074691E+04  0.16014344347E+04 0.  0.
        3    1    3    3  502    0 -0.16906233299E+03 -0.53765092003E+03 -0.15817778301E+03  0.58538090632E+03  0.10100000352E+00 0.  1.
       -3    1    3    3    0  502  0.16906233299E+03  0.53765092003E+03  0.11981905356E+04  0.13241265627E+04  0.10100000352E+00 0. -1.
</event>
<event>
 5   0  0.1858913E-04  0.1603304E+04  0.7818609E-02  0.8818521E-01
        2   -1    0    0  501    0  0.00000000000E+00  0.00000000000E+00  0.12618568112E+04  0.12618568112E+04  0.25500000920E-02 0.  1.
       -2   -1    0    0    0  501  0.00000000000E+00  0.00000000000E+00 -0.50928624802E+03  0.50928624802E+03  0.25500000920E-02 0. -1.
    10030    2    1    2    0    0  0.00000000000E+00  0.00000000000E+00  0.75257056315E+03  0.17711430592E+04  0.16033044887E+04 0.  0.
        4    1    3    3  502    0 -0.66894919286E+03  0.37930374514E+03  0.62644255900E+03  0.99186503433E+03  0.12699999809E+01 0. -1.
       -4    1    3    3    0  502  0.66894919286E+03 -0.37930374514E+03  0.12612800415E+03  0.77927802486E+03  0.12699999809E+01 0.  1.
</event>
<event>
 5   0  0.1835088E-04  0.1610552E+04  0.7818609E-02  0.8814092E-01
        2   -1    0    0  501    0  0.00000000000E+00  0.00000000000E+00  0.22868909540E+04  0.22868909540E+04  0.25500000920E-02 0. -1.
       -2   -1    0    0    0  501  0.00000000000E+00  0.00000000000E+00 -0.28355932672E+03  0.28355932673E+03  0.25500000920E-02 0.  1.
    10030    2    1    2    0    0  0.00000000000E+00  0.00000000000E+00  0.20033316273E+04  0.25704502808E+04  0.16105517803E+04 0.  0.
        5    1    3    3  502    0 -0.11921743803E+02  0.43316489971E+03 -0.81589915459E+02  0.44096821044E+03  0.46999998093E+01 0.  1.
       -5    1    3    3    0  502  0.11921743803E+02 -0.43316489971E+03  0.20849215428E+04  0.21294820703E+04  0.46999998093E+01 0. -1.
</event>
<event>
 5   0  0.9616567E-05  0.1574788E+04  0.7818609E-02  0.8836188E-01
        1   -1    0    0  501    0  0.00000000000E+00  0.00000000000E+00  0.75345919758E+03  0.75345919760E+03  0.50400001928E-02 0.  1.
       -1   -1    0    0    0  501  0.00000000000E+00  0.00000000000E+00 -0.82285743157E+03  0.82285743159E+03  0.50400001928E-02 0. -1.
    10030    2    1    2    0    0  0.00000000000E+00  0.00000000000E+00 -0.69398233990E+02  0.15763166292E+04  0.15747882399E+04 0.  0.
        5    1    3    3  502    0  0.35416774575E+03 -0.65451080712E+03 -0.29214169737E+03  0.79949237026E+03  0.46999998093E+01 0. -1.
       -5    1    3    3    0  502 -0.35416774575E+03  0.65451080712E+03  0.22274346338E+03  0.77682425892E+03  0.46999998093E+01 0.  1.
</event>
<event>
 5   0  0.9939872E-05  0.1608780E+04  0.7818609E-02  0.8815172E-01
       -1   -1    0    0    0  501  0.00000000000E+00  0.00000000000E+00  0.44782043219E+03  0.44782043222E+03  0.50400001928E-02 0. -1.
        1   -1    0    0  501    0  0.00000000000E+00  0.00000000000E+00 -0.14448715222E+04  0.14448715222E+04  0.50400001928E-02 0.  1.
    10030    2    1    2    0    0  0.00000000000E+00  0.00000000000E+00 -0.99705109001E+03  0.18926919544E+04  0.16087796487E+04 0.  0.
        3    1    3    3  502    0  0.23805413946E+03 -0.73959735763E+03 -0.74352936131E+03  0.10754115241E+04  0.10100000352E+00 0. -1.
       -3    1    3    3    0  502 -0.23805413946E+03  0.73959735763E+03 -0.25352172869E+03  0.81728043036E+03  0.10100000352E+00 0.  1.
</event>
<event>
 5   0  0.1832646E-04  0.1601029E+04  0.7818609E-02  0.8819916E-01
       -2   -1    0    0    0  501  0.00000000000E+00  0.00000000000E+00  0.71513277216E+03  0.71513277216E+03  0.25500000920E-02 0.  1.
        2   -1    0    0  501    0  0.00000000000E+00  0.00000000000E+00 -0.89608989102E+03  0.89608989102E+03  0.25500000920E-02 0. -1.
    10030    2    1    2    0    0  0.00000000000E+00  0.00000000000E+00 -0.18095711886E+03  0.16112226632E+04  0.16010287291E+04 0.  0.
        2    1    3    3  502    0 -0.33512621016E+03 -0.13968782864E+03 -0.80846418061E+03  0.88624860933E+03  0.25500000920E-02 0. -1.
       -2    1    3    3    0  502  0.33512621016E+03  0.13968782864E+03  0.62750706175E+03  0.72497405385E+03  0.25500000920E-02 0.  1.
</event>
<event>
 5   0  0.1835088E-04  0.1604224E+04  0.7818609E-02  0.8817957E-01
       -2   -1    0    0    0  501  0.00000000000E+00  0.00000000000E+00  0.75458302331E+03  0.75458302331E+03  0.25500000920E-02 0.  1.
        2   -1    0    0  501    0  0.00000000000E+00  0.00000000000E+00 -0.85263472090E+03  0.85263472091E+03  0.25500000920E-02 0. -1.
    10030    2    1    2    0    0  0.00000000000E+00  0.00000000000E+00 -0.98051697594E+02  0.16072177442E+04  0.16042240311E+04 0.  0.
        5    1    3    3  502    0  0.45635324027E+02 -0.79001723676E+03  0.82183348334E+02  0.79560417918E+03  0.46999998093E+01 0. -1.
       -5    1    3    3    0  502 -0.45635324027E+02  0.79001723676E+03 -0.18023504593E+03  0.81161356504E+03  0.46999998093E+01 0.  1.
</event>
<event>
 5   0  0.1774934E-04  0.1597945E+04  0.7818609E-02  0.8821811E-01
       -2   -1    0    0    0  501  0.00000000000E+00  0.00000000000E+00  0.10419684710E+04  0.10419684710E+04  0.25500000920E-02 0.  1.
        2   -1    0    0  501    0  0.00000000000E+00  0.00000000000E+00 -0.61264526934E+03  0.61264526935E+03  0.25500000920E-02 0. -1.
    10030    2    1    2    0    0  0.00000000000E+00  0.00000000000E+00  0.42932320169E+03  0.16546137404E+04  0.15979449985E+04 0.  0.
        1    1    3    3  502    0 -0.27030123084E+03 -0.37142973681E+03  0.89155246204E+03  0.10029399770E+04  0.50400001928E-02 0.  1.
       -1    1    3    3    0  502  0.27030123084E+03  0.37142973681E+03 -0.46222926035E+03  0.65167376342E+03  0.50400001928E-02 0. -1.
</event>
<event>
 5   0  0.1858913E-04  0.1605715E+04  0.7818609E-02  0.8817045E-01
       -2   -1    0    0    0  501  0.00000000000E+00  0.00000000000E+00  0.42959894362E+03  0.42959894362E+03  0.25500000920E-02 0. -1.
        2   -1    0    0  501    0  0.00000000000E+00  0.00000000000E+00 -0.15004230518E+04  0.15004230518E+04  0.25500000920E-02 0.  1.
    10030    2    1    2    0    0  0.00000000000E+00  0.00000000000E+00 -0.10708241082E+04  0.19300219954E+04  0.16057149909E+04 0.  0.
        4    1    3    3  502    0  0.38844082992E+03  0.51502575075E+03  0.39075439089E+02  0.64627107713E+03  0.12699999809E+01 0. -1.
       -4    1    3    3    0  502 -0.38844082992E+03 -0.51502575075E+03 -0.11098995472E+04  0.12837509183E+04  0.12699999809E+01 0.  1.
</event>
<event>
 5   0  0.1835088E-04  0.1593078E+04  0.7818609E-02  0.8824812E-01
        2   -1    0    0  501    0  0.00000000000E+00  0.00000000000E+00  0.53872649913E+03  0.53872649913E+03  0.25500000920E-02 0. -1.
       -2   -1    0    0    0  501  0.00000000000E+00  0.00000000000E+00 -0.11777300001E+04  0.11777300001E+04  0.25500000920E-02 0.  1.
    10030    2    1    2    0    0  0.00000000000E+00  0.00000000000E+00 -0.63900350095E+03  0.17164564992E+04  0.15930779766E+04 0.  0.
        5    1    3    3  502    0 -0.69644412704E+03  0.10894595607E+03 -0.71910029394E+03  0.10069910457E+04  0.46999998093E+01 0.  1.
       -5    1    3    3    0  502  0.69644412704E+03 -0.10894595607E+03  0.80096792994E+02  0.70946545348E+03  0.46999998093E+01 0. -1.
</event>
<event>
 5   0  0.1914170E-04  0.1604707E+04  0.7818609E-02  0.8817662E-01
       -2   -1    0    0    0  501  0.00000000000E+00  0.00000000000E+00  0.29484353546E+03  0.29484353547E+03  0.25500000920E-02 0. -1.
        2   -1    0    0  501    0  0.00000000000E+00  0.00000000000E+00 -0.21834328894E+04  0.21834328894E+04  0.25500000920E-02 0.  1.
    10030    2    1    2    0    0  0.00000000000E+00  0.00000000000E+00 -0.18885893539E+04  0.24782764248E+04  0.16047069172E+04 0.  0.
        3    1    3    3  502    0 -0.71773434326E+03 -0.20161750051E+03 -0.48621272431E+03  0.89005338463E+03  0.10100000352E+00 0. -1.
       -3    1    3    3    0  502  0.71773434326E+03  0.20161750051E+03 -0.14023766296E+04  0.15882230402E+04  0.10100000352E+00 0.  1.
</event>
<event>
 5   0  0.9726935E-05  0.1596640E+04  0.7818609E-02  0.8822615E-01
        1   -1    0    0  501    0  0.00000000000E+00  0.00000000000E+00  0.18148069749E+04  0.18148069749E+04  0.50400001928E-02 0.  1.
       -1   -1    0    0    0  501  0.00000000000E+00  0.00000000000E+00 -0.35117498312E+03  0.35117498316E+03  0.50400001928E-02 0. -1.
    10030    2    1    2    0    0  0.00000000000E+00  0.00000000000E+00  0.14636319918E+04  0.21659819580E+04  0.15966399830E+04 0.  0.
        2    1    3    3  502    0 -0.11785113380E+03  0.73438956103E+02  0.17982980200E+04  0.18036512797E+04  0.25500000920E-02 0.  1.
       -2    1    3    3    0  502  0.11785113380E+03 -0.73438956103E+02 -0.33466602824E+03  0.36233067835E+03  0.25500000920E-02 0. -1.
</event>
<event>
 5   0  0.1835088E-04  0.1609280E+04  0.7818609E-02  0.8814867E-01
       -2   -1    0    0    0  501  0.00000000000E+00  0.00000000000E+00  0.87822517414E+03  0.87822517414E+03  0.25500000920E-02 0. -1.
        2   -1    0    0  501    0  0.00000000000E+00  0.00000000000E+00 -0.73722075328E+03  0.73722075329E+03  0.25500000920E-02 0.  1.
    10030    2    1    2    0    0  0.00000000000E+00  0.00000000000E+00  0.14100442086E+03  0.16154459274E+04  0.16092803664E+04 0.  0.
        5    1    3    3  502    0 -0.31186130042E+03  0.12767432058E+03  0.80396258175E+03  0.87174315351E+03  0.46999998093E+01 0. -1.
       -5    1    3    3    0  502  0.31186130042E+03 -0.12767432058E+03 -0.66295816090E+03  0.74370277392E+03  0.46999998093E+01 0.  1.
</event>
<event>
 5   0  0.9616567E-05  0.1594339E+04  0.7818609E-02  0.8824033E-01
        1   -1    0    0  501    0  0.00000000000E+00  0.00000000000E+00  0.62105982135E+03  0.62105982137E+03  0.50400001928E-02 0. -1.
       -1   -1    0    0    0  501  0.00000000000E+00  0.00000000000E+00 -0.10232172693E+04  0.10232172694E+04  0.50400001928E-02 0.  1.
    10030    2    1    2    0    0  0.00000000000E+00  0.00000000000E+00 -0.40215744799E+03  0.16442770907E+04  0.15943389032E+04 0.  0.
        5    1    3    3  502    0 -0.13517938770E+03  0.69807757049E+03  0.17058564557E+03  0.73123683834E+03  0.46999998093E+01 0.  1.
       -5    1    3    3    0  502  0.13517938770E+03 -0.69807757049E+03 -0.57274309356E+03  0.91304025239E+03  0.46999998093E+01 0. -1.
</event>
<event>
 5   0  0.9616567E-05  0.1590937E+04  0.7818609E-02  0.8826135E-01
       -1   -1    0    0    0  501  0.00000000000E+00  0.00000000000E+00  0.35564563900E+03  0.35564563903E+03  0.50400001928E-02 0.  1.
        1   -1    0    0  501    0  0.00000000000E+00  0.00000000000E+00 -0.17792146035E+04  0.17792146035E+04  0.50400001928E-02 0. -1.
    10030    2    1    2    0    0  0.00000000000E+00  0.00000000000E+00 -0.14235689645E+04  0.21348602425E+04  0.15909367236E+04 0.  0.
        5    1    3    3  502    0  0.10108645664E+03 -0.55800946101E+03  0.36737900146E+02  0.56829991519E+03  0.46999998093E+01 0.  1.
       -5    1    3    3    0  502 -0.10108645664E+03  0.55800946101E+03 -0.14603068646E+04  0.15665603273E+04  0.46999998093E+01 0. -1.
</event>
<event>
 5   0  0.9616567E-05  0.1645325E+04  0.7818609E-02  0.8793177E-01
       -1   -1    0    0    0  501  0.00000000000E+00  0.00000000000E+00  0.14613050912E+04  0.14613050912E+04  0.50400001928E-02 0.  1.
        1   -1    0    0  501    0  0.00000000000E+00  0.00000000000E+00 -0.46312945533E+03  0.46312945535E+03  0.50400001928E-02 0. -1.
    10030    2    1    2    0    0  0.00000000000E+00  0.00000000000E+00  0.99817563586E+03  0.19244345465E+04  0.16453248080E+04 0.  0.
        5    1    3    3  502    0 -0.24739663939E+03  0.51134055280E+02 -0.41662119275E+03  0.48725260085E+03  0.46999998093E+01 0. -1.
       -5    1    3    3    0  502  0.24739663939E+03 -0.51134055280E+02  0.14147968286E+04  0.14371819457E+04  0.46999998093E+01 0.  1.
</event>
<event>
 5   0  0.9673017E-05  0.1613912E+04  0.7818609E-02  0.8812047E-01
       -1   -1    0    0    0  501  0.00000000000E+00  0.00000000000E+00  0.53564603552E+03  0.53564603554E+03  0.50400001928E-02 0. -1.
        1   -1    0    0  501    0  0.00000000000E+00  0.00000000000E+00 -0.12156865121E+04  0.12156865121E+04  0.50400001928E-02 0.  1.
    10030    2    1    2    0    0  0.00000000000E+00  0.00000000000E+00 -0.68004047656E+03  0.17513325476E+04  0.16139115969E+04 0.  0.
        1    1    3    3  502    0 -0.70844226329E+03  0.49944947945E+02  0.75738263761E+02  0.71422771079E+03  0.50400001928E-02 0. -1.
       -1    1    3    3    0  502  0.70844226329E+03 -0.49944947945E+02 -0.75577874032E+03  0.10371048368E+04  0.50400001928E-02 0.  1.
</event>
<event>
 5   0  0.1914170E-04  0.1600433E+04  0.7818609E-02  0.8820282E-01
        2   -1    0    0  501    0  0.00000000000E+00  0.00000000000E+00  0.17318344506E+04  0.17318344506E+04  0.25500000920E-02 0.  1.
       -2   -1    0    0    0  501  0.00000000000E+00  0.00000000000E+00 -0.36975023847E+03  0.36975023848E+03  0.25500000920E-02 0. -1.
    10030    2    1    2    0    0  0.00000000000E+00  0.00000000000E+00  0.13620842121E+04  0.21015846890E+04  0.16004326929E+04 0.  0.
        3    1    3    3  502    0  0.47596845155E+03 -0.91769741665E+02  0.15171067493E+04  0.15926646073E+04  0.10100000352E+00 0.  1.
       -3    1    3    3    0  502 -0.47596845155E+03  0.91769741665E+02 -0.15502253722E+03  0.50892008174E+03  0.10100000352E+00 0. -1.
</event>
<event>
 5   0  0.6838750E-05  0.1604659E+04  0.7818609E-02  0.8817691E-01
        4   -1    0    0  501    0  0.00000000000E+00  0.00000000000E+00  0.41039537210E+03  0.41039733716E+03  0.12699999809E+01 0.  1.
       -4   -1    0    0    0  501  0.00000000000E+00  0.00000000000E+00 -0.15685607539E+04  0.15685612681E+04  0.12699999809E+01 0. -1.
    10030    2    1    2    0    0  0.00000000000E+00  0.00000000000E+00 -0.11581653818E+04  0.19789586052E+04  0.16046588764E+04 0.  0.
        2    1    3    3  502    0 -0.37794020100E+03 -0.68454174663E+03 -0.80071372211E+03  0.11191866079E+04  0.25500000920E-02 0. -1.
       -2    1    3    3    0  502  0.37794020100E+03  0.68454174663E+03 -0.35745165971E+03  0.85977199736E+03  0.25500000920E-02 0.  1.
</event>
<event>
 5   0  0.9432152E-05  0.1598048E+04  0.7818609E-02  0.8821748E-01
       -1   -1    0    0    0  501  0.00000000000E+00  0.00000000000E+00  0.63595338886E+03  0.63595338888E+03  0.50400001928E-02 0.  1.
        1   -1    0    0  501    0  0.00000000000E+00  0.00000000000E+00 -0.10039094270E+04  0.10039094270E+04  0.50400001928E-02 0. -1.
    10030    2    1    2    0    0  0.00000000000E+00  0.00000000000E+00 -0.36795603809E+03  0.16398628158E+04  0.15980483124E+04 0.  0.
        4    1    3    3  502    0 -0.61496317290E+03 -0.26348996085E+02  0.33882712933E+03  0.70262323481E+03  0.12699999809E+01 0.  1.
       -4    1    3    3    0  502  0.61496317290E+03  0.26348996085E+02 -0.70678316742E+03  0.93723958104E+03  0.12699999809E+01 0. -1.
</event>
<event>
 5   0  0.1832646E-04  0.1596381E+04  0.7818609E-02  0.8822774E-01
       -2   -1    0    0    0  501  0.00000000000E+00  0.00000000000E+00  0.86285753991E+03  0.86285753991E+03  0.25500000920E-02 0.  1.
        2   -1    0    0  501    0  0.00000000000E+00  0.00000000000E+00 -0.73837016549E+03  0.73837016550E+03  0.25500000920E-02 0. -1.
    10030    2    1    2    0    0  0.00000000000E+00  0.00000000000E+00  0.12448737442E+03  0.16012277054E+04  0.15963812384E+04 0.  0.
        2    1    3    3  502    0 -0.15642510412E+03  0.55533066628E+03 -0.49101704737E+03  0.75760062231E+03  0.25500000920E-02 0. -1.
       -2    1    3    3    0  502  0.15642510412E+03 -0.55533066628E+03  0.61550442178E+03  0.84362708310E+03  0.25500000920E-02 0.  1.
</event>
<event>
 5   0  0.1832646E-04  0.1607329E+04  0.7818609E-02  0.8816058E-01
        2   -1    0    0  501    0  0.00000000000E+00  0.00000000000E+00  0.49015654202E+03  0.49015654203E+03  0.25500000920E-02 0. -1.
       -2   -1    0    0    0  501  0.00000000000E+00  0.00000000000E+00 -0.13176940451E+04  0.13176940451E+04  0.25500000920E-02 0.  1.
    10030    2    1    2    0    0  0.00000000000E+00  0.00000000000E+00 -0.82753750306E+03  0.18078505871E+04  0.16073286616E+04 0.  0.
        2    1    3    3  502    0  0.70889090445E+02  0.62057998931E+03  0.15501871542E+03  0.64356475076E+03  0.25500000920E-02 0. -1.
       -2    1    3    3    0  502 -0.70889090445E+02 -0.62057998931E+03 -0.98255621848E+03  0.11642858364E+04  0.25500000920E-02 0.  1.
</event>
<event>
 5   0  0.9673017E-05  0.1598767E+04  0.7818609E-02  0.8821306E-01
        1   -1    0    0  501    0  0.00000000000E+00  0.00000000000E+00  0.13947016518E+04  0.13947016518E+04  0.50400001928E-02 0. -1.
       -1   -1    0    0    0  501  0.00000000000E+00  0.00000000000E+00 -0.45817245330E+03  0.45817245333E+03  0.50400001928E-02 0.  1.
    10030    2    1    2    0    0  0.00000000000E+00  0.00000000000E+00  0.93652919846E+03  0.18528741051E+04  0.15987668716E+04 0.  0.
        1    1    3    3  502    0  0.13421584974E+03  0.41809605170E+03  0.12424116244E+04  0.13177271521E+04  0.50400001928E-02 0. -1.
       -1    1    3    3    0  502 -0.13421584974E+03 -0.41809605170E+03 -0.30588242598E+03  0.53514695301E+03  0.50400001928E-02 0.  1.
</event>
<event>
 5   0  0.1835088E-04  0.1588277E+04  0.7818609E-02  0.8827783E-01
       -2   -1    0    0    0  501  0.00000000000E+00  0.00000000000E+00  0.47244344610E+03  0.47244344611E+03  0.25500000920E-02 0.  1.
        2   -1    0    0  501    0  0.00000000000E+00  0.00000000000E+00 -0.13348809251E+04  0.13348809251E+04  0.25500000920E-02 0. -1.
    10030    2    1    2    0    0  0.00000000000E+00  0.00000000000E+00 -0.86243747896E+03  0.18073243712E+04  0.15882767320E+04 0.  0.
        5    1    3    3  502    0  0.73318331323E+03  0.23370644419E+03 -0.65436964702E+03  0.10101476119E+04  0.46999998093E+01 0. -1.
       -5    1    3    3    0  502 -0.73318331323E+03 -0.23370644419E+03 -0.20806783194E+03  0.79717675929E+03  0.46999998093E+01 0.  1.
</event>
<event>
 5   0  0.9939872E-05  0.1595647E+04  0.7818609E-02  0.8823227E-01
       -1   -1    0    0    0  501  0.00000000000E+00  0.00000000000E+00  0.14496152322E+04  0.14496152323E+04  0.50400001928E-02 0. -1.
        1   -1    0    0  501    0  0.00000000000E+00  0.00000000000E+00 -0.43909732569E+03  0.43909732572E+03  0.50400001928E-02 0.  1.
    10030    2    1    2    0    0  0.00000000000E+00  0.00000000000E+00  0.10105179066E+04  0.18887125580E+04  0.15956467927E+04 0.  0.
        3    1    3    3  502    0 -0.37058215356E+03  0.70002042890E+03  0.61856012368E+03  0.10049758058E+04  0.10100000352E+00 0. -1.
       -3    1    3    3    0  502  0.37058215356E+03 -0.70002042890E+03  0.39195778288E+03  0.88373675219E+03  0.10100000352E+00 0.  1.
</event>
<event>
 5   0  0.1858913E-04  0.1599661E+04  0.7818609E-02  0.8820756E-01
        2   -1    0    0  501    0  0.00000000000E+00  0.00000000000E+00  0.17135832216E+04  0.17135832216E+04  0.25500000920E-02 0. -1.
       -2   -1    0    0    0  501  0.00000000000E+00  0.00000000000E+00 -0.37332812000E+03  0.37332812000E+03  0.25500000920E-02 0.  1.
    10030    2    1    2    0    0  0.00000000000E+00  0.00000000000E+00  0.13402551016E+04  0.20869113416E+04  0.15996609673E+04 0.  0.
        4    1    3    3  502    0  0.50178549287E+03 -0.62280648472E+03  0.66084826674E+03  0.10374963339E+04  0.12699999809E+01 0. -1.
       -4    1    3    3    0  502 -0.50178549287E+03  0.62280648472E+03  0.67940683482E+03  0.10494150077E+04  0.12699999809E+01 0.  1.
</event>
<event>
 5   0  0.6838750E-05  0.1615121E+04  0.7818609E-02  0.8811312E-01
        3   -1    0    0  501    0  0.00000000000E+00  0.00000000000E+00  0.93509837932E+03  0.93509838477E+03  0.10100000352E+00 0. -1.
       -3   -1    0    0    0  501  0.00000000000E+00  0.00000000000E+00 -0.69741781753E+03  0.69741782485E+03  0.10100000352E+00 0.  1.
    10030    2    1    2    0    0  0.00000000000E+00  0.00000000000E+00  0.23768056179E+03  0.16325162096E+04  0.16151213964E+04 0.  0.
        3    1    3    3  502    0 -0.21299675062E+03  0.25819276535E+03  0.86168617639E+03  0.92441018852E+03  0.10100000352E+00 0. -1.
       -3    1    3    3    0  502  0.21299675062E+03 -0.25819276535E+03 -0.62400561461E+03  0.70810602110E+03  0.10100000352E+00 0.  1.
</event>
<event>
 5   0  0.6838750E-05  0.1592819E+04  0.7818609E-02  0.8824972E-01
       -4   -1    0    0    0  501  0.00000000000E+00  0.00000000000E+00  0.10945408594E+04  0.10945415961E+04  0.12699999809E+01 0.  1.
        4   -1    0    0  501    0  0.00000000000E+00  0.00000000000E+00 -0.57948143219E+03  0.57948282386E+03  0.12699999809E+01 0. -1.
    10030    2    1    2    0    0  0.00000000000E+00  0.00000000000E+00  0.51505942716E+03  0.16740244200E+04  0.15928187421E+04 0.  0.
        4    1    3    3  502    0  0.53534991284E+03  0.21928399603E+03  0.83277459498E+03  0.10140020409E+04  0.12699999809E+01 0.  1.
       -4    1    3    3    0  502 -0.53534991284E+03 -0.21928399603E+03 -0.31771516782E+03  0.66002237906E+03  0.12699999809E+01 0. -1.
</event>
<event>
 5   0  0.9673017E-05  0.1601915E+04  0.7818609E-02  0.8819373E-01
       -1   -1    0    0    0  501  0.00000000000E+00  0.00000000000E+00  0.52226541286E+03  0.52226541288E+03  0.50400001928E-02 0.  1.
        1   -1    0    0  501    0  0.00000000000E+00  0.00000000000E+00 -0.12283650931E+04  0.12283650931E+04  0.50400001928E-02 0. -1.
    10030    2    1    2    0    0  0.00000000000E+00  0.00000000000E+00 -0.70609968023E+03  0.17506305060E+04  0.16019146076E+04 0.  0.
        1    1    3    3  502    0  0.23137359622E+03  0.57524161915E+03 -0.90716845573E+03  0.10988135731E+04  0.50400001928E-02 0. -1.
       -1    1    3    3    0  502 -0.23137359622E+03 -0.57524161915E+03  0.20106877549E+03  0.65181693284E+03  0.50400001928E-02 0.  1.
</event>
<event>
 5   0  0.9673017E-05  0.1601017E+04  0.7818609E-02  0.8819924E-01
        1   -1    0    0  501    0  0.00000000000E+00  0.00000000000E+00  0.17753749433E+04  0.17753749433E+04  0.50400001928E-02 0. -1.
       -1   -1    0    0    0  501  0.00000000000E+00  0.00000000000E+00 -0.36094546036E+03  0.36094546040E+03  0.50400001928E-02 0.  1.
    10030    2    1    2    0    0  0.00000000000E+00  0.00000000000E+00  0.14144294829E+04  0.21363204037E+04  0.16010165849E+04 0.  0.
        1    1    3    3  502    0 -0.52361097469E+03 -0.13191764288E+02 -0.10056023315E+03  0.53334307531E+03  0.50400001928E-02 0.  1.
       -1    1    3    3    0  502  0.52361097469E+03  0.13191764288E+02  0.15149897161E+04  0.16029773284E+04  0.50400001928E-02 0. -1.
</event>
<event>
 5   0  0.9939872E-05  0.1600962E+04  0.7818609E-02  0.8819957E-01
        1   -1    0    0  501    0  0.00000000000E+00  0.00000000000E+00  0.81243651577E+03  0.81243651579E+03  0.50400001928E-02 0.  1.
       -1   -1    0    0    0  501  0.00000000000E+00  0.00000000000E+00 -0.78870130334E+03  0.78870130335E+03  0.50400001928E-02 0. -1.
    10030    2    1    2    0    0  0.00000000000E+00  0.00000000000E+00  0.23735212438E+02  0.16011378191E+04  0.16009618845E+04 0.  0.
        3    1    3    3  502    0 -0.62421183280E+03  0.35334247106E+02  0.51180333292E+03  0.80797993974E+03  0.10100000352E+00 0.  1.
       -3    1    3    3    0  502  0.62421183280E+03 -0.35334247106E+02 -0.48806812048E+03  0.79315787940E+03  0.10100000352E+00 0. -1.
</event>
<event>
 5   0  0.1858913E-04  0.1601567E+04  0.7818609E-02  0.8819586E-01
       -2   -1    0    0    0  501  0.00000000000E+00  0.00000000000E+00  0.63944779581E+03  0.63944779581E+03  0.25500000920E-02 0. -1.
        2   -1    0    0  501    0  0.00000000000E+00  0.00000000000E+00 -0.10028246813E+04  0.10028246813E+04  0.25500000920E-02 0.  1.
    10030    2    1    2    0    0  0.00000000000E+00  0.00000000000E+00 -0.36337688546E+03  0.16422724771E+04  0.16015667729E+04 0.  0.
        4    1    3    3  502    0  0.30683006912E+03  0.44630352135E+02  0.57539643798E+03  0.65362009867E+03  0.12699999809E+01 0. -1.
       -4    1    3    3    0  502 -0.30683006912E+03 -0.44630352135E+02 -0.93877332344E+03  0.98865237842E+03  0.12699999809E+01 0.  1.
</event>
<event>
 5   0  0.1774934E-04  0.1604667E+04  0.7818609E-02  0.8817686E-01
        2   -1    0    0  501    0  0.00000000000E+00  0.00000000000E+00  0.38637851470E+03  0.38637851470E+03  0.25500000920E-02 0. -1.
       -2   -1    0    0    0  501  0.00000000000E+00  0.00000000000E+00 -0.16660843012E+04  0.16660843012E+04  0.25500000920E-02 0.  1.
    10030    2    1    2    0    0  0.00000000000E+00  0.00000000000E+00 -0.12797057865E+04  0.20524628159E+04  0.16046671651E+04 0.  0.
        1    1    3    3  502    0 -0.23048824852E+03 -0.25432955774E+03  0.28773408431E+03  0.44788308736E+03  0.50400001928E-02 0. -1.
       -1    1    3    3    0  502  0.23048824852E+03  0.25432955774E+03 -0.15674398708E+04  0.16045797286E+04  0.50400001928E-02 0.  1.
</event>
<event>
 5   0  0.6838750E-05  0.1602737E+04  0.7818609E-02  0.8818868E-01
        4   -1    0    0  501    0  0.00000000000E+00  0.00000000000E+00  0.66947667476E+03  0.66947787936E+03  0.12699999809E+01 0.  1.
       -4   -1    0    0    0  501  0.00000000000E+00  0.00000000000E+00 -0.95924134273E+03  0.95924218345E+03  0.12699999809E+01 0. -1.
    10030    2    1    2    0    0  0.00000000000E+00  0.00000000000E+00 -0.28976466797E+03  0.16287200628E+04  0.16027368718E+04 0.  0.
        4    1    3    3  502    0 -0.58006877031E+03  0.14731881551E+02  0.41679230446E+03  0.71443281320E+03  0.12699999809E+01 0.  1.
       -4    1    3    3    0  502  0.58006877031E+03 -0.14731881551E+02 -0.70655697242E+03  0.91428724961E+03  0.12699999809E+01 0. -1.
</event>
<event>
 5   0  0.9726935E-05  0.1609248E+04  0.7818609E-02  0.8814887E-01
       -1   -1    0    0    0  501  0.00000000000E+00  0.00000000000E+00  0.59070855326E+03  0.59070855328E+03  0.50400001928E-02 0.  1.
        1   -1    0    0  501    0  0.00000000000E+00  0.00000000000E+00 -0.10960056738E+04  0.10960056738E+04  0.50400001928E-02 0. -1.
    10030    2    1    2    0    0  0.00000000000E+00  0.00000000000E+00 -0.50529712057E+03  0.16867142271E+04  0.16092481797E+04 0.  0.
        2    1    3    3  502    0  0.65169693475E+03 -0.23612683204E+03  0.17562216818E+03  0.71505798474E+03  0.25500000920E-02 0.  1.
       -2    1    3    3    0  502 -0.65169693475E+03  0.23612683204E+03 -0.68091928875E+03  0.97165624239E+03  0.25500000920E-02 0. -1.
</event>
<event>
 5   0  0.9616567E-05  0.1602000E+04  0.7818609E-02  0.8819320E-01
        1   -1    0    0  501    0  0.00000000000E+00  0.00000000000E+00  0.14667493558E+04  0.14667493558E+04  0.50400001928E-02 0. -1.
       -1   -1    0    0    0  501  0.00000000000E+00  0.00000000000E+00 -0.43743079873E+03  0.43743079876E+03  0.50400001928E-02 0.  1.
    10030    2    1    2    0    0  0.00000000000E+00  0.00000000000E+00  0.10293185571E+04  0.19041801546E+04  0.16020004273E+04 0.  0.
        5    1    3    3  502    0  0.70448338713E+03  0.19487571594E+03  0.12529407552E+03  0.74161585930E+03  0.46999998093E+01 0.  1.
       -5    1    3    3    0  502 -0.70448338713E+03 -0.19487571594E+03  0.90402448159E+03  0.11625642953E+04  0.46999998093E+01 0. -1.
</event>
<event>
 5   0  0.1858913E-04  0.1600873E+04  0.7818609E-02  0.8820012E-01
       -2   -1    0    0    0  501  0.00000000000E+00  0.00000000000E+00  0.36750715772E+03  0.36750715773E+03  0.25500000920E-02 0. -1.
        2   -1    0    0  501    0  0.00000000000E+00  0.00000000000E+00 -0.17433634339E+04  0.17433634339E+04  0.25500000920E-02 0.  1.
    10030    2    1    2    0    0  0.00000000000E+00  0.00000000000E+00 -0.13758562762E+04  0.21108705916E+04  0.16008729375E+04 0.  0.
        4    1    3    3  502    0 -0.39238762203E+03 -0.41878785037E+03 -0.14236711151E+04  0.15349893701E+04  0.12699999809E+01 0.  1.
       -4    1    3    3    0  502  0.39238762203E+03  0.41878785037E+03  0.47814838942E+02  0.57588122149E+03  0.12699999809E+01 0. -1.
</event>
<event>
 5   0  0.9939872E-05  0.1611114E+04  0.7818609E-02  0.8813749E-01
        1   -1    0    0  501    0  0.00000000000E+00  0.00000000000E+00  0.12179038092E+04  0.12179038092E+04  0.50400001928E-02 0. -1.
       -1   -1    0    0    0  501  0.00000000000E+00  0.00000000000E+00 -0.53281897516E+03  0.53281897518E+03  0.50400001928E-02 0.  1.
    10030    2    1    2    0    0  0.00000000000E+00  0.00000000000E+00  0.68508483403E+03  0.17507227844E+04  0.16111142225E+04 0.  0.
        3    1    3    3  502    0  0.61586975308E+03 -0.39317315810E+03  0.71111110909E+03  0.10195880073E+04  0.10100000352E+00 0. -1.
       -3    1    3    3    0  502 -0.61586975308E+03  0.39317315810E+03 -0.26026275064E+02  0.73113477705E+03  0.10100000352E+00 0.  1.
</event>
<event>
 5   0  0.1858913E-04  0.1572628E+04  0.7818609E-02  0.8837542E-01
       -2   -1    0    0    0  501  0.00000000000E+00  0.00000000000E+00  0.45165234544E+03  0.45165234545E+03  0.25500000920E-02 0. -1.
        2   -1    0    0  501    0  0.00000000000E+00  0.00000000000E+00 -0.13689502251E+04  0.13689502251E+04  0.25500000920E-02 0.  1.
    10030    2    1    2    0    0  0.00000000000E+00  0.00000000000E+00 -0.91729787962E+03  0.18206025705E+04  0.15726278389E+04 0.  0.
        4    1    3    3  502    0 -0.10168032943E+03 -0.68597830036E+03 -0.88774591348E+03  0.11264987962E+04  0.12699999809E+01 0.  1.
       -4    1    3    3    0  502  0.10168032943E+03  0.68597830036E+03 -0.29551966138E+02  0.69410377434E+03  0.12699999809E+01 0. -1.
</event>
<event>
 5   0  0.9673017E-05  0.1600147E+04  0.7818609E-02  0.8820458E-01
       -1   -1    0    0    0  501  0.00000000000E+00  0.00000000000E+00  0.52517180847E+03  0.52517180849E+03  0.50400001928E-02 0. -1.
        1   -1    0    0  501    0  0.00000000000E+00  0.00000000000E+00 -0.12188728249E+04  0.12188728249E+04  0.50400001928E-02 0.  1.
    10030    2    1    2    0    0  0.00000000000E+00  0.00000000000E+00 -0.69370101641E+03  0.17440446334E+04  0.16001470504E+04 0.  0.
        1    1    3    3  502    0 -0.55591864094E+03  0.23741501884E+03 -0.91810804868E+03  0.10992423826E+04  0.50400001928E-02 0.  1.
       -1    1    3    3    0  502  0.55591864094E+03 -0.23741501884E+03  0.22440703227E+03  0.64480225083E+03  0.50400001928E-02 0. -1.
</event>
<event>
 5   0  0.9673017E-05  0.1577490E+04  0.7818609E-02  0.8834497E-01
       -1   -1    0    0    0  501  0.00000000000E+00  0.00000000000E+00  0.13385896023E+04  0.13385896024E+04  0.50400001928E-02 0. -1.
        1   -1    0    0  501    0  0.00000000000E+00  0.00000000000E+00 -0.46475697200E+03  0.46475697203E+03  0.50400001928E-02 0.  1.
    10030    2    1    2    0    0  0.00000000000E+00  0.00000000000E+00  0.87383263034E+03  0.18033465744E+04  0.15774902223E+04 0.  0.
        1    1    3    3  502    0 -0.14701327378E+03 -0.76209637162E+03  0.27640277872E+03  0.82389457967E+03  0.50400001928E-02 0. -1.
       -1    1    3    3    0  502  0.14701327378E+03  0.76209637162E+03  0.59742985162E+03  0.97945199471E+03  0.50400001928E-02 0.  1.
</event>
<event>
 5   0  0.1858913E-04  0.1606689E+04  0.7818609E-02  0.8816449E-01
        2   -1    0    0  501    0  0.00000000000E+00  0.00000000000E+00  0.10689543256E+04  0.10689543256E+04  0.25500000920E-02 0.  1.
       -2   -1    0    0    0  501  0.00000000000E+00  0.00000000000E+00 -0.60373276654E+03  0.60373276654E+03  0.25500000920E-02 0. -1.
    10030    2    1    2    0    0  0.00000000000E+00  0.00000000000E+00  0.46522155907E+03  0.16726870922E+04  0.16066894564E+04 0.  0.
        4    1    3    3  502    0 -0.96543823239E+02 -0.23721451456E+03  0.10253138136E+04  0.10568166657E+04  0.12699999809E+01 0.  1.
       -4    1    3    3    0  502  0.96543823239E+02  0.23721451456E+03 -0.56009225450E+03  0.61587042645E+03  0.12699999809E+01 0. -1.
</event>
<event>
 5   0  0.1774934E-04  0.1596815E+04  0.7818609E-02  0.8822507E-01
        2   -1    0    0  501    0  0.00000000000E+00  0.00000000000E+00  0.16588840948E+04  0.16588840949E+04  0.25500000920E-02 0. -1.
       -2   -1    0    0    0  501  0.00000000000E+00  0.00000000000E+00 -0.38426711630E+03  0.38426711631E+03  0.25500000920E-02 0.  1.
    10030    2    1    2    0    0  0.00000000000E+00  0.00000000000E+00  0.12746169785E+04  0.20431512112E+04  0.15968150894E+04 0.  0.
        1    1    3    3  502    0  0.63671274655E+03  0.41474221613E+03  0.95083018356E+03  0.12171656689E+04  0.50400001928E-02 0. -1.
       -1    1    3    3    0  502 -0.63671274655E+03 -0.41474221613E+03  0.32378679499E+03  0.82598554230E+03  0.50400001928E-02 0.  1.
</event>
<event>
 5   0  0.1832646E-04  0.1597923E+04  0.7818609E-02  0.8821825E-01
        2   -1    0    0  501    0  0.00000000000E+00  0.00000000000E+00  0.20619809817E+04  0.20619809818E+04  0.25500000920E-02 0. -1.
       -2   -1    0    0    0  501  0.00000000000E+00  0.00000000000E+00 -0.30957592059E+03  0.30957592060E+03  0.25500000920E-02 0.  1.
    10030    2    1    2    0    0  0.00000000000E+00  0.00000000000E+00  0.17524050612E+04  0.23715569024E+04  0.15979232280E+04 0.  0.
        2    1    3    3  502    0  0.22140122776E+03  0.61514851971E+03  0.15578028469E+04  0.16894306481E+04  0.25500000920E-02 0.  1.
       -2    1    3    3    0  502 -0.22140122776E+03 -0.61514851971E+03  0.19460221430E+03  0.68212625428E+03  0.25500000920E-02 0. -1.
</event>
<event>
 5   0  0.1858913E-04  0.1602955E+04  0.7818609E-02  0.8818735E-01
        2   -1    0    0  501    0  0.00000000000E+00  0.00000000000E+00  0.13080109462E+04  0.13080109462E+04  0.25500000920E-02 0. -1.
       -2   -1    0    0    0  501  0.00000000000E+00  0.00000000000E+00 -0.49110149153E+03  0.49110149154E+03  0.25500000920E-02 0.  1.
    10030    2    1    2    0    0  0.00000000000E+00  0.00000000000E+00  0.81690945467E+03  0.17991124377E+04  0.16029549297E+04 0.  0.
        4    1    3    3  502    0  0.35346257332E+03 -0.59220943153E+03  0.86673014618E+03  0.11076418919E+04  0.12699999809E+01 0. -1.
       -4    1    3    3    0  502 -0.35346257332E+03  0.59220943153E+03 -0.49820691512E+02  0.69147054582E+03  0.12699999809E+01 0.  1.
</event>
<event>
 5   0  0.9673017E-05  0.1608275E+04  0.7818609E-02  0.8815480E-01
       -1   -1    0    0    0  501  0.00000000000E+00  0.00000000000E+00  0.12661055590E+04  0.12661055590E+04  0.50400001928E-02 0. -1.
        1   -1    0    0  501    0  0.00000000000E+00  0.00000000000E+00 -0.51072926411E+03  0.51072926413E+03  0.50400001928E-02 0.  1.
    10030    2    1    2    0    0  0.00000000000E+00  0.00000000000E+00  0.75537629491E+03  0.17768348232E+04  0.16082750517E+04 0.  0.
        1    1    3    3  502    0  0.32633334084E+03  0.66943493794E+02 -0.43090911141E+03  0.54466277918E+03  0.50400001928E-02 0.  1.
       -1    1    3    3    0  502 -0.32633334084E+03 -0.66943493794E+02  0.11862854063E+04  0.12321720440E+04  0.50400001928E-02 0. -1.
</event>
<event>
 5   0  0.9939872E-05  0.1558688E+04  0.7818609E-02  0.8846337E-01
       -1   -1    0    0    0  501  0.00000000000E+00  0.00000000000E+00  0.33653009439E+03  0.33653009443E+03  0.50400001928E-02 0. -1.
        1   -1    0    0  501    0  0.00000000000E+00  0.00000000000E+00 -0.18048219401E+04  0.18048219401E+04  0.50400001928E-02 0.  1.
    10030    2    1    2    0    0  0.00000000000E+00  0.00000000000E+00 -0.14682918457E+04  0.21413520345E+04  0.15586877787E+04 0.  0.
        3    1    3    3  502    0  0.52628977181E+03  0.56241484929E+03 -0.57109806741E+03  0.95887663409E+03  0.10100000352E+00 0.  1.
       -3    1    3    3    0  502 -0.52628977181E+03 -0.56241484929E+03 -0.89719377829E+03  0.11824754004E+04  0.10100000352E+00 0. -1.
</event>
<event>
 5   0  0.1832646E-04  0.1601824E+04  0.7818609E-02  0.8819428E-01
       -2   -1    0    0    0  501  0.00000000000E+00  0.00000000000E+00  0.30399239239E+03  0.30399239240E+03  0.25500000920E-02 0.  1.
        2   -1    0    0  501    0  0.00000000000E+00  0.00000000000E+00 -0.21101188179E+04  0.21101188179E+04  0.25500000920E-02 0. -1.
    10030    2    1    2    0    0  0.00000000000E+00  0.00000000000E+00 -0.18061264255E+04  0.24141112103E+04  0.16018240449E+04 0.  0.
        2    1    3    3  502    0  0.53701510571E+03 -0.43737230678E+03 -0.15092483651E+04  0.16605753178E+04  0.25500000920E-02 0. -1.
       -2    1    3    3    0  502 -0.53701510571E+03  0.43737230678E+03 -0.29687806037E+03  0.75353589246E+03  0.25500000920E-02 0.  1.
</event>
<event>
 5   0  0.9726935E-05  0.1602107E+04  0.7818609E-02  0.8819254E-01
       -1   -1    0    0    0  501  0.00000000000E+00  0.00000000000E+00  0.27897333496E+03  0.27897333500E+03  0.50400001928E-02 0.  1.
        1   -1    0    0  501    0  0.00000000000E+00  0.00000000000E+00 -0.23001733513E+04  0.23001733513E+04  0.50400001928E-02 0. -1.
    10030    2    1    2    0    0  0.00000000000E+00  0.00000000000E+00 -0.20212000164E+04  0.25791466863E+04  0.16021074007E+04 0.  0.
        2    1    3    3  502    0  0.29230417578E+03 -0.72452453623E+03 -0.12954540953E+04  0.15128049603E+04  0.25500000920E-02 0. -1.
       -2    1    3    3    0  502 -0.29230417578E+03  0.72452453623E+03 -0.72574592105E+03  0.10663417261E+04  0.25500000920E-02 0.  1.
</event>
<event>
 5   0  0.9432152E-05  0.1601470E+04  0.7818609E-02  0.8819646E-01
        1   -1    0    0  501    0  0.00000000000E+00  0.00000000000E+00  0.63911390369E+03  0.63911390371E+03  0.50400001928E-02 0.  1.
       -1   -1    0    0    0  501  0.00000000000E+00  0.00000000000E+00 -0.10032270677E+04  0.10032270677E+04  0.50400001928E-02 0. -1.
    10030    2    1    2    0    0  0.00000000000E+00  0.00000000000E+00 -0.36411316403E+03  0.16423409714E+04  0.16014697844E+04 0.  0.
        4    1    3    3  502    0  0.29682048681E+02  0.93435575695E+02  0.63293495299E+03  0.64048380029E+03  0.12699999809E+01 0.  1.
       -4    1    3    3    0  502 -0.29682048681E+02 -0.93435575695E+02 -0.99704811703E+03  0.10018571711E+04  0.12699999809E+01 0. -1.
</event>
<event>
 5   0  0.9432152E-05  0.1592418E+04  0.7818609E-02  0.8825219E-01
       -1   -1    0    0    0  501  0.00000000000E+00  0.00000000000E+00  0.56922801918E+03  0.56922801920E+03  0.50400001928E-02 0. -1.
        1   -1    0    0  501    0  0.00000000000E+00  0.00000000000E+00 -0.11136992932E+04  0.11136992932E+04  0.50400001928E-02 0.  1.
    10030    2    1    2    0    0  0.00000000000E+00  0.00000000000E+00 -0.54447127398E+03  0.16829273124E+04  0.15924180891E+04 0.  0.
        4    1    3    3  502    0 -0.24868271783E+03 -0.17624950281E+03  0.50512589078E+03  0.58996674467E+03  0.12699999809E+01 0. -1.
       -4    1    3    3    0  502  0.24868271783E+03  0.17624950281E+03 -0.10495971648E+04  0.10929605677E+04  0.12699999809E+01 0.  1.
</event>
<event>
 5   0  0.1832646E-04  0.1538253E+04  0.7818609E-02  0.8859406E-01
       -2   -1    0    0    0  501  0.00000000000E+00  0.00000000000E+00  0.66505033441E+03  0.66505033441E+03  0.25500000920E-02 0.  1.
        2   -1    0    0  501    0  0.00000000000E+00  0.00000000000E+00 -0.88949044514E+03  0.88949044514E+03  0.25500000920E-02 0. -1.
    10030    2    1    2    0    0  0.00000000000E+00  0.00000000000E+00 -0.22444011073E+03  0.15545407796E+04  0.15382534486E+04 0.  0.
        2    1    3    3  502    0  0.52464668273E+03 -0.18803311141E+03 -0.64787501065E+03  0.85460670611E+03  0.25500000920E-02 0. -1.
       -2    1    3    3    0  502 -0.52464668273E+03  0.18803311141E+03  0.42343489992E+03  0.69993407345E+03  0.25500000920E-02 0.  1.
</event>
<event>
 5   0  0.9673017E-05  0.1579236E+04  0.7818609E-02  0.8833407E-01
        1   -1    0    0  501    0  0.00000000000E+00  0.00000000000E+00  0.10210541709E+04  0.10210541709E+04  0.50400001928E-02 0.  1.
       -1   -1    0    0    0  501  0.00000000000E+00  0.00000000000E+00 -0.61064014183E+03  0.61064014185E+03  0.50400001928E-02 0. -1.
    10030    2    1    2    0    0  0.00000000000E+00  0.00000000000E+00  0.41041402904E+03  0.16316943127E+04  0.15792360986E+04 0.  0.
        1    1    3    3  502    0  0.22605432003E+03  0.50111938250E+03 -0.38043270332E+03  0.66854336651E+03  0.50400001928E-02 0. -1.
       -1    1    3    3    0  502 -0.22605432003E+03 -0.50111938250E+03  0.79084673236E+03  0.96315094623E+03  0.50400001928E-02 0.  1.
</event>
<event>
 5   0  0.1832646E-04  0.1600169E+04  0.7818609E-02  0.8820444E-01
        2   -1    0    0  501    0  0.00000000000E+00  0.00000000000E+00  0.27767616453E+04  0.27767616453E+04  0.25500000920E-02 0. -1.
       -2   -1    0    0    0  501  0.00000000000E+00  0.00000000000E+00 -0.23053304467E+03  0.23053304468E+03  0.25500000920E-02 0.  1.
    10030    2    1    2    0    0  0.00000000000E+00  0.00000000000E+00  0.25462286007E+04  0.30072946900E+04  0.16001691366E+04 0.  0.
        2    1    3    3  502    0  0.40752074311E+02  0.22154821088E+03 -0.16970465252E+03  0.28203547720E+03  0.25500000920E-02 0.  1.
       -2    1    3    3    0  502 -0.40752074311E+02 -0.22154821088E+03  0.27159332532E+04  0.27252592128E+04  0.25500000920E-02 0. -1.
</event>
<event>
 5   0  0.1832646E-04  0.1600626E+04  0.7818609E-02  0.8820164E-01
       -2   -1    0    0    0  501  0.00000000000E+00  0.00000000000E+00  0.33591068411E+03  0.33591068412E+03  0.25500000920E-02 0. -1.
        2   -1    0    0  501    0  0.00000000000E+00  0.00000000000E+00 -0.19067595215E+04  0.19067595215E+04  0.25500000920E-02 0.  1.
    10030    2    1    2    0    0  0.00000000000E+00  0.00000000000E+00 -0.15708488374E+04  0.22426702057E+04  0.16006259967E+04 0.  0.
        2    1    3    3  502    0 -0.64882076170E+02 -0.30824219296E+03  0.24540242573E+03  0.39930600283E+03  0.25500000920E-02 0. -1.
       -2    1    3    3    0  502  0.64882076170E+02  0.30824219296E+03 -0.18162512632E+04  0.18433642028E+04  0.25500000920E-02 0.  1.
</event>
<event>
 5   0  0.1832646E-04  0.1605693E+04  0.7818609E-02  0.8817058E-01
        2   -1    0    0  501    0  0.00000000000E+00  0.00000000000E+00  0.16027989761E+04  0.16027989761E+04  0.25500000920E-02 0.  1.
       -2   -1    0    0    0  501  0.00000000000E+00  0.00000000000E+00 -0.40214823763E+03  0.40214823764E+03  0.25500000920E-02 0. -1.
    10030    2    1    2    0    0  0.00000000000E+00  0.00000000000E+00  0.12006507385E+04  0.20049472138E+04  0.16056933500E+04 0.  0.
        2    1    3    3  502    0  0.12985471201E+02  0.76945502018E+03  0.88597173425E+03  0.11735312371E+04  0.25500000920E-02 0.  1.
       -2    1    3    3    0  502 -0.12985471201E+02 -0.76945502018E+03  0.31467900425E+03  0.83141597668E+03  0.25500000920E-02 0. -1.
</event>
<event>
 5   0  0.1774934E-04  0.1601145E+04  0.7818609E-02  0.8819845E-01
       -2   -1    0    0    0  501  0.00000000000E+00  0.00000000000E+00  0.95800187687E+03  0.95800187687E+03  0.25500000920E-02 0.  1.
        2   -1    0    0  501    0  0.00000000000E+00  0.00000000000E+00 -0.66901332882E+03  0.66901332883E+03  0.25500000920E-02 0. -1.
    10030    2    1    2    0    0  0.00000000000E+00  0.00000000000E+00  0.28898854804E+03  0.16270152057E+04  0.16011446214E+04 0.  0.
        1    1    3    3  502    0 -0.50893362704E+03 -0.58630183069E+03  0.34297757834E+03  0.84876197646E+03  0.50400001928E-02 0.  1.
       -1    1    3    3    0  502  0.50893362704E+03  0.58630183069E+03 -0.53989030295E+02  0.77825322924E+03  0.50400001928E-02 0. -1.
</event>
<event>
 5   0  0.9726935E-05  0.1597120E+04  0.7818609E-02  0.8822319E-01
        1   -1    0    0  501    0  0.00000000000E+00  0.00000000000E+00  0.23680746779E+04  0.23680746779E+04  0.50400001928E-02 0.  1.
       -1   -1    0    0    0  501  0.00000000000E+00  0.00000000000E+00 -0.26928980433E+03  0.26928980438E+03  0.50400001928E-02 0. -1.
    10030    2    1    2    0    0  0.00000000000E+00  0.00000000000E+00  0.20987848736E+04  0.26373644823E+04  0.15971203671E+04 0.  0.
        2    1    3    3  502    0 -0.69016687000E+03  0.39348244461E+03  0.11829316756E+04  0.14249512594E+04  0.25500000920E-02 0. -1.
       -2    1    3    3    0  502  0.69016687000E+03 -0.39348244461E+03  0.91585319799E+03  0.12124132229E+04  0.25500000920E-02 0.  1.
</event>
<event>
 5   0  0.1858913E-04  0.1602540E+04  0.7818609E-02  0.8818989E-01
        2   -1    0    0  501    0  0.00000000000E+00  0.00000000000E+00  0.95500845597E+03  0.95500845597E+03  0.25500000920E-02 0. -1.
       -2   -1    0    0    0  501  0.00000000000E+00  0.00000000000E+00 -0.67228021416E+03  0.67228021416E+03  0.25500000920E-02 0.  1.
    10030    2    1    2    0    0  0.00000000000E+00  0.00000000000E+00  0.28272824181E+03  0.16272886701E+04  0.16025395961E+04 0.  0.
        4    1    3    3  502    0 -0.41712994774E+02  0.79462864541E+03  0.45798958014E+02  0.79704066113E+03  0.12699999809E+01 0.  1.
       -4    1    3    3    0  502  0.41712994774E+02 -0.79462864541E+03  0.23692928380E+03  0.83024800901E+03  0.12699999809E+01 0. -1.
</event>
<event>
 5   0  0.1835088E-04  0.1585270E+04  0.7818609E-02  0.8829649E-01
        2   -1    0    0  501    0  0.00000000000E+00  0.00000000000E+00  0.46265628983E+03  0.46265628983E+03  0.25500000920E-02 0.  1.
       -2   -1    0    0    0  501  0.00000000000E+00  0.00000000000E+00 -0.13579628024E+04  0.13579628024E+04  0.25500000920E-02 0. -1.
    10030    2    1    2    0    0  0.00000000000E+00  0.00000000000E+00 -0.89530651260E+03  0.18206190923E+04  0.15852697334E+04 0.  0.
        5    1    3    3  502    0  0.42973656330E+03 -0.25317337986E+03 -0.11551248978E+04  0.12582153606E+04  0.46999998093E+01 0. -1.
       -5    1    3    3    0  502 -0.42973656330E+03  0.25317337986E+03  0.25981838521E+03  0.56240373167E+03  0.46999998093E+01 0.  1.
</event>
<event>
 5   0  0.9939872E-05  0.1597362E+04  0.7818609E-02  0.8822170E-01
       -1   -1    0    0    0  501  0.00000000000E+00  0.00000000000E+00  0.58272621453E+03  0.58272621455E+03  0.50400001928E-02 0.  1.
        1   -1    0    0  501    0  0.00000000000E+00  0.00000000000E+00 -0.10946678106E+04  0.10946678106E+04  0.50400001928E-02 0. -1.
    10030    2    1    2    0    0  0.00000000000E+00  0.00000000000E+00 -0.51194159611E+03  0.16773940252E+04  0.15973623627E+04 0.  0.
        3    1    3    3  502    0 -0.22638288912E+03  0.16217930325E+03 -0.10420341808E+04  0.10786039973E+04  0.10100000352E+00 0. -1.
       -3    1    3    3    0  502  0.22638288912E+03 -0.16217930325E+03  0.53009258471E+03  0.59879002785E+03  0.10100000352E+00 0.  1.
</event>
<event>
 5   0  0.1835088E-04  0.1613462E+04  0.7818609E-02  0.8812320E-01
       -2   -1    0    0    0  501  0.00000000000E+00  0.00000000000E+00  0.57246778465E+03  0.57246778466E+03  0.25500000920E-02 0. -1.
        2   -1    0    0  501    0  0.00000000000E+00  0.00000000000E+00 -0.11368580523E+04  0.11368580523E+04  0.25500000920E-02 0.  1.
    10030    2    1    2    0    0  0.00000000000E+00  0.00000000000E+00 -0.56439026767E+03  0.17093258370E+04  0.16134616335E+04 0.  0.
        5    1    3    3  502    0  0.23217727064E+03 -0.59192365962E+03 -0.80819518983E+03  0.10283391749E+04  0.46999998093E+01 0.  1.
       -5    1    3    3    0  502 -0.23217727064E+03  0.59192365962E+03  0.24380492217E+03  0.68098666205E+03  0.46999998093E+01 0. -1.
</event>
<event>
 5   0  0.9616567E-05  0.1597468E+04  0.7818609E-02  0.8822105E-01
        1   -1    0    0  501    0  0.00000000000E+00  0.00000000000E+00  0.14557818118E+04  0.14557818118E+04  0.50400001928E-02 0. -1.
       -1   -1    0    0    0  501  0.00000000000E+00  0.00000000000E+00 -0.43823592192E+03  0.43823592195E+03  0.50400001928E-02 0.  1.
    10030    2    1    2    0    0  0.00000000000E+00  0.00000000000E+00  0.10175458899E+04  0.18940177338E+04  0.15974678519E+04 0.  0.
        5    1    3    3  502    0  0.74676318047E+03 -0.23944254826E+03  0.68845008427E+03  0.10435389739E+04  0.46999998093E+01 0. -1.
       -5    1    3    3    0  502 -0.74676318047E+03  0.23944254826E+03  0.32909580561E+03  0.85047875981E+03  0.46999998093E+01 0.  1.
</event>
<event>
 5   0  0.1835088E-04  0.1586955E+04  0.7818609E-02  0.8828602E-01
       -2   -1    0    0    0  501  0.00000000000E+00  0.00000000000E+00  0.67023978205E+03  0.67023978206E+03  0.25500000920E-02 0. -1.
        2   -1    0    0  501    0  0.00000000000E+00  0.00000000000E+00 -0.93937541086E+03  0.93937541086E+03  0.25500000920E-02 0.  1.
    10030    2    1    2    0    0  0.00000000000E+00  0.00000000000E+00 -0.26913562880E+03  0.16096151929E+04  0.15869552869E+04 0.  0.
        5    1    3    3  502    0 -0.78327975429E+03  0.10503051698E+01 -0.26309101018E+03  0.82629731106E+03  0.46999998093E+01 0.  1.
       -5    1    3    3    0  502  0.78327975429E+03 -0.10503051698E+01 -0.60446186197E+01  0.78331788186E+03  0.46999998093E+01 0. -1.
</event>
<event>
 5   0  0.1832646E-04  0.1609330E+04  0.7818609E-02  0.8814837E-01
        2   -1    0    0  501    0  0.00000000000E+00  0.00000000000E+00  0.25248588889E+04  0.25248588889E+04  0.25500000920E-02 0.  1.
       -2   -1    0    0    0  501  0.00000000000E+00  0.00000000000E+00 -0.25644419633E+03  0.25644419634E+03  0.25500000920E-02 0. -1.
    10030    2    1    2    0    0  0.00000000000E+00  0.00000000000E+00  0.22684146926E+04  0.27813030853E+04  0.16093295606E+04 0.  0.
        2    1    3    3  502    0 -0.80417260271E+03  0.26513793836E+02  0.11504979797E+04  0.14039380889E+04  0.25500000920E-02 0.  1.
       -2    1    3    3    0  502  0.80417260271E+03 -0.26513793836E+02  0.11179167129E+04  0.13773649963E+04  0.25500000920E-02 0. -1.
</event>
<event>
 5   0  0.9673017E-05  0.1598376E+04  0.7818609E-02  0.8821546E-01
       -1   -1    0    0    0  501  0.00000000000E+00  0.00000000000E+00  0.19724380047E+04  0.19724380047E+04  0.50400001928E-02 0. -1.
        1   -1    0    0  501    0  0.00000000000E+00  0.00000000000E+00 -0.32381315616E+03  0.32381315620E+03  0.50400001928E-02 0.  1.
    10030    2    1    2    0    0  0.00000000000E+00  0.00000000000E+00  0.16486248485E+04  0.22962511609E+04  0.15983758953E+04 0.  0.
        1    1    3    3  502    0  0.54183593271E+03 -0.24691173316E+03  0.15901102694E+04  0.16979405911E+04  0.50400001928E-02 0.  1.
       -1    1    3    3    0  502 -0.54183593271E+03  0.24691173316E+03  0.58514579112E+02  0.59831056981E+03  0.50400001928E-02 0. -1.
</event>
<event>
 5   0  0.9673017E-05  0.1602296E+04  0.7818609E-02  0.8819139E-01
        1   -1    0    0  501    0  0.00000000000E+00  0.00000000000E+00  0.90253107789E+03  0.90253107791E+03  0.50400001928E-02 0. -1.
       -1   -1    0    0    0  501  0.00000000000E+00  0.00000000000E+00 -0.71115334822E+03  0.71115334823E+03  0.50400001928E-02 0.  1.
    10030    2    1    2    0    0  0.00000000000E+00  0.00000000000E+00  0.19137772968E+03  0.16136844261E+04  0.16022958503E+04 0.  0.
        1    1    3    3  502    0 -0.18561244053E+03  0.58718766823E+03 -0.42039526043E+03  0.74563631270E+03  0.50400001928E-02 0.  1.
       -1    1    3    3    0  502  0.18561244053E+03 -0.58718766823E+03  0.61177299010E+03  0.86804811344E+03  0.50400001928E-02 0. -1.
</event>
<event>
 5   0  0.1858913E-04  0.1593887E+04  0.7818609E-02  0.8824312E-01
       -2   -1    0    0    0  501  0.00000000000E+00  0.00000000000E+00  0.31584819065E+03  0.31584819066E+03  0.25500000920E-02 0.  1.
        2   -1    0    0  501    0  0.00000000000E+00  0.00000000000E+00 -0.20108371036E+04  0.20108371037E+04  0.25500000920E-02 0. -1.
    10030    2    1    2    0    0  0.00000000000E+00  0.00000000000E+00 -0.16949889130E+04  0.23266852943E+04  0.15938873999E+04 0.  0.
        4    1    3    3  502    0  0.59806641382E+03 -0.14610215100E+03 -0.15862060907E+04  0.17014936523E+04  0.12699999809E+01 0. -1.
       -4    1    3    3    0  502 -0.59806641382E+03  0.14610215100E+03 -0.10878282232E+03  0.62519164198E+03  0.12699999809E+01 0.  1.
</event>
<event>
 5   0  0.1858913E-04  0.1603367E+04  0.7818609E-02  0.8818482E-01
        2   -1    0    0  501    0  0.00000000000E+00  0.00000000000E+00  0.11719728623E+04  0.11719728623E+04  0.25500000920E-02 0.  1.
       -2   -1    0    0    0  501  0.00000000000E+00  0.00000000000E+00 -0.54838823421E+03  0.54838823421E+03  0.25500000920E-02 0. -1.
    10030    2    1    2    0    0  0.00000000000E+00  0.00000000000E+00  0.62358462812E+03  0.17203610965E+04  0.16033666187E+04 0.  0.
        4    1    3    3  502    0  0.45903513846E+02 -0.79978644074E+03  0.34449641147E+03  0.87203490400E+03  0.12699999809E+01 0. -1.
       -4    1    3    3    0  502 -0.45903513846E+02  0.79978644074E+03  0.27908821665E+03  0.84832619254E+03  0.12699999809E+01 0.  1.
</event>
<event>
 5   0  0.1774934E-04  0.1602210E+04  0.7818609E-02  0.8819191E-01
       -2   -1    0    0    0  501  0.00000000000E+00  0.00000000000E+00  0.53505292736E+03  0.53505292736E+03  0.25500000920E-02 0.  1.
        2   -1    0    0  501    0  0.00000000000E+00  0.00000000000E+00 -0.11994503581E+04  0.11994503581E+04  0.25500000920E-02 0. -1.
    10030    2    1    2    0    0  0.00000000000E+00  0.00000000000E+00 -0.66439743074E+03  0.17345032855E+04  0.16022102550E+04 0.  0.
        1    1    3    3  502    0  0.48805617999E+03  0.24776304320E+03 -0.96546375126E+03  0.11098223351E+04  0.50400001928E-02 0. -1.
       -1    1    3    3    0  502 -0.48805617999E+03 -0.24776304320E+03  0.30106632052E+03  0.62468095039E+03  0.50400001928E-02 0.  1.
</event>
<event>
 5   0  0.1835088E-04  0.1598816E+04  0.7818609E-02  0.8821276E-01
       -2   -1    0    0    0  501  0.00000000000E+00  0.00000000000E+00  0.24958471628E+03  0.24958471630E+03  0.25500000920E-02 0. -1.
        2   -1    0    0  501    0  0.00000000000E+00  0.00000000000E+00 -0.25604665931E+04  0.25604665931E+04  0.25500000920E-02 0.  1.
    10030    2    1    2    0    0  0.00000000000E+00  0.00000000000E+00 -0.23108818768E+04  0.28100513094E+04  0.15988162223E+04 0.  0.
        5    1    3    3  502    0 -0.34140601375E+03  0.51851679567E+03 -0.20405604031E+04  0.21329150433E+04  0.46999998093E+01 0. -1.
       -5    1    3    3    0  502  0.34140601375E+03 -0.51851679567E+03 -0.27032147376E+03  0.67713626605E+03  0.46999998093E+01 0.  1.
</event>
<event>
 5   0  0.9939872E-05  0.1605409E+04  0.7818609E-02  0.8817232E-01
       -1   -1    0    0    0  501  0.00000000000E+00  0.00000000000E+00  0.11813058605E+04  0.11813058606E+04  0.50400001928E-02 0.  1.
        1   -1    0    0  501    0  0.00000000000E+00  0.00000000000E+00 -0.54544257669E+03  0.54544257672E+03  0.50400001928E-02 0. -1.
    10030    2    1    2    0    0  0.00000000000E+00  0.00000000000E+00  0.63586328385E+03  0.17267484373E+04  0.16054089977E+04 0.  0.
        3    1    3    3  502    0 -0.23665730467E+03  0.25439077422E+03  0.10962345516E+04  0.11499789338E+04  0.10100000352E+00 0.  1.
       -3    1    3    3    0  502  0.23665730467E+03 -0.25439077422E+03 -0.46037126770E+03  0.57676950352E+03  0.10100000352E+00 0. -1.
</event>
<event>
 5   0  0.9673017E-05  0.1548502E+04  0.7818609E-02  0.8852825E-01
        1   -1    0    0  501    0  0.00000000000E+00  0.00000000000E+00  0.11302413802E+04  0.11302413802E+04  0.50400001928E-02 0.  1.
       -1   -1    0    0    0  501  0.00000000000E+00  0.00000000000E+00 -0.53038615583E+03  0.53038615585E+03  0.50400001928E-02 0. -1.
    10030    2    1    2    0    0  0.00000000000E+00  0.00000000000E+00  0.59985522435E+03  0.16606275360E+04  0.15485017027E+04 0.  0.
        1    1    3    3  502    0  0.25197105862E+03 -0.33478201481E+02  0.10842204399E+04  0.11136176034E+04  0.50400001928E-02 0.  1.
       -1    1    3    3    0  502 -0.25197105862E+03  0.33478201481E+02 -0.48436521553E+03  0.54700993263E+03  0.50400001928E-02 0. -1.
</event>
<event>
 5   0  0.1832646E-04  0.1598262E+04  0.7818609E-02  0.8821616E-01
        2   -1    0    0  501    0  0.00000000000E+00  0.00000000000E+00  0.83693189397E+03  0.83693189398E+03  0.25500000920E-02 0.  1.
       -2   -1    0    0    0  501  0.00000000000E+00  0.00000000000E+00 -0.76303770714E+03  0.76303770714E+03  0.25500000920E-02 0. -1.
    10030    2    1    2    0    0  0.00000000000E+00  0.00000000000E+00  0.73894186832E+02  0.15999696011E+04  0.15982622981E+04 0.  0.
        2    1    3    3  502    0  0.22320588463E+03 -0.44235375793E+03  0.66460400092E+03  0.82897297431E+03  0.25500000920E-02 0.  1.
       -2    1    3    3    0  502 -0.22320588463E+03  0.44235375793E+03 -0.59070981408E+03  0.77099662681E+03  0.25500000920E-02 0. -1.
</event>
<event>
 5   0  0.9616567E-05  0.1604856E+04  0.7818609E-02  0.8817570E-01
       -1   -1    0    0    0  501  0.00000000000E+00  0.00000000000E+00  0.39323608948E+03  0.39323608951E+03  0.50400001928E-02 0.  1.
        1   -1    0    0  501    0  0.00000000000E+00  0.00000000000E+00 -0.16374154412E+04  0.16374154412E+04  0.50400001928E-02 0. -1.
    10030    2    1    2    0    0  0.00000000000E+00  0.00000000000E+00 -0.12441793517E+04  0.20306515307E+04  0.16048561867E+04 0.  0.
        5    1    3    3  502    0  0.12753994162E+03 -0.31741880256E+03  0.29633130025E+03  0.45260961373E+03  0.46999998093E+01 0.  1.
       -5    1    3    3    0  502 -0.12753994162E+03  0.31741880256E+03 -0.15405106520E+04  0.15780419170E+04  0.46999998093E+01 0. -1.
</event>
<event>
 5   0  0.9673017E-05  0.1606176E+04  0.7818609E-02  0.8816763E-01
        1   -1    0    0  501    0  0.00000000000E+00  0.00000000000E+00  0.16745893109E+04  0.16745893109E+04  0.50400001928E-02 0.  1.
       -1   -1    0    0    0  501  0.00000000000E+00  0.00000000000E+00 -0.38513954790E+03  0.38513954794E+03  0.50400001928E-02 0. -1.
    10030    2    1    2    0    0  0.00000000000E+00  0.00000000000E+00  0.12894497630E+04  0.20597288588E+04  0.16061762919E+04 0.  0.
        1    1    3    3  502    0 -0.42314216745E+03 -0.41726656958E+03 -0.47985920592E+02  0.59620745766E+03  0.50400001928E-02 0. -1.
       -1    1    3    3    0  502  0.42314216745E+03  0.41726656958E+03  0.13374356836E+04  0.14635214012E+04  0.50400001928E-02 0.  1.
</event>
<event>
 5   0  0.9726935E-05  0.1609327E+04  0.7818609E-02  0.8814838E-01
        1   -1    0    0  501    0  0.00000000000E+00  0.00000000000E+00  0.10192628859E+04  0.10192628859E+04  0.50400001928E-02 0. -1.
       -1   -1    0    0    0  501  0.00000000000E+00  0.00000000000E+00 -0.63524702125E+03  0.63524702127E+03  0.50400001928E-02 0.  1.
    10030    2    1    2    0    0  0.00000000000E+00  0.00000000000E+00  0.38401586466E+03  0.16545099072E+04  0.16093274523E+04 0.  0.
        2    1    3    3  502    0 -0.11755225183E+03 -0.78599021085E+03  0.62435483660E+02  0.79718086598E+03  0.25500000920E-02 0.  1.
       -2    1    3    3    0  502  0.11755225183E+03  0.78599021085E+03  0.32158038100E+03  0.85732904122E+03  0.25500000920E-02 0. -1.
</event>
<event>
 5   0  0.1832646E-04  0.1593177E+04  0.7818609E-02  0.8824751E-01
       -2   -1    0    0    0  501  0.00000000000E+00  0.00000000000E+00  0.49433920422E+03  0.49433920423E+03  0.25500000920E-02 0. -1.
        2   -1    0    0  501    0  0.00000000000E+00  0.00000000000E+00 -0.12836396205E+04  0.12836396205E+04  0.25500000920E-02 0.  1.
    10030    2    1    2    0    0  0.00000000000E+00  0.00000000000E+00 -0.78930041631E+03  0.17779788248E+04  0.15931771886E+04 0.  0.
        2    1    3    3  502    0  0.60442341718E+03  0.34545747565E+03  0.37407123548E+02  0.69718564789E+03  0.25500000920E-02 0.  1.
       -2    1    3    3    0  502 -0.60442341718E+03 -0.34545747565E+03 -0.82670753985E+03  0.10807931769E+04  0.25500000920E-02 0. -1.
</event>
<event>
 5   0  0.1914170E-04  0.1608004E+04  0.7818609E-02  0.8815646E-01
       -2   -1    0    0    0  501  0.00000000000E+00  0.00000000000E+00  0.29253965960E+03  0.29253965961E+03  0.25500000920E-02 0. -1.
        2   -1    0    0  501    0  0.00000000000E+00  0.00000000000E+00 -0.22096813989E+04  0.22096813989E+04  0.25500000920E-02 0.  1.
    10030    2    1    2    0    0  0.00000000000E+00  0.00000000000E+00 -0.19171417393E+04  0.25022210585E+04  0.16080042839E+04 0.  0.
        3    1    3    3  502    0  0.55745908496E+03  0.19148123847E+03 -0.10768851067E+03  0.59918488100E+03  0.10100000352E+00 0. -1.
       -3    1    3    3    0  502 -0.55745908496E+03 -0.19148123847E+03 -0.18094532287E+04  0.19030361775E+04  0.10100000352E+00 0.  1.
</event>
<event>
 5   0  0.9616567E-05  0.1626464E+04  0.7818609E-02  0.8804453E-01
        1   -1    0    0  501    0  0.00000000000E+00  0.00000000000E+00  0.18174397019E+04  0.18174397019E+04  0.50400001928E-02 0.  1.
       -1   -1    0    0    0  501  0.00000000000E+00  0.00000000000E+00 -0.36388882790E+03  0.36388882793E+03  0.50400001928E-02 0. -1.
    10030    2    1    2    0    0  0.00000000000E+00  0.00000000000E+00  0.14535508740E+04  0.21813285299E+04  0.16264636522E+04 0.  0.
        5    1    3    3  502    0  0.40876568088E+03 -0.63130338061E+03  0.31190614105E+03  0.81421180970E+03  0.46999998093E+01 0. -1.
       -5    1    3    3    0  502 -0.40876568088E+03  0.63130338061E+03  0.11416447330E+04  0.13671167202E+04  0.46999998093E+01 0.  1.
</event>
<event>
 5   0  0.9673017E-05  0.1598342E+04  0.7818609E-02  0.8821567E-01
       -1   -1    0    0    0  501  0.00000000000E+00  0.00000000000E+00  0.77264776476E+03  0.77264776478E+03  0.50400001928E-02 0.  1.
        1   -1    0    0  501    0  0.00000000000E+00  0.00000000000E+00 -0.82660498025E+03  0.82660498027E+03  0.50400001928E-02 0. -1.
    10030    2    1    2    0    0  0.00000000000E+00  0.00000000000E+00 -0.53957215491E+02  0.15992527450E+04  0.15983422542E+04 0.  0.
        1    1    3    3  502    0 -0.10107123405E+03  0.58972969492E+03 -0.55707090984E+03  0.81751116570E+03  0.50400001928E-02 0. -1.
       -1    1    3    3    0  502  0.10107123405E+03 -0.58972969492E+03  0.50311369435E+03  0.78174157935E+03  0.50400001928E-02 0.  1.
</event>
<event>
 5   0  0.9939872E-05  0.1595968E+04  0.7818609E-02  0.8823029E-01
        1   -1    0    0  501    0  0.00000000000E+00  0.00000000000E+00  0.69938554287E+03  0.69938554289E+03  0.50400001928E-02 0.  1.
       -1   -1    0    0    0  501  0.00000000000E+00  0.00000000000E+00 -0.91048243829E+03  0.91048243830E+03  0.50400001928E-02 0. -1.
    10030    2    1    2    0    0  0.00000000000E+00  0.00000000000E+00 -0.21109689542E+03  0.16098679812E+04  0.15959677370E+04 0.  0.
        3    1    3    3  502    0 -0.69063162285E+03 -0.19879887483E+03 -0.45539071261E+03  0.85080770004E+03  0.10100000352E+00 0. -1.
       -3    1    3    3    0  502  0.69063162285E+03  0.19879887483E+03  0.24429381719E+03  0.75906028116E+03  0.10100000352E+00 0.  1.
</event>
<event>
 5   0  0.1835088E-04  0.1598628E+04  0.7818609E-02  0.8821391E-01
       -2   -1    0    0    0  501  0.00000000000E+00  0.00000000000E+00  0.40060294927E+03  0.40060294928E+03  0.25500000920E-02 0.  1.
        2   -1    0    0  501    0  0.00000000000E+00  0.00000000000E+00 -0.15948541014E+04  0.15948541014E+04  0.25500000920E-02 0. -1.
    10030    2    1    2    0    0  0.00000000000E+00  0.00000000000E+00 -0.11942511521E+04  0.19954570507E+04  0.15986284830E+04 0.  0.
        5    1    3    3  502    0  0.17412282562E+03 -0.73519972761E+03 -0.27152211082E+03  0.80285972906E+03  0.46999998093E+01 0.  1.
       -5    1    3    3    0  502 -0.17412282562E+03  0.73519972761E+03 -0.92272904132E+03  0.11925973216E+04  0.46999998093E+01 0. -1.
</event>
<event>
 5   0  0.6838750E-05  0.1603897E+04  0.7818609E-02  0.8818157E-01
       -3   -1    0    0    0  501  0.00000000000E+00  0.00000000000E+00  0.86537019505E+03  0.86537020094E+03  0.10100000352E+00 0.  1.
        3   -1    0    0  501    0  0.00000000000E+00  0.00000000000E+00 -0.74317528685E+03  0.74317529371E+03  0.10100000352E+00 0. -1.
    10030    2    1    2    0    0  0.00000000000E+00  0.00000000000E+00  0.12219490820E+03  0.16085454947E+04  0.16038974446E+04 0.  0.
        4    1    3    3  502    0  0.24564355101E+03  0.34177858358E+03 -0.62349835129E+03  0.75226668230E+03  0.12699999809E+01 0. -1.
       -4    1    3    3    0  502 -0.24564355101E+03 -0.34177858358E+03  0.74569325948E+03  0.85627881235E+03  0.12699999809E+01 0.  1.
</event>
<event>
 5   0  0.1832646E-04  0.1600047E+04  0.7818609E-02  0.8820519E-01
       -2   -1    0    0    0  501  0.00000000000E+00  0.00000000000E+00  0.10924234278E+04  0.10924234278E+04  0.25500000920E-02 0.  1.
        2   -1    0    0  501    0  0.00000000000E+00  0.00000000000E+00 -0.58588802249E+03  0.58588802249E+03  0.25500000920E-02 0. -1.
    10030    2    1    2    0    0  0.00000000000E+00  0.00000000000E+00  0.50653540533E+03  0.16783114503E+04  0.16000472516E+04 0.  0.
        2    1    3    3  502    0  0.17233547738E+03  0.37883382236E+03 -0.46339693298E+03  0.62285736668E+03  0.25500000920E-02 0. -1.
       -2    1    3    3    0  502 -0.17233547738E+03 -0.37883382236E+03  0.96993233832E+03  0.10554540836E+04  0.25500000920E-02 0.  1.
</event>
<event>
 5   0  0.1832646E-04  0.1609954E+04  0.7818609E-02  0.8814456E-01
       -2   -1    0    0    0  501  0.00000000000E+00  0.00000000000E+00  0.41525028764E+03  0.41525028765E+03  0.25500000920E-02 0.  1.
        2   -1    0    0  501    0  0.00000000000E+00  0.00000000000E+00 -0.15604753855E+04  0.15604753855E+04  0.25500000920E-02 0. -1.
    10030    2    1    2    0    0  0.00000000000E+00  0.00000000000E+00 -0.11452250978E+04  0.19757256731E+04  0.16099538536E+04 0.  0.
        2    1    3    3  502    0 -0.79515194837E+03  0.81814522031E+02 -0.45601222783E+03  0.92027571354E+03  0.25500000920E-02 0.  1.
       -2    1    3    3    0  502  0.79515194837E+03 -0.81814522031E+02 -0.68921287002E+03  0.10554499596E+04  0.25500000920E-02 0. -1.
</event>
<event>
 5   0  0.1835088E-04  0.1598847E+04  0.7818609E-02  0.8821257E-01
        2   -1    0    0  501    0  0.00000000000E+00  0.00000000000E+00  0.22922353898E+04  0.22922353898E+04  0.25500000920E-02 0.  1.
       -2   -1    0    0    0  501  0.00000000000E+00  0.00000000000E+00 -0.27880125229E+03  0.27880125230E+03  0.25500000920E-02 0. -1.
    10030    2    1    2    0    0  0.00000000000E+00  0.00000000000E+00  0.20134341375E+04  0.25710366421E+04  0.15988472063E+04 0.  0.
        5    1    3    3  502    0  0.76734505513E+03 -0.16082018215E+02  0.13662137077E+04  0.15670478774E+04  0.46999998093E+01 0.  1.
       -5    1    3    3    0  502 -0.76734505513E+03  0.16082018215E+02  0.64722042987E+03  0.10039887648E+04  0.46999998093E+01 0. -1.
</event>
<event>
 5   0  0.1774934E-04  0.1608714E+04  0.7818609E-02  0.8815212E-01
        2   -1    0    0  501    0  0.00000000000E+00  0.00000000000E+00  0.12002687419E+04  0.12002687419E+04  0.25500000920E-02 0.  1.
       -2   -1    0    0    0  501  0.00000000000E+00  0.00000000000E+00 -0.53903807432E+03  0.53903807433E+03  0.25500000920E-02 0. -1.
    10030    2    1    2    0    0  0.00000000000E+00  0.00000000000E+00  0.66123066761E+03  0.17393068163E+04  0.16087144574E+04 0.  0.
        1    1    3    3  502    0 -0.69892255000E+03  0.94110428037E+02 -0.87621814090E+02  0.71065257749E+03  0.50400001928E-02 0. -1.
       -1    1    3    3    0  502  0.69892255000E+03 -0.94110428037E+02  0.74885248170E+03  0.10286542388E+04  0.50400001928E-02 0.  1.
</event>
<event>
 5   0  0.1832646E-04  0.1599460E+04  0.7818609E-02  0.8820880E-01
        2   -1    0    0  501    0  0.00000000000E+00  0.00000000000E+00  0.11608743515E+04  0.11608743515E+04  0.25500000920E-02 0. -1.
       -2   -1    0    0    0  501  0.00000000000E+00  0.00000000000E+00 -0.55093676326E+03  0.55093676326E+03  0.25500000920E-02 0.  1.
    10030    2    1    2    0    0  0.00000000000E+00  0.00000000000E+00  0.60993758828E+03  0.17118111148E+04  0.15994603562E+04 0.  0.
        2    1    3    3  502    0 -0.16624713062E+03  0.92227186105E+02  0.11363377312E+04  0.11521316773E+04  0.25500000920E-02 0. -1.
       -2    1    3    3    0  502  0.16624713062E+03 -0.92227186105E+02 -0.52640014296E+03  0.55967943755E+03  0.25500000920E-02 0.  1.
</event>
<event>
 5   0  0.1774934E-04  0.1602276E+04  0.7818609E-02  0.8819151E-01
        2   -1    0    0  501    0  0.00000000000E+00  0.00000000000E+00  0.15962087183E+04  0.15962087183E+04  0.25500000920E-02 0. -1.
       -2   -1    0    0    0  501  0.00000000000E+00  0.00000000000E+00 -0.40209171059E+03  0.40209171059E+03  0.25500000920E-02 0.  1.
    10030    2    1    2    0    0  0.00000000000E+00  0.00000000000E+00  0.11941170077E+04  0.19983004289E+04  0.16022762483E+04 0.  0.
        1    1    3    3  502    0 -0.35321626779E+02  0.46483715454E+03 -0.21551525814E+03  0.51358351227E+03  0.50400001928E-02 0.  1.
       -1    1    3    3    0  502  0.35321626779E+02 -0.46483715454E+03  0.14096322658E+04  0.14847169166E+04  0.50400001928E-02 0. -1.
</event>
<event>
 5   0  0.9432152E-05  0.1598252E+04  0.7818609E-02  0.8821622E-01
       -1   -1    0    0    0  501  0.00000000000E+00  0.00000000000E+00  0.46066272787E+03  0.46066272790E+03  0.50400001928E-02 0.  1.
        1   -1    0    0  501    0  0.00000000000E+00  0.00000000000E+00 -0.13862690733E+04  0.13862690733E+04  0.50400001928E-02 0. -1.
    10030    2    1    2    0    0  0.00000000000E+00  0.00000000000E+00 -0.92560634542E+03  0.18469318012E+04  0.15982521614E+04 0.  0.
        4    1    3    3  502    0  0.63838907896E+03 -0.25339578639E+03 -0.93483334156E+03  0.11600280299E+04  0.12699999809E+01 0. -1.
       -4    1    3    3    0  502 -0.63838907896E+03  0.25339578639E+03  0.92269961416E+01  0.68690377132E+03  0.12699999809E+01 0.  1.
</event>
<event>
 5   0  0.9432152E-05  0.1602148E+04  0.7818609E-02  0.8819230E-01
       -1   -1    0    0    0  501  0.00000000000E+00  0.00000000000E+00  0.46589165591E+03  0.46589165594E+03  0.50400001928E-02 0.  1.
        1   -1    0    0  501    0  0.00000000000E+00  0.00000000000E+00 -0.13774000551E+04  0.13774000551E+04  0.50400001928E-02 0. -1.
    10030    2    1    2    0    0  0.00000000000E+00  0.00000000000E+00 -0.91150839919E+03  0.18432917111E+04  0.16021475495E+04 0.  0.
        4    1    3    3  502    0  0.16338494608E+03  0.50596497093E+02  0.44463746403E+03  0.47640186130E+03  0.12699999809E+01 0.  1.
       -4    1    3    3    0  502 -0.16338494608E+03 -0.50596497093E+02 -0.13561458632E+04  0.13668898498E+04  0.12699999809E+01 0. -1.
</event>
<event>
 5   0  0.9432152E-05  0.1600973E+04  0.7818609E-02  0.8819951E-01
        1   -1    0    0  501    0  0.00000000000E+00  0.00000000000E+00  0.10215558667E+04  0.10215558667E+04  0.50400001928E-02 0. -1.
       -1   -1    0    0    0  501  0.00000000000E+00  0.00000000000E+00 -0.62725727693E+03  0.62725727695E+03  0.50400001928E-02 0.  1.
    10030    2    1    2    0    0  0.00000000000E+00  0.00000000000E+00  0.39429858975E+03  0.16488131436E+04  0.16009726433E+04 0.  0.
        4    1    3    3  502    0  0.15892628489E+03 -0.66708633366E+03  0.62242328463E+03  0.92610695858E+03  0.12699999809E+01 0. -1.
       -4    1    3    3    0  502 -0.15892628489E+03  0.66708633366E+03 -0.22812469488E+03  0.72270618505E+03  0.12699999809E+01 0.  1.
</event>
<event>
 5   0  0.1858913E-04  0.1601356E+04  0.7818609E-02  0.8819716E-01
       -2   -1    0    0    0  501  0.00000000000E+00  0.00000000000E+00  0.42502784816E+03  0.42502784816E+03  0.25500000920E-02 0. -1.
        2   -1    0    0  501    0  0.00000000000E+00  0.00000000000E+00 -0.15083366012E+04  0.15083366012E+04  0.25500000920E-02 0.  1.
    10030    2    1    2    0    0  0.00000000000E+00  0.00000000000E+00 -0.10833087530E+04  0.19333644493E+04  0.16013557505E+04 0.  0.
        4    1    3    3  502    0  0.44874211966E+03 -0.44815713479E+03 -0.11317276270E+04  0.12973138950E+04  0.12699999809E+01 0.  1.
       -4    1    3    3    0  502 -0.44874211966E+03  0.44815713479E+03  0.48418874030E+02  0.63605055434E+03  0.12699999809E+01 0. -1.
</event>
<event>
 5   0  0.9616567E-05  0.1594544E+04  0.7818609E-02  0.8823907E-01
        1   -1    0    0  501    0  0.00000000000E+00  0.00000000000E+00  0.43465029227E+03  0.43465029230E+03  0.50400001928E-02 0. -1.
       -1   -1    0    0    0  501  0.00000000000E+00  0.00000000000E+00 -0.14624227375E+04  0.14624227375E+04  0.50400001928E-02 0.  1.
    10030    2    1    2    0    0  0.00000000000E+00  0.00000000000E+00 -0.10277724452E+04  0.18970730298E+04  0.15945437847E+04 0.  0.
        5    1    3    3  502    0  0.44280311968E+03  0.51681291750E+03 -0.10079459269E+04  0.12162019882E+04  0.46999998093E+01 0.  1.
       -5    1    3    3    0  502 -0.44280311968E+03 -0.51681291750E+03 -0.19826518329E+02  0.68087104162E+03  0.46999998093E+01 0. -1.
</event>
<event>
 5   0  0.9726935E-05  0.1600678E+04  0.7818609E-02  0.8820132E-01
        1   -1    0    0  501    0  0.00000000000E+00  0.00000000000E+00  0.88901927939E+03  0.88901927940E+03  0.50400001928E-02 0.  1.
       -1   -1    0    0    0  501  0.00000000000E+00  0.00000000000E+00 -0.72050443232E+03  0.72050443234E+03  0.50400001928E-02 0. -1.
    10030    2    1    2    0    0  0.00000000000E+00  0.00000000000E+00  0.16851484706E+03  0.16095237117E+04  0.16006777705E+04 0.  0.
        2    1    3    3  502    0 -0.49303905172E+03  0.21599283499E+03 -0.51130110232E+03  0.74240772392E+03  0.25500000920E-02 0. -1.
       -2    1    3    3    0  502  0.49303905172E+03 -0.21599283499E+03  0.67981594939E+03  0.86711598782E+03  0.25500000920E-02 0.  1.
</event>
<event>
 5   0  0.9432152E-05  0.1602875E+04  0.7818609E-02  0.8818784E-01
        1   -1    0    0  501    0  0.00000000000E+00  0.00000000000E+00  0.16164883223E+04  0.16164883223E+04  0.50400001928E-02 0. -1.
       -1   -1    0    0    0  501  0.00000000000E+00  0.00000000000E+00 -0.39734423695E+03  0.39734423699E+03  0.50400001928E-02 0.  1.
    10030    2    1    2    0    0  0.00000000000E+00  0.00000000000E+00  0.12191440853E+04  0.20138325593E+04  0.16028753152E+04 0.  0.
        4    1    3    3  502    0  0.50974492810E+02 -0.51630775976E+03  0.13770269887E+04  0.14715220156E+04  0.12699999809E+01 0. -1.
       -4    1    3    3    0  502 -0.50974492810E+02  0.51630775976E+03 -0.15788290343E+03  0.54231054369E+03  0.12699999809E+01 0.  1.
</event>
<event>
 5   0  0.9432152E-05  0.1569084E+04  0.7818609E-02  0.8839769E-01
       -1   -1    0    0    0  501  0.00000000000E+00  0.00000000000E+00  0.49185713339E+03  0.49185713342E+03  0.50400001928E-02 0. -1.
        1   -1    0    0  501    0  0.00000000000E+00  0.00000000000E+00 -0.12513916877E+04  0.12513916877E+04  0.50400001928E-02 0.  1.
    10030    2    1    2    0    0  0.00000000000E+00  0.00000000000E+00 -0.75953455430E+03  0.17432488211E+04  0.15690837177E+04 0.  0.
        4    1    3    3  502    0 -0.37386489828E+03  0.49677938609E+03  0.15181894879E+03  0.64001197388E+03  0.12699999809E+01 0. -1.
       -4    1    3    3    0  502  0.37386489828E+03 -0.49677938609E+03 -0.91135350309E+03  0.11032368472E+04  0.12699999809E+01 0.  1.
</event>
<event>
 5   0  0.1914170E-04  0.1601755E+04  0.7818609E-02  0.8819470E-01
        2   -1    0    0  501    0  0.00000000000E+00  0.00000000000E+00  0.11100897571E+04  0.11100897571E+04  0.25500000920E-02 0.  1.
       -2   -1    0    0    0  501  0.00000000000E+00  0.00000000000E+00 -0.57779558573E+03  0.57779558573E+03  0.25500000920E-02 0. -1.
    10030    2    1    2    0    0  0.00000000000E+00  0.00000000000E+00  0.53229417133E+03  0.16878853428E+04  0.16017552390E+04 0.  0.
        3    1    3    3  502    0 -0.66760667681E+03 -0.42847304867E+02 -0.19783640174E+03  0.69762011045E+03  0.10100000352E+00 0. -1.
       -3    1    3    3    0  502  0.66760667681E+03  0.42847304867E+02  0.73013057308E+03  0.99026523235E+03  0.10100000352E+00 0.  1.
</event>
<event>
 5   0  0.9726935E-05  0.1599583E+04  0.7818609E-02  0.8820804E-01
       -1   -1    0    0    0  501  0.00000000000E+00  0.00000000000E+00  0.56577434633E+03  0.56577434635E+03  0.50400001928E-02 0.  1.
        1   -1    0    0  501    0  0.00000000000E+00  0.00000000000E+00 -0.11306040379E+04  0.11306040379E+04  0.50400001928E-02 0. -1.
    10030    2    1    2    0    0  0.00000000000E+00  0.00000000000E+00 -0.56482969154E+03  0.16963783842E+04  0.15995833964E+04 0.  0.
        2    1    3    3  502    0  0.38090468562E+03  0.32604995951E+03 -0.94323404313E+03  0.10682169329E+04  0.25500000920E-02 0. -1.
       -2    1    3    3    0  502 -0.38090468562E+03 -0.32604995951E+03  0.37840435159E+03  0.62816145133E+03  0.25500000920E-02 0.  1.
</event>
<event>
 5   0  0.1914170E-04  0.1603357E+04  0.7818609E-02  0.8818488E-01
       -2   -1    0    0    0  501  0.00000000000E+00  0.00000000000E+00  0.32618877006E+03  0.32618877007E+03  0.25500000920E-02 0.  1.
        2   -1    0    0  501    0  0.00000000000E+00  0.00000000000E+00 -0.19702966117E+04  0.19702966117E+04  0.25500000920E-02 0. -1.
    10030    2    1    2    0    0  0.00000000000E+00  0.00000000000E+00 -0.16441078417E+04  0.22964853818E+04  0.16033572633E+04 0.  0.
        3    1    3    3  502    0  0.76958032103E+03 -0.13032011317E+03 -0.56009051158E+03  0.96069693128E+03  0.10100000352E+00 0.  1.
       -3    1    3    3    0  502 -0.76958032103E+03  0.13032011317E+03 -0.10840173301E+04  0.13357884505E+04  0.10100000352E+00 0. -1.
</event>
<event>
 5   0  0.9616567E-05  0.1601474E+04  0.7818609E-02  0.8819643E-01
       -1   -1    0    0    0  501  0.00000000000E+00  0.00000000000E+00  0.86506596239E+03  0.86506596241E+03  0.50400001928E-02 0. -1.
        1   -1    0    0  501    0  0.00000000000E+00  0.00000000000E+00 -0.74119206402E+03  0.74119206404E+03  0.50400001928E-02 0.  1.
    10030    2    1    2    0    0  0.00000000000E+00  0.00000000000E+00  0.12387389837E+03  0.16062580264E+04  0.16014743535E+04 0.  0.
        5    1    3    3  502    0  0.42025333288E+03 -0.18280841786E+02  0.74530234265E+03  0.85582984578E+03  0.46999998093E+01 0. -1.
       -5    1    3    3    0  502 -0.42025333288E+03  0.18280841786E+02 -0.62142844428E+03  0.75042818066E+03  0.46999998093E+01 0.  1.
</event>
<event>
 5   0  0.1914170E-04  0.1612771E+04  0.7818609E-02  0.8812741E-01
       -2   -1    0    0    0  501  0.00000000000E+00  0.00000000000E+00  0.92456849914E+03  0.92456849914E+03  0.25500000920E-02 0. -1.
        2   -1    0    0  501    0  0.00000000000E+00  0.00000000000E+00 -0.70330903987E+03  0.70330903987E+03  0.25500000920E-02 0.  1.
    10030    2    1    2    0    0  0.00000000000E+00  0.00000000000E+00  0.22125945927E+03  0.16278775390E+04  0.16127707629E+04 0.  0.
        3    1    3    3  502    0 -0.13986699828E+03 -0.48545607934E+03  0.74502870748E+03  0.90016563328E+03  0.10100000352E+00 0. -1.
       -3    1    3    3    0  502  0.13986699828E+03  0.48545607934E+03 -0.52376924821E+03  0.72771190573E+03  0.10100000352E+00 0.  1.
</event>
<event>
 5   0  0.9939872E-05  0.1599745E+04  0.7818609E-02  0.8820704E-01
        1   -1    0    0  501    0  0.00000000000E+00  0.00000000000E+00  0.77309366230E+03  0.77309366232E+03  0.50400001928E-02 0. -1.
       -1   -1    0    0    0  501  0.00000000000E+00  0.00000000000E+00 -0.82757928979E+03  0.82757928981E+03  0.50400001928E-02 0.  1.
    10030    2    1    2    0    0  0.00000000000E+00  0.00000000000E+00 -0.54485627489E+02  0.16006729521E+04  0.15997453598E+04 0.  0.
        3    1    3    3  502    0 -0.93122091856E+02  0.21240480303E+03  0.73871315511E+03  0.77426394729E+03  0.10100000352E+00 0. -1.
       -3    1    3    3    0  502  0.93122091856E+02 -0.21240480303E+03 -0.79319878260E+03  0.82640900483E+03  0.10100000352E+00 0.  1.
</event>
<event>
 5   0  0.9616567E-05  0.1597202E+04  0.7818609E-02  0.8822269E-01
       -1   -1    0    0    0  501  0.00000000000E+00  0.00000000000E+00  0.61880116166E+03  0.61880116168E+03  0.50400001928E-02 0. -1.
        1   -1    0    0  501    0  0.00000000000E+00  0.00000000000E+00 -0.10306443084E+04  0.10306443085E+04  0.50400001928E-02 0.  1.
    10030    2    1    2    0    0  0.00000000000E+00  0.00000000000E+00 -0.41184314679E+03  0.16494454701E+04  0.15972024234E+04 0.  0.
        5    1    3    3  502    0 -0.13781481799E+03  0.77716044938E+03 -0.33143085787E+03  0.85606062384E+03  0.46999998093E+01 0.  1.
       -5    1    3    3    0  502  0.13781481799E+03 -0.77716044938E+03 -0.80412288918E+02  0.79338484630E+03  0.46999998093E+01 0. -1.
</event>
<event>
 5   0  0.1835088E-04  0.1595715E+04  0.7818609E-02  0.8823185E-01
       -2   -1    0    0    0  501  0.00000000000E+00  0.00000000000E+00  0.60851666716E+03  0.60851666717E+03  0.25500000920E-02 0.  1.
        2   -1    0    0  501    0  0.00000000000E+00  0.00000000000E+00 -0.10461123655E+04  0.10461123655E+04  0.25500000920E-02 0. -1.
    10030    2    1    2    0    0  0.00000000000E+00  0.00000000000E+00 -0.43759569831E+03  0.16546290327E+04  0.15957152755E+04 0.  0.
        5    1    3    3  502    0 -0.74116896523E+02 -0.53836772135E+02 -0.10406267627E+04  0.10446616015E+04  0.46999998093E+01 0. -1.
       -5    1    3    3    0  502  0.74116896523E+02  0.53836772135E+02  0.60303106442E+03  0.60996743113E+03  0.46999998093E+01 0.  1.
</event>
<event>
 5   0  0.9673017E-05  0.1608450E+04  0.7818609E-02  0.8815374E-01
       -1   -1    0    0    0  501  0.00000000000E+00  0.00000000000E+00  0.13420682374E+04  0.13420682374E+04  0.50400001928E-02 0. -1.
        1   -1    0    0  501    0  0.00000000000E+00  0.00000000000E+00 -0.48192592480E+03  0.48192592482E+03  0.50400001928E-02 0.  1.
    10030    2    1    2    0    0  0.00000000000E+00  0.00000000000E+00  0.86014231258E+03  0.18239941622E+04  0.16084495348E+04 0.  0.
        1    1    3    3  502    0  0.79621145711E+03 -0.64601662275E+02  0.32459370350E+03  0.86225699857E+03  0.50400001928E-02 0.  1.
       -1    1    3    3    0  502 -0.79621145711E+03  0.64601662275E+02  0.53554860908E+03  0.96173716364E+03  0.50400001928E-02 0. -1.
</event>
<event>
 5   0  0.9726935E-05  0.1563347E+04  0.7818609E-02  0.8843387E-01
        1   -1    0    0  501    0  0.00000000000E+00  0.00000000000E+00  0.66193487076E+03  0.66193487078E+03  0.50400001928E-02 0. -1.
       -1   -1    0    0    0  501  0.00000000000E+00  0.00000000000E+00 -0.92307202966E+03  0.92307202967E+03  0.50400001928E-02 0.  1.
    10030    2    1    2    0    0  0.00000000000E+00  0.00000000000E+00 -0.26113715890E+03  0.15850069004E+04  0.15633471331E+04 0.  0.
        2    1    3    3  502    0  0.26060107773E+03  0.48299146722E+03 -0.69489499588E+03  0.88547881647E+03  0.25500000920E-02 0.  1.
       -2    1    3    3    0  502 -0.26060107773E+03 -0.48299146722E+03  0.43375783698E+03  0.69952808398E+03  0.25500000920E-02 0. -1.
</event>
<event>
 5   0  0.1832646E-04  0.1534228E+04  0.7818609E-02  0.8862005E-01
       -2   -1    0    0    0  501  0.00000000000E+00  0.00000000000E+00  0.50362884319E+03  0.50362884319E+03  0.25500000920E-02 0.  1.
        2   -1    0    0  501    0  0.00000000000E+00  0.00000000000E+00 -0.11684479740E+04  0.11684479740E+04  0.25500000920E-02 0. -1.
    10030    2    1    2    0    0  0.00000000000E+00  0.00000000000E+00 -0.66481913078E+03  0.16720768172E+04  0.15342282770E+04 0.  0.
        2    1    3    3  502    0  0.47744342790E+03 -0.21224780684E+03 -0.94453479566E+03  0.10794199084E+04  0.25500000920E-02 0. -1.
       -2    1    3    3    0  502 -0.47744342790E+03  0.21224780684E+03  0.27971566489E+03  0.59265690879E+03  0.25500000920E-02 0.  1.
</event>
<event>
 5   0  0.1832646E-04  0.1583575E+04  0.7818609E-02  0.8830702E-01
       -2   -1    0    0    0  501  0.00000000000E+00  0.00000000000E+00  0.67063953227E+03  0.67063953227E+03  0.25500000920E-02 0.  1.
        2   -1    0    0  501    0  0.00000000000E+00  0.00000000000E+00 -0.93482062003E+03  0.93482062003E+03  0.25500000920E-02 0. -1.
    10030    2    1    2    0    0  0.00000000000E+00  0.00000000000E+00 -0.26418108776E+03  0.16054601523E+04  0.15835752756E+04 0.  0.
        2    1    3    3  502    0  0.62476127567E+02  0.29742114327E+03 -0.87333439382E+03  0.92470296118E+03  0.25500000920E-02 0. -1.
       -2    1    3    3    0  502 -0.62476127567E+02 -0.29742114327E+03  0.60915330606E+03  0.68075719112E+03  0.25500000920E-02 0.  1.
</event>
<event>
 5   0  0.1858913E-04  0.1596303E+04  0.7818609E-02  0.8822823E-01
        2   -1    0    0  501    0  0.00000000000E+00  0.00000000000E+00  0.73233146609E+03  0.73233146610E+03  0.25500000920E-02 0.  1.
       -2   -1    0    0    0  501  0.00000000000E+00  0.00000000000E+00 -0.86988709832E+03  0.86988709832E+03  0.25500000920E-02 0. -1.
    10030    2    1    2    0    0  0.00000000000E+00  0.00000000000E+00 -0.13755563223E+03  0.16022185644E+04  0.15963028460E+04 0.  0.
        4    1    3    3  502    0  0.46220393334E+03  0.59872826715E+03 -0.32454773335E+03  0.82306795467E+03  0.12699999809E+01 0. -1.
       -4    1    3    3    0  502 -0.46220393334E+03 -0.59872826715E+03  0.18699210113E+03  0.77915060974E+03  0.12699999809E+01 0.  1.
</event>
<event>
 5   0  0.1774934E-04  0.1594389E+04  0.7818609E-02  0.8824002E-01
        2   -1    0    0  501    0  0.00000000000E+00  0.00000000000E+00  0.88646668336E+03  0.88646668336E+03  0.25500000920E-02 0. -1.
       -2   -1    0    0    0  501  0.00000000000E+00  0.00000000000E+00 -0.71691296498E+03  0.71691296498E+03  0.25500000920E-02 0.  1.
    10030    2    1    2    0    0  0.00000000000E+00  0.00000000000E+00  0.16955371838E+03  0.16033796483E+04  0.15943894861E+04 0.  0.
        1    1    3    3  502    0 -0.40797631344E+03 -0.10743104131E+03  0.76500301350E+03  0.87362217901E+03  0.50400001928E-02 0. -1.
       -1    1    3    3    0  502  0.40797631344E+03  0.10743104131E+03 -0.59544929512E+03  0.72975746934E+03  0.50400001928E-02 0.  1.
</event>
<event>
 5   0  0.6838750E-05  0.1599629E+04  0.7818609E-02  0.8820776E-01
        4   -1    0    0  501    0  0.00000000000E+00  0.00000000000E+00  0.11929407323E+04  0.11929414083E+04  0.12699999809E+01 0. -1.
       -4   -1    0    0    0  501  0.00000000000E+00  0.00000000000E+00 -0.53623876732E+03  0.53624027122E+03  0.12699999809E+01 0.  1.
    10030    2    1    2    0    0  0.00000000000E+00  0.00000000000E+00  0.65670196494E+03  0.17291816795E+04  0.15996286475E+04 0.  0.
        4    1    3    3  502    0  0.93207249166E+02 -0.71226881390E+03  0.70852574073E+03  0.10089721467E+04  0.12699999809E+01 0. -1.
       -4    1    3    3    0  502 -0.93207249166E+02  0.71226881390E+03 -0.51823775787E+02  0.72020953284E+03  0.12699999809E+01 0.  1.
</event>
<event>
 5   0  0.1832646E-04  0.1602260E+04  0.7818609E-02  0.8819161E-01
        2   -1    0    0  501    0  0.00000000000E+00  0.00000000000E+00  0.11638042943E+04  0.11638042943E+04  0.25500000920E-02 0.  1.
       -2   -1    0    0    0  501  0.00000000000E+00  0.00000000000E+00 -0.55147528313E+03  0.55147528314E+03  0.25500000920E-02 0. -1.
    10030    2    1    2    0    0  0.00000000000E+00  0.00000000000E+00  0.61232901118E+03  0.17152795775E+04  0.16022600322E+04 0.  0.
        2    1    3    3  502    0 -0.18247187204E+03 -0.54680068693E+02  0.11392074412E+04  0.11550235877E+04  0.25500000920E-02 0.  1.
       -2    1    3    3    0  502  0.18247187204E+03  0.54680068693E+02 -0.52687843005E+03  0.56025598975E+03  0.25500000920E-02 0. -1.
</event>
<event>
 5   0  0.1774934E-04  0.1602780E+04  0.7818609E-02  0.8818842E-01
       -2   -1    0    0    0  501  0.00000000000E+00  0.00000000000E+00  0.11014551831E+04  0.11014551831E+04  0.25500000920E-02 0. -1.
        2   -1    0    0  501    0  0.00000000000E+00  0.00000000000E+00 -0.58307068329E+03  0.58307068329E+03  0.25500000920E-02 0.  1.
    10030    2    1    2    0    0  0.00000000000E+00  0.00000000000E+00  0.51838449980E+03  0.16845258664E+04  0.16027803670E+04 0.  0.
        1    1    3    3  502    0 -0.98025703500E+02  0.66373614480E+03 -0.20141965045E+03  0.70051736886E+03  0.50400001928E-02 0.  1.
       -1    1    3    3    0  502  0.98025703500E+02 -0.66373614480E+03  0.71980415025E+03  0.98400849753E+03  0.50400001928E-02 0. -1.
</event>
<event>
 5   0  0.6838750E-05  0.1589249E+04  0.7818609E-02  0.8827180E-01
       -3   -1    0    0    0  501  0.00000000000E+00  0.00000000000E+00  0.11179207700E+04  0.11179207745E+04  0.10100000352E+00 0. -1.
        3   -1    0    0  501    0  0.00000000000E+00  0.00000000000E+00 -0.56482344341E+03  0.56482345244E+03  0.10100000352E+00 0.  1.
    10030    2    1    2    0    0  0.00000000000E+00  0.00000000000E+00  0.55309732654E+03  0.16827442270E+04  0.15892487158E+04 0.  0.
        1    1    3    3  502    0  0.18985085248E+03 -0.62766727249E+03  0.75174788826E+03  0.99756425291E+03  0.50400001928E-02 0. -1.
       -1    1    3    3    0  502 -0.18985085248E+03  0.62766727249E+03 -0.19865056172E+03  0.68517997405E+03  0.50400001928E-02 0.  1.
</event>
<event>
 5   0  0.6838750E-05  0.1600209E+04  0.7818609E-02  0.8820420E-01
        3   -1    0    0  501    0  0.00000000000E+00  0.00000000000E+00  0.36466600712E+03  0.36466602111E+03  0.10100000352E+00 0. -1.
       -3   -1    0    0    0  501  0.00000000000E+00  0.00000000000E+00 -0.17554880553E+04  0.17554880582E+04  0.10100000352E+00 0.  1.
    10030    2    1    2    0    0  0.00000000000E+00  0.00000000000E+00 -0.13908220482E+04  0.21201540793E+04  0.16002085334E+04 0.  0.
        4    1    3    3  502    0  0.92644375319E+02  0.74552019361E+02  0.35289098207E+03  0.37239044294E+03  0.12699999809E+01 0. -1.
       -4    1    3    3    0  502 -0.92644375319E+02 -0.74552019361E+02 -0.17437130302E+04  0.17477636364E+04  0.12699999809E+01 0.  1.
</event>
<event>
 5   0  0.9939872E-05  0.1596624E+04  0.7818609E-02  0.8822624E-01
       -1   -1    0    0    0  501  0.00000000000E+00  0.00000000000E+00  0.50995770867E+03  0.50995770869E+03  0.50400001928E-02 0.  1.
        1   -1    0    0  501    0  0.00000000000E+00  0.00000000000E+00 -0.12497161914E+04  0.12497161914E+04  0.50400001928E-02 0. -1.
    10030    2    1    2    0    0  0.00000000000E+00  0.00000000000E+00 -0.73975848270E+03  0.17596739001E+04  0.15966244461E+04 0.  0.
        3    1    3    3  502    0  0.59818171113E+03  0.73864065055E+01  0.21271098615E+03  0.63491880769E+03  0.10100000352E+00 0.  1.
       -3    1    3    3    0  502 -0.59818171113E+03 -0.73864065055E+01 -0.95246946885E+03  0.11247550924E+04  0.10100000352E+00 0. -1.
</event>
<event>
 5   0  0.1835088E-04  0.1602786E+04  0.7818609E-02  0.8818839E-01
        2   -1    0    0  501    0  0.00000000000E+00  0.00000000000E+00  0.91576315156E+03  0.91576315156E+03  0.25500000920E-02 0. -1.
       -2   -1    0    0    0  501  0.00000000000E+00  0.00000000000E+00 -0.70130621334E+03  0.70130621335E+03  0.25500000920E-02 0.  1.
    10030    2    1    2    0    0  0.00000000000E+00  0.00000000000E+00  0.21445693822E+03  0.16170693649E+04  0.16027855604E+04 0.  0.
        5    1    3    3  502    0  0.66791247745E+03 -0.40989841764E+03 -0.61849349895E+02  0.78611145673E+03  0.46999998093E+01 0. -1.
       -5    1    3    3    0  502 -0.66791247745E+03  0.40989841764E+03  0.27630628811E+03  0.83095790818E+03  0.46999998093E+01 0.  1.
</event>
<event>
 5   0  0.9432152E-05  0.1599597E+04  0.7818609E-02  0.8820796E-01
       -1   -1    0    0    0  501  0.00000000000E+00  0.00000000000E+00  0.51435919211E+03  0.51435919213E+03  0.50400001928E-02 0.  1.
        1   -1    0    0  501    0  0.00000000000E+00  0.00000000000E+00 -0.12436395431E+04  0.12436395431E+04  0.50400001928E-02 0. -1.
    10030    2    1    2    0    0  0.00000000000E+00  0.00000000000E+00 -0.72928035095E+03  0.17579987352E+04  0.15995967375E+04 0.  0.
        4    1    3    3  502    0  0.59947072534E+03  0.48292415316E+03 -0.60314387738E+03  0.97793917907E+03  0.12699999809E+01 0. -1.
       -4    1    3    3    0  502 -0.59947072534E+03 -0.48292415316E+03 -0.12613647357E+03  0.78005955613E+03  0.12699999809E+01 0.  1.
</event>
<event>
 5   0  0.1774934E-04  0.1602988E+04  0.7818609E-02  0.8818714E-01
       -2   -1    0    0    0  501  0.00000000000E+00  0.00000000000E+00  0.29323625928E+03  0.29323625929E+03  0.25500000920E-02 0.  1.
        2   -1    0    0  501    0  0.00000000000E+00  0.00000000000E+00 -0.21907002586E+04  0.21907002586E+04  0.25500000920E-02 0. -1.
    10030    2    1    2    0    0  0.00000000000E+00  0.00000000000E+00 -0.18974639993E+04  0.24839365179E+04  0.16029881460E+04 0.  0.
        1    1    3    3  502    0 -0.27699650193E+03  0.71584361947E+03 -0.59120973088E+03  0.96885917219E+03  0.50400001928E-02 0.  1.
       -1    1    3    3    0  502  0.27699650193E+03 -0.71584361947E+03 -0.13062542684E+04  0.15150773457E+04  0.50400001928E-02 0. -1.
</event>
<event>
 5   0  0.1832646E-04  0.1597213E+04  0.7818609E-02  0.8822262E-01
       -2   -1    0    0    0  501  0.00000000000E+00  0.00000000000E+00  0.48221253283E+03  0.48221253284E+03  0.25500000920E-02 0.  1.
        2   -1    0    0  501    0  0.00000000000E+00  0.00000000000E+00 -0.13225953841E+04  0.13225953841E+04  0.25500000920E-02 0. -1.
    10030    2    1    2    0    0  0.00000000000E+00  0.00000000000E+00 -0.84038285131E+03  0.18048079170E+04  0.15972126597E+04 0.  0.
        2    1    3    3  502    0  0.29130632967E+03  0.62238635901E+03 -0.87995027584E+03  0.11164840552E+04  0.25500000920E-02 0. -1.
       -2    1    3    3    0  502 -0.29130632967E+03 -0.62238635901E+03  0.39567424529E+02  0.68832386177E+03  0.25500000920E-02 0.  1.
</event>
<event>
 5   0  0.9616567E-05  0.1597876E+04  0.7818609E-02  0.8821854E-01
        1   -1    0    0  501    0  0.00000000000E+00  0.00000000000E+00  0.12298385545E+04  0.12298385545E+04  0.50400001928E-02 0.  1.
       -1   -1    0    0    0  501  0.00000000000E+00  0.00000000000E+00 -0.51901304078E+03  0.51901304081E+03  0.50400001928E-02 0. -1.
    10030    2    1    2    0    0  0.00000000000E+00  0.00000000000E+00  0.71082551368E+03  0.17488515953E+04  0.15978764005E+04 0.  0.
        5    1    3    3  502    0  0.11640406620E+03  0.25002642634E+03 -0.46524442795E+03  0.54086744054E+03  0.46999998093E+01 0. -1.
       -5    1    3    3    0  502 -0.11640406620E+03 -0.25002642634E+03  0.11760699416E+04  0.12079841547E+04  0.46999998093E+01 0.  1.
</event>
<event>
 5   0  0.1858913E-04  0.1605206E+04  0.7818609E-02  0.8817356E-01
        2   -1    0    0  501    0  0.00000000000E+00  0.00000000000E+00  0.11399040718E+04  0.11399040718E+04  0.25500000920E-02 0. -1.
       -2   -1    0    0    0  501  0.00000000000E+00  0.00000000000E+00 -0.56511064738E+03  0.56511064739E+03  0.25500000920E-02 0.  1.
    10030    2    1    2    0    0  0.00000000000E+00  0.00000000000E+00  0.57479342445E+03  0.17050147192E+04  0.16052064391E+04 0.  0.
        4    1    3    3  502    0  0.75878745273E+03  0.25923765590E+03  0.32431032564E+03  0.86495165234E+03  0.12699999809E+01 0. -1.
       -4    1    3    3    0  502 -0.75878745273E+03 -0.25923765590E+03  0.25048309880E+03  0.84006306689E+03  0.12699999809E+01 0.  1.
</event>
<event>
 5   0  0.1835088E-04  0.1588128E+04  0.7818609E-02  0.8827875E-01
       -2   -1    0    0    0  501  0.00000000000E+00  0.00000000000E+00  0.12584017077E+04  0.12584017077E+04  0.25500000920E-02 0.  1.
        2   -1    0    0  501    0  0.00000000000E+00  0.00000000000E+00 -0.50106254610E+03  0.50106254611E+03  0.25500000920E-02 0. -1.
    10030    2    1    2    0    0  0.00000000000E+00  0.00000000000E+00  0.75733916162E+03  0.17594642538E+04  0.15881284126E+04 0.  0.
        5    1    3    3  502    0 -0.49602138814E+03  0.35461836815E+03  0.94219509583E+03  0.11222945661E+04  0.46999998093E+01 0.  1.
       -5    1    3    3    0  502  0.49602138814E+03 -0.35461836815E+03 -0.18485593422E+03  0.63716968771E+03  0.46999998093E+01 0. -1.
</event>
<event>
 5   0  0.9432152E-05  0.1597633E+04  0.7818609E-02  0.8822004E-01
        1   -1    0    0  501    0  0.00000000000E+00  0.00000000000E+00  0.67878020603E+03  0.67878020605E+03  0.50400001928E-02 0.  1.
       -1   -1    0    0    0  501  0.00000000000E+00  0.00000000000E+00 -0.94007986041E+03  0.94007986043E+03  0.50400001928E-02 0. -1.
    10030    2    1    2    0    0  0.00000000000E+00  0.00000000000E+00 -0.26129965438E+03  0.16188600665E+04  0.15976327505E+04 0.  0.
        4    1    3    3  502    0  0.56666297153E+03  0.41550209236E+03  0.25434189737E+03  0.74728864953E+03  0.12699999809E+01 0.  1.
       -4    1    3    3    0  502 -0.56666297153E+03 -0.41550209236E+03 -0.51564155175E+03  0.87157141695E+03  0.12699999809E+01 0. -1.
</event>
<event>
 5   0  0.1774934E-04  0.1608804E+04  0.7818609E-02  0.8815157E-01
        2   -1    0    0  501    0  0.00000000000E+00  0.00000000000E+00  0.10867671292E+04  0.10867671292E+04  0.25500000920E-02 0. -1.
       -2   -1    0    0    0  501  0.00000000000E+00  0.00000000000E+00 -0.59540167203E+03  0.59540167204E+03  0.25500000920E-02 0.  1.
    10030    2    1    2    0    0  0.00000000000E+00  0.00000000000E+00  0.49136545718E+03  0.16821688012E+04  0.16088044826E+04 0.  0.
        1    1    3    3  502    0  0.35437697498E+03  0.64285020268E+03  0.58965796578E+03  0.94156037518E+03  0.50400001928E-02 0. -1.
       -1    1    3    3    0  502 -0.35437697498E+03 -0.64285020268E+03 -0.98292508606E+02  0.74060842606E+03  0.50400001928E-02 0.  1.
</event>
<event>
 5   0  0.9616567E-05  0.1597890E+04  0.7818609E-02  0.8821845E-01
        1   -1    0    0  501    0  0.00000000000E+00  0.00000000000E+00  0.69396953261E+03  0.69396953263E+03  0.50400001928E-02 0. -1.
       -1   -1    0    0    0  501  0.00000000000E+00  0.00000000000E+00 -0.91980030628E+03  0.91980030629E+03  0.50400001928E-02 0.  1.
    10030    2    1    2    0    0  0.00000000000E+00  0.00000000000E+00 -0.22583077366E+03  0.16137698389E+04  0.15978903450E+04 0.  0.
        5    1    3    3  502    0 -0.63337508144E+03  0.48135221572E+03 -0.38512718953E+02  0.79647301831E+03  0.46999998093E+01 0. -1.
       -5    1    3    3    0  502  0.63337508144E+03 -0.48135221572E+03 -0.18731805471E+03  0.81729682062E+03  0.46999998093E+01 0.  1.
</event>
<event>
 5   0  0.9939872E-05  0.1596507E+04  0.7818609E-02  0.8822697E-01
        1   -1    0    0  501    0  0.00000000000E+00  0.00000000000E+00  0.10847302151E+04  0.10847302151E+04  0.50400001928E-02 0. -1.
       -1   -1    0    0    0  501  0.00000000000E+00  0.00000000000E+00 -0.58743535318E+03  0.58743535320E+03  0.50400001928E-02 0.  1.
    10030    2    1    2    0    0  0.00000000000E+00  0.00000000000E+00  0.49729486190E+03  0.16721655683E+04  0.15965072841E+04 0.  0.
        3    1    3    3  502    0  0.26665659998E+03 -0.71299716631E+03 -0.30274443991E+01  0.76123575658E+03  0.10100000352E+00 0.  1.
       -3    1    3    3    0  502 -0.26665659998E+03  0.71299716631E+03  0.50032230630E+03  0.91092981171E+03  0.10100000352E+00 0. -1.
</event>
<event>
 5   0  0.9939872E-05  0.1603455E+04  0.7818609E-02  0.8818428E-01
        1   -1    0    0  501    0  0.00000000000E+00  0.00000000000E+00  0.22457051669E+04  0.22457051669E+04  0.50400001928E-02 0.  1.
       -1   -1    0    0    0  501  0.00000000000E+00  0.00000000000E+00 -0.28622065516E+03  0.28622065521E+03  0.50400001928E-02 0. -1.
    10030    2    1    2    0    0  0.00000000000E+00  0.00000000000E+00  0.19594845117E+04  0.25319258221E+04  0.16034552744E+04 0.  0.
        3    1    3    3  502    0 -0.21202446236E+03  0.59223913271E+03  0.17646168929E+04  0.18733857990E+04  0.10100000352E+00 0.  1.
       -3    1    3    3    0  502  0.21202446236E+03 -0.59223913271E+03  0.19486761880E+03  0.65854002309E+03  0.10100000352E+00 0. -1.
</event>
<event>
 5   0  0.9432152E-05  0.1600831E+04  0.7818609E-02  0.8820037E-01
        1   -1    0    0  501    0  0.00000000000E+00  0.00000000000E+00  0.19867506133E+04  0.19867506133E+04  0.50400001928E-02 0.  1.
       -1   -1    0    0    0  501  0.00000000000E+00  0.00000000000E+00 -0.32246885069E+03  0.32246885073E+03  0.50400001928E-02 0. -1.
    10030    2    1    2    0    0  0.00000000000E+00  0.00000000000E+00  0.16642817626E+04  0.23092194641E+04  0.16008312677E+04 0.  0.
        4    1    3    3  502    0  0.20156532879E+02 -0.79956122677E+03  0.78746644960E+03  0.11224123410E+04  0.12699999809E+01 0.  1.
       -4    1    3    3    0  502 -0.20156532879E+02  0.79956122677E+03  0.87681531304E+03  0.11868071230E+04  0.12699999809E+01 0. -1.
</event>
<event>
 5   0  0.1914170E-04  0.1605434E+04  0.7818609E-02  0.8817217E-01
        2   -1    0    0  501    0  0.00000000000E+00  0.00000000000E+00  0.15870125264E+04  0.15870125264E+04  0.25500000920E-02 0. -1.
       -2   -1    0    0    0  501  0.00000000000E+00  0.00000000000E+00 -0.40601731627E+03  0.40601731627E+03  0.25500000920E-02 0.  1.
    10030    2    1    2    0    0  0.00000000000E+00  0.00000000000E+00  0.11809952101E+04  0.19930298427E+04  0.16054339810E+04 0.  0.
        3    1    3    3  502    0  0.13250898297E+03  0.53326061949E+03  0.13169491359E+04  0.14269830257E+04  0.10100000352E+00 0. -1.
       -3    1    3    3    0  502 -0.13250898297E+03 -0.53326061949E+03 -0.13595392578E+03  0.56604681697E+03  0.10100000352E+00 0.  1.
</event>
<event>
 5   0  0.6838750E-05  0.1594599E+04  0.7818609E-02  0.8823873E-01
        3   -1    0    0  501    0  0.00000000000E+00  0.00000000000E+00  0.14472419841E+04  0.14472419876E+04  0.10100000352E+00 0. -1.
       -3   -1    0    0    0  501  0.00000000000E+00  0.00000000000E+00 -0.43923995379E+03  0.43923996540E+03  0.10100000352E+00 0.  1.
    10030    2    1    2    0    0  0.00000000000E+00  0.00000000000E+00  0.10080020303E+04  0.18864819530E+04  0.15945990298E+04 0.  0.
        2    1    3    3  502    0  0.26081994373E+03  0.59551385679E+03 -0.42025989545E+02  0.65148290882E+03  0.25500000920E-02 0.  1.
       -2    1    3    3    0  502 -0.26081994373E+03 -0.59551385679E+03  0.10500280198E+04  0.12349990442E+04  0.25500000920E-02 0. -1.
</event>
<event>
 5   0  0.1914170E-04  0.1602901E+04  0.7818609E-02  0.8818768E-01
        2   -1    0    0  501    0  0.00000000000E+00  0.00000000000E+00  0.10686794554E+04  0.10686794554E+04  0.25500000920E-02 0. -1.
       -2   -1    0    0    0  501  0.00000000000E+00  0.00000000000E+00 -0.60104340813E+03  0.60104340814E+03  0.25500000920E-02 0.  1.
    10030    2    1    2    0    0  0.00000000000E+00  0.00000000000E+00  0.46763604723E+03  0.16697228635E+04  0.16029007980E+04 0.  0.
        3    1    3    3  502    0 -0.51941512864E+03 -0.25617842983E+03  0.81090132204E+03  0.99648403302E+03  0.10100000352E+00 0. -1.
       -3    1    3    3    0  502  0.51941512864E+03  0.25617842983E+03 -0.34326527482E+03  0.67323883048E+03  0.10100000352E+00 0.  1.
</event>
<event>
 5   0  0.1835088E-04  0.1602324E+04  0.7818609E-02  0.8819121E-01
        2   -1    0    0  501    0  0.00000000000E+00  0.00000000000E+00  0.83222852919E+03  0.83222852919E+03  0.25500000920E-02 0.  1.
       -2   -1    0    0    0  501  0.00000000000E+00  0.00000000000E+00 -0.77125529663E+03  0.77125529663E+03  0.25500000920E-02 0. -1.
    10030    2    1    2    0    0  0.00000000000E+00  0.00000000000E+00  0.60973232557E+02  0.16034838258E+04  0.16023241384E+04 0.  0.
        5    1    3    3  502    0  0.72006737916E+03  0.28568379037E+03  0.23490465244E+03  0.80951500564E+03  0.46999998093E+01 0.  1.
       -5    1    3    3    0  502 -0.72006737916E+03 -0.28568379037E+03 -0.17393141988E+03  0.79396882019E+03  0.46999998093E+01 0. -1.
</event>
<event>
 5   0  0.9726935E-05  0.1598873E+04  0.7818609E-02  0.8821241E-01
        1   -1    0    0  501    0  0.00000000000E+00  0.00000000000E+00  0.67567144280E+03  0.67567144282E+03  0.50400001928E-02 0.  1.
       -1   -1    0    0    0  501  0.00000000000E+00  0.00000000000E+00 -0.94587182127E+03  0.94587182129E+03  0.50400001928E-02 0. -1.
    10030    2    1    2    0    0  0.00000000000E+00  0.00000000000E+00 -0.27020037848E+03  0.16215432641E+04  0.15988728257E+04 0.  0.
        2    1    3    3  502    0  0.27714076476E+03  0.35380597691E+03 -0.80561972179E+03  0.92250138696E+03  0.25500000920E-02 0. -1.
       -2    1    3    3    0  502 -0.27714076476E+03 -0.35380597691E+03  0.53541934332E+03  0.69904187714E+03  0.25500000920E-02 0.  1.
</event>
<event>
 5   0  0.9432152E-05  0.1597047E+04  0.7818609E-02  0.8822364E-01
       -1   -1    0    0    0  501  0.00000000000E+00  0.00000000000E+00  0.40881026924E+03  0.40881026927E+03  0.50400001928E-02 0.  1.
        1   -1    0    0  501    0  0.00000000000E+00  0.00000000000E+00 -0.15597449457E+04  0.15597449457E+04  0.50400001928E-02 0. -1.
    10030    2    1    2    0    0  0.00000000000E+00  0.00000000000E+00 -0.11509346765E+04  0.19685552150E+04  0.15970469639E+04 0.  0.
        4    1    3    3  502    0 -0.67805155339E+03  0.26795468961E+03 -0.17399474076E+03  0.74955280498E+03  0.12699999809E+01 0.  1.
       -4    1    3    3    0  502  0.67805155339E+03 -0.26795468961E+03 -0.97693993573E+03  0.12190024100E+04  0.12699999809E+01 0. -1.
</event>
<event>
 5   0  0.1832646E-04  0.1599392E+04  0.7818609E-02  0.8820922E-01
       -2   -1    0    0    0  501  0.00000000000E+00  0.00000000000E+00  0.31708334239E+03  0.31708334240E+03  0.25500000920E-02 0. -1.
        2   -1    0    0  501    0  0.00000000000E+00  0.00000000000E+00 -0.20168625540E+04  0.20168625540E+04  0.25500000920E-02 0.  1.
    10030    2    1    2    0    0  0.00000000000E+00  0.00000000000E+00 -0.16997792116E+04  0.23339458964E+04  0.15993917841E+04 0.  0.
        2    1    3    3  502    0  0.38082625090E+03  0.52643040056E+03 -0.15302227981E+04  0.16624498224E+04  0.25500000920E-02 0.  1.
       -2    1    3    3    0  502 -0.38082625090E+03 -0.52643040056E+03 -0.16955641342E+03  0.67149607396E+03  0.25500000920E-02 0. -1.
</event>
<event>
 5   0  0.1914170E-04  0.1595995E+04  0.7818609E-02  0.8823012E-01
        2   -1    0    0  501    0  0.00000000000E+00  0.00000000000E+00  0.75740135348E+03  0.75740135348E+03  0.25500000920E-02 0. -1.
       -2   -1    0    0    0  501  0.00000000000E+00  0.00000000000E+00 -0.84076964868E+03  0.84076964868E+03  0.25500000920E-02 0.  1.
    10030    2    1    2    0    0  0.00000000000E+00  0.00000000000E+00 -0.83368295202E+02  0.15981710022E+04  0.15959950750E+04 0.  0.
        3    1    3    3  502    0 -0.71571537090E+03 -0.27530006297E+03  0.17943684414E+03  0.78755076538E+03  0.10100000352E+00 0. -1.
       -3    1    3    3    0  502  0.71571537090E+03  0.27530006297E+03 -0.26280513934E+03  0.81062023678E+03  0.10100000352E+00 0.  1.
</event>
<event>
 5   0  0.9673017E-05  0.1586288E+04  0.7818609E-02  0.8829016E-01
       -1   -1    0    0    0  501  0.00000000000E+00  0.00000000000E+00  0.57291015118E+03  0.57291015121E+03  0.50400001928E-02 0. -1.
        1   -1    0    0  501    0  0.00000000000E+00  0.00000000000E+00 -0.10980382607E+04  0.10980382607E+04  0.50400001928E-02 0.  1.
    10030    2    1    2    0    0  0.00000000000E+00  0.00000000000E+00 -0.52512810948E+03  0.16709484119E+04  0.15862878250E+04 0.  0.
        1    1    3    3  502    0 -0.58765193133E+03  0.23581004483E+02 -0.82311779494E+03  0.10116391454E+04  0.50400001928E-02 0.  1.
       -1    1    3    3    0  502  0.58765193133E+03 -0.23581004483E+02  0.29798968547E+03  0.65930926646E+03  0.50400001928E-02 0. -1.
</event>
<event>
 5   0  0.1835088E-04  0.1603805E+04  0.7818609E-02  0.8818214E-01
       -2   -1    0    0    0  501  0.00000000000E+00  0.00000000000E+00  0.84166723474E+03  0.84166723474E+03  0.25500000920E-02 0.  1.
        2   -1    0    0  501    0  0.00000000000E+00  0.00000000000E+00 -0.76401620605E+03  0.76401620605E+03  0.25500000920E-02 0. -1.
    10030    2    1    2    0    0  0.00000000000E+00  0.00000000000E+00  0.77651028690E+02  0.16056834408E+04  0.16038047356E+04 0.  0.
        5    1    3    3  502    0 -0.48412894376E+03  0.63432969976E+03  0.11810359474E+03  0.80667561713E+03  0.46999998093E+01 0.  1.
       -5    1    3    3    0  502  0.48412894376E+03 -0.63432969976E+03 -0.40452566045E+02  0.79900782366E+03  0.46999998093E+01 0. -1.
</event>
<event>
 5   0  0.9432152E-05  0.1606015E+04  0.7818609E-02  0.8816861E-01
       -1   -1    0    0    0  501  0.00000000000E+00  0.00000000000E+00  0.46012658489E+03  0.46012658492E+03  0.50400001928E-02 0. -1.
        1   -1    0    0  501    0  0.00000000000E+00  0.00000000000E+00 -0.14013993053E+04  0.14013993053E+04  0.50400001928E-02 0.  1.
    10030    2    1    2    0    0  0.00000000000E+00  0.00000000000E+00 -0.94127272038E+03  0.18615258902E+04  0.16060150391E+04 0.  0.
        4    1    3    3  502    0 -0.26175755771E+03  0.50308836368E+02  0.40735237971E+03  0.48681163934E+03  0.12699999809E+01 0. -1.
       -4    1    3    3    0  502  0.26175755771E+03 -0.50308836368E+02 -0.13486251001E+04  0.13747142509E+04  0.12699999809E+01 0.  1.
</event>
<event>
 5   0  0.9616567E-05  0.1598015E+04  0.7818609E-02  0.8821768E-01
        1   -1    0    0  501    0  0.00000000000E+00  0.00000000000E+00  0.14879622631E+04  0.14879622631E+04  0.50400001928E-02 0. -1.
       -1   -1    0    0    0  501  0.00000000000E+00  0.00000000000E+00 -0.42905212435E+03  0.42905212438E+03  0.50400001928E-02 0.  1.
    10030    2    1    2    0    0  0.00000000000E+00  0.00000000000E+00  0.10589101387E+04  0.19170143875E+04  0.15980154817E+04 0.  0.
        5    1    3    3  502    0 -0.33580473885E+03 -0.16425515767E+03 -0.31765699071E+03  0.49058397161E+03  0.46999998093E+01 0.  1.
       -5    1    3    3    0  502  0.33580473885E+03  0.16425515767E+03  0.13765671295E+04  0.14264304159E+04  0.46999998093E+01 0. -1.
</event>
<event>
 5   0  0.1832646E-04  0.1590776E+04  0.7818609E-02  0.8826235E-01
        2   -1    0    0  501    0  0.00000000000E+00  0.00000000000E+00  0.13963127435E+04  0.13963127435E+04  0.25500000920E-02 0. -1.
       -2   -1    0    0    0  501  0.00000000000E+00  0.00000000000E+00 -0.45308045080E+03  0.45308045081E+03  0.25500000920E-02 0.  1.
    10030    2    1    2    0    0  0.00000000000E+00  0.00000000000E+00  0.94323229272E+03  0.18493931943E+04  0.15907759205E+04 0.  0.
        2    1    3    3  502    0  0.25514774708E+03 -0.37184314692E+03  0.12333227054E+04  0.13131841434E+04  0.25500000920E-02 0. -1.
       -2    1    3    3    0  502 -0.25514774708E+03  0.37184314692E+03 -0.29009041271E+03  0.53620905093E+03  0.25500000920E-02 0.  1.
</event>
<event>
 5   0  0.9673017E-05  0.1592053E+04  0.7818609E-02  0.8825445E-01
        1   -1    0    0  501    0  0.00000000000E+00  0.00000000000E+00  0.11000811500E+04  0.11000811500E+04  0.50400001928E-02 0.  1.
       -1   -1    0    0    0  501  0.00000000000E+00  0.00000000000E+00 -0.57601029288E+03  0.57601029290E+03  0.50400001928E-02 0. -1.
    10030    2    1    2    0    0  0.00000000000E+00  0.00000000000E+00  0.52407085710E+03  0.16760914429E+04  0.15920528451E+04 0.  0.
        1    1    3    3  502    0 -0.44147046371E+02  0.58412170796E+03 -0.30540656280E+03  0.66062114713E+03  0.50400001928E-02 0. -1.
       -1    1    3    3    0  502  0.44147046371E+02 -0.58412170796E+03  0.82947741990E+03  0.10154702958E+04  0.50400001928E-02 0.  1.
</event>
<event>
 5   0  0.9726935E-05  0.1596655E+04  0.7818609E-02  0.8822605E-01
        1   -1    0    0  501    0  0.00000000000E+00  0.00000000000E+00  0.12185718388E+04  0.12185718388E+04  0.50400001928E-02 0. -1.
       -1   -1    0    0    0  501  0.00000000000E+00  0.00000000000E+00 -0.52301145323E+03  0.52301145325E+03  0.50400001928E-02 0.  1.
    10030    2    1    2    0    0  0.00000000000E+00  0.00000000000E+00  0.69556038559E+03  0.17415832921E+04  0.15966552894E+04 0.  0.
        2    1    3    3  502    0 -0.28168398329E+02  0.54300177939E+03 -0.28981427593E+03  0.61614665919E+03  0.25500000920E-02 0.  1.
       -2    1    3    3    0  502  0.28168398329E+02 -0.54300177939E+03  0.98537466152E+03  0.11254366329E+04  0.25500000920E-02 0. -1.
</event>
<event>
 5   0  0.1835088E-04  0.1604023E+04  0.7818609E-02  0.8818080E-01
       -2   -1    0    0    0  501  0.00000000000E+00  0.00000000000E+00  0.10380798188E+04  0.10380798188E+04  0.25500000920E-02 0.  1.
        2   -1    0    0  501    0  0.00000000000E+00  0.00000000000E+00 -0.61962746112E+03  0.61962746113E+03  0.25500000920E-02 0. -1.
    10030    2    1    2    0    0  0.00000000000E+00  0.00000000000E+00  0.41845235770E+03  0.16577072800E+04  0.16040233946E+04 0.  0.
        5    1    3    3  502    0 -0.31638997373E+03 -0.62361440826E+03 -0.19660343682E+03  0.72641072888E+03  0.46999998093E+01 0.  1.
       -5    1    3    3    0  502  0.31638997373E+03  0.62361440826E+03  0.61505579452E+03  0.93129655107E+03  0.46999998093E+01 0. -1.
</event>
<event>
 5   0  0.1858913E-04  0.1602924E+04  0.7818609E-02  0.8818754E-01
       -2   -1    0    0    0  501  0.00000000000E+00  0.00000000000E+00  0.42901343208E+03  0.42901343209E+03  0.25500000920E-02 0. -1.
        2   -1    0    0  501    0  0.00000000000E+00  0.00000000000E+00 -0.14972513737E+04  0.14972513737E+04  0.25500000920E-02 0.  1.
    10030    2    1    2    0    0  0.00000000000E+00  0.00000000000E+00 -0.10682379416E+04  0.19262648058E+04  0.16029235172E+04 0.  0.
        4    1    3    3  502    0 -0.67638584397E+03  0.33656149830E+03 -0.85560513159E+03  0.11414171920E+04  0.12699999809E+01 0.  1.
       -4    1    3    3    0  502  0.67638584397E+03 -0.33656149830E+03 -0.21263281000E+03  0.78484761378E+03  0.12699999809E+01 0. -1.
</event>
<event>
 5   0  0.9726935E-05  0.1602692E+04  0.7818609E-02  0.8818896E-01
        1   -1    0    0  501    0  0.00000000000E+00  0.00000000000E+00  0.49415414095E+03  0.49415414098E+03  0.50400001928E-02 0. -1.
       -1   -1    0    0    0  501  0.00000000000E+00  0.00000000000E+00 -0.12995034835E+04  0.12995034835E+04  0.50400001928E-02 0.  1.
    10030    2    1    2    0    0  0.00000000000E+00  0.00000000000E+00 -0.80534934255E+03  0.17936576245E+04  0.16026915206E+04 0.  0.
        2    1    3    3  502    0 -0.73698072742E+03 -0.26317429752E+03 -0.59572043449E+03  0.98350604449E+03  0.25500000920E-02 0.  1.
       -2    1    3    3    0  502  0.73698072742E+03  0.26317429752E+03 -0.20962890805E+03  0.81015157999E+03  0.25500000920E-02 0. -1.
</event>
<event>
 5   0  0.9939872E-05  0.1601934E+04  0.7818609E-02  0.8819361E-01
       -1   -1    0    0    0  501  0.00000000000E+00  0.00000000000E+00  0.11034062727E+04  0.11034062727E+04  0.50400001928E-02 0. -1.
        1   -1    0    0  501    0  0.00000000000E+00  0.00000000000E+00 -0.58142535586E+03  0.58142535588E+03  0.50400001928E-02 0.  1.
    10030    2    1    2    0    0  0.00000000000E+00  0.00000000000E+00  0.52198091685E+03  0.16848316286E+04  0.16019343118E+04 0.  0.
        3    1    3    3  502    0 -0.11016907905E+03 -0.54592456191E+03  0.86643354673E+03  0.10299892982E+04  0.10100000352E+00 0. -1.
       -3    1    3    3    0  502  0.11016907905E+03  0.54592456191E+03 -0.34445262988E+03  0.65484233042E+03  0.10100000352E+00 0.  1.
</event>
<event>
 5   0  0.9726935E-05  0.1614227E+04  0.7818609E-02  0.8811855E-01
        1   -1    0    0  501    0  0.00000000000E+00  0.00000000000E+00  0.85581536974E+03  0.85581536975E+03  0.50400001928E-02 0.  1.
       -1   -1    0    0    0  501  0.00000000000E+00  0.00000000000E+00 -0.76118317356E+03  0.76118317358E+03  0.50400001928E-02 0. -1.
    10030    2    1    2    0    0  0.00000000000E+00  0.00000000000E+00  0.94632196177E+02  0.16169985433E+04  0.16142270709E+04 0.  0.
        2    1    3    3  502    0  0.18515772868E+02  0.80310005879E+03  0.12567905389E+03  0.81308533554E+03  0.25500000920E-02 0.  1.
       -2    1    3    3    0  502 -0.18515772868E+02 -0.80310005879E+03 -0.31046857716E+02  0.80391320779E+03  0.25500000920E-02 0. -1.
</event>
<event>
 5   0  0.1914170E-04  0.1598159E+04  0.7818609E-02  0.8821680E-01
        2   -1    0    0  501    0  0.00000000000E+00  0.00000000000E+00  0.12224429529E+04  0.12224429529E+04  0.25500000920E-02 0. -1.
       -2   -1    0    0    0  501  0.00000000000E+00  0.00000000000E+00 -0.52233769249E+03  0.52233769249E+03  0.25500000920E-02 0.  1.
    10030    2    1    2    0    0  0.00000000000E+00  0.00000000000E+00  0.70010526046E+03  0.17447806454E+04  0.15981589799E+04 0.  0.
        3    1    3    3  502    0  0.74428349948E+03  0.15084456794E+03  0.62149106331E+03  0.98130686497E+03  0.10100000352E+00 0.  1.
       -3    1    3    3    0  502 -0.74428349948E+03 -0.15084456794E+03  0.78614197154E+02  0.76347378047E+03  0.10100000352E+00 0. -1.
</event>
<event>
 5   0  0.9616567E-05  0.1614276E+04  0.7818609E-02  0.8811825E-01
        1   -1    0    0  501    0  0.00000000000E+00  0.00000000000E+00  0.11772301913E+04  0.11772301914E+04  0.50400001928E-02 0.  1.
       -1   -1    0    0    0  501  0.00000000000E+00  0.00000000000E+00 -0.55339366622E+03  0.55339366624E+03  0.50400001928E-02 0. -1.
    10030    2    1    2    0    0  0.00000000000E+00  0.00000000000E+00  0.62383652512E+03  0.17306238576E+04  0.16142759759E+04 0.  0.
        5    1    3    3  502    0  0.47678845612E+03  0.63565706338E+03  0.16006731414E+03  0.81057434524E+03  0.46999998093E+01 0. -1.
       -5    1    3    3    0  502 -0.47678845612E+03 -0.63565706338E+03  0.46376921099E+03  0.92004951235E+03  0.46999998093E+01 0.  1.
</event>
<event>
 5   0  0.9432152E-05  0.1601806E+04  0.7818609E-02  0.8819439E-01
       -1   -1    0    0    0  501  0.00000000000E+00  0.00000000000E+00  0.10622325878E+04  0.10622325878E+04  0.50400001928E-02 0.  1.
        1   -1    0    0  501    0  0.00000000000E+00  0.00000000000E+00 -0.60386580058E+03  0.60386580060E+03  0.50400001928E-02 0. -1.
    10030    2    1    2    0    0  0.00000000000E+00  0.00000000000E+00  0.45836678724E+03  0.16660983884E+04  0.16018063954E+04 0.  0.
        4    1    3    3  502    0  0.47886833019E+03 -0.60217453195E+03  0.46063500935E+03  0.89672474558E+03  0.12699999809E+01 0. -1.
       -4    1    3    3    0  502 -0.47886833019E+03  0.60217453195E+03 -0.22682221162E+01  0.76937364286E+03  0.12699999809E+01 0.  1.
</event>
<event>
 5   0  0.9939872E-05  0.1582703E+04  0.7818609E-02  0.8831245E-01
       -1   -1    0    0    0  501  0.00000000000E+00  0.00000000000E+00  0.50845485974E+03  0.50845485976E+03  0.50400001928E-02 0. -1.
        1   -1    0    0  501    0  0.00000000000E+00  0.00000000000E+00 -0.12316479597E+04  0.12316479597E+04  0.50400001928E-02 0.  1.
    10030    2    1    2    0    0  0.00000000000E+00  0.00000000000E+00 -0.72319309995E+03  0.17401028195E+04  0.15827032452E+04 0.  0.
        3    1    3    3  502    0  0.16231103307E+03  0.13391873640E+03 -0.12003249407E+04  0.12186299984E+04  0.10100000352E+00 0.  1.
       -3    1    3    3    0  502 -0.16231103307E+03 -0.13391873640E+03  0.47713184079E+03  0.52147282107E+03  0.10100000352E+00 0. -1.
</event>
<event>
 5   0  0.1774934E-04  0.1605368E+04  0.7818609E-02  0.8817257E-01
       -2   -1    0    0    0  501  0.00000000000E+00  0.00000000000E+00  0.31616893468E+03  0.31616893469E+03  0.25500000920E-02 0.  1.
        2   -1    0    0  501    0  0.00000000000E+00  0.00000000000E+00 -0.20378397054E+04  0.20378397054E+04  0.25500000920E-02 0. -1.
    10030    2    1    2    0    0  0.00000000000E+00  0.00000000000E+00 -0.17216707707E+04  0.23540086401E+04  0.16053680061E+04 0.  0.
        1    1    3    3  502    0 -0.22170399491E+03 -0.37013430355E+03 -0.18533503845E+04  0.19029082247E+04  0.50400001928E-02 0. -1.
       -1    1    3    3    0  502  0.22170399491E+03  0.37013430355E+03  0.13167961378E+03  0.45110041535E+03  0.50400001928E-02 0.  1.
</event>
<event>
 5   0  0.9673017E-05  0.1603580E+04  0.7818609E-02  0.8818352E-01
        1   -1    0    0  501    0  0.00000000000E+00  0.00000000000E+00  0.84269135456E+03  0.84269135457E+03  0.50400001928E-02 0.  1.
       -1   -1    0    0    0  501  0.00000000000E+00  0.00000000000E+00 -0.76287387168E+03  0.76287387170E+03  0.50400001928E-02 0. -1.
    10030    2    1    2    0    0  0.00000000000E+00  0.00000000000E+00  0.79817482877E+02  0.16055652263E+04  0.16035800152E+04 0.  0.
        1    1    3    3  502    0 -0.19042405220E+03 -0.57751604764E+03 -0.48330982814E+03  0.77677184226E+03  0.50400001928E-02 0. -1.
       -1    1    3    3    0  502  0.19042405220E+03  0.57751604764E+03  0.56312731101E+03  0.82879338400E+03  0.50400001928E-02 0.  1.
</event>
<event>
 5   0  0.1914170E-04  0.1600339E+04  0.7818609E-02  0.8820340E-01
        2   -1    0    0  501    0  0.00000000000E+00  0.00000000000E+00  0.67442053670E+03  0.67442053670E+03  0.25500000920E-02 0. -1.
       -2   -1    0    0    0  501  0.00000000000E+00  0.00000000000E+00 -0.94936521238E+03  0.94936521238E+03  0.25500000920E-02 0.  1.
    10030    2    1    2    0    0  0.00000000000E+00  0.00000000000E+00 -0.27494467568E+03  0.16237857491E+04  0.16003392091E+04 0.  0.
        3    1    3    3  502    0 -0.78705848483E+03  0.10075393798E+03 -0.32717442794E+02  0.79415543556E+03  0.10100000352E+00 0. -1.
       -3    1    3    3    0  502  0.78705848483E+03 -0.10075393798E+03 -0.24222723289E+03  0.82963031353E+03  0.10100000352E+00 0.  1.
</event>
<event>
 5   0  0.1914170E-04  0.1602308E+04  0.7818609E-02  0.8819131E-01
        2   -1    0    0  501    0  0.00000000000E+00  0.00000000000E+00  0.11852460655E+04  0.11852460655E+04  0.25500000920E-02 0.  1.
       -2   -1    0    0    0  501  0.00000000000E+00  0.00000000000E+00 -0.54153149867E+03  0.54153149868E+03  0.25500000920E-02 0. -1.
    10030    2    1    2    0    0  0.00000000000E+00  0.00000000000E+00  0.64371456686E+03  0.17267775642E+04  0.16023084324E+04 0.  0.
        3    1    3    3  502    0 -0.56530510189E+03  0.25075353544E+03  0.87073550193E+03  0.10680016471E+04  0.10100000352E+00 0.  1.
       -3    1    3    3    0  502  0.56530510189E+03 -0.25075353544E+03 -0.22702093507E+03  0.65877591708E+03  0.10100000352E+00 0. -1.
</event>
<event>
 5   0  0.1858913E-04  0.1600170E+04  0.7818609E-02  0.8820444E-01
       -2   -1    0    0    0  501  0.00000000000E+00  0.00000000000E+00  0.58056712670E+03  0.58056712671E+03  0.25500000920E-02 0.  1.
        2   -1    0    0  501    0  0.00000000000E+00  0.00000000000E+00 -0.11026040121E+04  0.11026040121E+04  0.25500000920E-02 0. -1.
    10030    2    1    2    0    0  0.00000000000E+00  0.00000000000E+00 -0.52203688541E+03  0.16831711388E+04  0.16001695450E+04 0.  0.
        4    1    3    3  502    0 -0.11780364752E+03 -0.73651391557E+03 -0.56552284035E+03  0.93602785378E+03  0.12699999809E+01 0. -1.
       -4    1    3    3    0  502  0.11780364752E+03  0.73651391557E+03  0.43485954939E+02  0.74714328504E+03  0.12699999809E+01 0.  1.
</event>
<event>
 5   0  0.9939872E-05  0.1599351E+04  0.7818609E-02  0.8820947E-01
       -1   -1    0    0    0  501  0.00000000000E+00  0.00000000000E+00  0.10242259829E+04  0.10242259829E+04  0.50400001928E-02 0.  1.
        1   -1    0    0  501    0  0.00000000000E+00  0.00000000000E+00 -0.62435560884E+03  0.62435560886E+03  0.50400001928E-02 0. -1.
    10030    2    1    2    0    0  0.00000000000E+00  0.00000000000E+00  0.39987037406E+03  0.16485815918E+04  0.15993514150E+04 0.  0.
        3    1    3    3  502    0 -0.40611287797E+03  0.35478451590E+03 -0.40873356009E+03  0.67665564043E+03  0.10100000352E+00 0. -1.
       -3    1    3    3    0  502  0.40611287797E+03 -0.35478451590E+03  0.80860393415E+03  0.97192595135E+03  0.10100000352E+00 0.  1.
</event>
<event>
 5   0  0.1858913E-04  0.1596861E+04  0.7818609E-02  0.8822479E-01
       -2   -1    0    0    0  501  0.00000000000E+00  0.00000000000E+00  0.30277649792E+03  0.30277649794E+03  0.25500000920E-02 0. -1.
        2   -1    0    0  501    0  0.00000000000E+00  0.00000000000E+00 -0.21054852103E+04  0.21054852103E+04  0.25500000920E-02 0.  1.
    10030    2    1    2    0    0  0.00000000000E+00  0.00000000000E+00 -0.18027087124E+04  0.24082617082E+04  0.15968612193E+04 0.  0.
        4    1    3    3  502    0  0.30558958682E+03  0.13820790747E+03  0.19138746895E+03  0.38615695958E+03  0.12699999809E+01 0. -1.
       -4    1    3    3    0  502 -0.30558958682E+03 -0.13820790747E+03 -0.19940961813E+04  0.20221047486E+04  0.12699999809E+01 0.  1.
</event>
<event>
 5   0  0.9616567E-05  0.1584119E+04  0.7818609E-02  0.8830364E-01
        1   -1    0    0  501    0  0.00000000000E+00  0.00000000000E+00  0.59988801171E+03  0.59988801173E+03  0.50400001928E-02 0.  1.
       -1   -1    0    0    0  501  0.00000000000E+00  0.00000000000E+00 -0.10457927134E+04  0.10457927134E+04  0.50400001928E-02 0. -1.
    10030    2    1    2    0    0  0.00000000000E+00  0.00000000000E+00 -0.44590470166E+03  0.16456807251E+04  0.15841193282E+04 0.  0.
        5    1    3    3  502    0  0.90281951550E+01  0.78982297564E+03 -0.28383513862E+03  0.83933683172E+03  0.46999998093E+01 0.  1.
       -5    1    3    3    0  502 -0.90281951550E+01 -0.78982297564E+03 -0.16206956304E+03  0.80634389340E+03  0.46999998093E+01 0. -1.
</event>
<event>
 5   0  0.1774934E-04  0.1605307E+04  0.7818609E-02  0.8817294E-01
       -2   -1    0    0    0  501  0.00000000000E+00  0.00000000000E+00  0.13016858657E+04  0.13016858657E+04  0.25500000920E-02 0. -1.
        2   -1    0    0  501    0  0.00000000000E+00  0.00000000000E+00 -0.49493734181E+03  0.49493734182E+03  0.25500000920E-02 0.  1.
    10030    2    1    2    0    0  0.00000000000E+00  0.00000000000E+00  0.80674852392E+03  0.17966232075E+04  0.16053073753E+04 0.  0.
        1    1    3    3  502    0 -0.78326713745E+03  0.13476375973E+03  0.27782542557E+03  0.84193565471E+03  0.50400001928E-02 0.  1.
       -1    1    3    3    0  502  0.78326713745E+03 -0.13476375973E+03  0.52892309835E+03  0.95468755284E+03  0.50400001928E-02 0. -1.
</event>
<event>
 5   0  0.9726935E-05  0.1599358E+04  0.7818609E-02  0.8820943E-01
       -1   -1    0    0    0  501  0.00000000000E+00  0.00000000000E+00  0.54402971283E+03  0.54402971286E+03  0.50400001928E-02 0.  1.
        1   -1    0    0  501    0  0.00000000000E+00  0.00000000000E+00 -0.11754622575E+04  0.11754622575E+04  0.50400001928E-02 0. -1.
    10030    2    1    2    0    0  0.00000000000E+00  0.00000000000E+00 -0.63143254462E+03  0.17194919703E+04  0.15993578641E+04 0.  0.
        2    1    3    3  502    0  0.67864662594E+03 -0.15145540603E+03  0.10890122425E+03  0.70381777440E+03  0.25500000920E-02 0.  1.
       -2    1    3    3    0  502 -0.67864662594E+03  0.15145540603E+03 -0.74033376887E+03  0.10156741959E+04  0.25500000920E-02 0. -1.
</event>
<event>
 5   0  0.1835088E-04  0.1599282E+04  0.7818609E-02  0.8820989E-01
        2   -1    0    0  501    0  0.00000000000E+00  0.00000000000E+00  0.68962416099E+03  0.68962416099E+03  0.25500000920E-02 0.  1.
       -2   -1    0    0    0  501  0.00000000000E+00  0.00000000000E+00 -0.92720919543E+03  0.92720919543E+03  0.25500000920E-02 0. -1.
    10030    2    1    2    0    0  0.00000000000E+00  0.00000000000E+00 -0.23758503444E+03  0.16168333564E+04  0.15992821683E+04 0.  0.
        5    1    3    3  502    0 -0.74705581916E+03  0.26810118967E+03 -0.21698269436E+03  0.82284520081E+03  0.46999998093E+01 0.  1.
       -5    1    3    3    0  502  0.74705581916E+03 -0.26810118967E+03 -0.20602340084E+02  0.79398815562E+03  0.46999998093E+01 0. -1.
</event>
<event>
 5   0  0.9939872E-05  0.1576226E+04  0.7818609E-02  0.8835288E-01
       -1   -1    0    0    0  501  0.00000000000E+00  0.00000000000E+00  0.63460942433E+03  0.63460942435E+03  0.50400001928E-02 0.  1.
        1   -1    0    0  501    0  0.00000000000E+00  0.00000000000E+00 -0.97874724113E+03  0.97874724115E+03  0.50400001928E-02 0. -1.
    10030    2    1    2    0    0  0.00000000000E+00  0.00000000000E+00 -0.34413781681E+03  0.16133566655E+04  0.15762261555E+04 0.  0.
        3    1    3    3  502    0 -0.66712198177E+03 -0.40123601827E+03 -0.29776287499E+03  0.83348954453E+03  0.10100000352E+00 0. -1.
       -3    1    3    3    0  502  0.66712198177E+03  0.40123601827E+03 -0.46374941813E+02  0.77986712096E+03  0.10100000352E+00 0.  1.
</event>
<event>
 5   0  0.9939872E-05  0.1600830E+04  0.7818609E-02  0.8820038E-01
        1   -1    0    0  501    0  0.00000000000E+00  0.00000000000E+00  0.17800149692E+04  0.17800149692E+04  0.50400001928E-02 0. -1.
       -1   -1    0    0    0  501  0.00000000000E+00  0.00000000000E+00 -0.35992066500E+03  0.35992066504E+03  0.50400001928E-02 0.  1.
    10030    2    1    2    0    0  0.00000000000E+00  0.00000000000E+00  0.14200943042E+04  0.21399356342E+04  0.16008299991E+04 0.  0.
        3    1    3    3  502    0  0.51100733724E+02 -0.51513596618E+03  0.15261184282E+04  0.16115253072E+04  0.10100000352E+00 0. -1.
       -3    1    3    3    0  502 -0.51100733724E+02  0.51513596618E+03 -0.10602412402E+03  0.52841032703E+03  0.10100000352E+00 0.  1.
</event>
<event>
 5   0  0.6838750E-05  0.1598267E+04  0.7818609E-02  0.8821613E-01
       -3   -1    0    0    0  501  0.00000000000E+00  0.00000000000E+00  0.10226897586E+04  0.10226897636E+04  0.10100000352E+00 0. -1.
        3   -1    0    0  501    0  0.00000000000E+00  0.00000000000E+00 -0.62444618313E+03  0.62444619130E+03  0.10100000352E+00 0.  1.
    10030    2    1    2    0    0  0.00000000000E+00  0.00000000000E+00  0.39824357546E+03  0.16471359549E+04  0.15982674709E+04 0.  0.
        4    1    3    3  502    0  0.55408400729E+03 -0.43846308895E+03 -0.18559393458E+03  0.73055163332E+03  0.12699999809E+01 0. -1.
       -4    1    3    3    0  502 -0.55408400729E+03  0.43846308895E+03  0.58383751004E+03  0.91658432156E+03  0.12699999809E+01 0.  1.
</event>
<event>
 5   0  0.9673017E-05  0.1592972E+04  0.7818609E-02  0.8824877E-01
        1   -1    0    0  501    0  0.00000000000E+00  0.00000000000E+00  0.12535277784E+04  0.12535277784E+04  0.50400001928E-02 0.  1.
       -1   -1    0    0    0  501  0.00000000000E+00  0.00000000000E+00 -0.50608373521E+03  0.50608373523E+03  0.50400001928E-02 0. -1.
    10030    2    1    2    0    0  0.00000000000E+00  0.00000000000E+00  0.74744404323E+03  0.17596115137E+04  0.15929720906E+04 0.  0.
        1    1    3    3  502    0  0.31328359905E+02  0.14921974030E+03 -0.48981249582E+03  0.51299539775E+03  0.50400001928E-02 0. -1.
       -1    1    3    3    0  502 -0.31328359905E+02 -0.14921974030E+03  0.12372565391E+04  0.12466161159E+04  0.50400001928E-02 0.  1.
</event>
<event>
 5   0  0.9726935E-05  0.1603865E+04  0.7818609E-02  0.8818177E-01
       -1   -1    0    0    0  501  0.00000000000E+00  0.00000000000E+00  0.50760418443E+03  0.50760418445E+03  0.50400001928E-02 0.  1.
        1   -1    0    0  501    0  0.00000000000E+00  0.00000000000E+00 -0.12669234897E+04  0.12669234897E+04  0.50400001928E-02 0. -1.
    10030    2    1    2    0    0  0.00000000000E+00  0.00000000000E+00 -0.75931930523E+03  0.17745276741E+04  0.16038649129E+04 0.  0.
        2    1    3    3  502    0  0.23223338123E+03 -0.76750302368E+03 -0.39085734621E+03  0.89205532329E+03  0.25500000920E-02 0. -1.
       -2    1    3    3    0  502 -0.23223338123E+03  0.76750302368E+03 -0.36846195902E+03  0.88247235083E+03  0.25500000920E-02 0.  1.
</event>
<event>
 5   0  0.9616567E-05  0.1590672E+04  0.7818609E-02  0.8826299E-01
        1   -1    0    0  501    0  0.00000000000E+00  0.00000000000E+00  0.99219856617E+03  0.99219856618E+03  0.50400001928E-02 0. -1.
       -1   -1    0    0    0  501  0.00000000000E+00  0.00000000000E+00 -0.63753331751E+03  0.63753331753E+03  0.50400001928E-02 0.  1.
    10030    2    1    2    0    0  0.00000000000E+00  0.00000000000E+00  0.35466524867E+03  0.16297318837E+04  0.15906723654E+04 0.  0.
        5    1    3    3  502    0  0.77088298288E+03 -0.12681242626E+03  0.24692482441E+02  0.78164811356E+03  0.46999998093E+01 0. -1.
       -5    1    3    3    0  502 -0.77088298288E+03  0.12681242626E+03  0.32997276622E+03  0.84808377015E+03  0.46999998093E+01 0.  1.
</event>
<event>
 5   0  0.1835088E-04  0.1593446E+04  0.7818609E-02  0.8824584E-01
       -2   -1    0    0    0  501  0.00000000000E+00  0.00000000000E+00  0.58852061297E+03  0.58852061298E+03  0.25500000920E-02 0.  1.
        2   -1    0    0  501    0  0.00000000000E+00  0.00000000000E+00 -0.10785820765E+04  0.10785820765E+04  0.25500000920E-02 0. -1.
    10030    2    1    2    0    0  0.00000000000E+00  0.00000000000E+00 -0.49006146356E+03  0.16671026895E+04  0.15934463089E+04 0.  0.
        5    1    3    3  502    0 -0.30141268063E+03  0.44163363812E+03 -0.86297300233E+03  0.10152016386E+04  0.46999998093E+01 0. -1.
       -5    1    3    3    0  502  0.30141268063E+03 -0.44163363812E+03  0.37291153877E+03  0.65190105086E+03  0.46999998093E+01 0.  1.
</event>
<event>
 5   0  0.9616567E-05  0.1616168E+04  0.7818609E-02  0.8810676E-01
        1   -1    0    0  501    0  0.00000000000E+00  0.00000000000E+00  0.11988293280E+04  0.11988293280E+04  0.50400001928E-02 0.  1.
       -1   -1    0    0    0  501  0.00000000000E+00  0.00000000000E+00 -0.54469790665E+03  0.54469790667E+03  0.50400001928E-02 0. -1.
    10030    2    1    2    0    0  0.00000000000E+00  0.00000000000E+00  0.65413142135E+03  0.17435272347E+04  0.16161680920E+04 0.  0.
        5    1    3    3  502    0  0.18386177153E+03 -0.54034880868E+03 -0.29002077293E+03  0.64024692486E+03  0.46999998093E+01 0. -1.
       -5    1    3    3    0  502 -0.18386177153E+03  0.54034880868E+03  0.94415219428E+03  0.11032803098E+04  0.46999998093E+01 0.  1.
</event>
<event>
 5   0  0.1774934E-04  0.1599786E+04  0.7818609E-02  0.8820679E-01
        2   -1    0    0  501    0  0.00000000000E+00  0.00000000000E+00  0.20806170424E+04  0.20806170424E+04  0.25500000920E-02 0.  1.
       -2   -1    0    0    0  501  0.00000000000E+00  0.00000000000E+00 -0.30751879103E+03  0.30751879104E+03  0.25500000920E-02 0. -1.
    10030    2    1    2    0    0  0.00000000000E+00  0.00000000000E+00  0.17730982514E+04  0.23881358335E+04  0.15997860326E+04 0.  0.
        1    1    3    3  502    0 -0.17602628855E+01  0.77254109357E+02  0.20750320748E+04  0.20764704205E+04  0.50400001928E-02 0.  1.
       -1    1    3    3    0  502  0.17602628855E+01 -0.77254109357E+02 -0.30193382334E+03  0.31166541297E+03  0.50400001928E-02 0. -1.
</event>
<event>
 5   0  0.9673017E-05  0.1605352E+04  0.7818609E-02  0.8817267E-01
       -1   -1    0    0    0  501  0.00000000000E+00  0.00000000000E+00  0.49478098781E+03  0.49478098783E+03  0.50400001928E-02 0. -1.
        1   -1    0    0  501    0  0.00000000000E+00  0.00000000000E+00 -0.13021694532E+04  0.13021694532E+04  0.50400001928E-02 0.  1.
    10030    2    1    2    0    0  0.00000000000E+00  0.00000000000E+00 -0.80738846535E+03  0.17969504410E+04  0.16053519095E+04 0.  0.
        1    1    3    3  502    0  0.78569683484E+03 -0.54283838827E+02 -0.23020425892E+03  0.82052437641E+03  0.50400001928E-02 0. -1.
       -1    1    3    3    0  502 -0.78569683484E+03  0.54283838827E+02 -0.57718420643E+03  0.97642606459E+03  0.50400001928E-02 0.  1.
</event>
<event>
 5   0  0.1858913E-04  0.1606672E+04  0.7818609E-02  0.8816460E-01
        2   -1    0    0  501    0  0.00000000000E+00  0.00000000000E+00  0.10975326665E+04  0.10975326665E+04  0.25500000920E-02 0. -1.
       -2   -1    0    0    0  501  0.00000000000E+00  0.00000000000E+00 -0.58799960531E+03  0.58799960531E+03  0.25500000920E-02 0.  1.
    10030    2    1    2    0    0  0.00000000000E+00  0.00000000000E+00  0.50953306119E+03  0.16855322718E+04  0.16066720570E+04 0.  0.
        4    1    3    3  502    0  0.46109343077E+03 -0.27019184333E+03  0.88398579429E+03  0.10329778708E+04  0.12699999809E+01 0. -1.
       -4    1    3    3    0  502 -0.46109343077E+03  0.27019184333E+03 -0.37445273310E+03  0.65255440104E+03  0.12699999809E+01 0.  1.
</event>
<event>
 5   0  0.1914170E-04  0.1597083E+04  0.7818609E-02  0.8822342E-01
       -2   -1    0    0    0  501  0.00000000000E+00  0.00000000000E+00  0.12373967587E+04  0.12373967588E+04  0.25500000920E-02 0. -1.
        2   -1    0    0  501    0  0.00000000000E+00  0.00000000000E+00 -0.51533048290E+03  0.51533048290E+03  0.25500000920E-02 0.  1.
    10030    2    1    2    0    0  0.00000000000E+00  0.00000000000E+00  0.72206627585E+03  0.17527272417E+04  0.15970826769E+04 0.  0.
        3    1    3    3  502    0 -0.24293910319E+03  0.19464911194E+03 -0.44599643246E+03  0.54389384314E+03  0.10100000352E+00 0.  1.
       -3    1    3    3    0  502  0.24293910319E+03 -0.19464911194E+03  0.11680627083E+04  0.12088333985E+04  0.10100000352E+00 0. -1.
</event>
<event>
 5   0  0.9939872E-05  0.1583763E+04  0.7818609E-02  0.8830586E-01
        1   -1    0    0  501    0  0.00000000000E+00  0.00000000000E+00  0.72374197055E+03  0.72374197057E+03  0.50400001928E-02 0.  1.
       -1   -1    0    0    0  501  0.00000000000E+00  0.00000000000E+00 -0.86643582488E+03  0.86643582490E+03  0.50400001928E-02 0. -1.
    10030    2    1    2    0    0  0.00000000000E+00  0.00000000000E+00 -0.14269385433E+03  0.15901777955E+04  0.15837625722E+04 0.  0.
        3    1    3    3  502    0  0.26936113311E+03 -0.23482953105E+03 -0.78087450916E+03  0.85875802059E+03  0.10100000352E+00 0. -1.
       -3    1    3    3    0  502 -0.26936113311E+03  0.23482953105E+03  0.63818065482E+03  0.73141977487E+03  0.10100000352E+00 0.  1.
</event>
<event>
 5   0  0.9616567E-05  0.1596039E+04  0.7818609E-02  0.8822985E-01
        1   -1    0    0  501    0  0.00000000000E+00  0.00000000000E+00  0.34235690607E+03  0.34235690610E+03  0.50400001928E-02 0. -1.
       -1   -1    0    0    0  501  0.00000000000E+00  0.00000000000E+00 -0.18601497694E+04  0.18601497694E+04  0.50400001928E-02 0.  1.
    10030    2    1    2    0    0  0.00000000000E+00  0.00000000000E+00 -0.15177928633E+04  0.22025066755E+04  0.15960389969E+04 0.  0.
        5    1    3    3  502    0  0.49357402363E+03 -0.51489215967E+03 -0.26501716136E+03  0.76091092692E+03  0.46999998093E+01 0. -1.
       -5    1    3    3    0  502 -0.49357402363E+03  0.51489215967E+03 -0.12527757020E+04  0.14415957486E+04  0.46999998093E+01 0.  1.
</event>
<event>
 5   0  0.6838750E-05  0.1603407E+04  0.7818609E-02  0.8818458E-01
        3   -1    0    0  501    0  0.00000000000E+00  0.00000000000E+00  0.69778380426E+03  0.69778381157E+03  0.10100000352E+00 0.  1.
       -3   -1    0    0    0  501  0.00000000000E+00  0.00000000000E+00 -0.92109987665E+03  0.92109988219E+03  0.10100000352E+00 0. -1.
    10030    2    1    2    0    0  0.00000000000E+00  0.00000000000E+00 -0.22331607239E+03  0.16188836938E+04  0.16034071054E+04 0.  0.
        3    1    3    3  502    0  0.63606415801E+03 -0.48583374950E+03 -0.15810786932E+03  0.81584934504E+03  0.10100000352E+00 0. -1.
       -3    1    3    3    0  502 -0.63606415801E+03  0.48583374950E+03 -0.65208203070E+02  0.80303434871E+03  0.10100000352E+00 0.  1.
</event>
<event>
 5   0  0.9726935E-05  0.1579580E+04  0.7818609E-02  0.8833192E-01
       -1   -1    0    0    0  501  0.00000000000E+00  0.00000000000E+00  0.98061995001E+03  0.98061995002E+03  0.50400001928E-02 0.  1.
        1   -1    0    0  501    0  0.00000000000E+00  0.00000000000E+00 -0.63609590244E+03  0.63609590246E+03  0.50400001928E-02 0. -1.
    10030    2    1    2    0    0  0.00000000000E+00  0.00000000000E+00  0.34452404757E+03  0.16167158525E+04  0.15795801114E+04 0.  0.
        2    1    3    3  502    0  0.56061614729E+02 -0.12279136909E+02  0.97848294044E+03  0.98016455077E+03  0.25500000920E-02 0.  1.
       -2    1    3    3    0  502 -0.56061614729E+02  0.12279136909E+02 -0.63395889288E+03  0.63655130171E+03  0.25500000920E-02 0. -1.
</event>
<event>
 5   0  0.1914170E-04  0.1603299E+04  0.7818609E-02  0.8818524E-01
        2   -1    0    0  501    0  0.00000000000E+00  0.00000000000E+00  0.68271612447E+03  0.68271612447E+03  0.25500000920E-02 0.  1.
       -2   -1    0    0    0  501  0.00000000000E+00  0.00000000000E+00 -0.94130129660E+03  0.94130129660E+03  0.25500000920E-02 0. -1.
    10030    2    1    2    0    0  0.00000000000E+00  0.00000000000E+00 -0.25858517213E+03  0.16240174211E+04  0.16032985663E+04 0.  0.
        3    1    3    3  502    0 -0.39713938864E+03 -0.37620514728E+03 -0.72286141407E+03  0.90652007204E+03  0.10100000352E+00 0. -1.
       -3    1    3    3    0  502  0.39713938864E+03  0.37620514728E+03  0.46427624194E+03  0.71749734904E+03  0.10100000352E+00 0.  1.
</event>
<event>
 5   0  0.1832646E-04  0.1598217E+04  0.7818609E-02  0.8821644E-01
       -2   -1    0    0    0  501  0.00000000000E+00  0.00000000000E+00  0.28107357622E+03  0.28107357623E+03  0.25500000920E-02 0.  1.
        2   -1    0    0  501    0  0.00000000000E+00  0.00000000000E+00 -0.22719117956E+04  0.22719117956E+04  0.25500000920E-02 0. -1.
    10030    2    1    2    0    0  0.00000000000E+00  0.00000000000E+00 -0.19908382194E+04  0.25529853719E+04  0.15982169731E+04 0.  0.
        2    1    3    3  502    0  0.61007480067E+03  0.33606128551E+03 -0.16211538467E+04  0.17644455913E+04  0.25500000920E-02 0. -1.
       -2    1    3    3    0  502 -0.61007480067E+03 -0.33606128551E+03 -0.36968437267E+03  0.78853978051E+03  0.25500000920E-02 0.  1.
</event>
<event>
 5   0  0.1914170E-04  0.1601180E+04  0.7818609E-02  0.8819823E-01
        2   -1    0    0  501    0  0.00000000000E+00  0.00000000000E+00  0.99590629196E+03  0.99590629196E+03  0.25500000920E-02 0.  1.
       -2   -1    0    0    0  501  0.00000000000E+00  0.00000000000E+00 -0.64357918346E+03  0.64357918346E+03  0.25500000920E-02 0. -1.
    10030    2    1    2    0    0  0.00000000000E+00  0.00000000000E+00  0.35232710850E+03  0.16394854754E+04  0.16011802624E+04 0.  0.
        3    1    3    3  502    0 -0.75154909850E+03 -0.14128036512E+03 -0.66483235436E+02  0.76759769399E+03  0.10100000352E+00 0. -1.
       -3    1    3    3    0  502  0.75154909850E+03  0.14128036512E+03  0.41881034393E+03  0.87188778143E+03  0.10100000352E+00 0.  1.
</event>
<event>
 5   0  0.1832646E-04  0.1595380E+04  0.7818609E-02  0.8823391E-01
        2   -1    0    0  501    0  0.00000000000E+00  0.00000000000E+00  0.69815756048E+03  0.69815756048E+03  0.25500000920E-02 0.  1.
       -2   -1    0    0    0  501  0.00000000000E+00  0.00000000000E+00 -0.91141208756E+03  0.91141208757E+03  0.25500000920E-02 0. -1.
    10030    2    1    2    0    0  0.00000000000E+00  0.00000000000E+00 -0.21325452709E+03  0.16095696480E+04  0.15953798791E+04 0.  0.
        2    1    3    3  502    0 -0.27579643657E+03  0.31239853099E+03  0.57960830561E+03  0.71386434603E+03  0.25500000920E-02 0.  1.
       -2    1    3    3    0  502  0.27579643657E+03 -0.31239853099E+03 -0.79286283270E+03  0.89570530202E+03  0.25500000920E-02 0. -1.
</event>
<event>
 5   0  0.1914170E-04  0.1603259E+04  0.7818609E-02  0.8818549E-01
       -2   -1    0    0    0  501  0.00000000000E+00  0.00000000000E+00  0.39267975348E+03  0.39267975349E+03  0.25500000920E-02 0.  1.
        2   -1    0    0  501    0  0.00000000000E+00  0.00000000000E+00 -0.16364722500E+04  0.16364722501E+04  0.25500000920E-02 0. -1.
    10030    2    1    2    0    0  0.00000000000E+00  0.00000000000E+00 -0.12437924966E+04  0.20291520035E+04  0.16032585814E+04 0.  0.
        3    1    3    3  502    0  0.18601727485E+03  0.69737518980E+03 -0.18041571713E+03  0.74396533728E+03  0.10100000352E+00 0.  1.
       -3    1    3    3    0  502 -0.18601727485E+03 -0.69737518980E+03 -0.10633767794E+04  0.12851866663E+04  0.10100000352E+00 0. -1.
</event>
<event>
 5   0  0.1835088E-04  0.1593467E+04  0.7818609E-02  0.8824571E-01
        2   -1    0    0  501    0  0.00000000000E+00  0.00000000000E+00  0.11945980923E+04  0.11945980923E+04  0.25500000920E-02 0.  1.
       -2   -1    0    0    0  501  0.00000000000E+00  0.00000000000E+00 -0.53137908532E+03  0.53137908532E+03  0.25500000920E-02 0. -1.
    10030    2    1    2    0    0  0.00000000000E+00  0.00000000000E+00  0.66321900695E+03  0.17259771776E+04  0.15934672153E+04 0.  0.
        5    1    3    3  502    0  0.61111097924E+03  0.13210949435E+03 -0.20326979947E+03  0.65745741217E+03  0.46999998093E+01 0. -1.
       -5    1    3    3    0  502 -0.61111097924E+03 -0.13210949435E+03  0.86648880642E+03  0.10685197654E+04  0.46999998093E+01 0.  1.
</event>
<event>
 5   0  0.1858913E-04  0.1603365E+04  0.7818609E-02  0.8818483E-01
        2   -1    0    0  501    0  0.00000000000E+00  0.00000000000E+00  0.45566243378E+03  0.45566243379E+03  0.25500000920E-02 0. -1.
       -2   -1    0    0    0  501  0.00000000000E+00  0.00000000000E+00 -0.14104626725E+04  0.14104626725E+04  0.25500000920E-02 0.  1.
    10030    2    1    2    0    0  0.00000000000E+00  0.00000000000E+00 -0.95480023870E+03  0.18661251063E+04  0.16033650291E+04 0.  0.
        4    1    3    3  502    0  0.84239776733E+02 -0.68759901313E+03 -0.77855640448E+01  0.69278493831E+03  0.12699999809E+01 0. -1.
       -4    1    3    3    0  502 -0.84239776733E+02  0.68759901313E+03 -0.94701467465E+03  0.11733401680E+04  0.12699999809E+01 0.  1.
</event>
<event>
 5   0  0.1858913E-04  0.1603790E+04  0.7818609E-02  0.8818223E-01
        2   -1    0    0  501    0  0.00000000000E+00  0.00000000000E+00  0.22754065910E+04  0.22754065911E+04  0.25500000920E-02 0.  1.
       -2   -1    0    0    0  501  0.00000000000E+00  0.00000000000E+00 -0.28260236116E+03  0.28260236117E+03  0.25500000920E-02 0. -1.
    10030    2    1    2    0    0  0.00000000000E+00  0.00000000000E+00  0.19928042299E+04  0.25580089522E+04  0.16037896062E+04 0.  0.
        4    1    3    3  502    0  0.68085726140E+02  0.89990038816E+02  0.22626777379E+04  0.22654902410E+04  0.12699999809E+01 0.  1.
       -4    1    3    3    0  502 -0.68085726140E+02 -0.89990038816E+02 -0.26987350805E+03  0.29251871126E+03  0.12699999809E+01 0. -1.
</event>
<event>
 5   0  0.9673017E-05  0.1599808E+04  0.7818609E-02  0.8820666E-01
       -1   -1    0    0    0  501  0.00000000000E+00  0.00000000000E+00  0.10032273365E+04  0.10032273365E+04  0.50400001928E-02 0.  1.
        1   -1    0    0  501    0  0.00000000000E+00  0.00000000000E+00 -0.63778805782E+03  0.63778805784E+03  0.50400001928E-02 0. -1.
    10030    2    1    2    0    0  0.00000000000E+00  0.00000000000E+00  0.36543927868E+03  0.16410153943E+04  0.15998080066E+04 0.  0.
        1    1    3    3  502    0 -0.35819458333E+03 -0.46224140746E+03 -0.37711852271E+03  0.69583680449E+03  0.50400001928E-02 0. -1.
       -1    1    3    3    0  502  0.35819458333E+03  0.46224140746E+03  0.74255780138E+03  0.94517858985E+03  0.50400001928E-02 0.  1.
</event>
<event>
 5   0  0.1832646E-04  0.1601051E+04  0.7818609E-02  0.8819902E-01
        2   -1    0    0  501    0  0.00000000000E+00  0.00000000000E+00  0.10022519108E+04  0.10022519108E+04  0.25500000920E-02 0. -1.
       -2   -1    0    0    0  501  0.00000000000E+00  0.00000000000E+00 -0.63940134605E+03  0.63940134606E+03  0.25500000920E-02 0.  1.
    10030    2    1    2    0    0  0.00000000000E+00  0.00000000000E+00  0.36285056472E+03  0.16416532568E+04  0.16010511807E+04 0.  0.
        2    1    3    3  502    0  0.76685104853E+03 -0.11622972579E+03  0.38462078121E+03  0.86573842767E+03  0.25500000920E-02 0. -1.
       -2    1    3    3    0  502 -0.76685104853E+03  0.11622972579E+03 -0.21770216494E+02  0.77591482917E+03  0.25500000920E-02 0.  1.
</event>
<event>
 5   0  0.9616567E-05  0.1602079E+04  0.7818609E-02  0.8819272E-01
       -1   -1    0    0    0  501  0.00000000000E+00  0.00000000000E+00  0.47483937307E+03  0.47483937310E+03  0.50400001928E-02 0. -1.
        1   -1    0    0  501    0  0.00000000000E+00  0.00000000000E+00 -0.13513298133E+04  0.13513298134E+04  0.50400001928E-02 0.  1.
    10030    2    1    2    0    0  0.00000000000E+00  0.00000000000E+00 -0.87649044027E+03  0.18261691865E+04  0.16020794005E+04 0.  0.
        5    1    3    3  502    0 -0.72578511312E+03  0.40241993415E+02 -0.54632096454E+02  0.72896515995E+03  0.46999998093E+01 0.  1.
       -5    1    3    3    0  502  0.72578511312E+03 -0.40241993415E+02 -0.82185834381E+03  0.10972040265E+04  0.46999998093E+01 0. -1.
</event>
<event>
 5   0  0.9432152E-05  0.1579354E+04  0.7818609E-02  0.8833333E-01
       -1   -1    0    0    0  501  0.00000000000E+00  0.00000000000E+00  0.34190340876E+03  0.34190340880E+03  0.50400001928E-02 0. -1.
        1   -1    0    0  501    0  0.00000000000E+00  0.00000000000E+00 -0.18238764856E+04  0.18238764856E+04  0.50400001928E-02 0.  1.
    10030    2    1    2    0    0  0.00000000000E+00  0.00000000000E+00 -0.14819730768E+04  0.21657798944E+04  0.15793537762E+04 0.  0.
        4    1    3    3  502    0  0.46467502159E+03  0.38912597670E+03 -0.46820273400E+02  0.60789444177E+03  0.12699999809E+01 0. -1.
       -4    1    3    3    0  502 -0.46467502159E+03 -0.38912597670E+03 -0.14351528034E+04  0.15578854526E+04  0.12699999809E+01 0.  1.
</event>
<event>
 5   0  0.9616567E-05  0.1607545E+04  0.7818609E-02  0.8815926E-01
        1   -1    0    0  501    0  0.00000000000E+00  0.00000000000E+00  0.15850238507E+04  0.15850238507E+04  0.50400001928E-02 0.  1.
       -1   -1    0    0    0  501  0.00000000000E+00  0.00000000000E+00 -0.40759638338E+03  0.40759638341E+03  0.50400001928E-02 0. -1.
    10030    2    1    2    0    0  0.00000000000E+00  0.00000000000E+00  0.11774274673E+04  0.19926202341E+04  0.16075446982E+04 0.  0.
        5    1    3    3  502    0 -0.46065442938E+03  0.10579200218E+03 -0.21711622849E+03  0.52014997616E+03  0.46999998093E+01 0. -1.
       -5    1    3    3    0  502  0.46065442938E+03 -0.10579200218E+03  0.13945436958E+04  0.14724702579E+04  0.46999998093E+01 0.  1.
</event>
<event>
 5   0  0.1774934E-04  0.1609775E+04  0.7818609E-02  0.8814566E-01
       -2   -1    0    0    0  501  0.00000000000E+00  0.00000000000E+00  0.68946886411E+03  0.68946886412E+03  0.25500000920E-02 0. -1.
        2   -1    0    0  501    0  0.00000000000E+00  0.00000000000E+00 -0.93962696135E+03  0.93962696135E+03  0.25500000920E-02 0.  1.
    10030    2    1    2    0    0  0.00000000000E+00  0.00000000000E+00 -0.25015809723E+03  0.16290958255E+04  0.16097745603E+04 0.  0.
        1    1    3    3  502    0 -0.17118731838E+03 -0.74873560090E+03 -0.36866162141E+03  0.85195157676E+03  0.50400001928E-02 0.  1.
       -1    1    3    3    0  502  0.17118731838E+03  0.74873560090E+03  0.11850352418E+03  0.77714424870E+03  0.50400001928E-02 0. -1.
</event>
<event>
 5   0  0.1914170E-04  0.1599786E+04  0.7818609E-02  0.8820679E-01
       -2   -1    0    0    0  501  0.00000000000E+00  0.00000000000E+00  0.64124979639E+03  0.64124979640E+03  0.25500000920E-02 0. -1.
        2   -1    0    0  501    0  0.00000000000E+00  0.00000000000E+00 -0.99778426787E+03  0.99778426787E+03  0.25500000920E-02 0.  1.
    10030    2    1    2    0    0  0.00000000000E+00  0.00000000000E+00 -0.35653447148E+03  0.16390340643E+04  0.15997861840E+04 0.  0.
        3    1    3    3  502    0 -0.22418674763E+03  0.50587595864E+03  0.41353596115E+03  0.69078374670E+03  0.10100000352E+00 0. -1.
       -3    1    3    3    0  502  0.22418674763E+03 -0.50587595864E+03 -0.77007043263E+03  0.94825031756E+03  0.10100000352E+00 0.  1.
</event>
<event>
 5   0  0.1835088E-04  0.1599706E+04  0.7818609E-02  0.8820728E-01
        2   -1    0    0  501    0  0.00000000000E+00  0.00000000000E+00  0.36194888222E+03  0.36194888223E+03  0.25500000920E-02 0. -1.
       -2   -1    0    0    0  501  0.00000000000E+00  0.00000000000E+00 -0.17675565190E+04  0.17675565190E+04  0.25500000920E-02 0.  1.
    10030    2    1    2    0    0  0.00000000000E+00  0.00000000000E+00 -0.14056076367E+04  0.21295054012E+04  0.15997063559E+04 0.  0.
        5    1    3    3  502    0  0.43669163071E+03 -0.28205692578E+03  0.10636334220E+03  0.53065143010E+03  0.46999998093E+01 0. -1.
       -5    1    3    3    0  502 -0.43669163071E+03  0.28205692578E+03 -0.15119709789E+04  0.15988539711E+04  0.46999998093E+01 0.  1.
</event>
<event>
 5   0  0.9616567E-05  0.1592616E+04  0.7818609E-02  0.8825097E-01
        1   -1    0    0  501    0  0.00000000000E+00  0.00000000000E+00  0.12423732466E+04  0.12423732466E+04  0.50400001928E-02 0. -1.
       -1   -1    0    0    0  501  0.00000000000E+00  0.00000000000E+00 -0.51039905579E+03  0.51039905581E+03  0.50400001928E-02 0.  1.
    10030    2    1    2    0    0  0.00000000000E+00  0.00000000000E+00  0.73197419081E+03  0.17527723024E+04  0.15926156247E+04 0.  0.
        5    1    3    3  502    0 -0.63817677809E+03 -0.14722578996E+03 -0.13248248009E+03  0.66822057051E+03  0.46999998093E+01 0.  1.
       -5    1    3    3    0  502  0.63817677809E+03  0.14722578996E+03  0.86445667090E+03  0.10845517319E+04  0.46999998093E+01 0. -1.
</event>
<event>
 5   0  0.1914170E-04  0.1617481E+04  0.7818609E-02  0.8809880E-01
        2   -1    0    0  501    0  0.00000000000E+00  0.00000000000E+00  0.26477791038E+04  0.26477791038E+04  0.25500000920E-02 0. -1.
       -2   -1    0    0    0  501  0.00000000000E+00  0.00000000000E+00 -0.24702246860E+03  0.24702246861E+03  0.25500000920E-02 0.  1.
    10030    2    1    2    0    0  0.00000000000E+00  0.00000000000E+00  0.24007566352E+04  0.28948015724E+04  0.16174806713E+04 0.  0.
        3    1    3    3  502    0  0.12027635288E+03  0.79902038740E+03  0.11393987208E+04  0.13968283487E+04  0.10100000352E+00 0.  1.
       -3    1    3    3    0  502 -0.12027635288E+03 -0.79902038740E+03  0.12613579143E+04  0.14979732237E+04  0.10100000352E+00 0. -1.
</event>
<event>
 5   0  0.1858913E-04  0.1595042E+04  0.7818609E-02  0.8823599E-01
        2   -1    0    0  501    0  0.00000000000E+00  0.00000000000E+00  0.13906721831E+04  0.13906721831E+04  0.25500000920E-02 0.  1.
       -2   -1    0    0    0  501  0.00000000000E+00  0.00000000000E+00 -0.45736163995E+03  0.45736163995E+03  0.25500000920E-02 0. -1.
    10030    2    1    2    0    0  0.00000000000E+00  0.00000000000E+00  0.93331054311E+03  0.18480338230E+04  0.15950424575E+04 0.  0.
        4    1    3    3  502    0 -0.23929336153E+02 -0.24280751304E+03 -0.41305819317E+03  0.47973616224E+03  0.12699999809E+01 0. -1.
       -4    1    3    3    0  502  0.23929336153E+02  0.24280751304E+03  0.13463687363E+04  0.13682976608E+04  0.12699999809E+01 0.  1.
</event>
<event>
 5   0  0.1835088E-04  0.1598019E+04  0.7818609E-02  0.8821766E-01
       -2   -1    0    0    0  501  0.00000000000E+00  0.00000000000E+00  0.52788475620E+03  0.52788475620E+03  0.25500000920E-02 0.  1.
        2   -1    0    0  501    0  0.00000000000E+00  0.00000000000E+00 -0.12093853372E+04  0.12093853372E+04  0.25500000920E-02 0. -1.
    10030    2    1    2    0    0  0.00000000000E+00  0.00000000000E+00 -0.68150058097E+03  0.17372700934E+04  0.15980188783E+04 0.  0.
        5    1    3    3  502    0 -0.38071410491E+03  0.67819115301E+03 -0.14174867244E+03  0.79057020298E+03  0.46999998093E+01 0. -1.
       -5    1    3    3    0  502  0.38071410491E+03 -0.67819115301E+03 -0.53975190853E+03  0.94669989039E+03  0.46999998093E+01 0.  1.
</event>
<event>
 5   0  0.9616567E-05  0.1605440E+04  0.7818609E-02  0.8817213E-01
       -1   -1    0    0    0  501  0.00000000000E+00  0.00000000000E+00  0.93639071827E+03  0.93639071828E+03  0.50400001928E-02 0. -1.
        1   -1    0    0  501    0  0.00000000000E+00  0.00000000000E+00 -0.68813098167E+03  0.68813098169E+03  0.50400001928E-02 0.  1.
    10030    2    1    2    0    0  0.00000000000E+00  0.00000000000E+00  0.24825973660E+03  0.16245217000E+04  0.16054400820E+04 0.  0.
        5    1    3    3  502    0  0.63620426506E+03 -0.48653860122E+03  0.17826051667E+03  0.82053310668E+03  0.46999998093E+01 0.  1.
       -5    1    3    3    0  502 -0.63620426506E+03  0.48653860122E+03  0.69999219928E+02  0.80398859329E+03  0.46999998093E+01 0. -1.
</event>
<event>
 5   0  0.1914170E-04  0.1598641E+04  0.7818609E-02  0.8821383E-01
       -2   -1    0    0    0  501  0.00000000000E+00  0.00000000000E+00  0.14173826345E+04  0.14173826345E+04  0.25500000920E-02 0.  1.
        2   -1    0    0  501    0  0.00000000000E+00  0.00000000000E+00 -0.45076981460E+03  0.45076981461E+03  0.25500000920E-02 0. -1.
    10030    2    1    2    0    0  0.00000000000E+00  0.00000000000E+00  0.96661281994E+03  0.18681524491E+04  0.15986410571E+04 0.  0.
        3    1    3    3  502    0  0.15703446006E+03 -0.77907486937E+03  0.38349078980E+03  0.88242998011E+03  0.10100000352E+00 0.  1.
       -3    1    3    3    0  502 -0.15703446006E+03  0.77907486937E+03  0.58312203014E+03  0.98572246904E+03  0.10100000352E+00 0. -1.
</event>
<event>
 5   0  0.1774934E-04  0.1583439E+04  0.7818609E-02  0.8830787E-01
        2   -1    0    0  501    0  0.00000000000E+00  0.00000000000E+00  0.12019490833E+04  0.12019490833E+04  0.25500000920E-02 0.  1.
       -2   -1    0    0    0  501  0.00000000000E+00  0.00000000000E+00 -0.52150278964E+03  0.52150278964E+03  0.25500000920E-02 0. -1.
    10030    2    1    2    0    0  0.00000000000E+00  0.00000000000E+00  0.68044629366E+03  0.17234518729E+04  0.15834390420E+04 0.  0.
        1    1    3    3  502    0  0.23237111502E+03 -0.13962408356E+03 -0.46941201829E+03  0.54206905717E+03  0.50400001928E-02 0. -1.
       -1    1    3    3    0  502 -0.23237111502E+03  0.13962408356E+03  0.11498583119E+04  0.11813828158E+04  0.50400001928E-02 0.  1.
</event>
<event>
 5   0  0.1858913E-04  0.1613143E+04  0.7818609E-02  0.8812514E-01
       -2   -1    0    0    0  501  0.00000000000E+00  0.00000000000E+00  0.34393725068E+03  0.34393725069E+03  0.25500000920E-02 0.  1.
        2   -1    0    0  501    0  0.00000000000E+00  0.00000000000E+00 -0.18914998892E+04  0.18914998892E+04  0.25500000920E-02 0. -1.
    10030    2    1    2    0    0  0.00000000000E+00  0.00000000000E+00 -0.15475626385E+04  0.22354371398E+04  0.16131426119E+04 0.  0.
        4    1    3    3  502    0  0.26714477007E+03 -0.42107741210E+03  0.10471428748E+03  0.50954804489E+03  0.12699999809E+01 0.  1.
       -4    1    3    3    0  502 -0.26714477007E+03  0.42107741210E+03 -0.16522769259E+04  0.17258890950E+04  0.12699999809E+01 0. -1.
</event>
<event>
 5   0  0.1774934E-04  0.1626941E+04  0.7818609E-02  0.8804166E-01
       -2   -1    0    0    0  501  0.00000000000E+00  0.00000000000E+00  0.13672197862E+04  0.13672197862E+04  0.25500000920E-02 0.  1.
        2   -1    0    0  501    0  0.00000000000E+00  0.00000000000E+00 -0.48399965222E+03  0.48399965223E+03  0.25500000920E-02 0. -1.
    10030    2    1    2    0    0  0.00000000000E+00  0.00000000000E+00  0.88322013393E+03  0.18512194384E+04  0.16269405656E+04 0.  0.
        1    1    3    3  502    0  0.53755031174E+03 -0.57001026607E+03  0.19267791146E+03  0.80684373869E+03  0.50400001928E-02 0. -1.
       -1    1    3    3    0  502 -0.53755031174E+03  0.57001026607E+03  0.69054222247E+03  0.10443756997E+04  0.50400001928E-02 0.  1.
</event>
<event>
 5   0  0.1914170E-04  0.1617273E+04  0.7818609E-02  0.8810006E-01
       -2   -1    0    0    0  501  0.00000000000E+00  0.00000000000E+00  0.93793364332E+03  0.93793364333E+03  0.25500000920E-02 0.  1.
        2   -1    0    0  501    0  0.00000000000E+00  0.00000000000E+00 -0.69716305687E+03  0.69716305688E+03  0.25500000920E-02 0. -1.
    10030    2    1    2    0    0  0.00000000000E+00  0.00000000000E+00  0.24077058645E+03  0.16350967002E+04  0.16172726250E+04 0.  0.
        3    1    3    3  502    0  0.32333754372E+03 -0.18071726409E+03  0.84711661936E+03  0.92456069229E+03  0.10100000352E+00 0.  1.
       -3    1    3    3    0  502 -0.32333754372E+03  0.18071726409E+03 -0.60634603292E+03  0.71053600792E+03  0.10100000352E+00 0. -1.
</event>
<event>
 5   0  0.1832646E-04  0.1598166E+04  0.7818609E-02  0.8821675E-01
       -2   -1    0    0    0  501  0.00000000000E+00  0.00000000000E+00  0.40227302100E+03  0.40227302101E+03  0.25500000920E-02 0.  1.
        2   -1    0    0  501    0  0.00000000000E+00  0.00000000000E+00 -0.15873145853E+04  0.15873145853E+04  0.25500000920E-02 0. -1.
    10030    2    1    2    0    0  0.00000000000E+00  0.00000000000E+00 -0.11850415643E+04  0.19895876063E+04  0.15981662410E+04 0.  0.
        2    1    3    3  502    0  0.76607132671E+02  0.73959581897E+03 -0.22815442169E+03  0.77776928993E+03  0.25500000920E-02 0.  1.
       -2    1    3    3    0  502 -0.76607132671E+02 -0.73959581897E+03 -0.95688714257E+03  0.12118183163E+04  0.25500000920E-02 0. -1.
</event>
<event>
 5   0  0.1774934E-04  0.1664283E+04  0.7818609E-02  0.8782001E-01
       -2   -1    0    0    0  501  0.00000000000E+00  0.00000000000E+00  0.61560938154E+03  0.61560938155E+03  0.25500000920E-02 0. -1.
        2   -1    0    0  501    0  0.00000000000E+00  0.00000000000E+00 -0.11248361459E+04  0.11248361459E+04  0.25500000920E-02 0.  1.
    10030    2    1    2    0    0  0.00000000000E+00  0.00000000000E+00 -0.50922676434E+03  0.17404455274E+04  0.16642832501E+04 0.  0.
        1    1    3    3  502    0 -0.35191519493E+03 -0.72756817070E+03 -0.47404680199E+02  0.80959678308E+03  0.50400001928E-02 0. -1.
       -1    1    3    3    0  502  0.35191519493E+03  0.72756817070E+03 -0.46182208414E+03  0.93084874435E+03  0.50400001928E-02 0.  1.
</event>
<event>
 5   0  0.1832646E-04  0.1573660E+04  0.7818609E-02  0.8836895E-01
        2   -1    0    0  501    0  0.00000000000E+00  0.00000000000E+00  0.18234492794E+04  0.18234492794E+04  0.25500000920E-02 0.  1.
       -2   -1    0    0    0  501  0.00000000000E+00  0.00000000000E+00 -0.33952200143E+03  0.33952200144E+03  0.25500000920E-02 0. -1.
    10030    2    1    2    0    0  0.00000000000E+00  0.00000000000E+00  0.14839272780E+04  0.21629712809E+04  0.15736596187E+04 0.  0.
        2    1    3    3  502    0 -0.31337950036E+03  0.72166535935E+03  0.72866968250E+03  0.10723651935E+04  0.25500000920E-02 0. -1.
       -2    1    3    3    0  502  0.31337950036E+03 -0.72166535935E+03  0.75525759550E+03  0.10906060873E+04  0.25500000920E-02 0.  1.
</event>
<event>
 5   0  0.9673017E-05  0.1599685E+04  0.7818609E-02  0.8820741E-01
       -1   -1    0    0    0  501  0.00000000000E+00  0.00000000000E+00  0.62582451676E+03  0.62582451678E+03  0.50400001928E-02 0.  1.
        1   -1    0    0  501    0  0.00000000000E+00  0.00000000000E+00 -0.10222486298E+04  0.10222486298E+04  0.50400001928E-02 0. -1.
    10030    2    1    2    0    0  0.00000000000E+00  0.00000000000E+00 -0.39642411301E+03  0.16480731466E+04  0.15996852875E+04 0.  0.
        1    1    3    3  502    0  0.33793728697E+03 -0.62497464849E+03 -0.57668404409E+03  0.91507344400E+03  0.50400001928E-02 0. -1.
       -1    1    3    3    0  502 -0.33793728697E+03  0.62497464849E+03  0.18025993108E+03  0.73299970256E+03  0.50400001928E-02 0.  1.
</event>
<event>
 5   0  0.9726935E-05  0.1595593E+04  0.7818609E-02  0.8823260E-01
       -1   -1    0    0    0  501  0.00000000000E+00  0.00000000000E+00  0.58472828192E+03  0.58472828194E+03  0.50400001928E-02 0.  1.
        1   -1    0    0  501    0  0.00000000000E+00  0.00000000000E+00 -0.10885040588E+04  0.10885040588E+04  0.50400001928E-02 0. -1.
    10030    2    1    2    0    0  0.00000000000E+00  0.00000000000E+00 -0.50377577688E+03  0.16732323407E+04  0.15955928155E+04 0.  0.
        2    1    3    3  502    0  0.47142177605E+03  0.61136560748E+03 -0.40920499769E+02  0.77309823713E+03  0.25500000920E-02 0.  1.
       -2    1    3    3    0  502 -0.47142177605E+03 -0.61136560748E+03 -0.46285527711E+03  0.90013410362E+03  0.25500000920E-02 0. -1.
</event>
<event>
 5   0  0.9432152E-05  0.1542927E+04  0.7818609E-02  0.8856398E-01
        1   -1    0    0  501    0  0.00000000000E+00  0.00000000000E+00  0.51053626129E+03  0.51053626132E+03  0.50400001928E-02 0.  1.
       -1   -1    0    0    0  501  0.00000000000E+00  0.00000000000E+00 -0.11657473919E+04  0.11657473919E+04  0.50400001928E-02 0. -1.
    10030    2    1    2    0    0  0.00000000000E+00  0.00000000000E+00 -0.65521113058E+03  0.16762836532E+04  0.15429274968E+04 0.  0.
        4    1    3    3  502    0 -0.19166853551E+03 -0.45669362750E+03 -0.97020773665E+03  0.10893165573E+04  0.12699999809E+01 0. -1.
       -4    1    3    3    0  502  0.19166853551E+03  0.45669362750E+03  0.31499660607E+03  0.58696709588E+03  0.12699999809E+01 0.  1.
</event>
<event>
 5   0  0.9616567E-05  0.1600862E+04  0.7818609E-02  0.8820019E-01
        1   -1    0    0  501    0  0.00000000000E+00  0.00000000000E+00  0.11684478425E+04  0.11684478426E+04  0.50400001928E-02 0.  1.
       -1   -1    0    0    0  501  0.00000000000E+00  0.00000000000E+00 -0.54832551591E+03  0.54832551594E+03  0.50400001928E-02 0. -1.
    10030    2    1    2    0    0  0.00000000000E+00  0.00000000000E+00  0.62012232663E+03  0.17167733585E+04  0.16008619755E+04 0.  0.
        5    1    3    3  502    0  0.15840228910E+03  0.30405918247E+03 -0.46558128129E+03  0.57821388008E+03  0.46999998093E+01 0. -1.
       -5    1    3    3    0  502 -0.15840228910E+03 -0.30405918247E+03  0.10857036079E+04  0.11385594784E+04  0.46999998093E+01 0.  1.
</event>
<event>
 5   0  0.1914170E-04  0.1601055E+04  0.7818609E-02  0.8819900E-01
        2   -1    0    0  501    0  0.00000000000E+00  0.00000000000E+00  0.87513368400E+03  0.87513368400E+03  0.25500000920E-02 0.  1.
       -2   -1    0    0    0  501  0.00000000000E+00  0.00000000000E+00 -0.73228154770E+03  0.73228154771E+03  0.25500000920E-02 0. -1.
    10030    2    1    2    0    0  0.00000000000E+00  0.00000000000E+00  0.14285213630E+03  0.16074152317E+04  0.16010549629E+04 0.  0.
        3    1    3    3  502    0 -0.34329306558E+03 -0.59079358420E+03 -0.34731239595E+03  0.76649403036E+03  0.10100000352E+00 0. -1.
       -3    1    3    3    0  502  0.34329306558E+03  0.59079358420E+03  0.49016453224E+03  0.84092120135E+03  0.10100000352E+00 0.  1.
</event>
<event>
 5   0  0.6838750E-05  0.1597265E+04  0.7818609E-02  0.8822230E-01
        3   -1    0    0  501    0  0.00000000000E+00  0.00000000000E+00  0.19433993856E+04  0.19433993882E+04  0.10100000352E+00 0. -1.
       -3   -1    0    0    0  501  0.00000000000E+00  0.00000000000E+00 -0.32819506803E+03  0.32819508357E+03  0.10100000352E+00 0.  1.
    10030    2    1    2    0    0  0.00000000000E+00  0.00000000000E+00  0.16152043176E+04  0.22715944718E+04  0.15972653057E+04 0.  0.
        3    1    3    3  502    0  0.38067658720E+03  0.55092912350E+03  0.18870735787E+03  0.69573561091E+03  0.10100000352E+00 0.  1.
       -3    1    3    3    0  502 -0.38067658720E+03 -0.55092912350E+03  0.14264969597E+04  0.15758588609E+04  0.10100000352E+00 0. -1.
</event>
<event>
 5   0  0.1914170E-04  0.1602736E+04  0.7818609E-02  0.8818869E-01
        2   -1    0    0  501    0  0.00000000000E+00  0.00000000000E+00  0.10658456003E+04  0.10658456003E+04  0.25500000920E-02 0.  1.
       -2   -1    0    0    0  501  0.00000000000E+00  0.00000000000E+00 -0.60251728469E+03  0.60251728470E+03  0.25500000920E-02 0. -1.
    10030    2    1    2    0    0  0.00000000000E+00  0.00000000000E+00  0.46332831557E+03  0.16683628850E+04  0.16027356575E+04 0.  0.
        3    1    3    3  502    0 -0.55321547385E+03  0.14224290806E+03  0.81673747824E+03  0.99666469987E+03  0.10100000352E+00 0.  1.
       -3    1    3    3    0  502  0.55321547385E+03 -0.14224290806E+03 -0.35340916267E+03  0.67169818510E+03  0.10100000352E+00 0. -1.
</event>
<event>
 5   0  0.9939872E-05  0.1594456E+04  0.7818609E-02  0.8823961E-01
       -1   -1    0    0    0  501  0.00000000000E+00  0.00000000000E+00  0.28513655266E+03  0.28513655271E+03  0.50400001928E-02 0.  1.
        1   -1    0    0  501    0  0.00000000000E+00  0.00000000000E+00 -0.22290096824E+04  0.22290096824E+04  0.50400001928E-02 0. -1.
    10030    2    1    2    0    0  0.00000000000E+00  0.00000000000E+00 -0.19438731298E+04  0.25141462352E+04  0.15944555645E+04 0.  0.
        3    1    3    3  502    0 -0.34538122261E+03 -0.45195631894E+03 -0.91153553601E+02  0.57607437340E+03  0.10100000352E+00 0.  1.
       -3    1    3    3    0  502  0.34538122261E+03  0.45195631894E+03 -0.18527195762E+04  0.19380718617E+04  0.10100000352E+00 0. -1.
</event>
<event>
 5   0  0.9432152E-05  0.1618683E+04  0.7818609E-02  0.8809152E-01
       -1   -1    0    0    0  501  0.00000000000E+00  0.00000000000E+00  0.11847378543E+04  0.11847378543E+04  0.50400001928E-02 0.  1.
        1   -1    0    0  501    0  0.00000000000E+00  0.00000000000E+00 -0.55289317032E+03  0.55289317034E+03  0.50400001928E-02 0. -1.
    10030    2    1    2    0    0  0.00000000000E+00  0.00000000000E+00  0.63184468397E+03  0.17376310246E+04  0.16186827586E+04 0.  0.
        4    1    3    3  502    0 -0.10073747138E+03 -0.22965966451E+03  0.11419757261E+04  0.11691885098E+04  0.12699999809E+01 0.  1.
       -4    1    3    3    0  502  0.10073747138E+03  0.22965966451E+03 -0.51013104210E+03  0.56844251482E+03  0.12699999809E+01 0. -1.
</event>
<event>
 5   0  0.9616567E-05  0.1612154E+04  0.7818609E-02  0.8813116E-01
       -1   -1    0    0    0  501  0.00000000000E+00  0.00000000000E+00  0.36047692334E+03  0.36047692337E+03  0.50400001928E-02 0. -1.
        1   -1    0    0  501    0  0.00000000000E+00  0.00000000000E+00 -0.18025022308E+04  0.18025022308E+04  0.50400001928E-02 0.  1.
    10030    2    1    2    0    0  0.00000000000E+00  0.00000000000E+00 -0.14420253075E+04  0.21629791542E+04  0.16121544076E+04 0.  0.
        5    1    3    3  502    0  0.50570241588E+03 -0.60047456215E+03 -0.96633558710E+03  0.12450426459E+04  0.46999998093E+01 0.  1.
       -5    1    3    3    0  502 -0.50570241588E+03  0.60047456215E+03 -0.47568972039E+03  0.91793650831E+03  0.46999998093E+01 0. -1.
</event>
<event>
 5   0  0.1858913E-04  0.1598588E+04  0.7818609E-02  0.8821416E-01
       -2   -1    0    0    0  501  0.00000000000E+00  0.00000000000E+00  0.42741931427E+03  0.42741931428E+03  0.25500000920E-02 0. -1.
        2   -1    0    0  501    0  0.00000000000E+00  0.00000000000E+00 -0.14947178850E+04  0.14947178850E+04  0.25500000920E-02 0.  1.
    10030    2    1    2    0    0  0.00000000000E+00  0.00000000000E+00 -0.10672985707E+04  0.19221371992E+04  0.15985884942E+04 0.  0.
        4    1    3    3  502    0 -0.17814575312E+03  0.38032977406E+03  0.28405373837E+03  0.50702542892E+03  0.12699999809E+01 0. -1.
       -4    1    3    3    0  502  0.17814575312E+03 -0.38032977406E+03 -0.13513523091E+04  0.14151117703E+04  0.12699999809E+01 0.  1.
</event>
<event>
 5   0  0.1858913E-04  0.1602669E+04  0.7818609E-02  0.8818910E-01
        2   -1    0    0  501    0  0.00000000000E+00  0.00000000000E+00  0.83727797980E+03  0.83727797980E+03  0.25500000920E-02 0.  1.
       -2   -1    0    0    0  501  0.00000000000E+00  0.00000000000E+00 -0.76693425407E+03  0.76693425407E+03  0.25500000920E-02 0. -1.
    10030    2    1    2    0    0  0.00000000000E+00  0.00000000000E+00  0.70343725725E+02  0.16042122339E+04  0.16026692271E+04 0.  0.
        4    1    3    3  502    0 -0.33777365751E+03 -0.41599586372E+03  0.63155750158E+03  0.82825726260E+03  0.12699999809E+01 0.  1.
       -4    1    3    3    0  502  0.33777365751E+03  0.41599586372E+03 -0.56121377585E+03  0.77595497128E+03  0.12699999809E+01 0. -1.
</event>
<event>
 5   0  0.1914170E-04  0.1598875E+04  0.7818609E-02  0.8821239E-01
        2   -1    0    0  501    0  0.00000000000E+00  0.00000000000E+00  0.16048842445E+04  0.16048842445E+04  0.25500000920E-02 0.  1.
       -2   -1    0    0    0  501  0.00000000000E+00  0.00000000000E+00 -0.39822227754E+03  0.39822227755E+03  0.25500000920E-02 0. -1.
    10030    2    1    2    0    0  0.00000000000E+00  0.00000000000E+00  0.12066619670E+04  0.20031065221E+04  0.15988754286E+04 0.  0.
        3    1    3    3  502    0 -0.48820300783E+02 -0.68608494197E+03  0.11137767213E+04  0.13090433777E+04  0.10100000352E+00 0.  1.
       -3    1    3    3    0  502  0.48820300783E+02  0.68608494197E+03  0.92885245624E+02  0.69406314441E+03  0.10100000352E+00 0. -1.
</event>
<event>
 5   0  0.9673017E-05  0.1584195E+04  0.7818609E-02  0.8830317E-01
       -1   -1    0    0    0  501  0.00000000000E+00  0.00000000000E+00  0.61275358014E+03  0.61275358016E+03  0.50400001928E-02 0. -1.
        1   -1    0    0  501    0  0.00000000000E+00  0.00000000000E+00 -0.10239326534E+04  0.10239326534E+04  0.50400001928E-02 0.  1.
    10030    2    1    2    0    0  0.00000000000E+00  0.00000000000E+00 -0.41117907325E+03  0.16366862336E+04  0.15841949365E+04 0.  0.
        1    1    3    3  502    0  0.56891573179E+03 -0.19924735398E+03 -0.73647765316E+03  0.95171631885E+03  0.50400001928E-02 0.  1.
       -1    1    3    3    0  502 -0.56891573179E+03  0.19924735398E+03  0.32529857991E+03  0.68496991471E+03  0.50400001928E-02 0. -1.
</event>
<event>
 5   0  0.1858913E-04  0.1599063E+04  0.7818609E-02  0.8821124E-01
        2   -1    0    0  501    0  0.00000000000E+00  0.00000000000E+00  0.60772134862E+03  0.60772134863E+03  0.25500000920E-02 0.  1.
       -2   -1    0    0    0  501  0.00000000000E+00  0.00000000000E+00 -0.10518812088E+04  0.10518812088E+04  0.25500000920E-02 0. -1.
    10030    2    1    2    0    0  0.00000000000E+00  0.00000000000E+00 -0.44415986015E+03  0.16596025574E+04  0.15990630592E+04 0.  0.
        4    1    3    3  502    0 -0.49724482406E+03  0.53442402096E+03 -0.56059968693E+03  0.92039940847E+03  0.12699999809E+01 0. -1.
       -4    1    3    3    0  502  0.49724482406E+03 -0.53442402096E+03  0.11643982678E+03  0.73920314893E+03  0.12699999809E+01 0.  1.
</event>
<event>
 5   0  0.9432152E-05  0.1600012E+04  0.7818609E-02  0.8820541E-01
        1   -1    0    0  501    0  0.00000000000E+00  0.00000000000E+00  0.96028882555E+03  0.96028882556E+03  0.50400001928E-02 0. -1.
       -1   -1    0    0    0  501  0.00000000000E+00  0.00000000000E+00 -0.66647622822E+03  0.66647622824E+03  0.50400001928E-02 0.  1.
    10030    2    1    2    0    0  0.00000000000E+00  0.00000000000E+00  0.29381259733E+03  0.16267650538E+04  0.16000120931E+04 0.  0.
        4    1    3    3  502    0  0.42998452742E+03 -0.26043895187E+03  0.77964055545E+03  0.92766165711E+03  0.12699999809E+01 0. -1.
       -4    1    3    3    0  502 -0.42998452742E+03  0.26043895187E+03 -0.48582795812E+03  0.69910339669E+03  0.12699999809E+01 0.  1.
</event>
<event>
 5   0  0.1774934E-04  0.1600030E+04  0.7818609E-02  0.8820530E-01
       -2   -1    0    0    0  501  0.00000000000E+00  0.00000000000E+00  0.68285846922E+03  0.68285846922E+03  0.25500000920E-02 0. -1.
        2   -1    0    0  501    0  0.00000000000E+00  0.00000000000E+00 -0.93727171386E+03  0.93727171386E+03  0.25500000920E-02 0.  1.
    10030    2    1    2    0    0  0.00000000000E+00  0.00000000000E+00 -0.25441324464E+03  0.16201301831E+04  0.16000299094E+04 0.  0.
        1    1    3    3  502    0  0.62036460597E+03 -0.50442804271E+03 -0.99960730235E+02  0.80578659844E+03  0.50400001928E-02 0. -1.
       -1    1    3    3    0  502 -0.62036460597E+03  0.50442804271E+03 -0.15445251441E+03  0.81434358464E+03  0.50400001928E-02 0.  1.
</event>
<event>
 5   0  0.1835088E-04  0.1603157E+04  0.7818609E-02  0.8818611E-01
       -2   -1    0    0    0  501  0.00000000000E+00  0.00000000000E+00  0.34632897738E+03  0.34632897739E+03  0.25500000920E-02 0.  1.
        2   -1    0    0  501    0  0.00000000000E+00  0.00000000000E+00 -0.18552525009E+04  0.18552525009E+04  0.25500000920E-02 0. -1.
    10030    2    1    2    0    0  0.00000000000E+00  0.00000000000E+00 -0.15089235235E+04  0.22015814783E+04  0.16031565132E+04 0.  0.
        5    1    3    3  502    0  0.40345014920E+03 -0.56174626519E+03 -0.19802990780E+03  0.71942256270E+03  0.46999998093E+01 0.  1.
       -5    1    3    3    0  502 -0.40345014920E+03  0.56174626519E+03 -0.13108936157E+04  0.14821589156E+04  0.46999998093E+01 0. -1.
</event>
<event>
 5   0  0.9432152E-05  0.1601077E+04  0.7818609E-02  0.8819886E-01
        1   -1    0    0  501    0  0.00000000000E+00  0.00000000000E+00  0.20822196849E+04  0.20822196849E+04  0.50400001928E-02 0.  1.
       -1   -1    0    0    0  501  0.00000000000E+00  0.00000000000E+00 -0.30777841340E+03  0.30777841344E+03  0.50400001928E-02 0. -1.
    10030    2    1    2    0    0  0.00000000000E+00  0.00000000000E+00  0.17744412715E+04  0.23899980984E+04  0.16010774760E+04 0.  0.
        4    1    3    3  502    0 -0.50131838285E+03  0.57452894475E+03  0.52323285132E+03  0.92475827054E+03  0.12699999809E+01 0. -1.
       -4    1    3    3    0  502  0.50131838285E+03 -0.57452894475E+03  0.12512084202E+04  0.14652398278E+04  0.12699999809E+01 0.  1.
</event>
<event>
 5   0  0.9673017E-05  0.1600407E+04  0.7818609E-02  0.8820298E-01
       -1   -1    0    0    0  501  0.00000000000E+00  0.00000000000E+00  0.76448545937E+03  0.76448545939E+03  0.50400001928E-02 0.  1.
        1   -1    0    0  501    0  0.00000000000E+00  0.00000000000E+00 -0.83759010480E+03  0.83759010481E+03  0.50400001928E-02 0. -1.
    10030    2    1    2    0    0  0.00000000000E+00  0.00000000000E+00 -0.73104645421E+02  0.16020755642E+04  0.16004067684E+04 0.  0.
        1    1    3    3  502    0  0.44374729839E+03 -0.60178106841E+02 -0.70041227503E+03  0.83133051455E+03  0.50400001928E-02 0. -1.
       -1    1    3    3    0  502 -0.44374729839E+03  0.60178106841E+02  0.62730762961E+03  0.77074504966E+03  0.50400001928E-02 0.  1.
</event>
<event>
 5   0  0.9432152E-05  0.1599142E+04  0.7818609E-02  0.8821075E-01
        1   -1    0    0  501    0  0.00000000000E+00  0.00000000000E+00  0.13899405752E+04  0.13899405752E+04  0.50400001928E-02 0.  1.
       -1   -1    0    0    0  501  0.00000000000E+00  0.00000000000E+00 -0.45995765372E+03  0.45995765375E+03  0.50400001928E-02 0. -1.
    10030    2    1    2    0    0  0.00000000000E+00  0.00000000000E+00  0.92998292146E+03  0.18498982289E+04  0.15991420272E+04 0.  0.
        4    1    3    3  502    0 -0.42293762070E+03  0.19322086891E+03  0.12174510183E+04  0.13032264309E+04  0.12699999809E+01 0.  1.
       -4    1    3    3    0  502  0.42293762070E+03 -0.19322086891E+03 -0.28746809688E+03  0.54667179807E+03  0.12699999809E+01 0. -1.
</event>
<event>
 5   0  0.1858913E-04  0.1579767E+04  0.7818609E-02  0.8833075E-01
        2   -1    0    0  501    0  0.00000000000E+00  0.00000000000E+00  0.21001700958E+04  0.21001700958E+04  0.25500000920E-02 0.  1.
       -2   -1    0    0    0  501  0.00000000000E+00  0.00000000000E+00 -0.29707875671E+03  0.29707875672E+03  0.25500000920E-02 0. -1.
    10030    2    1    2    0    0  0.00000000000E+00  0.00000000000E+00  0.18030913391E+04  0.23972488525E+04  0.15797669714E+04 0.  0.
        4    1    3    3  502    0 -0.23931452074E+03 -0.73819038602E+03  0.67791661566E+03  0.10304217760E+04  0.12699999809E+01 0. -1.
       -4    1    3    3    0  502  0.23931452074E+03  0.73819038602E+03  0.11251747234E+04  0.13668270765E+04  0.12699999809E+01 0.  1.
</event>
<event>
 5   0  0.9673017E-05  0.1619718E+04  0.7818609E-02  0.8808525E-01
       -1   -1    0    0    0  501  0.00000000000E+00  0.00000000000E+00  0.54253291754E+03  0.54253291756E+03  0.50400001928E-02 0. -1.
        1   -1    0    0  501    0  0.00000000000E+00  0.00000000000E+00 -0.12089061679E+04  0.12089061679E+04  0.50400001928E-02 0.  1.
    10030    2    1    2    0    0  0.00000000000E+00  0.00000000000E+00 -0.66637325038E+03  0.17514390855E+04  0.16197177413E+04 0.  0.
        1    1    3    3  502    0 -0.21162336972E+03 -0.12679347067E+03 -0.11672863160E+04  0.11930709863E+04  0.50400001928E-02 0.  1.
       -1    1    3    3    0  502  0.21162336972E+03  0.12679347067E+03  0.50091306564E+03  0.55836809917E+03  0.50400001928E-02 0. -1.
</event>
<event>
 5   0  0.1774934E-04  0.1587357E+04  0.7818609E-02  0.8828353E-01
        2   -1    0    0  501    0  0.00000000000E+00  0.00000000000E+00  0.98436761257E+03  0.98436761258E+03  0.25500000920E-02 0.  1.
       -2   -1    0    0    0  501  0.00000000000E+00  0.00000000000E+00 -0.63992930384E+03  0.63992930384E+03  0.25500000920E-02 0. -1.
    10030    2    1    2    0    0  0.00000000000E+00  0.00000000000E+00  0.34443830874E+03  0.16242969164E+04  0.15873571508E+04 0.  0.
        1    1    3    3  502    0 -0.20029819455E+01  0.32058377813E+03  0.91516460779E+03  0.96969285349E+03  0.50400001928E-02 0.  1.
       -1    1    3    3    0  502  0.20029819455E+01 -0.32058377813E+03 -0.57072629905E+03  0.65460406292E+03  0.50400001928E-02 0. -1.
</event>
<event>
 5   0  0.6838750E-05  0.1602795E+04  0.7818609E-02  0.8818833E-01
        3   -1    0    0  501    0  0.00000000000E+00  0.00000000000E+00  0.82614773183E+03  0.82614773800E+03  0.10100000352E+00 0.  1.
       -3   -1    0    0    0  501  0.00000000000E+00  0.00000000000E+00 -0.77738890187E+03  0.77738890843E+03  0.10100000352E+00 0. -1.
    10030    2    1    2    0    0  0.00000000000E+00  0.00000000000E+00  0.48758829958E+02  0.16035366464E+04  0.16027951687E+04 0.  0.
        1    1    3    3  502    0 -0.44311581378E+03  0.30138676661E+03 -0.57175904390E+03  0.78364150721E+03  0.50400001928E-02 0. -1.
       -1    1    3    3    0  502  0.44311581378E+03 -0.30138676661E+03  0.62051787386E+03  0.81989513922E+03  0.50400001928E-02 0.  1.
</event>
<event>
 5   0  0.9616567E-05  0.1600252E+04  0.7818609E-02  0.8820393E-01
       -1   -1    0    0    0  501  0.00000000000E+00  0.00000000000E+00  0.53036656984E+03  0.53036656987E+03  0.50400001928E-02 0.  1.
        1   -1    0    0  501    0  0.00000000000E+00  0.00000000000E+00 -0.12070934407E+04  0.12070934407E+04  0.50400001928E-02 0. -1.
    10030    2    1    2    0    0  0.00000000000E+00  0.00000000000E+00 -0.67672687084E+03  0.17374600106E+04  0.16002524896E+04 0.  0.
        5    1    3    3  502    0 -0.66250832818E+03  0.63457832862E+02  0.14382757428E+03  0.68092043777E+03  0.46999998093E+01 0.  1.
       -5    1    3    3    0  502  0.66250832818E+03 -0.63457832862E+02 -0.82055444513E+03  0.10565395728E+04  0.46999998093E+01 0. -1.
</event>
<event>
 5   0  0.1914170E-04  0.1602998E+04  0.7818609E-02  0.8818709E-01
        2   -1    0    0  501    0  0.00000000000E+00  0.00000000000E+00  0.10624174632E+04  0.10624174632E+04  0.25500000920E-02 0.  1.
       -2   -1    0    0    0  501  0.00000000000E+00  0.00000000000E+00 -0.60465913658E+03  0.60465913658E+03  0.25500000920E-02 0. -1.
    10030    2    1    2    0    0  0.00000000000E+00  0.00000000000E+00  0.45775832659E+03  0.16670765997E+04  0.16029977242E+04 0.  0.
        3    1    3    3  502    0  0.23553426873E+03 -0.74677985875E+03  0.40672350272E+03  0.88237212504E+03  0.10100000352E+00 0.  1.
       -3    1    3    3    0  502 -0.23553426873E+03  0.74677985875E+03  0.51034823868E+02  0.78470447471E+03  0.10100000352E+00 0. -1.
</event>
<event>
 5   0  0.9673017E-05  0.1573604E+04  0.7818609E-02  0.8836930E-01
       -1   -1    0    0    0  501  0.00000000000E+00  0.00000000000E+00  0.88519984576E+03  0.88519984578E+03  0.50400001928E-02 0.  1.
        1   -1    0    0  501    0  0.00000000000E+00  0.00000000000E+00 -0.69934179422E+03  0.69934179423E+03  0.50400001928E-02 0. -1.
    10030    2    1    2    0    0  0.00000000000E+00  0.00000000000E+00  0.18585805155E+03  0.15845416400E+04  0.15736038236E+04 0.  0.
        1    1    3    3  502    0  0.52407465323E+03 -0.57067397668E+03  0.23075340513E+03  0.80843686447E+03  0.50400001928E-02 0.  1.
       -1    1    3    3    0  502 -0.52407465323E+03  0.57067397668E+03 -0.44895353581E+02  0.77610477554E+03  0.50400001928E-02 0. -1.
</event>
<event>
 5   0  0.9616567E-05  0.1595417E+04  0.7818609E-02  0.8823368E-01
       -1   -1    0    0    0  501  0.00000000000E+00  0.00000000000E+00  0.31029992671E+03  0.31029992675E+03  0.50400001928E-02 0. -1.
        1   -1    0    0  501    0  0.00000000000E+00  0.00000000000E+00 -0.20507217970E+04  0.20507217970E+04  0.50400001928E-02 0.  1.
    10030    2    1    2    0    0  0.00000000000E+00  0.00000000000E+00 -0.17404218703E+04  0.23610217238E+04  0.15954169654E+04 0.  0.
        5    1    3    3  502    0 -0.30749171900E+03  0.60607770472E+03 -0.14882886425E+04  0.16361254581E+04  0.46999998093E+01 0. -1.
       -5    1    3    3    0  502  0.30749171900E+03 -0.60607770472E+03 -0.25213322788E+03  0.72489626569E+03  0.46999998093E+01 0.  1.
</event>
<event>
 5   0  0.6838750E-05  0.1605954E+04  0.7818609E-02  0.8816899E-01
       -3   -1    0    0    0  501  0.00000000000E+00  0.00000000000E+00  0.31178176577E+03  0.31178178213E+03  0.10100000352E+00 0. -1.
        3   -1    0    0  501    0  0.00000000000E+00  0.00000000000E+00 -0.20680235359E+04  0.20680235384E+04  0.10100000352E+00 0.  1.
    10030    2    1    2    0    0  0.00000000000E+00  0.00000000000E+00 -0.17562417701E+04  0.23798053205E+04  0.16059539870E+04 0.  0.
        5    1    3    3  502    0  0.22108675722E+03  0.15810530978E+02 -0.20217710602E+04  0.20338902716E+04  0.46999998093E+01 0.  1.
       -5    1    3    3    0  502 -0.22108675722E+03 -0.15810530978E+02  0.26552929011E+03  0.34591504883E+03  0.46999998093E+01 0. -1.
</event>
<event>
 5   0  0.1835088E-04  0.1606343E+04  0.7818609E-02  0.8816661E-01
        2   -1    0    0  501    0  0.00000000000E+00  0.00000000000E+00  0.10349972691E+04  0.10349972691E+04  0.25500000920E-02 0. -1.
       -2   -1    0    0    0  501  0.00000000000E+00  0.00000000000E+00 -0.62327165538E+03  0.62327165538E+03  0.25500000920E-02 0.  1.
    10030    2    1    2    0    0  0.00000000000E+00  0.00000000000E+00  0.41172561369E+03  0.16582689244E+04  0.16063430035E+04 0.  0.
        5    1    3    3  502    0  0.21389884587E+03  0.76627462122E+02 -0.58938835271E+03  0.63168441846E+03  0.46999998093E+01 0.  1.
       -5    1    3    3    0  502 -0.21389884587E+03 -0.76627462122E+02  0.10011139664E+04  0.10265845060E+04  0.46999998093E+01 0. -1.
</event>
<event>
 5   0  0.9673017E-05  0.1631901E+04  0.7818609E-02  0.8801186E-01
        1   -1    0    0  501    0  0.00000000000E+00  0.00000000000E+00  0.74841836527E+03  0.74841836529E+03  0.50400001928E-02 0.  1.
       -1   -1    0    0    0  501  0.00000000000E+00  0.00000000000E+00 -0.88957593031E+03  0.88957593033E+03  0.50400001928E-02 0. -1.
    10030    2    1    2    0    0  0.00000000000E+00  0.00000000000E+00 -0.14115756504E+03  0.16379942956E+04  0.16319006876E+04 0.  0.
        1    1    3    3  502    0  0.31615391396E+03 -0.67823380455E+03  0.25593665032E+03  0.79085900131E+03  0.50400001928E-02 0.  1.
       -1    1    3    3    0  502 -0.31615391396E+03  0.67823380455E+03 -0.39709421536E+03  0.84713529430E+03  0.50400001928E-02 0. -1.
</event>
<event>
 5   0  0.9616567E-05  0.1599965E+04  0.7818609E-02  0.8820570E-01
        1   -1    0    0  501    0  0.00000000000E+00  0.00000000000E+00  0.59198075256E+03  0.59198075258E+03  0.50400001928E-02 0. -1.
       -1   -1    0    0    0  501  0.00000000000E+00  0.00000000000E+00 -0.10810683900E+04  0.10810683900E+04  0.50400001928E-02 0.  1.
    10030    2    1    2    0    0  0.00000000000E+00  0.00000000000E+00 -0.48908763744E+03  0.16730491426E+04  0.15999645985E+04 0.  0.
        5    1    3    3  502    0 -0.55869634242E+03 -0.28056698836E+03  0.27734332970E+03  0.68395968486E+03  0.46999998093E+01 0.  1.
       -5    1    3    3    0  502  0.55869634242E+03  0.28056698836E+03 -0.76643096714E+03  0.98908945773E+03  0.46999998093E+01 0. -1.
</event>
<event>
 5   0  0.9939872E-05  0.1609957E+04  0.7818609E-02  0.8814454E-01
        1   -1    0    0  501    0  0.00000000000E+00  0.00000000000E+00  0.90041249596E+03  0.90041249597E+03  0.50400001928E-02 0.  1.
       -1   -1    0    0    0  501  0.00000000000E+00  0.00000000000E+00 -0.71965992184E+03  0.71965992186E+03  0.50400001928E-02 0. -1.
    10030    2    1    2    0    0  0.00000000000E+00  0.00000000000E+00  0.18075257412E+03  0.16200724178E+04  0.16099574982E+04 0.  0.
        3    1    3    3  502    0  0.30846884199E+03  0.69205116235E+03  0.36393520076E+03  0.84055736172E+03  0.10100000352E+00 0.  1.
       -3    1    3    3    0  502 -0.30846884199E+03 -0.69205116235E+03 -0.18318262664E+03  0.77951505611E+03  0.10100000352E+00 0. -1.
</event>
<event>
 5   0  0.1858913E-04  0.1597647E+04  0.7818609E-02  0.8821995E-01
       -2   -1    0    0    0  501  0.00000000000E+00  0.00000000000E+00  0.43628149657E+03  0.43628149658E+03  0.25500000920E-02 0.  1.
        2   -1    0    0  501    0  0.00000000000E+00  0.00000000000E+00 -0.14626305893E+04  0.14626305893E+04  0.25500000920E-02 0. -1.
    10030    2    1    2    0    0  0.00000000000E+00  0.00000000000E+00 -0.10263490927E+04  0.18989120858E+04  0.15976465972E+04 0.  0.
        4    1    3    3  502    0 -0.49570369571E+03 -0.32965723100E+03 -0.11462710063E+04  0.12916403821E+04  0.12699999809E+01 0. -1.
       -4    1    3    3    0  502  0.49570369571E+03  0.32965723100E+03  0.11992191363E+03  0.60727170373E+03  0.12699999809E+01 0.  1.
</event>
<event>
 5   0  0.9726935E-05  0.1619647E+04  0.7818609E-02  0.8808568E-01
        1   -1    0    0  501    0  0.00000000000E+00  0.00000000000E+00  0.15515454519E+04  0.15515454519E+04  0.50400001928E-02 0.  1.
       -1   -1    0    0    0  501  0.00000000000E+00  0.00000000000E+00 -0.42268433111E+03  0.42268433114E+03  0.50400001928E-02 0. -1.
    10030    2    1    2    0    0  0.00000000000E+00  0.00000000000E+00  0.11288611208E+04  0.19742297830E+04  0.16196468153E+04 0.  0.
        2    1    3    3  502    0 -0.23111272046E+03  0.73642221045E+03  0.26564894633E+03  0.81627208962E+03  0.25500000920E-02 0. -1.
       -2    1    3    3    0  502  0.23111272046E+03 -0.73642221045E+03  0.86321217446E+03  0.11579576934E+04  0.25500000920E-02 0.  1.
</event>
<event>
 5   0  0.6838750E-05  0.1600537E+04  0.7818609E-02  0.8820218E-01
        3   -1    0    0  501    0  0.00000000000E+00  0.00000000000E+00  0.17087715748E+04  0.17087715778E+04  0.10100000352E+00 0. -1.
       -3   -1    0    0    0  501  0.00000000000E+00  0.00000000000E+00 -0.37478941624E+03  0.37478942985E+03  0.10100000352E+00 0.  1.
    10030    2    1    2    0    0  0.00000000000E+00  0.00000000000E+00  0.13339821585E+04  0.20835610076E+04  0.16005368078E+04 0.  0.
        4    1    3    3  502    0  0.25158506249E+03  0.51025032817E+03 -0.65694585058E+02  0.57268475837E+03  0.12699999809E+01 0.  1.
       -4    1    3    3    0  502 -0.25158506249E+03 -0.51025032817E+03  0.13996767436E+04  0.15108762493E+04  0.12699999809E+01 0. -1.
</event>
<event>
 5   0  0.1774934E-04  0.1601102E+04  0.7818609E-02  0.8819871E-01
        2   -1    0    0  501    0  0.00000000000E+00  0.00000000000E+00  0.19739729144E+04  0.19739729144E+04  0.25500000920E-02 0.  1.
       -2   -1    0    0    0  501  0.00000000000E+00  0.00000000000E+00 -0.32466601653E+03  0.32466601654E+03  0.25500000920E-02 0. -1.
    10030    2    1    2    0    0  0.00000000000E+00  0.00000000000E+00  0.16493068979E+04  0.22986389310E+04  0.16011020241E+04 0.  0.
        1    1    3    3  502    0 -0.22214077161E+03 -0.56231289966E+03  0.71322009662E+02  0.60879319036E+03  0.50400001928E-02 0.  1.
       -1    1    3    3    0  502  0.22214077161E+03  0.56231289966E+03  0.15779848882E+04  0.16898457406E+04  0.50400001928E-02 0. -1.
</event>
<event>
 5   0  0.1858913E-04  0.1608091E+04  0.7818609E-02  0.8815593E-01
        2   -1    0    0  501    0  0.00000000000E+00  0.00000000000E+00  0.11583483025E+04  0.11583483025E+04  0.25500000920E-02 0. -1.
       -2   -1    0    0    0  501  0.00000000000E+00  0.00000000000E+00 -0.55811263080E+03  0.55811263080E+03  0.25500000920E-02 0.  1.
    10030    2    1    2    0    0  0.00000000000E+00  0.00000000000E+00  0.60023567172E+03  0.17164609333E+04  0.16080905677E+04 0.  0.
        4    1    3    3  502    0 -0.21208570031E+03  0.56735498863E+03  0.86453964947E+03  0.10556052509E+04  0.12699999809E+01 0. -1.
       -4    1    3    3    0  502  0.21208570031E+03 -0.56735498863E+03 -0.26430397775E+03  0.66085568239E+03  0.12699999809E+01 0.  1.
</event>
<event>
 5   0  0.1858913E-04  0.1592852E+04  0.7818609E-02  0.8824951E-01
        2   -1    0    0  501    0  0.00000000000E+00  0.00000000000E+00  0.10104151886E+04  0.10104151886E+04  0.25500000920E-02 0. -1.
       -2   -1    0    0    0  501  0.00000000000E+00  0.00000000000E+00 -0.62775599946E+03  0.62775599947E+03  0.25500000920E-02 0.  1.
    10030    2    1    2    0    0  0.00000000000E+00  0.00000000000E+00  0.38265918911E+03  0.16381711880E+04  0.15928517779E+04 0.  0.
        4    1    3    3  502    0  0.64644190197E+03 -0.30884416729E+03  0.54910773738E+03  0.90265872424E+03  0.12699999809E+01 0. -1.
       -4    1    3    3    0  502 -0.64644190197E+03  0.30884416729E+03 -0.16644854827E+03  0.73551246380E+03  0.12699999809E+01 0.  1.
</event>
<event>
 5   0  0.1832646E-04  0.1601794E+04  0.7818609E-02  0.8819447E-01
       -2   -1    0    0    0  501  0.00000000000E+00  0.00000000000E+00  0.69722083087E+03  0.69722083087E+03  0.25500000920E-02 0. -1.
        2   -1    0    0  501    0  0.00000000000E+00  0.00000000000E+00 -0.91998922888E+03  0.91998922888E+03  0.25500000920E-02 0.  1.
    10030    2    1    2    0    0  0.00000000000E+00  0.00000000000E+00 -0.22276839801E+03  0.16172100598E+04  0.16017935629E+04 0.  0.
        2    1    3    3  502    0 -0.54281331862E+03  0.10947045031E+02 -0.70583746624E+03  0.89049012652E+03  0.25500000920E-02 0.  1.
       -2    1    3    3    0  502  0.54281331862E+03 -0.10947045031E+02  0.48306906823E+03  0.72671993323E+03  0.25500000920E-02 0. -1.
</event>
<event>
 5   0  0.1914170E-04  0.1605166E+04  0.7818609E-02  0.8817380E-01
       -2   -1    0    0    0  501  0.00000000000E+00  0.00000000000E+00  0.92487710498E+03  0.92487710498E+03  0.25500000920E-02 0. -1.
        2   -1    0    0  501    0  0.00000000000E+00  0.00000000000E+00 -0.69645987312E+03  0.69645987313E+03  0.25500000920E-02 0.  1.
    10030    2    1    2    0    0  0.00000000000E+00  0.00000000000E+00  0.22841723186E+03  0.16213369781E+04  0.16051663978E+04 0.  0.
        3    1    3    3  502    0  0.11802867519E+03  0.57181481809E+03  0.67042554078E+03  0.88902945411E+03  0.10100000352E+00 0. -1.
       -3    1    3    3    0  502 -0.11802867519E+03 -0.57181481809E+03 -0.44200830892E+03  0.73230752400E+03  0.10100000352E+00 0.  1.
</event>
<event>
 5   0  0.9939872E-05  0.1593652E+04  0.7818609E-02  0.8824458E-01
       -1   -1    0    0    0  501  0.00000000000E+00  0.00000000000E+00  0.10841122721E+04  0.10841122721E+04  0.50400001928E-02 0. -1.
        1   -1    0    0  501    0  0.00000000000E+00  0.00000000000E+00 -0.58566946059E+03  0.58566946061E+03  0.50400001928E-02 0.  1.
    10030    2    1    2    0    0  0.00000000000E+00  0.00000000000E+00  0.49844281151E+03  0.16697817327E+04  0.15936517181E+04 0.  0.
        3    1    3    3  502    0 -0.37826178489E+03 -0.44976721716E+03 -0.31459116972E+03  0.66658843510E+03  0.10100000352E+00 0.  1.
       -3    1    3    3    0  502  0.37826178489E+03  0.44976721716E+03  0.81303398123E+03  0.10031932976E+04  0.10100000352E+00 0. -1.
</event>
<event>
 5   0  0.9432152E-05  0.1556048E+04  0.7818609E-02  0.8848014E-01
        1   -1    0    0  501    0  0.00000000000E+00  0.00000000000E+00  0.79729912033E+03  0.79729912034E+03  0.50400001928E-02 0.  1.
       -1   -1    0    0    0  501  0.00000000000E+00  0.00000000000E+00 -0.75921449823E+03  0.75921449824E+03  0.50400001928E-02 0. -1.
    10030    2    1    2    0    0  0.00000000000E+00  0.00000000000E+00  0.38084622099E+02  0.15565136186E+04  0.15560476234E+04 0.  0.
        4    1    3    3  502    0 -0.76914663971E+03  0.86656221162E+02 -0.59871013648E+02  0.77632596583E+03  0.12699999809E+01 0.  1.
       -4    1    3    3    0  502  0.76914663971E+03 -0.86656221162E+02  0.97955635747E+02  0.78018765276E+03  0.12699999809E+01 0. -1.
</event>
<event>
 5   0  0.1914170E-04  0.1535302E+04  0.7818609E-02  0.8861311E-01
       -2   -1    0    0    0  501  0.00000000000E+00  0.00000000000E+00  0.42653287980E+03  0.42653287981E+03  0.25500000920E-02 0. -1.
        2   -1    0    0  501    0  0.00000000000E+00  0.00000000000E+00 -0.13815774565E+04  0.13815774565E+04  0.25500000920E-02 0.  1.
    10030    2    1    2    0    0  0.00000000000E+00  0.00000000000E+00 -0.95504457672E+03  0.18081103363E+04  0.15353021998E+04 0.  0.
        3    1    3    3  502    0 -0.69645870157E+03 -0.24280488100E+02 -0.98379320585E+02  0.70379170642E+03  0.10100000352E+00 0.  1.
       -3    1    3    3    0  502  0.69645870157E+03  0.24280488100E+02 -0.85666525614E+03  0.11043186299E+04  0.10100000352E+00 0. -1.
</event>
<event>
 5   0  0.1832646E-04  0.1591997E+04  0.7818609E-02  0.8825480E-01
        2   -1    0    0  501    0  0.00000000000E+00  0.00000000000E+00  0.13001242495E+04  0.13001242495E+04  0.25500000920E-02 0.  1.
       -2   -1    0    0    0  501  0.00000000000E+00  0.00000000000E+00 -0.48734824781E+03  0.48734824781E+03  0.25500000920E-02 0. -1.
    10030    2    1    2    0    0  0.00000000000E+00  0.00000000000E+00  0.81277600168E+03  0.17874724973E+04  0.15919965765E+04 0.  0.
        2    1    3    3  502    0 -0.42530889423E+03 -0.61171268722E+03  0.91740774940E+02  0.75066399742E+03  0.25500000920E-02 0. -1.
       -2    1    3    3    0  502  0.42530889423E+03  0.61171268722E+03  0.72103522674E+03  0.10368084999E+04  0.25500000920E-02 0.  1.
</event>
<event>
 5   0  0.9673017E-05  0.1646801E+04  0.7818609E-02  0.8792301E-01
       -1   -1    0    0    0  501  0.00000000000E+00  0.00000000000E+00  0.85774284917E+03  0.85774284919E+03  0.50400001928E-02 0.  1.
        1   -1    0    0  501    0  0.00000000000E+00  0.00000000000E+00 -0.79043306520E+03  0.79043306522E+03  0.50400001928E-02 0. -1.
    10030    2    1    2    0    0  0.00000000000E+00  0.00000000000E+00  0.67309783972E+02  0.16481759144E+04  0.16468009102E+04 0.  0.
        1    1    3    3  502    0  0.20011015691E+02 -0.45687735952E+03  0.71895352217E+03  0.85207483794E+03  0.50400001928E-02 0.  1.
       -1    1    3    3    0  502 -0.20011015691E+02  0.45687735952E+03 -0.65164373819E+03  0.79610107646E+03  0.50400001928E-02 0. -1.
</event>
<event>
 5   0  0.1774934E-04  0.1600396E+04  0.7818609E-02  0.8820305E-01
        2   -1    0    0  501    0  0.00000000000E+00  0.00000000000E+00  0.58380853406E+03  0.58380853407E+03  0.25500000920E-02 0.  1.
       -2   -1    0    0    0  501  0.00000000000E+00  0.00000000000E+00 -0.10967920494E+04  0.10967920494E+04  0.25500000920E-02 0. -1.
    10030    2    1    2    0    0  0.00000000000E+00  0.00000000000E+00 -0.51298351536E+03  0.16806005835E+04  0.16003956493E+04 0.  0.
        1    1    3    3  502    0 -0.64720453129E+03  0.46268405972E+03 -0.16636323257E+03  0.81278962199E+03  0.50400001928E-02 0.  1.
       -1    1    3    3    0  502  0.64720453129E+03 -0.46268405972E+03 -0.34662028279E+03  0.86781096150E+03  0.50400001928E-02 0. -1.
</event>
<event>
 5   0  0.9726935E-05  0.1597425E+04  0.7818609E-02  0.8822132E-01
       -1   -1    0    0    0  501  0.00000000000E+00  0.00000000000E+00  0.11055954402E+04  0.11055954402E+04  0.50400001928E-02 0.  1.
        1   -1    0    0  501    0  0.00000000000E+00  0.00000000000E+00 -0.57701150951E+03  0.57701150953E+03  0.50400001928E-02 0. -1.
    10030    2    1    2    0    0  0.00000000000E+00  0.00000000000E+00  0.52858393068E+03  0.16826069497E+04  0.15974245446E+04 0.  0.
        2    1    3    3  502    0  0.25848574647E+03 -0.72135110941E+02 -0.52810166173E+03  0.59237633350E+03  0.25500000920E-02 0. -1.
       -2    1    3    3    0  502 -0.25848574647E+03  0.72135110941E+02  0.10566855924E+04  0.10902306162E+04  0.25500000920E-02 0.  1.
</event>
<event>
 5   0  0.1835088E-04  0.1599539E+04  0.7818609E-02  0.8820831E-01
       -2   -1    0    0    0  501  0.00000000000E+00  0.00000000000E+00  0.73165328557E+03  0.73165328558E+03  0.25500000920E-02 0.  1.
        2   -1    0    0  501    0  0.00000000000E+00  0.00000000000E+00 -0.87422722913E+03  0.87422722913E+03  0.25500000920E-02 0. -1.
    10030    2    1    2    0    0  0.00000000000E+00  0.00000000000E+00 -0.14257394356E+03  0.16058805147E+04  0.15995389642E+04 0.  0.
        5    1    3    3  502    0 -0.46362413244E+03  0.35777300554E+03 -0.61811164501E+03  0.85148867013E+03  0.46999998093E+01 0. -1.
       -5    1    3    3    0  502  0.46362413244E+03 -0.35777300554E+03  0.47553770145E+03  0.75439184458E+03  0.46999998093E+01 0.  1.
</event>
<event>
 5   0  0.9726935E-05  0.1608682E+04  0.7818609E-02  0.8815232E-01
        1   -1    0    0  501    0  0.00000000000E+00  0.00000000000E+00  0.18487555718E+04  0.18487555718E+04  0.50400001928E-02 0. -1.
       -1   -1    0    0    0  501  0.00000000000E+00  0.00000000000E+00 -0.34994611153E+03  0.34994611157E+03  0.50400001928E-02 0.  1.
    10030    2    1    2    0    0  0.00000000000E+00  0.00000000000E+00  0.14988094603E+04  0.21987016834E+04  0.16086824716E+04 0.  0.
        2    1    3    3  502    0 -0.12794908978E+03 -0.34087847056E+03  0.17296723412E+04  0.17675789966E+04  0.25500000920E-02 0. -1.
       -2    1    3    3    0  502  0.12794908978E+03  0.34087847056E+03 -0.23086288093E+03  0.43112268679E+03  0.25500000920E-02 0.  1.
</event>
<event>
 5   0  0.9939872E-05  0.1604012E+04  0.7818609E-02  0.8818087E-01
        1   -1    0    0  501    0  0.00000000000E+00  0.00000000000E+00  0.58139117601E+03  0.58139117603E+03  0.50400001928E-02 0. -1.
       -1   -1    0    0    0  501  0.00000000000E+00  0.00000000000E+00 -0.11063355049E+04  0.11063355049E+04  0.50400001928E-02 0.  1.
    10030    2    1    2    0    0  0.00000000000E+00  0.00000000000E+00 -0.52494432890E+03  0.16877266810E+04  0.16040120951E+04 0.  0.
        3    1    3    3  502    0  0.28168697986E+03 -0.73335134471E+03 -0.43233479811E+03  0.89669679227E+03  0.10100000352E+00 0.  1.
       -3    1    3    3    0  502 -0.28168697986E+03  0.73335134471E+03 -0.92609530788E+02  0.79102988869E+03  0.10100000352E+00 0. -1.
</event>
<event>
 5   0  0.9616567E-05  0.1593767E+04  0.7818609E-02  0.8824386E-01
       -1   -1    0    0    0  501  0.00000000000E+00  0.00000000000E+00  0.37532688268E+03  0.37532688271E+03  0.50400001928E-02 0.  1.
        1   -1    0    0  501    0  0.00000000000E+00  0.00000000000E+00 -0.16919204203E+04  0.16919204203E+04  0.50400001928E-02 0. -1.
    10030    2    1    2    0    0  0.00000000000E+00  0.00000000000E+00 -0.13165935377E+04  0.20672473031E+04  0.15937668803E+04 0.  0.
        5    1    3    3  502    0 -0.72296075662E+03 -0.18572148973E+03 -0.10201721233E+04  0.12640957157E+04  0.46999998093E+01 0. -1.
       -5    1    3    3    0  502  0.72296075662E+03  0.18572148973E+03 -0.29642141436E+03  0.80315158734E+03  0.46999998093E+01 0.  1.
</event>
<event>
 5   0  0.1774934E-04  0.1600863E+04  0.7818609E-02  0.8820018E-01
        2   -1    0    0  501    0  0.00000000000E+00  0.00000000000E+00  0.26996765720E+04  0.26996765720E+04  0.25500000920E-02 0. -1.
       -2   -1    0    0    0  501  0.00000000000E+00  0.00000000000E+00 -0.23732128970E+03  0.23732128971E+03  0.25500000920E-02 0.  1.
    10030    2    1    2    0    0  0.00000000000E+00  0.00000000000E+00  0.24623552823E+04  0.29369978617E+04  0.16008631745E+04 0.  0.
        1    1    3    3  502    0 -0.79249464853E+03  0.43965864389E+02  0.14210419591E+04  0.16276796413E+04  0.50400001928E-02 0.  1.
       -1    1    3    3    0  502  0.79249464853E+03 -0.43965864389E+02  0.10413133232E+04  0.13093182204E+04  0.50400001928E-02 0. -1.
</event>
<event>
 5   0  0.9939872E-05  0.1602682E+04  0.7818609E-02  0.8818902E-01
       -1   -1    0    0    0  501  0.00000000000E+00  0.00000000000E+00  0.69588118016E+03  0.69588118018E+03  0.50400001928E-02 0. -1.
        1   -1    0    0  501    0  0.00000000000E+00  0.00000000000E+00 -0.92278267419E+03  0.92278267421E+03  0.50400001928E-02 0.  1.
    10030    2    1    2    0    0  0.00000000000E+00  0.00000000000E+00 -0.22690149403E+03  0.16186638544E+04  0.16026816232E+04 0.  0.
        3    1    3    3  502    0 -0.71131584705E+03  0.34181461141E+03 -0.25390452233E+03  0.82902049402E+03  0.10100000352E+00 0.  1.
       -3    1    3    3    0  502  0.71131584705E+03 -0.34181461141E+03  0.27003028291E+02  0.78964336037E+03  0.10100000352E+00 0. -1.
</event>
<event>
 5   0  0.1832646E-04  0.1609325E+04  0.7818609E-02  0.8814840E-01
        2   -1    0    0  501    0  0.00000000000E+00  0.00000000000E+00  0.86297150822E+03  0.86297150823E+03  0.25500000920E-02 0.  1.
       -2   -1    0    0    0  501  0.00000000000E+00  0.00000000000E+00 -0.75029348150E+03  0.75029348150E+03  0.25500000920E-02 0. -1.
    10030    2    1    2    0    0  0.00000000000E+00  0.00000000000E+00  0.11267802673E+03  0.16132649897E+04  0.16093251969E+04 0.  0.
        2    1    3    3  502    0  0.32328331929E+02  0.23347796510E+03 -0.71491097770E+03  0.75276476225E+03  0.25500000920E-02 0. -1.
       -2    1    3    3    0  502 -0.32328331929E+02 -0.23347796510E+03  0.82758900443E+03  0.86050022748E+03  0.25500000920E-02 0.  1.
</event>
<event>
 5   0  0.9432152E-05  0.1598889E+04  0.7818609E-02  0.8821231E-01
        1   -1    0    0  501    0  0.00000000000E+00  0.00000000000E+00  0.10316762318E+04  0.10316762318E+04  0.50400001928E-02 0.  1.
       -1   -1    0    0    0  501  0.00000000000E+00  0.00000000000E+00 -0.61948869874E+03  0.61948869876E+03  0.50400001928E-02 0. -1.
    10030    2    1    2    0    0  0.00000000000E+00  0.00000000000E+00  0.41218753305E+03  0.16511649306E+04  0.15988893225E+04 0.  0.
        4    1    3    3  502    0  0.71932699942E+03 -0.34801224366E+03  0.18151867179E+03  0.81944767675E+03  0.12699999809E+01 0. -1.
       -4    1    3    3    0  502 -0.71932699942E+03  0.34801224366E+03  0.23066886125E+03  0.83171725381E+03  0.12699999809E+01 0.  1.
</event>
<event>
 5   0  0.9616567E-05  0.1577037E+04  0.7818609E-02  0.8834781E-01
        1   -1    0    0  501    0  0.00000000000E+00  0.00000000000E+00  0.17552980424E+04  0.17552980425E+04  0.50400001928E-02 0. -1.
       -1   -1    0    0    0  501  0.00000000000E+00  0.00000000000E+00 -0.35421976842E+03  0.35421976846E+03  0.50400001928E-02 0.  1.
    10030    2    1    2    0    0  0.00000000000E+00  0.00000000000E+00  0.14010782740E+04  0.21095178109E+04  0.15770367988E+04 0.  0.
        5    1    3    3  502    0  0.21798654470E+02 -0.16327684828E+03 -0.33092830829E+03  0.36968925565E+03  0.46999998093E+01 0.  1.
       -5    1    3    3    0  502 -0.21798654470E+02  0.16327684828E+03  0.17320065823E+04  0.17398285553E+04  0.46999998093E+01 0. -1.
</event>
<event>
 5   0  0.1835088E-04  0.1603638E+04  0.7818609E-02  0.8818316E-01
       -2   -1    0    0    0  501  0.00000000000E+00  0.00000000000E+00  0.93376614237E+03  0.93376614238E+03  0.25500000920E-02 0.  1.
        2   -1    0    0  501    0  0.00000000000E+00  0.00000000000E+00 -0.68851670561E+03  0.68851670562E+03  0.25500000920E-02 0. -1.
    10030    2    1    2    0    0  0.00000000000E+00  0.00000000000E+00  0.24524943676E+03  0.16222828480E+04  0.16036378496E+04 0.  0.
        5    1    3    3  502    0 -0.71947138495E+03  0.34086810609E+03  0.21892264546E+03  0.82569931223E+03  0.46999998093E+01 0. -1.
       -5    1    3    3    0  502  0.71947138495E+03 -0.34086810609E+03  0.26326791300E+02  0.79658353577E+03  0.46999998093E+01 0.  1.
</event>
<event>
 5   0  0.9616567E-05  0.1605086E+04  0.7818609E-02  0.8817430E-01
       -1   -1    0    0    0  501  0.00000000000E+00  0.00000000000E+00  0.45272930660E+03  0.45272930663E+03  0.50400001928E-02 0.  1.
        1   -1    0    0  501    0  0.00000000000E+00  0.00000000000E+00 -0.14226497689E+04  0.14226497689E+04  0.50400001928E-02 0. -1.
    10030    2    1    2    0    0  0.00000000000E+00  0.00000000000E+00 -0.96992046230E+03  0.18753790756E+04  0.16050859708E+04 0.  0.
        5    1    3    3  502    0  0.16597013589E+03 -0.32044566260E+03  0.35256319755E+03  0.50453385115E+03  0.46999998093E+01 0.  1.
       -5    1    3    3    0  502 -0.16597013589E+03  0.32044566260E+03 -0.13224836599E+04  0.13708452244E+04  0.46999998093E+01 0. -1.
</event>
<event>
 5   0  0.9726935E-05  0.1611546E+04  0.7818609E-02  0.8813486E-01
       -1   -1    0    0    0  501  0.00000000000E+00  0.00000000000E+00  0.58318274411E+03  0.58318274414E+03  0.50400001928E-02 0. -1.
        1   -1    0    0  501    0  0.00000000000E+00  0.00000000000E+00 -0.11133221449E+04  0.11133221449E+04  0.50400001928E-02 0.  1.
    10030    2    1    2    0    0  0.00000000000E+00  0.00000000000E+00 -0.53013940076E+03  0.16965048890E+04  0.16115461688E+04 0.  0.
        2    1    3    3  502    0  0.11090896491E+03 -0.47391485727E+03 -0.94108743969E+03  0.10595006652E+04  0.25500000920E-02 0.  1.
       -2    1    3    3    0  502 -0.11090896491E+03  0.47391485727E+03  0.41094803893E+03  0.63700422381E+03  0.25500000920E-02 0. -1.
</event>
<event>
 5   0  0.1774934E-04  0.1584931E+04  0.7818609E-02  0.8829859E-01
       -2   -1    0    0    0  501  0.00000000000E+00  0.00000000000E+00  0.22383752753E+03  0.22383752754E+03  0.25500000920E-02 0. -1.
        2   -1    0    0  501    0  0.00000000000E+00  0.00000000000E+00 -0.28056126910E+04  0.28056126910E+04  0.25500000920E-02 0.  1.
    10030    2    1    2    0    0  0.00000000000E+00  0.00000000000E+00 -0.25817751634E+04  0.30294502185E+04  0.15849307972E+04 0.  0.
        1    1    3    3  502    0  0.53771964707E+03 -0.36246691207E+03 -0.21615267672E+04  0.22567061498E+04  0.50400001928E-02 0.  1.
       -1    1    3    3    0  502 -0.53771964707E+03  0.36246691207E+03 -0.42024839628E+03  0.77274406875E+03  0.50400001928E-02 0. -1.
</event>
<event>
 5   0  0.9432152E-05  0.1601055E+04  0.7818609E-02  0.8819900E-01
        1   -1    0    0  501    0  0.00000000000E+00  0.00000000000E+00  0.12706929080E+04  0.12706929080E+04  0.50400001928E-02 0.  1.
       -1   -1    0    0    0  501  0.00000000000E+00  0.00000000000E+00 -0.50432644455E+03  0.50432644457E+03  0.50400001928E-02 0. -1.
    10030    2    1    2    0    0  0.00000000000E+00  0.00000000000E+00  0.76636646348E+03  0.17750193526E+04  0.16010546979E+04 0.  0.
        4    1    3    3  502    0  0.43429322811E+03  0.66444364650E+03  0.26825424982E+03  0.83788896806E+03  0.12699999809E+01 0. -1.
       -4    1    3    3    0  502 -0.43429322811E+03 -0.66444364650E+03  0.49811221365E+03  0.93713038455E+03  0.12699999809E+01 0.  1.
</event>
<event>
 5   0  0.1774934E-04  0.1593375E+04  0.7818609E-02  0.8824628E-01
        2   -1    0    0  501    0  0.00000000000E+00  0.00000000000E+00  0.46542813123E+03  0.46542813123E+03  0.25500000920E-02 0.  1.
       -2   -1    0    0    0  501  0.00000000000E+00  0.00000000000E+00 -0.13637138689E+04  0.13637138689E+04  0.25500000920E-02 0. -1.
    10030    2    1    2    0    0  0.00000000000E+00  0.00000000000E+00 -0.89828573768E+03  0.18291420001E+04  0.15933747802E+04 0.  0.
        1    1    3    3  502    0  0.52409375127E+03 -0.58539666338E+03 -0.29794515446E+03  0.84031829012E+03  0.50400001928E-02 0.  1.
       -1    1    3    3    0  502 -0.52409375127E+03  0.58539666338E+03 -0.60034058322E+03  0.98882371002E+03  0.50400001928E-02 0. -1.
</event>
<event>
 5   0  0.1774934E-04  0.1599291E+04  0.7818609E-02  0.8820984E-01
        2   -1    0    0  501    0  0.00000000000E+00  0.00000000000E+00  0.12665973614E+04  0.12665973614E+04  0.25500000920E-02 0. -1.
       -2   -1    0    0    0  501  0.00000000000E+00  0.00000000000E+00 -0.50484303880E+03  0.50484303881E+03  0.25500000920E-02 0.  1.
    10030    2    1    2    0    0  0.00000000000E+00  0.00000000000E+00  0.76175432265E+03  0.17714404003E+04  0.15992909190E+04 0.  0.
        1    1    3    3  502    0 -0.25470929871E+03  0.71691438209E+03  0.10823134163E+03  0.76847711836E+03  0.50400001928E-02 0.  1.
       -1    1    3    3    0  502  0.25470929871E+03 -0.71691438209E+03  0.65352298101E+03  0.10029632819E+04  0.50400001928E-02 0. -1.
</event>
<event>
 5   0  0.9432152E-05  0.1599867E+04  0.7818609E-02  0.8820630E-01
        1   -1    0    0  501    0  0.00000000000E+00  0.00000000000E+00  0.68990742697E+03  0.68990742698E+03  0.50400001928E-02 0. -1.
       -1   -1    0    0    0  501  0.00000000000E+00  0.00000000000E+00 -0.92750649487E+03  0.92750649488E+03  0.50400001928E-02 0.  1.
    10030    2    1    2    0    0  0.00000000000E+00  0.00000000000E+00 -0.23759906790E+03  0.16174139219E+04  0.15998670187E+04 0.  0.
        4    1    3    3  502    0 -0.35365802569E+03 -0.38603648891E+03  0.49264277034E+03  0.71888572247E+03  0.12699999809E+01 0. -1.
       -4    1    3    3    0  502  0.35365802569E+03  0.38603648891E+03 -0.73024183824E+03  0.89852819940E+03  0.12699999809E+01 0.  1.
</event>
<event>
 5   0  0.9939872E-05  0.1603751E+04  0.7818609E-02  0.8818247E-01
       -1   -1    0    0    0  501  0.00000000000E+00  0.00000000000E+00  0.68132530438E+03  0.68132530440E+03  0.50400001928E-02 0. -1.
        1   -1    0    0  501    0  0.00000000000E+00  0.00000000000E+00 -0.94375549129E+03  0.94375549130E+03  0.50400001928E-02 0.  1.
    10030    2    1    2    0    0  0.00000000000E+00  0.00000000000E+00 -0.26243018691E+03  0.16250807957E+04  0.16037512243E+04 0.  0.
        3    1    3    3  502    0 -0.73056179410E+03  0.17007959592E+03  0.15602793638E+03  0.76615424757E+03  0.10100000352E+00 0. -1.
       -3    1    3    3    0  502  0.73056179410E+03 -0.17007959592E+03 -0.41845812329E+03  0.85892654813E+03  0.10100000352E+00 0.  1.
</event>
<event>
 5   0  0.1858913E-04  0.1564729E+04  0.7818609E-02  0.8842514E-01
       -2   -1    0    0    0  501  0.00000000000E+00  0.00000000000E+00  0.57453105005E+03  0.57453105006E+03  0.25500000920E-02 0.  1.
        2   -1    0    0  501    0  0.00000000000E+00  0.00000000000E+00 -0.10653803987E+04  0.10653803987E+04  0.25500000920E-02 0. -1.
    10030    2    1    2    0    0  0.00000000000E+00  0.00000000000E+00 -0.49084934860E+03  0.16399114487E+04  0.15647288828E+04 0.  0.
        4    1    3    3  502    0  0.50542563705E+03 -0.42677611349E+03  0.19237808302E+03  0.68891499139E+03  0.12699999809E+01 0.  1.
       -4    1    3    3    0  502 -0.50542563705E+03  0.42677611349E+03 -0.68322743162E+03  0.95099645733E+03  0.12699999809E+01 0. -1.
</event>
<event>
 5   0  0.9432152E-05  0.1594696E+04  0.7818609E-02  0.8823813E-01
       -1   -1    0    0    0  501  0.00000000000E+00  0.00000000000E+00  0.90612163911E+03  0.90612163912E+03  0.50400001928E-02 0.  1.
        1   -1    0    0  501    0  0.00000000000E+00  0.00000000000E+00 -0.70163188504E+03  0.70163188505E+03  0.50400001928E-02 0. -1.
    10030    2    1    2    0    0  0.00000000000E+00  0.00000000000E+00  0.20448975407E+03  0.16077535242E+04  0.15946960008E+04 0.  0.
        4    1    3    3  502    0  0.30902724211E+03 -0.63976690067E+02  0.84047774006E+03  0.89777240862E+03  0.12699999809E+01 0.  1.
       -4    1    3    3    0  502 -0.30902724211E+03  0.63976690067E+02 -0.63598798599E+03  0.70998111556E+03  0.12699999809E+01 0. -1.
</event>
<event>
 5   0  0.9673017E-05  0.1586448E+04  0.7818609E-02  0.8828917E-01
       -1   -1    0    0    0  501  0.00000000000E+00  0.00000000000E+00  0.51136213715E+03  0.51136213718E+03  0.50400001928E-02 0. -1.
        1   -1    0    0  501    0  0.00000000000E+00  0.00000000000E+00 -0.12304473270E+04  0.12304473270E+04  0.50400001928E-02 0.  1.
    10030    2    1    2    0    0  0.00000000000E+00  0.00000000000E+00 -0.71908518986E+03  0.17418094642E+04  0.15864478243E+04 0.  0.
        1    1    3    3  502    0 -0.54277745201E+03 -0.37189813449E+03  0.12688967707E+03  0.67008699063E+03  0.50400001928E-02 0.  1.
       -1    1    3    3    0  502  0.54277745201E+03  0.37189813449E+03 -0.84597486693E+03  0.10717224736E+04  0.50400001928E-02 0. -1.
</event>
<event>
 5   0  0.9616567E-05  0.1510792E+04  0.7818609E-02  0.8877308E-01
       -1   -1    0    0    0  501  0.00000000000E+00  0.00000000000E+00  0.57248133266E+03  0.57248133268E+03  0.50400001928E-02 0.  1.
        1   -1    0    0  501    0  0.00000000000E+00  0.00000000000E+00 -0.99675394843E+03  0.99675394844E+03  0.50400001928E-02 0. -1.
    10030    2    1    2    0    0  0.00000000000E+00  0.00000000000E+00 -0.42427261577E+03  0.15692352811E+04  0.15107918834E+04 0.  0.
        5    1    3    3  502    0  0.37770099944E+03  0.61075028562E+03  0.31294920693E+02  0.71880137620E+03  0.46999998093E+01 0.  1.
       -5    1    3    3    0  502 -0.37770099944E+03 -0.61075028562E+03 -0.45556753646E+03  0.85043390492E+03  0.46999998093E+01 0. -1.
</event>
<event>
 5   0  0.1858913E-04  0.1593992E+04  0.7818609E-02  0.8824247E-01
       -2   -1    0    0    0  501  0.00000000000E+00  0.00000000000E+00  0.57480000218E+03  0.57480000219E+03  0.25500000920E-02 0.  1.
        2   -1    0    0  501    0  0.00000000000E+00  0.00000000000E+00 -0.11050852237E+04  0.11050852237E+04  0.25500000920E-02 0. -1.
    10030    2    1    2    0    0  0.00000000000E+00  0.00000000000E+00 -0.53028522150E+03  0.16798852259E+04  0.15939924579E+04 0.  0.
        4    1    3    3  502    0  0.37244540855E+03 -0.68556413884E+03 -0.43666258247E+03  0.89408589891E+03  0.12699999809E+01 0.  1.
       -4    1    3    3    0  502 -0.37244540855E+03  0.68556413884E+03 -0.93622639037E+02  0.78579932696E+03  0.12699999809E+01 0. -1.
</event>
<event>
 5   0  0.1832646E-04  0.1604233E+04  0.7818609E-02  0.8817952E-01
        2   -1    0    0  501    0  0.00000000000E+00  0.00000000000E+00  0.83749891833E+03  0.83749891834E+03  0.25500000920E-02 0. -1.
       -2   -1    0    0    0  501  0.00000000000E+00  0.00000000000E+00 -0.76822884849E+03  0.76822884850E+03  0.25500000920E-02 0.  1.
    10030    2    1    2    0    0  0.00000000000E+00  0.00000000000E+00  0.69270069843E+02  0.16057277668E+04  0.16042329378E+04 0.  0.
        2    1    3    3  502    0  0.27438762287E+03 -0.58454932328E+03  0.51089806708E+03  0.82340956630E+03  0.25500000920E-02 0. -1.
       -2    1    3    3    0  502 -0.27438762287E+03  0.58454932328E+03 -0.44162799723E+03  0.78231820053E+03  0.25500000920E-02 0.  1.
</event>
<event>
 5   0  0.9616567E-05  0.1615329E+04  0.7818609E-02  0.8811186E-01
        1   -1    0    0  501    0  0.00000000000E+00  0.00000000000E+00  0.12426418640E+04  0.12426418640E+04  0.50400001928E-02 0. -1.
       -1   -1    0    0    0  501  0.00000000000E+00  0.00000000000E+00 -0.52494754892E+03  0.52494754894E+03  0.50400001928E-02 0.  1.
    10030    2    1    2    0    0  0.00000000000E+00  0.00000000000E+00  0.71769431505E+03  0.17675894129E+04  0.16153288219E+04 0.  0.
        5    1    3    3  502    0 -0.25587423954E+03 -0.24187509614E+02  0.11966837082E+04  0.12239814744E+04  0.46999998093E+01 0. -1.
       -5    1    3    3    0  502  0.25587423954E+03  0.24187509614E+02 -0.47898939318E+03  0.54360793855E+03  0.46999998093E+01 0.  1.
</event>
<event>
 5   0  0.9673017E-05  0.1612570E+04  0.7818609E-02  0.8812862E-01
        1   -1    0    0  501    0  0.00000000000E+00  0.00000000000E+00  0.22159988180E+04  0.22159988180E+04  0.50400001928E-02 0. -1.
       -1   -1    0    0    0  501  0.00000000000E+00  0.00000000000E+00 -0.29336472453E+03  0.29336472457E+03  0.50400001928E-02 0.  1.
    10030    2    1    2    0    0  0.00000000000E+00  0.00000000000E+00  0.19226340934E+04  0.25093635425E+04  0.16125704733E+04 0.  0.
        1    1    3    3  502    0 -0.37210124751E+03 -0.35113307501E+03 -0.84158361843E+01  0.51168799193E+03  0.50400001928E-02 0.  1.
       -1    1    3    3    0  502  0.37210124751E+03  0.35113307501E+03  0.19310499296E+04  0.19976755506E+04  0.50400001928E-02 0. -1.
</event>
<event>
 5   0  0.1914170E-04  0.1595573E+04  0.7818609E-02  0.8823273E-01
        2   -1    0    0  501    0  0.00000000000E+00  0.00000000000E+00  0.11113519820E+04  0.11113519820E+04  0.25500000920E-02 0.  1.
       -2   -1    0    0    0  501  0.00000000000E+00  0.00000000000E+00 -0.57269250389E+03  0.57269250389E+03  0.25500000920E-02 0. -1.
    10030    2    1    2    0    0  0.00000000000E+00  0.00000000000E+00  0.53865947815E+03  0.16840444859E+04  0.15955725609E+04 0.  0.
        3    1    3    3  502    0 -0.30239251541E+03 -0.28613996373E+03 -0.44895358599E+03  0.61227170830E+03  0.10100000352E+00 0. -1.
       -3    1    3    3    0  502  0.30239251541E+03  0.28613996373E+03  0.98761306413E+03  0.10717727776E+04  0.10100000352E+00 0.  1.
</event>
<event>
 5   0  0.1858913E-04  0.1628961E+04  0.7818609E-02  0.8802951E-01
        2   -1    0    0  501    0  0.00000000000E+00  0.00000000000E+00  0.16976072407E+04  0.16976072407E+04  0.25500000920E-02 0. -1.
       -2   -1    0    0    0  501  0.00000000000E+00  0.00000000000E+00 -0.39077252549E+03  0.39077252550E+03  0.25500000920E-02 0.  1.
    10030    2    1    2    0    0  0.00000000000E+00  0.00000000000E+00  0.13068347152E+04  0.20883797662E+04  0.16289607346E+04 0.  0.
        4    1    3    3  502    0  0.38057612500E+03  0.56256797256E+03  0.12296985718E+04  0.14048064283E+04  0.12699999809E+01 0.  1.
       -4    1    3    3    0  502 -0.38057612500E+03 -0.56256797256E+03  0.77136143364E+02  0.68357333783E+03  0.12699999809E+01 0. -1.
</event>
<event>
 5   0  0.1858913E-04  0.1596781E+04  0.7818609E-02  0.8822528E-01
       -2   -1    0    0    0  501  0.00000000000E+00  0.00000000000E+00  0.68437321354E+03  0.68437321355E+03  0.25500000920E-02 0.  1.
        2   -1    0    0  501    0  0.00000000000E+00  0.00000000000E+00 -0.93140334453E+03  0.93140334453E+03  0.25500000920E-02 0. -1.
    10030    2    1    2    0    0  0.00000000000E+00  0.00000000000E+00 -0.24703013098E+03  0.16157765581E+04  0.15967811372E+04 0.  0.
        4    1    3    3  502    0 -0.51173785070E+03 -0.61021166129E+03 -0.18068484456E+03  0.81662875614E+03  0.12699999809E+01 0.  1.
       -4    1    3    3    0  502  0.51173785070E+03  0.61021166129E+03 -0.66345286424E+02  0.79914780194E+03  0.12699999809E+01 0. -1.
</event>
<event>
 5   0  0.9939872E-05  0.1611693E+04  0.7818609E-02  0.8813396E-01
       -1   -1    0    0    0  501  0.00000000000E+00  0.00000000000E+00  0.60043974183E+03  0.60043974185E+03  0.50400001928E-02 0. -1.
        1   -1    0    0  501    0  0.00000000000E+00  0.00000000000E+00 -0.10815219233E+04  0.10815219233E+04  0.50400001928E-02 0.  1.
    10030    2    1    2    0    0  0.00000000000E+00  0.00000000000E+00 -0.48108218149E+03  0.16819616652E+04  0.16116932021E+04 0.  0.
        3    1    3    3  502    0 -0.15770635133E+03  0.81941325761E+02  0.57973253270E+03  0.60636251021E+03  0.10100000352E+00 0. -1.
       -3    1    3    3    0  502  0.15770635133E+03 -0.81941325761E+02 -0.10608147142E+04  0.10755991550E+04  0.10100000352E+00 0.  1.
</event>
<event>
 5   0  0.9939872E-05  0.1598676E+04  0.7818609E-02  0.8821362E-01
       -1   -1    0    0    0  501  0.00000000000E+00  0.00000000000E+00  0.17132578107E+04  0.17132578107E+04  0.50400001928E-02 0. -1.
        1   -1    0    0  501    0  0.00000000000E+00  0.00000000000E+00 -0.37293913275E+03  0.37293913278E+03  0.50400001928E-02 0.  1.
    10030    2    1    2    0    0  0.00000000000E+00  0.00000000000E+00  0.13403186779E+04  0.20861969435E+04  0.15986755545E+04 0.  0.
        3    1    3    3  502    0  0.51979784200E+03 -0.50418760176E+03  0.11118160321E+04  0.13268495897E+04  0.10100000352E+00 0. -1.
       -3    1    3    3    0  502 -0.51979784200E+03  0.50418760176E+03  0.22850264588E+03  0.75934735378E+03  0.10100000352E+00 0.  1.
</event>
<event>
 5   0  0.9673017E-05  0.1600432E+04  0.7818609E-02  0.8820282E-01
       -1   -1    0    0    0  501  0.00000000000E+00  0.00000000000E+00  0.10745376578E+04  0.10745376579E+04  0.50400001928E-02 0. -1.
        1   -1    0    0  501    0  0.00000000000E+00  0.00000000000E+00 -0.59592687467E+03  0.59592687470E+03  0.50400001928E-02 0.  1.
    10030    2    1    2    0    0  0.00000000000E+00  0.00000000000E+00  0.47861078317E+03  0.16704645326E+04  0.16004322768E+04 0.  0.
        1    1    3    3  502    0 -0.34809003810E+03 -0.79059733094E+02  0.98683513879E+03  0.10494096946E+04  0.50400001928E-02 0. -1.
       -1    1    3    3    0  502  0.34809003810E+03  0.79059733094E+02 -0.50822435562E+03  0.62105483791E+03  0.50400001928E-02 0.  1.
</event>
<event>
 5   0  0.9726935E-05  0.1603608E+04  0.7818609E-02  0.8818335E-01
        1   -1    0    0  501    0  0.00000000000E+00  0.00000000000E+00  0.12084477208E+04  0.12084477208E+04  0.50400001928E-02 0.  1.
       -1   -1    0    0    0  501  0.00000000000E+00  0.00000000000E+00 -0.53199627052E+03  0.53199627055E+03  0.50400001928E-02 0. -1.
    10030    2    1    2    0    0  0.00000000000E+00  0.00000000000E+00  0.67645145028E+03  0.17404439914E+04  0.16036080327E+04 0.  0.
        2    1    3    3  502    0  0.39592039761E+03  0.53169311615E+03  0.82775548042E+03  0.10604855805E+04  0.25500000920E-02 0.  1.
       -2    1    3    3    0  502 -0.39592039761E+03 -0.53169311615E+03 -0.15130403014E+03  0.67995841089E+03  0.25500000920E-02 0. -1.
</event>
<event>
 5   0  0.1914170E-04  0.1613661E+04  0.7818609E-02  0.8812199E-01
        2   -1    0    0  501    0  0.00000000000E+00  0.00000000000E+00  0.15676338261E+04  0.15676338261E+04  0.25500000920E-02 0. -1.
       -2   -1    0    0    0  501  0.00000000000E+00  0.00000000000E+00 -0.41525972825E+03  0.41525972826E+03  0.25500000920E-02 0.  1.
    10030    2    1    2    0    0  0.00000000000E+00  0.00000000000E+00  0.11523740978E+04  0.19828935543E+04  0.16136606789E+04 0.  0.
        3    1    3    3  502    0  0.48107640459E+03 -0.34371273367E+03 -0.98434826589E+02  0.59938499783E+03  0.10100000352E+00 0.  1.
       -3    1    3    3    0  502 -0.48107640459E+03  0.34371273367E+03  0.12508089244E+04  0.13835085565E+04  0.10100000352E+00 0. -1.
</event>
<event>
 5   0  0.1914170E-04  0.1593597E+04  0.7818609E-02  0.8824492E-01
       -2   -1    0    0    0  501  0.00000000000E+00  0.00000000000E+00  0.32616833470E+03  0.32616833471E+03  0.25500000920E-02 0. -1.
        2   -1    0    0  501    0  0.00000000000E+00  0.00000000000E+00 -0.19465024362E+04  0.19465024362E+04  0.25500000920E-02 0.  1.
    10030    2    1    2    0    0  0.00000000000E+00  0.00000000000E+00 -0.16203341015E+04  0.22726707709E+04  0.15935965087E+04 0.  0.
        3    1    3    3  502    0  0.74615428988E+03  0.21975061467E+03 -0.10565648395E+04  0.13120083182E+04  0.10100000352E+00 0.  1.
       -3    1    3    3    0  502 -0.74615428988E+03 -0.21975061467E+03 -0.56376926204E+03  0.96066245267E+03  0.10100000352E+00 0. -1.
</event>
<event>
 5   0  0.9939872E-05  0.1601237E+04  0.7818609E-02  0.8819788E-01
       -1   -1    0    0    0  501  0.00000000000E+00  0.00000000000E+00  0.80323379477E+03  0.80323379479E+03  0.50400001928E-02 0.  1.
        1   -1    0    0  501    0  0.00000000000E+00  0.00000000000E+00 -0.79801172301E+03  0.79801172303E+03  0.50400001928E-02 0. -1.
    10030    2    1    2    0    0  0.00000000000E+00  0.00000000000E+00  0.52220717619E+01  0.16012455178E+04  0.16012370025E+04 0.  0.
        3    1    3    3  502    0  0.30408991181E+02 -0.78511590176E+03  0.15642436449E+03  0.80112438357E+03  0.10100000352E+00 0. -1.
       -3    1    3    3    0  502 -0.30408991181E+02  0.78511590176E+03 -0.15120229273E+03  0.80012113425E+03  0.10100000352E+00 0.  1.
</event>
<event>
 5   0  0.1832646E-04  0.1598549E+04  0.7818609E-02  0.8821440E-01
       -2   -1    0    0    0  501  0.00000000000E+00  0.00000000000E+00  0.37202637394E+03  0.37202637395E+03  0.25500000920E-02 0.  1.
        2   -1    0    0  501    0  0.00000000000E+00  0.00000000000E+00 -0.17171884315E+04  0.17171884316E+04  0.25500000920E-02 0. -1.
    10030    2    1    2    0    0  0.00000000000E+00  0.00000000000E+00 -0.13451620576E+04  0.20892148055E+04  0.15985485737E+04 0.  0.
        2    1    3    3  502    0  0.46285931419E+03  0.21813088544E+03  0.12990817302E+03  0.52791662348E+03  0.25500000920E-02 0.  1.
       -2    1    3    3    0  502 -0.46285931419E+03 -0.21813088544E+03 -0.14750702306E+04  0.15612981820E+04  0.25500000920E-02 0. -1.
</event>
<event>
 5   0  0.1774934E-04  0.1591890E+04  0.7818609E-02  0.8825546E-01
        2   -1    0    0  501    0  0.00000000000E+00  0.00000000000E+00  0.11693224089E+04  0.11693224089E+04  0.25500000920E-02 0. -1.
       -2   -1    0    0    0  501  0.00000000000E+00  0.00000000000E+00 -0.54179133161E+03  0.54179133162E+03  0.25500000920E-02 0.  1.
    10030    2    1    2    0    0  0.00000000000E+00  0.00000000000E+00  0.62753107724E+03  0.17111137405E+04  0.15918903794E+04 0.  0.
        1    1    3    3  502    0  0.63011084223E+02 -0.79343738893E+03  0.30953940295E+03  0.85400698410E+03  0.50400001928E-02 0.  1.
       -1    1    3    3    0  502 -0.63011084223E+02  0.79343738893E+03  0.31799167429E+03  0.85710675638E+03  0.50400001928E-02 0. -1.
</event>
<event>
 5   0  0.1858913E-04  0.1596929E+04  0.7818609E-02  0.8822437E-01
       -2   -1    0    0    0  501  0.00000000000E+00  0.00000000000E+00  0.93815490453E+03  0.93815490454E+03  0.25500000920E-02 0. -1.
        2   -1    0    0  501    0  0.00000000000E+00  0.00000000000E+00 -0.67957396272E+03  0.67957396272E+03  0.25500000920E-02 0.  1.
    10030    2    1    2    0    0  0.00000000000E+00  0.00000000000E+00  0.25858094181E+03  0.16177288673E+04  0.15969291107E+04 0.  0.
        4    1    3    3  502    0 -0.61969237443E+03  0.49562465843E+03  0.39355814632E+02  0.79448910251E+03  0.12699999809E+01 0.  1.
       -4    1    3    3    0  502  0.61969237443E+03 -0.49562465843E+03  0.21922512718E+03  0.82323976474E+03  0.12699999809E+01 0. -1.
</event>
<event>
 5   0  0.9616567E-05  0.1608736E+04  0.7818609E-02  0.8815199E-01
       -1   -1    0    0    0  501  0.00000000000E+00  0.00000000000E+00  0.49079572364E+03  0.49079572367E+03  0.50400001928E-02 0. -1.
        1   -1    0    0  501    0  0.00000000000E+00  0.00000000000E+00 -0.13182840261E+04  0.13182840261E+04  0.50400001928E-02 0.  1.
    10030    2    1    2    0    0  0.00000000000E+00  0.00000000000E+00 -0.82748830242E+03  0.18090797497E+04  0.16087363520E+04 0.  0.
        5    1    3    3  502    0 -0.51542310727E+03 -0.10975483632E+03 -0.10971050481E+04  0.12171149001E+04  0.46999998093E+01 0.  1.
       -5    1    3    3    0  502  0.51542310727E+03  0.10975483632E+03  0.26961674567E+03  0.59196484959E+03  0.46999998093E+01 0. -1.
</event>
<event>
 5   0  0.1774934E-04  0.1593503E+04  0.7818609E-02  0.8824549E-01
        2   -1    0    0  501    0  0.00000000000E+00  0.00000000000E+00  0.14597497373E+04  0.14597497373E+04  0.25500000920E-02 0. -1.
       -2   -1    0    0    0  501  0.00000000000E+00  0.00000000000E+00 -0.43487797103E+03  0.43487797104E+03  0.25500000920E-02 0.  1.
    10030    2    1    2    0    0  0.00000000000E+00  0.00000000000E+00  0.10248717663E+04  0.18946277084E+04  0.15935030643E+04 0.  0.
        1    1    3    3  502    0 -0.93870157358E+02 -0.35790474189E+03  0.13514021208E+04  0.14011406435E+04  0.50400001928E-02 0. -1.
       -1    1    3    3    0  502  0.93870157358E+02  0.35790474189E+03 -0.32653035454E+03  0.49348706485E+03  0.50400001928E-02 0.  1.
</event>
<event>
 5   0  0.1914170E-04  0.1599437E+04  0.7818609E-02  0.8820894E-01
        2   -1    0    0  501    0  0.00000000000E+00  0.00000000000E+00  0.13919650071E+04  0.13919650071E+04  0.25500000920E-02 0.  1.
       -2   -1    0    0    0  501  0.00000000000E+00  0.00000000000E+00 -0.45945813442E+03  0.45945813443E+03  0.25500000920E-02 0. -1.
    10030    2    1    2    0    0  0.00000000000E+00  0.00000000000E+00  0.93250687263E+03  0.18514231415E+04  0.15994369576E+04 0.  0.
        3    1    3    3  502    0 -0.28010529934E+03 -0.10288931558E+03  0.13251067112E+04  0.13582904683E+04  0.10100000352E+00 0.  1.
       -3    1    3    3    0  502  0.28010529934E+03  0.10288931558E+03 -0.39259983854E+03  0.49313267322E+03  0.10100000352E+00 0. -1.
</event>
<event>
 5   0  0.9432152E-05  0.1603725E+04  0.7818609E-02  0.8818263E-01
       -1   -1    0    0    0  501  0.00000000000E+00  0.00000000000E+00  0.77836522657E+03  0.77836522659E+03  0.50400001928E-02 0. -1.
        1   -1    0    0  501    0  0.00000000000E+00  0.00000000000E+00 -0.82606915481E+03  0.82606915483E+03  0.50400001928E-02 0.  1.
    10030    2    1    2    0    0  0.00000000000E+00  0.00000000000E+00 -0.47703928240E+02  0.16044343814E+04  0.16037250449E+04 0.  0.
        4    1    3    3  502    0 -0.40984885249E+03  0.48121152710E+03 -0.51746788240E+03  0.81689365153E+03  0.12699999809E+01 0.  1.
       -4    1    3    3    0  502  0.40984885249E+03 -0.48121152710E+03  0.46976395416E+03  0.78754072988E+03  0.12699999809E+01 0. -1.
</event>
<event>
 5   0  0.1835088E-04  0.1569465E+04  0.7818609E-02  0.8839530E-01
        2   -1    0    0  501    0  0.00000000000E+00  0.00000000000E+00  0.12739908362E+04  0.12739908362E+04  0.25500000920E-02 0. -1.
       -2   -1    0    0    0  501  0.00000000000E+00  0.00000000000E+00 -0.48336670843E+03  0.48336670844E+03  0.25500000920E-02 0.  1.
    10030    2    1    2    0    0  0.00000000000E+00  0.00000000000E+00  0.79062412777E+03  0.17573575446E+04  0.15694645674E+04 0.  0.
        5    1    3    3  502    0 -0.62424458438E+03  0.27447619186E+03  0.83008020110E+03  0.10742782281E+04  0.46999998093E+01 0. -1.
       -5    1    3    3    0  502  0.62424458438E+03 -0.27447619186E+03 -0.39456073326E+02  0.68307931659E+03  0.46999998093E+01 0.  1.
</event>
<event>
 5   0  0.1832646E-04  0.1599980E+04  0.7818609E-02  0.8820560E-01
       -2   -1    0    0    0  501  0.00000000000E+00  0.00000000000E+00  0.56193628332E+03  0.56193628333E+03  0.25500000920E-02 0. -1.
        2   -1    0    0  501    0  0.00000000000E+00  0.00000000000E+00 -0.11388906134E+04  0.11388906134E+04  0.25500000920E-02 0.  1.
    10030    2    1    2    0    0  0.00000000000E+00  0.00000000000E+00 -0.57695433003E+03  0.17008268967E+04  0.15999799479E+04 0.  0.
        2    1    3    3  502    0 -0.79741943565E+03 -0.63732173652E+02 -0.28139287948E+03  0.84801031771E+03  0.25500000920E-02 0. -1.
       -2    1    3    3    0  502  0.79741943565E+03  0.63732173652E+02 -0.29556145056E+03  0.85281657898E+03  0.25500000920E-02 0.  1.
</event>
<event>
 5   0  0.1832646E-04  0.1601197E+04  0.7818609E-02  0.8819813E-01
        2   -1    0    0  501    0  0.00000000000E+00  0.00000000000E+00  0.20515188022E+04  0.20515188022E+04  0.25500000920E-02 0. -1.
       -2   -1    0    0    0  501  0.00000000000E+00  0.00000000000E+00 -0.31243086800E+03  0.31243086801E+03  0.25500000920E-02 0.  1.
    10030    2    1    2    0    0  0.00000000000E+00  0.00000000000E+00  0.17390879342E+04  0.23639496702E+04  0.16011968025E+04 0.  0.
        2    1    3    3  502    0 -0.24041099816E+03 -0.72827706065E+03  0.53038844779E+03  0.93246813922E+03  0.25500000920E-02 0.  1.
       -2    1    3    3    0  502  0.24041099816E+03  0.72827706065E+03  0.12086994864E+04  0.14314815310E+04  0.25500000920E-02 0. -1.
</event>
<event>
 5   0  0.9939872E-05  0.1597266E+04  0.7818609E-02  0.8822229E-01
       -1   -1    0    0    0  501  0.00000000000E+00  0.00000000000E+00  0.10575558639E+04  0.10575558639E+04  0.50400001928E-02 0. -1.
        1   -1    0    0  501    0  0.00000000000E+00  0.00000000000E+00 -0.60310289331E+03  0.60310289333E+03  0.50400001928E-02 0.  1.
    10030    2    1    2    0    0  0.00000000000E+00  0.00000000000E+00  0.45445297063E+03  0.16606587573E+04  0.15972664166E+04 0.  0.
        3    1    3    3  502    0 -0.50546332360E+03  0.58267604202E+01 -0.41560671374E+03  0.65441276986E+03  0.10100000352E+00 0.  1.
       -3    1    3    3    0  502  0.50546332360E+03 -0.58267604202E+01  0.87005968437E+03  0.10062459874E+04  0.10100000352E+00 0. -1.
</event>
<event>
 5   0  0.9726935E-05  0.1609037E+04  0.7818609E-02  0.8815016E-01
       -1   -1    0    0    0  501  0.00000000000E+00  0.00000000000E+00  0.73370805500E+03  0.73370805501E+03  0.50400001928E-02 0. -1.
        1   -1    0    0  501    0  0.00000000000E+00  0.00000000000E+00 -0.88216241500E+03  0.88216241501E+03  0.50400001928E-02 0.  1.
    10030    2    1    2    0    0  0.00000000000E+00  0.00000000000E+00 -0.14845436000E+03  0.16158704700E+04  0.16090365685E+04 0.  0.
        2    1    3    3  502    0 -0.42801611867E+03  0.60473381226E+03  0.24071103177E+03  0.77900101563E+03  0.25500000920E-02 0. -1.
       -2    1    3    3    0  502  0.42801611867E+03 -0.60473381226E+03 -0.38916539177E+03  0.83686945439E+03  0.25500000920E-02 0.  1.
</event>
<event>
 5   0  0.1774934E-04  0.1593317E+04  0.7818609E-02  0.8824664E-01
       -2   -1    0    0    0  501  0.00000000000E+00  0.00000000000E+00  0.12160669726E+04  0.12160669726E+04  0.25500000920E-02 0.  1.
        2   -1    0    0  501    0  0.00000000000E+00  0.00000000000E+00 -0.52189966706E+03  0.52189966707E+03  0.25500000920E-02 0. -1.
    10030    2    1    2    0    0  0.00000000000E+00  0.00000000000E+00  0.69416730558E+03  0.17379666397E+04  0.15933172291E+04 0.  0.
        1    1    3    3  502    0 -0.16823437821E+03 -0.56610229186E+03 -0.23614509435E+03  0.63603389569E+03  0.50400001928E-02 0. -1.
       -1    1    3    3    0  502  0.16823437821E+03  0.56610229186E+03  0.93031239992E+03  0.11019327440E+04  0.50400001928E-02 0.  1.
</event>
<event>
 5   0  0.6838750E-05  0.1599029E+04  0.7818609E-02  0.8821145E-01
       -4   -1    0    0    0  501  0.00000000000E+00  0.00000000000E+00  0.50201531602E+03  0.50201692244E+03  0.12699999809E+01 0.  1.
        4   -1    0    0  501    0  0.00000000000E+00  0.00000000000E+00 -0.12733103551E+04  0.12733109884E+04  0.12699999809E+01 0. -1.
    10030    2    1    2    0    0  0.00000000000E+00  0.00000000000E+00 -0.77129503905E+03  0.17753279109E+04  0.15990288158E+04 0.  0.
        5    1    3    3  502    0  0.55255418006E+03  0.49191518160E+03 -0.49065624296E+02  0.74143522527E+03  0.46999998093E+01 0.  1.
       -5    1    3    3    0  502 -0.55255418006E+03 -0.49191518160E+03 -0.72222941476E+03  0.10338926856E+04  0.46999998093E+01 0. -1.
</event>
<event>
 5   0  0.9616567E-05  0.1604162E+04  0.7818609E-02  0.8817995E-01
        1   -1    0    0  501    0  0.00000000000E+00  0.00000000000E+00  0.12183100156E+04  0.12183100156E+04  0.50400001928E-02 0. -1.
       -1   -1    0    0    0  501  0.00000000000E+00  0.00000000000E+00 -0.52805410461E+03  0.52805410463E+03  0.50400001928E-02 0.  1.
    10030    2    1    2    0    0  0.00000000000E+00  0.00000000000E+00  0.69025591095E+03  0.17463641202E+04  0.16041615934E+04 0.  0.
        5    1    3    3  502    0 -0.31221904855E+03  0.66243997279E+03  0.70124012819E+03  0.10139365164E+04  0.46999998093E+01 0. -1.
       -5    1    3    3    0  502  0.31221904855E+03 -0.66243997279E+03 -0.10984217249E+02  0.73242760383E+03  0.46999998093E+01 0.  1.
</event>
<event>
 5   0  0.1835088E-04  0.1583008E+04  0.7818609E-02  0.8831056E-01
        2   -1    0    0  501    0  0.00000000000E+00  0.00000000000E+00  0.70095312364E+03  0.70095312365E+03  0.25500000920E-02 0. -1.
       -2   -1    0    0    0  501  0.00000000000E+00  0.00000000000E+00 -0.89375217320E+03  0.89375217320E+03  0.25500000920E-02 0.  1.
    10030    2    1    2    0    0  0.00000000000E+00  0.00000000000E+00 -0.19279904956E+03  0.15947052968E+04  0.15830077417E+04 0.  0.
        5    1    3    3  502    0  0.96357339200E+02  0.55423344751E+03 -0.65728737022E+03  0.86516370024E+03  0.46999998093E+01 0.  1.
       -5    1    3    3    0  502 -0.96357339200E+02 -0.55423344751E+03  0.46448832067E+03  0.72954159661E+03  0.46999998093E+01 0. -1.
</event>
<event>
 5   0  0.9726935E-05  0.1587004E+04  0.7818609E-02  0.8828572E-01
        1   -1    0    0  501    0  0.00000000000E+00  0.00000000000E+00  0.95034202915E+03  0.95034202917E+03  0.50400001928E-02 0.  1.
       -1   -1    0    0    0  501  0.00000000000E+00  0.00000000000E+00 -0.66254622281E+03  0.66254622283E+03  0.50400001928E-02 0. -1.
    10030    2    1    2    0    0  0.00000000000E+00  0.00000000000E+00  0.28779580635E+03  0.16128882520E+04  0.15870041233E+04 0.  0.
        2    1    3    3  502    0  0.48862703099E+03 -0.35217159849E+03 -0.38111680798E+03  0.71276309636E+03  0.25500000920E-02 0. -1.
       -2    1    3    3    0  502 -0.48862703099E+03  0.35217159849E+03  0.66891261433E+03  0.90012515564E+03  0.25500000920E-02 0.  1.
</event>
<event>
 5   0  0.9939872E-05  0.1611782E+04  0.7818609E-02  0.8813343E-01
        1   -1    0    0  501    0  0.00000000000E+00  0.00000000000E+00  0.84481630305E+03  0.84481630307E+03  0.50400001928E-02 0.  1.
       -1   -1    0    0    0  501  0.00000000000E+00  0.00000000000E+00 -0.76875896129E+03  0.76875896130E+03  0.50400001928E-02 0. -1.
    10030    2    1    2    0    0  0.00000000000E+00  0.00000000000E+00  0.76057341764E+02  0.16135752644E+04  0.16117817515E+04 0.  0.
        3    1    3    3  502    0  0.27347421720E+02 -0.18755510766E+03 -0.74612786840E+03  0.76982569851E+03  0.10100000352E+00 0. -1.
       -3    1    3    3    0  502 -0.27347421720E+02  0.18755510766E+03  0.82218521016E+03  0.84374956586E+03  0.10100000352E+00 0.  1.
</event>
<event>
 5   0  0.9616567E-05  0.1599591E+04  0.7818609E-02  0.8820800E-01
        1   -1    0    0  501    0  0.00000000000E+00  0.00000000000E+00  0.14425524073E+04  0.14425524073E+04  0.50400001928E-02 0.  1.
       -1   -1    0    0    0  501  0.00000000000E+00  0.00000000000E+00 -0.44343104337E+03  0.44343104340E+03  0.50400001928E-02 0. -1.
    10030    2    1    2    0    0  0.00000000000E+00  0.00000000000E+00  0.99912136391E+03  0.18859834507E+04  0.15995905965E+04 0.  0.
        5    1    3    3  502    0 -0.25050455621E+03  0.48992658002E+02 -0.39410102814E+03  0.46956418475E+03  0.46999998093E+01 0. -1.
       -5    1    3    3    0  502  0.25050455621E+03 -0.48992658002E+02  0.13932223921E+04  0.14164192659E+04  0.46999998093E+01 0.  1.
</event>
<event>
 5   0  0.1832646E-04  0.1596847E+04  0.7818609E-02  0.8822487E-01
        2   -1    0    0  501    0  0.00000000000E+00  0.00000000000E+00  0.13813616879E+04  0.13813616879E+04  0.25500000920E-02 0.  1.
       -2   -1    0    0    0  501  0.00000000000E+00  0.00000000000E+00 -0.46148700268E+03  0.46148700269E+03  0.25500000920E-02 0. -1.
    10030    2    1    2    0    0  0.00000000000E+00  0.00000000000E+00  0.91987468526E+03  0.18428486906E+04  0.15968474755E+04 0.  0.
        2    1    3    3  502    0 -0.17885870330E+03 -0.12181964559E+03 -0.42699674740E+03  0.47870312731E+03  0.25500000920E-02 0. -1.
       -2    1    3    3    0  502  0.17885870330E+03  0.12181964559E+03  0.13468714327E+04  0.13641455633E+04  0.25500000920E-02 0.  1.
</event>
<event>
 5   0  0.1774934E-04  0.1595599E+04  0.7818609E-02  0.8823256E-01
        2   -1    0    0  501    0  0.00000000000E+00  0.00000000000E+00  0.48080260461E+03  0.48080260462E+03  0.25500000920E-02 0.  1.
       -2   -1    0    0    0  501  0.00000000000E+00  0.00000000000E+00 -0.13237952540E+04  0.13237952540E+04  0.25500000920E-02 0. -1.
    10030    2    1    2    0    0  0.00000000000E+00  0.00000000000E+00 -0.84299264937E+03  0.18045978586E+04  0.15955992054E+04 0.  0.
        1    1    3    3  502    0  0.27526172119E+03  0.64428544122E+03  0.10076814082E+02  0.70069557379E+03  0.50400001928E-02 0.  1.
       -1    1    3    3    0  502 -0.27526172119E+03 -0.64428544122E+03 -0.85306946345E+03  0.11039022848E+04  0.50400001928E-02 0. -1.
</event>
<event>
 5   0  0.9939872E-05  0.1601336E+04  0.7818609E-02  0.8819728E-01
       -1   -1    0    0    0  501  0.00000000000E+00  0.00000000000E+00  0.34349407367E+03  0.34349407370E+03  0.50400001928E-02 0. -1.
        1   -1    0    0  501    0  0.00000000000E+00  0.00000000000E+00 -0.18663177329E+04  0.18663177329E+04  0.50400001928E-02 0.  1.
    10030    2    1    2    0    0  0.00000000000E+00  0.00000000000E+00 -0.15228236592E+04  0.22098118066E+04  0.16013357935E+04 0.  0.
        3    1    3    3  502    0  0.48893280550E+03 -0.67578973790E+02 -0.16313981344E+04  0.17044301361E+04  0.10100000352E+00 0.  1.
       -3    1    3    3    0  502 -0.48893280550E+03  0.67578973790E+02  0.10857447513E+03  0.50538167047E+03  0.10100000352E+00 0. -1.
</event>
<event>
 5   0  0.1774934E-04  0.1611149E+04  0.7818609E-02  0.8813728E-01
        2   -1    0    0  501    0  0.00000000000E+00  0.00000000000E+00  0.35095042179E+03  0.35095042179E+03  0.25500000920E-02 0.  1.
       -2   -1    0    0    0  501  0.00000000000E+00  0.00000000000E+00 -0.18491234840E+04  0.18491234840E+04  0.25500000920E-02 0. -1.
    10030    2    1    2    0    0  0.00000000000E+00  0.00000000000E+00 -0.14981730622E+04  0.22000739058E+04  0.16111494861E+04 0.  0.
        1    1    3    3  502    0 -0.23938999165E+03  0.72739641571E+03 -0.10905717221E+04  0.13325763748E+04  0.50400001928E-02 0. -1.
       -1    1    3    3    0  502  0.23938999165E+03 -0.72739641571E+03 -0.40760134006E+03  0.86749753091E+03  0.50400001928E-02 0.  1.
</event>
<event>
 5   0  0.1774934E-04  0.1612022E+04  0.7818609E-02  0.8813197E-01
        2   -1    0    0  501    0  0.00000000000E+00  0.00000000000E+00  0.11791523367E+04  0.11791523367E+04  0.25500000920E-02 0. -1.
       -2   -1    0    0    0  501  0.00000000000E+00  0.00000000000E+00 -0.55094954584E+03  0.55094954584E+03  0.25500000920E-02 0.  1.
    10030    2    1    2    0    0  0.00000000000E+00  0.00000000000E+00  0.62820279084E+03  0.17301018825E+04  0.16120216430E+04 0.  0.
        1    1    3    3  502    0 -0.14151431003E+03 -0.56614367922E+03  0.91080171346E+03  0.10817137915E+04  0.50400001928E-02 0. -1.
       -1    1    3    3    0  502  0.14151431003E+03  0.56614367922E+03 -0.28259892262E+03  0.64838809101E+03  0.50400001928E-02 0.  1.
</event>
<event>
 5   0  0.1835088E-04  0.1600477E+04  0.7818609E-02  0.8820255E-01
       -2   -1    0    0    0  501  0.00000000000E+00  0.00000000000E+00  0.41319064873E+03  0.41319064874E+03  0.25500000920E-02 0. -1.
        2   -1    0    0  501    0  0.00000000000E+00  0.00000000000E+00 -0.15498464108E+04  0.15498464108E+04  0.25500000920E-02 0.  1.
    10030    2    1    2    0    0  0.00000000000E+00  0.00000000000E+00 -0.11366557620E+04  0.19630370595E+04  0.16004774836E+04 0.  0.
        5    1    3    3  502    0  0.14132563227E+03  0.13665598564E+03  0.38309441465E+03  0.43061724684E+03  0.46999998093E+01 0. -1.
       -5    1    3    3    0  502 -0.14132563227E+03 -0.13665598564E+03 -0.15197501767E+04  0.15324198127E+04  0.46999998093E+01 0.  1.
</event>
<event>
 5   0  0.1914170E-04  0.1597833E+04  0.7818609E-02  0.8821880E-01
       -2   -1    0    0    0  501  0.00000000000E+00  0.00000000000E+00  0.64053245340E+03  0.64053245341E+03  0.25500000920E-02 0.  1.
        2   -1    0    0  501    0  0.00000000000E+00  0.00000000000E+00 -0.99646445869E+03  0.99646445869E+03  0.25500000920E-02 0. -1.
    10030    2    1    2    0    0  0.00000000000E+00  0.00000000000E+00 -0.35593200528E+03  0.16369969121E+04  0.15978333135E+04 0.  0.
        3    1    3    3  502    0  0.51628780656E+03  0.11143353624E+03 -0.79207202240E+03  0.95202344040E+03  0.10100000352E+00 0. -1.
       -3    1    3    3    0  502 -0.51628780656E+03 -0.11143353624E+03  0.43614001712E+03  0.68497347170E+03  0.10100000352E+00 0.  1.
</event>
<event>
 5   0  0.9673017E-05  0.1599474E+04  0.7818609E-02  0.8820871E-01
        1   -1    0    0  501    0  0.00000000000E+00  0.00000000000E+00  0.84955792904E+03  0.84955792905E+03  0.50400001928E-02 0. -1.
       -1   -1    0    0    0  501  0.00000000000E+00  0.00000000000E+00 -0.75283788097E+03  0.75283788098E+03  0.50400001928E-02 0.  1.
    10030    2    1    2    0    0  0.00000000000E+00  0.00000000000E+00  0.96720048071E+02  0.16023958100E+04  0.15994741524E+04 0.  0.
        1    1    3    3  502    0 -0.21336378710E+03  0.75113958683E+03 -0.12471145416E+03  0.79075137141E+03  0.50400001928E-02 0. -1.
       -1    1    3    3    0  502  0.21336378710E+03 -0.75113958683E+03  0.22143150223E+03  0.81164443863E+03  0.50400001928E-02 0.  1.
</event>
<event>
 5   0  0.9673017E-05  0.1598962E+04  0.7818609E-02  0.8821186E-01
        1   -1    0    0  501    0  0.00000000000E+00  0.00000000000E+00  0.12809297267E+04  0.12809297267E+04  0.50400001928E-02 0. -1.
       -1   -1    0    0    0  501  0.00000000000E+00  0.00000000000E+00 -0.49898906409E+03  0.49898906411E+03  0.50400001928E-02 0.  1.
    10030    2    1    2    0    0  0.00000000000E+00  0.00000000000E+00  0.78194066260E+03  0.17799187908E+04  0.15989620702E+04 0.  0.
        1    1    3    3  502    0 -0.73156907051E+03 -0.31297004800E+03  0.47738548542E+03  0.92792265711E+03  0.50400001928E-02 0.  1.
       -1    1    3    3    0  502  0.73156907051E+03  0.31297004800E+03  0.30455517718E+03  0.85199613370E+03  0.50400001928E-02 0. -1.
</event>
<event>
 5   0  0.9673017E-05  0.1617932E+04  0.7818609E-02  0.8809607E-01
       -1   -1    0    0    0  501  0.00000000000E+00  0.00000000000E+00  0.54377348801E+03  0.54377348803E+03  0.50400001928E-02 0. -1.
        1   -1    0    0  501    0  0.00000000000E+00  0.00000000000E+00 -0.12034907213E+04  0.12034907214E+04  0.50400001928E-02 0.  1.
    10030    2    1    2    0    0  0.00000000000E+00  0.00000000000E+00 -0.65971723334E+03  0.17472642094E+04  0.16179324428E+04 0.  0.
        1    1    3    3  502    0  0.21443425547E+03 -0.83568926723E+00  0.51252199152E+03  0.55557316360E+03  0.50400001928E-02 0. -1.
       -1    1    3    3    0  502 -0.21443425547E+03  0.83568926723E+00 -0.11722392249E+04  0.11916910458E+04  0.50400001928E-02 0.  1.
</event>
<event>
 5   0  0.1835088E-04  0.1602514E+04  0.7818609E-02  0.8819005E-01
       -2   -1    0    0    0  501  0.00000000000E+00  0.00000000000E+00  0.10953042710E+04  0.10953042710E+04  0.25500000920E-02 0.  1.
        2   -1    0    0  501    0  0.00000000000E+00  0.00000000000E+00 -0.58614985710E+03  0.58614985711E+03  0.25500000920E-02 0. -1.
    10030    2    1    2    0    0  0.00000000000E+00  0.00000000000E+00  0.50915441394E+03  0.16814541282E+04  0.16025135781E+04 0.  0.
        5    1    3    3  502    0  0.29560387237E+03 -0.12142302304E+03  0.10255267464E+04  0.10741752173E+04  0.46999998093E+01 0.  1.
       -5    1    3    3    0  502 -0.29560387237E+03  0.12142302304E+03 -0.51637233244E+03  0.60727891087E+03  0.46999998093E+01 0. -1.
</event>
<event>
 5   0  0.1774934E-04  0.1599068E+04  0.7818609E-02  0.8821121E-01
       -2   -1    0    0    0  501  0.00000000000E+00  0.00000000000E+00  0.99295620555E+03  0.99295620555E+03  0.25500000920E-02 0.  1.
        2   -1    0    0  501    0  0.00000000000E+00  0.00000000000E+00 -0.64378920845E+03  0.64378920846E+03  0.25500000920E-02 0. -1.
    10030    2    1    2    0    0  0.00000000000E+00  0.00000000000E+00  0.34916699709E+03  0.16367454140E+04  0.15990678405E+04 0.  0.
        1    1    3    3  502    0 -0.35444254485E+03  0.86746197585E+02 -0.55358593072E+03  0.66303227909E+03  0.50400001928E-02 0. -1.
       -1    1    3    3    0  502  0.35444254485E+03 -0.86746197585E+02  0.90275292782E+03  0.97371313491E+03  0.50400001928E-02 0.  1.
</event>
<event>
 5   0  0.9616567E-05  0.1584650E+04  0.7818609E-02  0.8830034E-01
        1   -1    0    0  501    0  0.00000000000E+00  0.00000000000E+00  0.55867865078E+03  0.55867865080E+03  0.50400001928E-02 0.  1.
       -1   -1    0    0    0  501  0.00000000000E+00  0.00000000000E+00 -0.11236846649E+04  0.11236846650E+04  0.50400001928E-02 0. -1.
    10030    2    1    2    0    0  0.00000000000E+00  0.00000000000E+00 -0.56500601417E+03  0.16823633158E+04  0.15846496553E+04 0.  0.
        5    1    3    3  502    0 -0.15000822641E+03  0.12724248715E+03 -0.10973340350E+04  0.11148350519E+04  0.46999998093E+01 0. -1.
       -5    1    3    3    0  502  0.15000822641E+03 -0.12724248715E+03  0.53232802084E+03  0.56752826387E+03  0.46999998093E+01 0.  1.
</event>
<event>
 5   0  0.9939872E-05  0.1594066E+04  0.7818609E-02  0.8824202E-01
       -1   -1    0    0    0  501  0.00000000000E+00  0.00000000000E+00  0.50789802830E+03  0.50789802833E+03  0.50400001928E-02 0. -1.
        1   -1    0    0  501    0  0.00000000000E+00  0.00000000000E+00 -0.12507665171E+04  0.12507665171E+04  0.50400001928E-02 0.  1.
    10030    2    1    2    0    0  0.00000000000E+00  0.00000000000E+00 -0.74286848880E+03  0.17586645454E+04  0.15940663072E+04 0.  0.
        3    1    3    3  502    0  0.18890450237E+03 -0.31289894803E+03  0.40998877367E+03  0.54925537542E+03  0.10100000352E+00 0. -1.
       -3    1    3    3    0  502 -0.18890450237E+03  0.31289894803E+03 -0.11528572625E+04  0.12094091700E+04  0.10100000352E+00 0.  1.
</event>
<event>
 5   0  0.1774934E-04  0.1606681E+04  0.7818609E-02  0.8816454E-01
        2   -1    0    0  501    0  0.00000000000E+00  0.00000000000E+00  0.15031300294E+04  0.15031300294E+04  0.25500000920E-02 0. -1.
       -2   -1    0    0    0  501  0.00000000000E+00  0.00000000000E+00 -0.42934123737E+03  0.42934123738E+03  0.25500000920E-02 0.  1.
    10030    2    1    2    0    0  0.00000000000E+00  0.00000000000E+00  0.10737887921E+04  0.19324712668E+04  0.16066806861E+04 0.  0.
        1    1    3    3  502    0  0.25339171896E+03 -0.61011545010E+03 -0.12849566483E+02  0.66076723365E+03  0.50400001928E-02 0.  1.
       -1    1    3    3    0  502 -0.25339171896E+03  0.61011545010E+03  0.10866383585E+04  0.12717040332E+04  0.50400001928E-02 0. -1.
</event>
<event>
 5   0  0.9673017E-05  0.1598911E+04  0.7818609E-02  0.8821217E-01
        1   -1    0    0  501    0  0.00000000000E+00  0.00000000000E+00  0.12744094981E+04  0.12744094981E+04  0.50400001928E-02 0.  1.
       -1   -1    0    0    0  501  0.00000000000E+00  0.00000000000E+00 -0.50151029865E+03  0.50151029868E+03  0.50400001928E-02 0. -1.
    10030    2    1    2    0    0  0.00000000000E+00  0.00000000000E+00  0.77289919946E+03  0.17759197968E+04  0.15989114898E+04 0.  0.
        1    1    3    3  502    0 -0.62557183665E+03 -0.92021818303E+02 -0.15691288134E+03  0.65148276279E+03  0.50400001928E-02 0.  1.
       -1    1    3    3    0  502  0.62557183665E+03  0.92021818303E+02  0.92981208079E+03  0.11244370340E+04  0.50400001928E-02 0. -1.
</event>
<event>
 5   0  0.9726935E-05  0.1601482E+04  0.7818609E-02  0.8819638E-01
        1   -1    0    0  501    0  0.00000000000E+00  0.00000000000E+00  0.15070293390E+04  0.15070293390E+04  0.50400001928E-02 0. -1.
       -1   -1    0    0    0  501  0.00000000000E+00  0.00000000000E+00 -0.42546355863E+03  0.42546355866E+03  0.50400001928E-02 0.  1.
    10030    2    1    2    0    0  0.00000000000E+00  0.00000000000E+00  0.10815657803E+04  0.19324928976E+04  0.16014818957E+04 0.  0.
        2    1    3    3  502    0 -0.39552250576E+03 -0.34411832679E+03  0.12711352987E+04  0.13750056084E+04  0.25500000920E-02 0. -1.
       -2    1    3    3    0  502  0.39552250576E+03  0.34411832679E+03 -0.18956951837E+03  0.55748728927E+03  0.25500000920E-02 0.  1.
</event>
<event>
 5   0  0.9432152E-05  0.1598977E+04  0.7818609E-02  0.8821177E-01
        1   -1    0    0  501    0  0.00000000000E+00  0.00000000000E+00  0.69806595009E+03  0.69806595011E+03  0.50400001928E-02 0. -1.
       -1   -1    0    0    0  501  0.00000000000E+00  0.00000000000E+00 -0.91564719984E+03  0.91564719985E+03  0.50400001928E-02 0.  1.
    10030    2    1    2    0    0  0.00000000000E+00  0.00000000000E+00 -0.21758124975E+03  0.16137131500E+04  0.15989773388E+04 0.  0.
        4    1    3    3  502    0 -0.49095539243E+03 -0.40303939396E+03  0.38117564942E+03  0.74079311488E+03  0.12699999809E+01 0. -1.
       -4    1    3    3    0  502  0.49095539243E+03  0.40303939396E+03 -0.59875689917E+03  0.87292003508E+03  0.12699999809E+01 0.  1.
</event>
<event>
 5   0  0.9432152E-05  0.1507000E+04  0.7818609E-02  0.8879811E-01
       -1   -1    0    0    0  501  0.00000000000E+00  0.00000000000E+00  0.42338657442E+03  0.42338657445E+03  0.50400001928E-02 0.  1.
        1   -1    0    0  501    0  0.00000000000E+00  0.00000000000E+00 -0.13410018204E+04  0.13410018204E+04  0.50400001928E-02 0. -1.
    10030    2    1    2    0    0  0.00000000000E+00  0.00000000000E+00 -0.91761524596E+03  0.17643883948E+04  0.15069998899E+04 0.  0.
        4    1    3    3  502    0 -0.39225836576E+03 -0.64334446700E+03 -0.46038946965E+03  0.88301687718E+03  0.12699999809E+01 0. -1.
       -4    1    3    3    0  502  0.39225836576E+03  0.64334446700E+03 -0.45722577631E+03  0.88137151767E+03  0.12699999809E+01 0.  1.
</event>
<event>
 5   0  0.9673017E-05  0.1596412E+04  0.7818609E-02  0.8822755E-01
        1   -1    0    0  501    0  0.00000000000E+00  0.00000000000E+00  0.29002591135E+03  0.29002591139E+03  0.50400001928E-02 0.  1.
       -1   -1    0    0    0  501  0.00000000000E+00  0.00000000000E+00 -0.21968135173E+04  0.21968135173E+04  0.50400001928E-02 0. -1.
    10030    2    1    2    0    0  0.00000000000E+00  0.00000000000E+00 -0.19067876060E+04  0.24868394287E+04  0.15964120301E+04 0.  0.
        1    1    3    3  502    0  0.31847447834E+03  0.42803800043E+03 -0.18782545547E+04  0.19525579877E+04  0.50400001928E-02 0. -1.
       -1    1    3    3    0  502 -0.31847447834E+03 -0.42803800043E+03 -0.28533051283E+02  0.53428144101E+03  0.50400001928E-02 0.  1.
</event>
<event>
 5   0  0.9939872E-05  0.1585664E+04  0.7818609E-02  0.8829404E-01
        1   -1    0    0  501    0  0.00000000000E+00  0.00000000000E+00  0.10233817470E+04  0.10233817470E+04  0.50400001928E-02 0. -1.
       -1   -1    0    0    0  501  0.00000000000E+00  0.00000000000E+00 -0.61422126991E+03  0.61422126993E+03  0.50400001928E-02 0.  1.
    10030    2    1    2    0    0  0.00000000000E+00  0.00000000000E+00  0.40916047711E+03  0.16376030170E+04  0.15856643230E+04 0.  0.
        3    1    3    3  502    0  0.39096950856E+02 -0.33416163720E+03 -0.53684177442E+03  0.63355479030E+03  0.10100000352E+00 0.  1.
       -3    1    3    3    0  502 -0.39096950856E+02  0.33416163720E+03  0.94600225153E+03  0.10040482267E+04  0.10100000352E+00 0. -1.
</event>
<event>
 5   0  0.9432152E-05  0.1550863E+04  0.7818609E-02  0.8851317E-01
       -1   -1    0    0    0  501  0.00000000000E+00  0.00000000000E+00  0.62762706861E+03  0.62762706863E+03  0.50400001928E-02 0.  1.
        1   -1    0    0  501    0  0.00000000000E+00  0.00000000000E+00 -0.95804313103E+03  0.95804313104E+03  0.50400001928E-02 0. -1.
    10030    2    1    2    0    0  0.00000000000E+00  0.00000000000E+00 -0.33041606242E+03  0.15856701997E+04  0.15508627302E+04 0.  0.
        4    1    3    3  502    0 -0.49263872053E+03 -0.34821158111E+03 -0.66332607095E+03  0.89663108550E+03  0.12699999809E+01 0. -1.
       -4    1    3    3    0  502  0.49263872053E+03  0.34821158111E+03  0.33291000853E+03  0.68903911417E+03  0.12699999809E+01 0.  1.
</event>
<event>
 5   0  0.1914170E-04  0.1604226E+04  0.7818609E-02  0.8817956E-01
       -2   -1    0    0    0  501  0.00000000000E+00  0.00000000000E+00  0.61855998689E+03  0.61855998689E+03  0.25500000920E-02 0.  1.
        2   -1    0    0  501    0  0.00000000000E+00  0.00000000000E+00 -0.10401342411E+04  0.10401342411E+04  0.25500000920E-02 0. -1.
    10030    2    1    2    0    0  0.00000000000E+00  0.00000000000E+00 -0.42157425417E+03  0.16586942280E+04  0.16042261967E+04 0.  0.
        3    1    3    3  502    0  0.44215900417E+02  0.32081987239E+03 -0.96953168602E+03  0.10221898732E+04  0.10100000352E+00 0. -1.
       -3    1    3    3    0  502 -0.44215900417E+02 -0.32081987239E+03  0.54795743185E+03  0.63650435481E+03  0.10100000352E+00 0.  1.
</event>
<event>
 5   0  0.9726935E-05  0.1600062E+04  0.7818609E-02  0.8820510E-01
       -1   -1    0    0    0  501  0.00000000000E+00  0.00000000000E+00  0.52688610241E+03  0.52688610243E+03  0.50400001928E-02 0. -1.
        1   -1    0    0  501    0  0.00000000000E+00  0.00000000000E+00 -0.12147778722E+04  0.12147778722E+04  0.50400001928E-02 0.  1.
    10030    2    1    2    0    0  0.00000000000E+00  0.00000000000E+00 -0.68789176983E+03  0.17416639747E+04  0.16000619718E+04 0.  0.
        2    1    3    3  502    0  0.13655827805E+03 -0.27203347991E+03 -0.11492865792E+04  0.11889112745E+04  0.25500000920E-02 0.  1.
       -2    1    3    3    0  502 -0.13655827805E+03  0.27203347991E+03  0.46139480934E+03  0.55275270021E+03  0.25500000920E-02 0. -1.
</event>
<event>
 5   0  0.9939872E-05  0.1594091E+04  0.7818609E-02  0.8824186E-01
       -1   -1    0    0    0  501  0.00000000000E+00  0.00000000000E+00  0.50148056954E+03  0.50148056957E+03  0.50400001928E-02 0. -1.
        1   -1    0    0  501    0  0.00000000000E+00  0.00000000000E+00 -0.12668121908E+04  0.12668121908E+04  0.50400001928E-02 0.  1.
    10030    2    1    2    0    0  0.00000000000E+00  0.00000000000E+00 -0.76533162128E+03  0.17682927604E+04  0.15940912132E+04 0.  0.
        3    1    3    3  502    0  0.78328152706E+03  0.14728327782E+03 -0.39121332844E+03  0.88784581607E+03  0.10100000352E+00 0. -1.
       -3    1    3    3    0  502 -0.78328152706E+03 -0.14728327782E+03 -0.37411829284E+03  0.88044694434E+03  0.10100000352E+00 0.  1.
</event>
<event>
 5   0  0.9726935E-05  0.1607753E+04  0.7818609E-02  0.8815799E-01
       -1   -1    0    0    0  501  0.00000000000E+00  0.00000000000E+00  0.67869503869E+03  0.67869503871E+03  0.50400001928E-02 0. -1.
        1   -1    0    0  501    0  0.00000000000E+00  0.00000000000E+00 -0.95214664042E+03  0.95214664043E+03  0.50400001928E-02 0.  1.
    10030    2    1    2    0    0  0.00000000000E+00  0.00000000000E+00 -0.27345160173E+03  0.16308416791E+04  0.16077527185E+04 0.  0.
        2    1    3    3  502    0 -0.32435223166E+02 -0.80226061627E+03 -0.96879860853E+02  0.80873966613E+03  0.25500000920E-02 0. -1.
       -2    1    3    3    0  502  0.32435223166E+02  0.80226061627E+03 -0.17657174087E+03  0.82210201302E+03  0.25500000920E-02 0.  1.
</event>
<event>
 5   0  0.1774934E-04  0.1589138E+04  0.7818609E-02  0.8827249E-01
       -2   -1    0    0    0  501  0.00000000000E+00  0.00000000000E+00  0.33858711274E+03  0.33858711275E+03  0.25500000920E-02 0. -1.
        2   -1    0    0  501    0  0.00000000000E+00  0.00000000000E+00 -0.18646313905E+04  0.18646313905E+04  0.25500000920E-02 0.  1.
    10030    2    1    2    0    0  0.00000000000E+00  0.00000000000E+00 -0.15260442778E+04  0.22032185033E+04  0.15891383311E+04 0.  0.
        1    1    3    3  502    0  0.38514050808E+03 -0.67599687723E+03 -0.53931694135E+03  0.94666137147E+03  0.50400001928E-02 0. -1.
       -1    1    3    3    0  502 -0.38514050808E+03  0.67599687723E+03 -0.98672733644E+03  0.12565571318E+04  0.50400001928E-02 0.  1.
</event>
<event>
 5   0  0.9673017E-05  0.1585497E+04  0.7818609E-02  0.8829508E-01
        1   -1    0    0  501    0  0.00000000000E+00  0.00000000000E+00  0.16401065064E+04  0.16401065064E+04  0.50400001928E-02 0. -1.
       -1   -1    0    0    0  501  0.00000000000E+00  0.00000000000E+00 -0.38317625822E+03  0.38317625825E+03  0.50400001928E-02 0.  1.
    10030    2    1    2    0    0  0.00000000000E+00  0.00000000000E+00  0.12569302482E+04  0.20232827646E+04  0.15854966089E+04 0.  0.
        1    1    3    3  502    0 -0.49720854795E+03 -0.60724349728E+03  0.48585419125E+03  0.92304674872E+03  0.50400001928E-02 0. -1.
       -1    1    3    3    0  502  0.49720854795E+03  0.60724349728E+03  0.77107605692E+03  0.11002360159E+04  0.50400001928E-02 0.  1.
</event>
<event>
 5   0  0.1832646E-04  0.1573104E+04  0.7818609E-02  0.8837243E-01
        2   -1    0    0  501    0  0.00000000000E+00  0.00000000000E+00  0.95314675769E+03  0.95314675770E+03  0.25500000920E-02 0. -1.
       -2   -1    0    0    0  501  0.00000000000E+00  0.00000000000E+00 -0.64907572612E+03  0.64907572612E+03  0.25500000920E-02 0.  1.
    10030    2    1    2    0    0  0.00000000000E+00  0.00000000000E+00  0.30407103158E+03  0.16022224838E+04  0.15731044770E+04 0.  0.
        2    1    3    3  502    0 -0.48272237969E+03 -0.89283859842E+02 -0.47388992391E+03  0.68232262419E+03  0.25500000920E-02 0.  1.
       -2    1    3    3    0  502  0.48272237969E+03  0.89283859842E+02  0.77796095549E+03  0.91989985963E+03  0.25500000920E-02 0. -1.
</event>
<event>
 5   0  0.9616567E-05  0.1599706E+04  0.7818609E-02  0.8820729E-01
       -1   -1    0    0    0  501  0.00000000000E+00  0.00000000000E+00  0.97477009911E+03  0.97477009912E+03  0.50400001928E-02 0. -1.
        1   -1    0    0  501    0  0.00000000000E+00  0.00000000000E+00 -0.65632379399E+03  0.65632379401E+03  0.50400001928E-02 0.  1.
    10030    2    1    2    0    0  0.00000000000E+00  0.00000000000E+00  0.31844630512E+03  0.16310938931E+04  0.15997059852E+04 0.  0.
        5    1    3    3  502    0  0.21871165804E+03  0.53318022404E+03  0.72474691913E+03  0.92595687127E+03  0.46999998093E+01 0. -1.
       -5    1    3    3    0  502 -0.21871165804E+03 -0.53318022404E+03 -0.40630061401E+03  0.70513702187E+03  0.46999998093E+01 0.  1.
</event>
<event>
 5   0  0.9432152E-05  0.1602122E+04  0.7818609E-02  0.8819246E-01
        1   -1    0    0  501    0  0.00000000000E+00  0.00000000000E+00  0.95166210022E+03  0.95166210023E+03  0.50400001928E-02 0. -1.
       -1   -1    0    0    0  501  0.00000000000E+00  0.00000000000E+00 -0.67429220408E+03  0.67429220410E+03  0.50400001928E-02 0.  1.
    10030    2    1    2    0    0  0.00000000000E+00  0.00000000000E+00  0.27736989614E+03  0.16259543043E+04  0.16021215124E+04 0.  0.
        4    1    3    3  502    0  0.22869968185E+03  0.76176455619E+03  0.23554014600E+03  0.82949958217E+03  0.12699999809E+01 0.  1.
       -4    1    3    3    0  502 -0.22869968185E+03 -0.76176455619E+03  0.41829750140E+02  0.79645472216E+03  0.12699999809E+01 0. -1.
</event>
<event>
 5   0  0.9939872E-05  0.1601748E+04  0.7818609E-02  0.8819475E-01
       -1   -1    0    0    0  501  0.00000000000E+00  0.00000000000E+00  0.29777873630E+03  0.29777873634E+03  0.50400001928E-02 0. -1.
        1   -1    0    0  501    0  0.00000000000E+00  0.00000000000E+00 -0.21539458487E+04  0.21539458488E+04  0.50400001928E-02 0.  1.
    10030    2    1    2    0    0  0.00000000000E+00  0.00000000000E+00 -0.18561671125E+04  0.24517245851E+04  0.16017481362E+04 0.  0.
        3    1    3    3  502    0  0.19703905957E+03 -0.35720506295E+03 -0.19829921948E+04  0.20245191782E+04  0.10100000352E+00 0.  1.
       -3    1    3    3    0  502 -0.19703905957E+03  0.35720506295E+03  0.12682508234E+03  0.42720540692E+03  0.10100000352E+00 0. -1.
</event>
<event>
 5   0  0.6838750E-05  0.1597151E+04  0.7818609E-02  0.8822300E-01
       -3   -1    0    0    0  501  0.00000000000E+00  0.00000000000E+00  0.71656970243E+03  0.71656970955E+03  0.10100000352E+00 0. -1.
        3   -1    0    0  501    0  0.00000000000E+00  0.00000000000E+00 -0.88996675056E+03  0.88996675629E+03  0.10100000352E+00 0.  1.
    10030    2    1    2    0    0  0.00000000000E+00  0.00000000000E+00 -0.17339704813E+03  0.16065364658E+04  0.15971514893E+04 0.  0.
        5    1    3    3  502    0  0.29582587577E+03 -0.65470823679E+03  0.26398355479E+03  0.76541833745E+03  0.46999998093E+01 0. -1.
       -5    1    3    3    0  502 -0.29582587577E+03  0.65470823679E+03 -0.43738060292E+03  0.84111812839E+03  0.46999998093E+01 0.  1.
</event>
<event>
 5   0  0.1914170E-04  0.1596053E+04  0.7818609E-02  0.8822976E-01
        2   -1    0    0  501    0  0.00000000000E+00  0.00000000000E+00  0.68431170238E+03  0.68431170238E+03  0.25500000920E-02 0. -1.
       -2   -1    0    0    0  501  0.00000000000E+00  0.00000000000E+00 -0.93063814708E+03  0.93063814708E+03  0.25500000920E-02 0.  1.
    10030    2    1    2    0    0  0.00000000000E+00  0.00000000000E+00 -0.24632644470E+03  0.16149498495E+04  0.15960533509E+04 0.  0.
        3    1    3    3  502    0  0.22511296780E+03 -0.32059593899E+03 -0.82665657773E+03  0.91477795780E+03  0.10100000352E+00 0.  1.
       -3    1    3    3    0  502 -0.22511296780E+03  0.32059593899E+03  0.58033013303E+03  0.70017189166E+03  0.10100000352E+00 0. -1.
</event>
<event>
 5   0  0.1858913E-04  0.1596201E+04  0.7818609E-02  0.8822885E-01
        2   -1    0    0  501    0  0.00000000000E+00  0.00000000000E+00  0.12285693130E+04  0.12285693130E+04  0.25500000920E-02 0.  1.
       -2   -1    0    0    0  501  0.00000000000E+00  0.00000000000E+00 -0.51846012365E+03  0.51846012366E+03  0.25500000920E-02 0. -1.
    10030    2    1    2    0    0  0.00000000000E+00  0.00000000000E+00  0.71010918939E+03  0.17470294367E+04  0.15962007367E+04 0.  0.
        4    1    3    3  502    0 -0.41907489766E+03  0.67290113567E+03  0.25389320474E+03  0.83239598783E+03  0.12699999809E+01 0. -1.
       -4    1    3    3    0  502  0.41907489766E+03 -0.67290113567E+03  0.45621598464E+03  0.91463344886E+03  0.12699999809E+01 0.  1.
</event>
<event>
 5   0  0.9432152E-05  0.1589851E+04  0.7818609E-02  0.8826807E-01
       -1   -1    0    0    0  501  0.00000000000E+00  0.00000000000E+00  0.62472714877E+03  0.62472714879E+03  0.50400001928E-02 0.  1.
        1   -1    0    0  501    0  0.00000000000E+00  0.00000000000E+00 -0.10114918277E+04  0.10114918277E+04  0.50400001928E-02 0. -1.
    10030    2    1    2    0    0  0.00000000000E+00  0.00000000000E+00 -0.38676467894E+03  0.16362189765E+04  0.15898508176E+04 0.  0.
        4    1    3    3  502    0  0.31817709783E+03 -0.48275036991E+03 -0.75483902581E+03  0.95082498548E+03  0.12699999809E+01 0. -1.
       -4    1    3    3    0  502 -0.31817709783E+03  0.48275036991E+03  0.36807434686E+03  0.68539399103E+03  0.12699999809E+01 0.  1.
</event>
<event>
 5   0  0.9616567E-05  0.1607804E+04  0.7818609E-02  0.8815768E-01
        1   -1    0    0  501    0  0.00000000000E+00  0.00000000000E+00  0.11436109147E+04  0.11436109147E+04  0.50400001928E-02 0.  1.
       -1   -1    0    0    0  501  0.00000000000E+00  0.00000000000E+00 -0.56510340501E+03  0.56510340503E+03  0.50400001928E-02 0. -1.
    10030    2    1    2    0    0  0.00000000000E+00  0.00000000000E+00  0.57850750971E+03  0.17087143198E+04  0.16078039954E+04 0.  0.
        5    1    3    3  502    0 -0.36560548901E+03 -0.13876386547E+03  0.10356988641E+04  0.11070758831E+04  0.46999998093E+01 0.  1.
       -5    1    3    3    0  502  0.36560548901E+03  0.13876386547E+03 -0.45719135435E+03  0.60163843664E+03  0.46999998093E+01 0. -1.
</event>
<event>
 5   0  0.1914170E-04  0.1600830E+04  0.7818609E-02  0.8820038E-01
       -2   -1    0    0    0  501  0.00000000000E+00  0.00000000000E+00  0.10062401347E+04  0.10062401347E+04  0.25500000920E-02 0. -1.
        2   -1    0    0  501    0  0.00000000000E+00  0.00000000000E+00 -0.63669084146E+03  0.63669084146E+03  0.25500000920E-02 0.  1.
    10030    2    1    2    0    0  0.00000000000E+00  0.00000000000E+00  0.36954929325E+03  0.16429309762E+04  0.16008296325E+04 0.  0.
        3    1    3    3  502    0  0.68185656043E+02 -0.58913162130E+03  0.73644154125E+03  0.94555354412E+03  0.10100000352E+00 0. -1.
       -3    1    3    3    0  502 -0.68185656043E+02  0.58913162130E+03 -0.36689224800E+03  0.69737743206E+03  0.10100000352E+00 0.  1.
</event>
<event>
 5   0  0.9432152E-05  0.1596722E+04  0.7818609E-02  0.8822565E-01
        1   -1    0    0  501    0  0.00000000000E+00  0.00000000000E+00  0.15027225294E+04  0.15027225294E+04  0.50400001928E-02 0.  1.
       -1   -1    0    0    0  501  0.00000000000E+00  0.00000000000E+00 -0.42415016089E+03  0.42415016092E+03  0.50400001928E-02 0. -1.
    10030    2    1    2    0    0  0.00000000000E+00  0.00000000000E+00  0.10785723685E+04  0.19268726903E+04  0.15967216447E+04 0.  0.
        4    1    3    3  502    0 -0.60659618177E+03  0.50733565141E+03  0.40692623214E+03  0.88934749240E+03  0.12699999809E+01 0. -1.
       -4    1    3    3    0  502  0.60659618177E+03 -0.50733565141E+03  0.67164613638E+03  0.10375251979E+04  0.12699999809E+01 0.  1.
</event>
<event>
 5   0  0.1914170E-04  0.1628597E+04  0.7818609E-02  0.8803170E-01
       -2   -1    0    0    0  501  0.00000000000E+00  0.00000000000E+00  0.54191282415E+03  0.54191282416E+03  0.25500000920E-02 0.  1.
        2   -1    0    0  501    0  0.00000000000E+00  0.00000000000E+00 -0.12235960333E+04  0.12235960333E+04  0.25500000920E-02 0. -1.
    10030    2    1    2    0    0  0.00000000000E+00  0.00000000000E+00 -0.68168320917E+03  0.17655088575E+04  0.16285974113E+04 0.  0.
        3    1    3    3  502    0  0.35262592070E+03  0.48915337023E+03 -0.93408122439E+03  0.11118110467E+04  0.10100000352E+00 0. -1.
       -3    1    3    3    0  502 -0.35262592070E+03 -0.48915337023E+03  0.25239801522E+03  0.65369781080E+03  0.10100000352E+00 0.  1.
</event>
<event>
 5   0  0.9616567E-05  0.1594079E+04  0.7818609E-02  0.8824194E-01
        1   -1    0    0  501    0  0.00000000000E+00  0.00000000000E+00  0.82588489138E+03  0.82588489139E+03  0.50400001928E-02 0. -1.
       -1   -1    0    0    0  501  0.00000000000E+00  0.00000000000E+00 -0.76920182497E+03  0.76920182499E+03  0.50400001928E-02 0.  1.
    10030    2    1    2    0    0  0.00000000000E+00  0.00000000000E+00  0.56683066405E+02  0.15950867164E+04  0.15940792523E+04 0.  0.
        5    1    3    3  502    0  0.71961203379E+03  0.27047641910E+03  0.23883394310E+03  0.80502342503E+03  0.46999998093E+01 0.  1.
       -5    1    3    3    0  502 -0.71961203379E+03 -0.27047641910E+03 -0.18215087670E+03  0.79006329136E+03  0.46999998093E+01 0. -1.
</event>
<event>
 5   0  0.9726935E-05  0.1603730E+04  0.7818609E-02  0.8818260E-01
        1   -1    0    0  501    0  0.00000000000E+00  0.00000000000E+00  0.76702937711E+03  0.76702937713E+03  0.50400001928E-02 0.  1.
       -1   -1    0    0    0  501  0.00000000000E+00  0.00000000000E+00 -0.83828268918E+03  0.83828268919E+03  0.50400001928E-02 0. -1.
    10030    2    1    2    0    0  0.00000000000E+00  0.00000000000E+00 -0.71253312064E+02  0.16053120663E+04  0.16037299635E+04 0.  0.
        2    1    3    3  502    0  0.14597147111E+03 -0.47589048215E+03 -0.66490256457E+03  0.83058704647E+03  0.25500000920E-02 0. -1.
       -2    1    3    3    0  502 -0.14597147111E+03  0.47589048215E+03  0.59364925251E+03  0.77472501985E+03  0.25500000920E-02 0.  1.
</event>
<event>
 5   0  0.1835088E-04  0.1593667E+04  0.7818609E-02  0.8824448E-01
        2   -1    0    0  501    0  0.00000000000E+00  0.00000000000E+00  0.10817687009E+04  0.10817687009E+04  0.25500000920E-02 0.  1.
       -2   -1    0    0    0  501  0.00000000000E+00  0.00000000000E+00 -0.58694916030E+03  0.58694916030E+03  0.25500000920E-02 0. -1.
    10030    2    1    2    0    0  0.00000000000E+00  0.00000000000E+00  0.49481954064E+03  0.16687178612E+04  0.15936665030E+04 0.  0.
        5    1    3    3  502    0  0.71402927631E+03  0.35254876251E+03  0.21792886614E+03  0.82561705292E+03  0.46999998093E+01 0. -1.
       -5    1    3    3    0  502 -0.71402927631E+03 -0.35254876251E+03  0.27689067450E+03  0.84310080832E+03  0.46999998093E+01 0.  1.
</event>
<event>
 5   0  0.9673017E-05  0.1593143E+04  0.7818609E-02  0.8824771E-01
       -1   -1    0    0    0  501  0.00000000000E+00  0.00000000000E+00  0.64690258737E+03  0.64690258739E+03  0.50400001928E-02 0.  1.
        1   -1    0    0  501    0  0.00000000000E+00  0.00000000000E+00 -0.98086862080E+03  0.98086862082E+03  0.50400001928E-02 0. -1.
    10030    2    1    2    0    0  0.00000000000E+00  0.00000000000E+00 -0.33396603343E+03  0.16277712082E+04  0.15931433692E+04 0.  0.
        1    1    3    3  502    0 -0.11859026178E+02 -0.79641640360E+03 -0.15642773001E+03  0.81172000048E+03  0.50400001928E-02 0. -1.
       -1    1    3    3    0  502  0.11859026178E+02  0.79641640360E+03 -0.17753830343E+03  0.81605120773E+03  0.50400001928E-02 0.  1.
</event>
<event>
 5   0  0.9673017E-05  0.1598460E+04  0.7818609E-02  0.8821495E-01
       -1   -1    0    0    0  501  0.00000000000E+00  0.00000000000E+00  0.72972610867E+03  0.72972610869E+03  0.50400001928E-02 0.  1.
        1   -1    0    0  501    0  0.00000000000E+00  0.00000000000E+00 -0.87535408903E+03  0.87535408905E+03  0.50400001928E-02 0. -1.
    10030    2    1    2    0    0  0.00000000000E+00  0.00000000000E+00 -0.14562798036E+03  0.16050801977E+04  0.15984601755E+04 0.  0.
        1    1    3    3  502    0  0.54235829676E+03 -0.93544125739E+02 -0.65475337171E+03  0.85533911598E+03  0.50400001928E-02 0. -1.
       -1    1    3    3    0  502 -0.54235829676E+03  0.93544125739E+02  0.50912539136E+03  0.74974108176E+03  0.50400001928E-02 0.  1.
</event>
<event>
 5   0  0.1914170E-04  0.1595241E+04  0.7818609E-02  0.8823477E-01
       -2   -1    0    0    0  501  0.00000000000E+00  0.00000000000E+00  0.10020998640E+04  0.10020998640E+04  0.25500000920E-02 0. -1.
        2   -1    0    0  501    0  0.00000000000E+00  0.00000000000E+00 -0.63486539208E+03  0.63486539208E+03  0.25500000920E-02 0.  1.
    10030    2    1    2    0    0  0.00000000000E+00  0.00000000000E+00  0.36723447191E+03  0.16369652561E+04  0.15952410765E+04 0.  0.
        3    1    3    3  502    0 -0.76693507361E+03 -0.19466828478E+03  0.28681278613E+03  0.84163337191E+03  0.10100000352E+00 0. -1.
       -3    1    3    3    0  502  0.76693507361E+03  0.19466828478E+03  0.80421685788E+02  0.79533188417E+03  0.10100000352E+00 0.  1.
</event>
<event>
 5   0  0.9432152E-05  0.1598754E+04  0.7818609E-02  0.8821314E-01
       -1   -1    0    0    0  501  0.00000000000E+00  0.00000000000E+00  0.56657611828E+03  0.56657611830E+03  0.50400001928E-02 0.  1.
        1   -1    0    0  501    0  0.00000000000E+00  0.00000000000E+00 -0.11278332592E+04  0.11278332593E+04  0.50400001928E-02 0. -1.
    10030    2    1    2    0    0  0.00000000000E+00  0.00000000000E+00 -0.56125714096E+03  0.16944093776E+04  0.15987537523E+04 0.  0.
        4    1    3    3  502    0 -0.71892378831E+03 -0.26831982840E+03 -0.43276422625E+02  0.76858402622E+03  0.12699999809E+01 0.  1.
       -4    1    3    3    0  502  0.71892378831E+03  0.26831982840E+03 -0.51798071834E+03  0.92582535133E+03  0.12699999809E+01 0. -1.
</event>
<event>
 5   0  0.9673017E-05  0.1590387E+04  0.7818609E-02  0.8826475E-01
        1   -1    0    0  501    0  0.00000000000E+00  0.00000000000E+00  0.58328543048E+03  0.58328543050E+03  0.50400001928E-02 0. -1.
       -1   -1    0    0    0  501  0.00000000000E+00  0.00000000000E+00 -0.10840880855E+04  0.10840880855E+04  0.50400001928E-02 0.  1.
    10030    2    1    2    0    0  0.00000000000E+00  0.00000000000E+00 -0.50080265498E+03  0.16673735160E+04  0.15903871046E+04 0.  0.
        1    1    3    3  502    0  0.13646495084E+03  0.68243108429E+03  0.15292619281E+03  0.71254563930E+03  0.50400001928E-02 0. -1.
       -1    1    3    3    0  502 -0.13646495084E+03 -0.68243108429E+03 -0.65372884780E+03  0.95482787668E+03  0.50400001928E-02 0.  1.
</event>
<event>
 5   0  0.1835088E-04  0.1596047E+04  0.7818609E-02  0.8822980E-01
        2   -1    0    0  501    0  0.00000000000E+00  0.00000000000E+00  0.21785913422E+04  0.21785913422E+04  0.25500000920E-02 0. -1.
       -2   -1    0    0    0  501  0.00000000000E+00  0.00000000000E+00 -0.29231800450E+03  0.29231800451E+03  0.25500000920E-02 0.  1.
    10030    2    1    2    0    0  0.00000000000E+00  0.00000000000E+00  0.18862733377E+04  0.24709093467E+04  0.15960469589E+04 0.  0.
        5    1    3    3  502    0  0.71317726954E+02  0.35912395067E+03 -0.15458659454E+03  0.39746111172E+03  0.46999998093E+01 0.  1.
       -5    1    3    3    0  502 -0.71317726954E+02 -0.35912395067E+03  0.20408599322E+04  0.20734482350E+04  0.46999998093E+01 0. -1.
</event>
<event>
 5   0  0.9616567E-05  0.1603457E+04  0.7818609E-02  0.8818427E-01
       -1   -1    0    0    0  501  0.00000000000E+00  0.00000000000E+00  0.99975722858E+03  0.99975722860E+03  0.50400001928E-02 0.  1.
        1   -1    0    0  501    0  0.00000000000E+00  0.00000000000E+00 -0.64292488518E+03  0.64292488520E+03  0.50400001928E-02 0. -1.
    10030    2    1    2    0    0  0.00000000000E+00  0.00000000000E+00  0.35683234340E+03  0.16426821138E+04  0.16034572666E+04 0.  0.
        5    1    3    3  502    0  0.26129334459E+03  0.56606642306E+03 -0.33793873119E+03  0.70917563641E+03  0.46999998093E+01 0. -1.
       -5    1    3    3    0  502 -0.26129334459E+03 -0.56606642306E+03  0.69477107459E+03  0.93350647739E+03  0.46999998093E+01 0.  1.
</event>
<event>
 5   0  0.1914170E-04  0.1610735E+04  0.7818609E-02  0.8813980E-01
        2   -1    0    0  501    0  0.00000000000E+00  0.00000000000E+00  0.47854564907E+03  0.47854564907E+03  0.25500000920E-02 0. -1.
       -2   -1    0    0    0  501  0.00000000000E+00  0.00000000000E+00 -0.13553922536E+04  0.13553922536E+04  0.25500000920E-02 0.  1.
    10030    2    1    2    0    0  0.00000000000E+00  0.00000000000E+00 -0.87684660454E+03  0.18339379027E+04  0.16107353175E+04 0.  0.
        3    1    3    3  502    0 -0.38697973172E+03  0.69282380650E+03 -0.59478083449E+03  0.99172697397E+03  0.10100000352E+00 0. -1.
       -3    1    3    3    0  502  0.38697973172E+03 -0.69282380650E+03 -0.28206577004E+03  0.84221092871E+03  0.10100000352E+00 0.  1.
</event>
<event>
 5   0  0.9726935E-05  0.1606675E+04  0.7818609E-02  0.8816458E-01
        1   -1    0    0  501    0  0.00000000000E+00  0.00000000000E+00  0.57102421645E+03  0.57102421647E+03  0.50400001928E-02 0. -1.
       -1   -1    0    0    0  501  0.00000000000E+00  0.00000000000E+00 -0.11301635441E+04  0.11301635441E+04  0.50400001928E-02 0.  1.
    10030    2    1    2    0    0  0.00000000000E+00  0.00000000000E+00 -0.55913932769E+03  0.17011877606E+04  0.16066745187E+04 0.  0.
        2    1    3    3  502    0  0.58946119916E+03  0.22774700630E+03  0.24560937786E+03  0.67798021409E+03  0.25500000920E-02 0. -1.
       -2    1    3    3    0  502 -0.58946119916E+03 -0.22774700630E+03 -0.80474870555E+03  0.10232075465E+04  0.25500000920E-02 0.  1.
</event>
<event>
 5   0  0.9432152E-05  0.1588148E+04  0.7818609E-02  0.8827862E-01
        1   -1    0    0  501    0  0.00000000000E+00  0.00000000000E+00  0.54040729625E+03  0.54040729627E+03  0.50400001928E-02 0. -1.
       -1   -1    0    0    0  501  0.00000000000E+00  0.00000000000E+00 -0.11668121219E+04  0.11668121219E+04  0.50400001928E-02 0.  1.
    10030    2    1    2    0    0  0.00000000000E+00  0.00000000000E+00 -0.62640482566E+03  0.17072194182E+04  0.15881483357E+04 0.  0.
        4    1    3    3  502    0  0.34351122809E+03  0.26380656520E+03  0.40224826853E+03  0.59109994933E+03  0.12699999809E+01 0. -1.
       -4    1    3    3    0  502 -0.34351122809E+03 -0.26380656520E+03 -0.10286530942E+04  0.11161194689E+04  0.12699999809E+01 0.  1.
</event>
<event>
 5   0  0.9673017E-05  0.1564528E+04  0.7818609E-02  0.8842641E-01
        1   -1    0    0  501    0  0.00000000000E+00  0.00000000000E+00  0.81527863430E+03  0.81527863431E+03  0.50400001928E-02 0. -1.
       -1   -1    0    0    0  501  0.00000000000E+00  0.00000000000E+00 -0.75058674318E+03  0.75058674319E+03  0.50400001928E-02 0.  1.
    10030    2    1    2    0    0  0.00000000000E+00  0.00000000000E+00  0.64691891119E+02  0.15658653775E+04  0.15645284720E+04 0.  0.
        1    1    3    3  502    0  0.27400302060E+03 -0.72275013113E+03 -0.88139344564E+02  0.77795498034E+03  0.50400001928E-02 0.  1.
       -1    1    3    3    0  502 -0.27400302060E+03  0.72275013113E+03  0.15283123568E+03  0.78791039717E+03  0.50400001928E-02 0. -1.
</event>
<event>
 5   0  0.9432152E-05  0.1598204E+04  0.7818609E-02  0.8821652E-01
        1   -1    0    0  501    0  0.00000000000E+00  0.00000000000E+00  0.15824544085E+04  0.15824544085E+04  0.50400001928E-02 0. -1.
       -1   -1    0    0    0  501  0.00000000000E+00  0.00000000000E+00 -0.40352780211E+03  0.40352780214E+03  0.50400001928E-02 0.  1.
    10030    2    1    2    0    0  0.00000000000E+00  0.00000000000E+00  0.11789266063E+04  0.19859822106E+04  0.15982044293E+04 0.  0.
        4    1    3    3  502    0  0.79741567370E+02 -0.72237954718E+03  0.17663249099E+03  0.74792484751E+03  0.12699999809E+01 0.  1.
       -4    1    3    3    0  502 -0.79741567370E+02  0.72237954718E+03  0.10022941154E+04  0.12380573631E+04  0.12699999809E+01 0. -1.
</event>
<event>
 5   0  0.1832646E-04  0.1622849E+04  0.7818609E-02  0.8806633E-01
        2   -1    0    0  501    0  0.00000000000E+00  0.00000000000E+00  0.17813495064E+04  0.17813495064E+04  0.25500000920E-02 0.  1.
       -2   -1    0    0    0  501  0.00000000000E+00  0.00000000000E+00 -0.36961294224E+03  0.36961294225E+03  0.25500000920E-02 0. -1.
    10030    2    1    2    0    0  0.00000000000E+00  0.00000000000E+00  0.14117365642E+04  0.21509624487E+04  0.16228491393E+04 0.  0.
        2    1    3    3  502    0 -0.16527097399E+03  0.79429532090E+03  0.68758509380E+03  0.10634814586E+04  0.25500000920E-02 0. -1.
       -2    1    3    3    0  502  0.16527097399E+03 -0.79429532090E+03  0.72415147039E+03  0.10874809901E+04  0.25500000920E-02 0.  1.
</event>
<event>
 5   0  0.1774934E-04  0.1597240E+04  0.7818609E-02  0.8822245E-01
        2   -1    0    0  501    0  0.00000000000E+00  0.00000000000E+00  0.11358245336E+04  0.11358245336E+04  0.25500000920E-02 0. -1.
       -2   -1    0    0    0  501  0.00000000000E+00  0.00000000000E+00 -0.56152489459E+03  0.56152489459E+03  0.25500000920E-02 0.  1.
    10030    2    1    2    0    0  0.00000000000E+00  0.00000000000E+00  0.57429963899E+03  0.16973494282E+04  0.15972398085E+04 0.  0.
        1    1    3    3  502    0 -0.60239751687E+03 -0.50715741953E+03  0.42853907566E+03  0.89651389053E+03  0.50400001928E-02 0.  1.
       -1    1    3    3    0  502  0.60239751687E+03  0.50715741953E+03  0.14576056333E+03  0.80083553765E+03  0.50400001928E-02 0. -1.
</event>
<event>
 5   0  0.1914170E-04  0.1601779E+04  0.7818609E-02  0.8819456E-01
        2   -1    0    0  501    0  0.00000000000E+00  0.00000000000E+00  0.10899819482E+04  0.10899819482E+04  0.25500000920E-02 0. -1.
       -2   -1    0    0    0  501  0.00000000000E+00  0.00000000000E+00 -0.58847239582E+03  0.58847239583E+03  0.25500000920E-02 0.  1.
    10030    2    1    2    0    0  0.00000000000E+00  0.00000000000E+00  0.50150955240E+03  0.16784543441E+04  0.16017793712E+04 0.  0.
        3    1    3    3  502    0  0.49935372516E+03  0.38974464592E+03 -0.26277488574E+03  0.68578836577E+03  0.10100000352E+00 0.  1.
       -3    1    3    3    0  502 -0.49935372516E+03 -0.38974464592E+03  0.76428443814E+03  0.99266597828E+03  0.10100000352E+00 0. -1.
</event>
<event>
 5   0  0.1774934E-04  0.1606784E+04  0.7818609E-02  0.8816391E-01
       -2   -1    0    0    0  501  0.00000000000E+00  0.00000000000E+00  0.10739740205E+04  0.10739740205E+04  0.25500000920E-02 0.  1.
        2   -1    0    0  501    0  0.00000000000E+00  0.00000000000E+00 -0.60098173568E+03  0.60098173568E+03  0.25500000920E-02 0. -1.
    10030    2    1    2    0    0  0.00000000000E+00  0.00000000000E+00  0.47299228484E+03  0.16749557562E+04  0.16067840812E+04 0.  0.
        1    1    3    3  502    0  0.57167087048E+03 -0.46218942107E+03 -0.10130844601E+03  0.74208493204E+03  0.50400001928E-02 0. -1.
       -1    1    3    3    0  502 -0.57167087048E+03  0.46218942107E+03  0.57430073085E+03  0.93287082417E+03  0.50400001928E-02 0.  1.
</event>
<event>
 5   0  0.1858913E-04  0.1597086E+04  0.7818609E-02  0.8822340E-01
        2   -1    0    0  501    0  0.00000000000E+00  0.00000000000E+00  0.80929725202E+03  0.80929725202E+03  0.25500000920E-02 0.  1.
       -2   -1    0    0    0  501  0.00000000000E+00  0.00000000000E+00 -0.78793211125E+03  0.78793211126E+03  0.25500000920E-02 0. -1.
    10030    2    1    2    0    0  0.00000000000E+00  0.00000000000E+00  0.21365140766E+02  0.15972293633E+04  0.15970864628E+04 0.  0.
        4    1    3    3  502    0 -0.60380917453E+02  0.28992038132E+03 -0.73098340508E+03  0.78869387857E+03  0.12699999809E+01 0. -1.
       -4    1    3    3    0  502  0.60380917453E+02 -0.28992038132E+03  0.75234854585E+03  0.80853548471E+03  0.12699999809E+01 0.  1.
</event>
<event>
 5   0  0.9939872E-05  0.1600019E+04  0.7818609E-02  0.8820537E-01
        1   -1    0    0  501    0  0.00000000000E+00  0.00000000000E+00  0.83596180081E+03  0.83596180083E+03  0.50400001928E-02 0. -1.
       -1   -1    0    0    0  501  0.00000000000E+00  0.00000000000E+00 -0.76560300881E+03  0.76560300883E+03  0.50400001928E-02 0.  1.
    10030    2    1    2    0    0  0.00000000000E+00  0.00000000000E+00  0.70358792000E+02  0.16015648097E+04  0.16000185874E+04 0.  0.
        3    1    3    3  502    0 -0.77930946947E+03 -0.14367383181E+03 -0.74696627354E+02  0.79595541049E+03  0.10100000352E+00 0. -1.
       -3    1    3    3    0  502  0.77930946947E+03  0.14367383181E+03  0.14505541935E+03  0.80560939917E+03  0.10100000352E+00 0.  1.
</event>
<event>
 5   0  0.9673017E-05  0.1598455E+04  0.7818609E-02  0.8821497E-01
        1   -1    0    0  501    0  0.00000000000E+00  0.00000000000E+00  0.16817820323E+04  0.16817820324E+04  0.50400001928E-02 0. -1.
       -1   -1    0    0    0  501  0.00000000000E+00  0.00000000000E+00 -0.37981434904E+03  0.37981434908E+03  0.50400001928E-02 0.  1.
    10030    2    1    2    0    0  0.00000000000E+00  0.00000000000E+00  0.13019676833E+04  0.20615963814E+04  0.15984554393E+04 0.  0.
        1    1    3    3  502    0  0.12242548913E+02  0.38816121538E+03 -0.24994183220E+03  0.46183322600E+03  0.50400001928E-02 0.  1.
       -1    1    3    3    0  502 -0.12242548913E+02 -0.38816121538E+03  0.15519095155E+04  0.15997631554E+04  0.50400001928E-02 0. -1.
</event>
<event>
 5   0  0.9616567E-05  0.1599023E+04  0.7818609E-02  0.8821148E-01
        1   -1    0    0  501    0  0.00000000000E+00  0.00000000000E+00  0.81464756064E+03  0.81464756066E+03  0.50400001928E-02 0. -1.
       -1   -1    0    0    0  501  0.00000000000E+00  0.00000000000E+00 -0.78465665133E+03  0.78465665135E+03  0.50400001928E-02 0.  1.
    10030    2    1    2    0    0  0.00000000000E+00  0.00000000000E+00  0.29990909312E+02  0.15993042120E+04  0.15990229854E+04 0.  0.
        5    1    3    3  502    0  0.10065440080E+03 -0.70987767089E+03 -0.33881656066E+03  0.79301725568E+03  0.46999998093E+01 0.  1.
       -5    1    3    3    0  502 -0.10065440080E+03  0.70987767089E+03  0.36880746997E+03  0.80628695632E+03  0.46999998093E+01 0. -1.
</event>
<event>
 5   0  0.9673017E-05  0.1587081E+04  0.7818609E-02  0.8828524E-01
        1   -1    0    0  501    0  0.00000000000E+00  0.00000000000E+00  0.10493829155E+04  0.10493829155E+04  0.50400001928E-02 0.  1.
       -1   -1    0    0    0  501  0.00000000000E+00  0.00000000000E+00 -0.60007330367E+03  0.60007330369E+03  0.50400001928E-02 0. -1.
    10030    2    1    2    0    0  0.00000000000E+00  0.00000000000E+00  0.44930961184E+03  0.16494562192E+04  0.15870811863E+04 0.  0.
        1    1    3    3  502    0  0.49647608798E+03 -0.54382431215E+03 -0.82727855355E+02  0.74099749426E+03  0.50400001928E-02 0. -1.
       -1    1    3    3    0  502 -0.49647608798E+03  0.54382431215E+03  0.53203746719E+03  0.90845872495E+03  0.50400001928E-02 0.  1.
</event>
<event>
 5   0  0.9432152E-05  0.1616487E+04  0.7818609E-02  0.8810483E-01
       -1   -1    0    0    0  501  0.00000000000E+00  0.00000000000E+00  0.46148426672E+03  0.46148426675E+03  0.50400001928E-02 0. -1.
        1   -1    0    0  501    0  0.00000000000E+00  0.00000000000E+00 -0.14155570796E+04  0.14155570796E+04  0.50400001928E-02 0.  1.
    10030    2    1    2    0    0  0.00000000000E+00  0.00000000000E+00 -0.95407281283E+03  0.18770413463E+04  0.16164867100E+04 0.  0.
        4    1    3    3  502    0 -0.12112490183E+03  0.46608843753E+03  0.27670288697E+03  0.55540595424E+03  0.12699999809E+01 0. -1.
       -4    1    3    3    0  502  0.12112490183E+03 -0.46608843753E+03 -0.12307756998E+04  0.13216353921E+04  0.12699999809E+01 0.  1.
</event>
<event>
 5   0  0.9939872E-05  0.1607099E+04  0.7818609E-02  0.8816198E-01
       -1   -1    0    0    0  501  0.00000000000E+00  0.00000000000E+00  0.33810897195E+03  0.33810897199E+03  0.50400001928E-02 0.  1.
        1   -1    0    0  501    0  0.00000000000E+00  0.00000000000E+00 -0.19097159683E+04  0.19097159683E+04  0.50400001928E-02 0. -1.
    10030    2    1    2    0    0  0.00000000000E+00  0.00000000000E+00 -0.15716069964E+04  0.22478249403E+04  0.16070993782E+04 0.  0.
        3    1    3    3  502    0  0.60394895908E+03  0.18140748377E+03 -0.14823835719E+04  0.16109388830E+04  0.10100000352E+00 0. -1.
       -3    1    3    3    0  502 -0.60394895908E+03 -0.18140748377E+03 -0.89223424483E+02  0.63688605733E+03  0.10100000352E+00 0.  1.
</event>
<event>
 5   0  0.1858913E-04  0.1601609E+04  0.7818609E-02  0.8819560E-01
       -2   -1    0    0    0  501  0.00000000000E+00  0.00000000000E+00  0.20068686060E+04  0.20068686060E+04  0.25500000920E-02 0.  1.
        2   -1    0    0  501    0  0.00000000000E+00  0.00000000000E+00 -0.31954636467E+03  0.31954636468E+03  0.25500000920E-02 0. -1.
    10030    2    1    2    0    0  0.00000000000E+00  0.00000000000E+00  0.16873222414E+04  0.23264149707E+04  0.16016086506E+04 0.  0.
        4    1    3    3  502    0 -0.13609208526E+03  0.33723845192E+03  0.18800068302E+04  0.19148572071E+04  0.12699999809E+01 0.  1.
       -4    1    3    3    0  502  0.13609208526E+03 -0.33723845192E+03 -0.19268458882E+03  0.41155776362E+03  0.12699999809E+01 0. -1.
</event>
<event>
 5   0  0.9726935E-05  0.1601751E+04  0.7818609E-02  0.8819473E-01
        1   -1    0    0  501    0  0.00000000000E+00  0.00000000000E+00  0.14012688613E+04  0.14012688613E+04  0.50400001928E-02 0.  1.
       -1   -1    0    0    0  501  0.00000000000E+00  0.00000000000E+00 -0.45772901527E+03  0.45772901530E+03  0.50400001928E-02 0. -1.
    10030    2    1    2    0    0  0.00000000000E+00  0.00000000000E+00  0.94353984600E+03  0.18589978766E+04  0.16017508121E+04 0.  0.
        2    1    3    3  502    0 -0.28481626768E+03 -0.56576985266E+03  0.10405670696E+04  0.12181936049E+04  0.25500000920E-02 0. -1.
       -2    1    3    3    0  502  0.28481626768E+03  0.56576985266E+03 -0.97027223642E+02  0.64080427172E+03  0.25500000920E-02 0.  1.
</event>
<event>
 5   0  0.9939872E-05  0.1598534E+04  0.7818609E-02  0.8821449E-01
        1   -1    0    0  501    0  0.00000000000E+00  0.00000000000E+00  0.12522568304E+04  0.12522568304E+04  0.50400001928E-02 0. -1.
       -1   -1    0    0    0  501  0.00000000000E+00  0.00000000000E+00 -0.51014094399E+03  0.51014094401E+03  0.50400001928E-02 0.  1.
    10030    2    1    2    0    0  0.00000000000E+00  0.00000000000E+00  0.74211588638E+03  0.17623977744E+04  0.15985336801E+04 0.  0.
        3    1    3    3  502    0  0.21396623291E+03 -0.76207388415E+03  0.24883688775E+03  0.82973366849E+03  0.10100000352E+00 0. -1.
       -3    1    3    3    0  502 -0.21396623291E+03  0.76207388415E+03  0.49327899864E+03  0.93266410590E+03  0.10100000352E+00 0.  1.
</event>
<event>
 5   0  0.1835088E-04  0.1604876E+04  0.7818609E-02  0.8817558E-01
        2   -1    0    0  501    0  0.00000000000E+00  0.00000000000E+00  0.53794628105E+03  0.53794628106E+03  0.25500000920E-02 0. -1.
       -2   -1    0    0    0  501  0.00000000000E+00  0.00000000000E+00 -0.11969718135E+04  0.11969718135E+04  0.25500000920E-02 0.  1.
    10030    2    1    2    0    0  0.00000000000E+00  0.00000000000E+00 -0.65902553248E+03  0.17349180946E+04  0.16048757405E+04 0.  0.
        5    1    3    3  502    0  0.47788570688E+03  0.37079018614E+03 -0.89951816538E+03  0.10839811487E+04  0.46999998093E+01 0.  1.
       -5    1    3    3    0  502 -0.47788570688E+03 -0.37079018614E+03  0.24049263291E+03  0.65093694584E+03  0.46999998093E+01 0. -1.
</event>
<event>
 5   0  0.9726935E-05  0.1609402E+04  0.7818609E-02  0.8814793E-01
       -1   -1    0    0    0  501  0.00000000000E+00  0.00000000000E+00  0.16899838097E+04  0.16899838097E+04  0.50400001928E-02 0.  1.
        1   -1    0    0  501    0  0.00000000000E+00  0.00000000000E+00 -0.38316563791E+03  0.38316563794E+03  0.50400001928E-02 0. -1.
    10030    2    1    2    0    0  0.00000000000E+00  0.00000000000E+00  0.13068181718E+04  0.20731494476E+04  0.16094020312E+04 0.  0.
        2    1    3    3  502    0 -0.29382243570E+03  0.32440520325E+03 -0.21642375886E+03  0.48827205841E+03  0.25500000920E-02 0. -1.
       -2    1    3    3    0  502  0.29382243570E+03 -0.32440520325E+03  0.15232419306E+04  0.15848773892E+04  0.25500000920E-02 0.  1.
</event>
<event>
 5   0  0.9616567E-05  0.1600913E+04  0.7818609E-02  0.8819987E-01
        1   -1    0    0  501    0  0.00000000000E+00  0.00000000000E+00  0.90082783480E+03  0.90082783482E+03  0.50400001928E-02 0.  1.
       -1   -1    0    0    0  501  0.00000000000E+00  0.00000000000E+00 -0.71126875529E+03  0.71126875530E+03  0.50400001928E-02 0. -1.
    10030    2    1    2    0    0  0.00000000000E+00  0.00000000000E+00  0.18955907952E+03  0.16120965901E+04  0.16009131055E+04 0.  0.
        5    1    3    3  502    0  0.16978780294E+02  0.79821266759E+03  0.15242330204E+03  0.81282636195E+03  0.46999998093E+01 0.  1.
       -5    1    3    3    0  502 -0.16978780294E+02 -0.79821266759E+03  0.37135777480E+02  0.79927022817E+03  0.46999998093E+01 0. -1.
</event>
<event>
 5   0  0.9616567E-05  0.1607573E+04  0.7818609E-02  0.8815909E-01
       -1   -1    0    0    0  501  0.00000000000E+00  0.00000000000E+00  0.73852055704E+03  0.73852055705E+03  0.50400001928E-02 0. -1.
        1   -1    0    0  501    0  0.00000000000E+00  0.00000000000E+00 -0.87482027453E+03  0.87482027455E+03  0.50400001928E-02 0.  1.
    10030    2    1    2    0    0  0.00000000000E+00  0.00000000000E+00 -0.13629971750E+03  0.16133408316E+04  0.16075730235E+04 0.  0.
        5    1    3    3  502    0 -0.21817296297E+03  0.71259981313E+03 -0.37031604401E+03  0.83219829242E+03  0.46999998093E+01 0.  1.
       -5    1    3    3    0  502  0.21817296297E+03 -0.71259981313E+03  0.23401632651E+03  0.78114253918E+03  0.46999998093E+01 0. -1.
</event>
<event>
 5   0  0.1832646E-04  0.1604874E+04  0.7818609E-02  0.8817560E-01
       -2   -1    0    0    0  501  0.00000000000E+00  0.00000000000E+00  0.37343995094E+03  0.37343995095E+03  0.25500000920E-02 0. -1.
        2   -1    0    0  501    0  0.00000000000E+00  0.00000000000E+00 -0.17242526122E+04  0.17242526122E+04  0.25500000920E-02 0.  1.
    10030    2    1    2    0    0  0.00000000000E+00  0.00000000000E+00 -0.13508126613E+04  0.20976925632E+04  0.16048735912E+04 0.  0.
        2    1    3    3  502    0  0.61897359203E+03  0.24072782684E+03 -0.12640649141E+04  0.14279139685E+04  0.25500000920E-02 0.  1.
       -2    1    3    3    0  502 -0.61897359203E+03 -0.24072782684E+03 -0.86747747144E+02  0.66977859468E+03  0.25500000920E-02 0. -1.
</event>
<event>
 5   0  0.1832646E-04  0.1608134E+04  0.7818609E-02  0.8815567E-01
        2   -1    0    0  501    0  0.00000000000E+00  0.00000000000E+00  0.15353518927E+04  0.15353518927E+04  0.25500000920E-02 0.  1.
       -2   -1    0    0    0  501  0.00000000000E+00  0.00000000000E+00 -0.42109155342E+03  0.42109155343E+03  0.25500000920E-02 0. -1.
    10030    2    1    2    0    0  0.00000000000E+00  0.00000000000E+00  0.11142603392E+04  0.19564434461E+04  0.16081339665E+04 0.  0.
        2    1    3    3  502    0 -0.80023069312E+03 -0.77685707673E+02  0.57042848339E+03  0.98579555997E+03  0.25500000920E-02 0. -1.
       -2    1    3    3    0  502  0.80023069312E+03  0.77685707673E+02  0.54383185585E+03  0.97064788612E+03  0.25500000920E-02 0.  1.
</event>
<event>
 5   0  0.1835088E-04  0.1593545E+04  0.7818609E-02  0.8824523E-01
       -2   -1    0    0    0  501  0.00000000000E+00  0.00000000000E+00  0.67546419469E+03  0.67546419470E+03  0.25500000920E-02 0. -1.
        2   -1    0    0  501    0  0.00000000000E+00  0.00000000000E+00 -0.93986666620E+03  0.93986666620E+03  0.25500000920E-02 0.  1.
    10030    2    1    2    0    0  0.00000000000E+00  0.00000000000E+00 -0.26440247151E+03  0.16153308609E+04  0.15935448294E+04 0.  0.
        5    1    3    3  502    0  0.66705265842E+03 -0.27269643978E+03  0.21230032413E+03  0.75127632400E+03  0.46999998093E+01 0. -1.
       -5    1    3    3    0  502 -0.66705265842E+03  0.27269643978E+03 -0.47670279563E+03  0.86405453690E+03  0.46999998093E+01 0.  1.
</event>
<event>
 5   0  0.1858913E-04  0.1577509E+04  0.7818609E-02  0.8834486E-01
       -2   -1    0    0    0  501  0.00000000000E+00  0.00000000000E+00  0.81739125070E+03  0.81739125070E+03  0.25500000920E-02 0.  1.
        2   -1    0    0  501    0  0.00000000000E+00  0.00000000000E+00 -0.76112080323E+03  0.76112080323E+03  0.25500000920E-02 0. -1.
    10030    2    1    2    0    0  0.00000000000E+00  0.00000000000E+00  0.56270447472E+02  0.15785120539E+04  0.15775087769E+04 0.  0.
        4    1    3    3  502    0 -0.49369444174E+03 -0.60955666937E+03 -0.54611609331E+02  0.78630628622E+03  0.12699999809E+01 0. -1.
       -4    1    3    3    0  502  0.49369444174E+03  0.60955666937E+03  0.11088205680E+03  0.79220576771E+03  0.12699999809E+01 0.  1.
</event>
<event>
 5   0  0.9673017E-05  0.1591470E+04  0.7818609E-02  0.8825805E-01
       -1   -1    0    0    0  501  0.00000000000E+00  0.00000000000E+00  0.47496511746E+03  0.47496511748E+03  0.50400001928E-02 0. -1.
        1   -1    0    0  501    0  0.00000000000E+00  0.00000000000E+00 -0.13331385413E+04  0.13331385413E+04  0.50400001928E-02 0.  1.
    10030    2    1    2    0    0  0.00000000000E+00  0.00000000000E+00 -0.85817342388E+03  0.18081036588E+04  0.15914701429E+04 0.  0.
        1    1    3    3  502    0  0.67370215277E+03  0.30914784542E+03 -0.10030299853E+03  0.74800245488E+03  0.50400001928E-02 0. -1.
       -1    1    3    3    0  502 -0.67370215277E+03 -0.30914784542E+03 -0.75787042535E+03  0.10601012039E+04  0.50400001928E-02 0.  1.
</event>
<event>
 5   0  0.1858913E-04  0.1624020E+04  0.7818609E-02  0.8805926E-01
        2   -1    0    0  501    0  0.00000000000E+00  0.00000000000E+00  0.11266042073E+04  0.11266042073E+04  0.25500000920E-02 0. -1.
       -2   -1    0    0    0  501  0.00000000000E+00  0.00000000000E+00 -0.58526351999E+03  0.58526352000E+03  0.25500000920E-02 0.  1.
    10030    2    1    2    0    0  0.00000000000E+00  0.00000000000E+00  0.54134068731E+03  0.17118677273E+04  0.16240201280E+04 0.  0.
        4    1    3    3  502    0  0.46842847252E+03  0.64263702125E+03  0.97621979917E+02  0.80121110752E+03  0.12699999809E+01 0. -1.
       -4    1    3    3    0  502 -0.46842847252E+03 -0.64263702125E+03  0.44371870739E+03  0.91065661978E+03  0.12699999809E+01 0.  1.
</event>
<event>
 5   0  0.9432152E-05  0.1600529E+04  0.7818609E-02  0.8820223E-01
        1   -1    0    0  501    0  0.00000000000E+00  0.00000000000E+00  0.93911095671E+03  0.93911095673E+03  0.50400001928E-02 0.  1.
       -1   -1    0    0    0  501  0.00000000000E+00  0.00000000000E+00 -0.68194593518E+03  0.68194593520E+03  0.50400001928E-02 0. -1.
    10030    2    1    2    0    0  0.00000000000E+00  0.00000000000E+00  0.25716502153E+03  0.16210568919E+04  0.16005285373E+04 0.  0.
        4    1    3    3  502    0 -0.33304320469E+03 -0.64063213452E+03  0.47810871228E+03  0.86597740250E+03  0.12699999809E+01 0.  1.
       -4    1    3    3    0  502  0.33304320469E+03  0.64063213452E+03 -0.22094369075E+03  0.75507948943E+03  0.12699999809E+01 0. -1.
</event>
<event>
 5   0  0.1774934E-04  0.1621726E+04  0.7818609E-02  0.8807311E-01
        2   -1    0    0  501    0  0.00000000000E+00  0.00000000000E+00  0.18917387006E+04  0.18917387006E+04  0.25500000920E-02 0.  1.
       -2   -1    0    0    0  501  0.00000000000E+00  0.00000000000E+00 -0.34756339214E+03  0.34756339215E+03  0.25500000920E-02 0. -1.
    10030    2    1    2    0    0  0.00000000000E+00  0.00000000000E+00  0.15441753084E+04  0.22393020927E+04  0.16217263885E+04 0.  0.
        1    1    3    3  502    0 -0.13802020270E+02 -0.35801834966E+03 -0.23233593717E+03  0.42702180528E+03  0.50400001928E-02 0. -1.
       -1    1    3    3    0  502  0.13802020270E+02  0.35801834966E+03  0.17765112456E+04  0.18122802875E+04  0.50400001928E-02 0.  1.
</event>
<event>
 5   0  0.9939872E-05  0.1606587E+04  0.7818609E-02  0.8816511E-01
        1   -1    0    0  501    0  0.00000000000E+00  0.00000000000E+00  0.11674328609E+04  0.11674328610E+04  0.50400001928E-02 0. -1.
       -1   -1    0    0    0  501  0.00000000000E+00  0.00000000000E+00 -0.55273463020E+03  0.55273463022E+03  0.50400001928E-02 0.  1.
    10030    2    1    2    0    0  0.00000000000E+00  0.00000000000E+00  0.61469823074E+03  0.17201674912E+04  0.16065871538E+04 0.  0.
        3    1    3    3  502    0 -0.67188747963E+03 -0.25948811696E+03  0.68818267433E+03  0.99617381594E+03  0.10100000352E+00 0. -1.
       -3    1    3    3    0  502  0.67188747963E+03  0.25948811696E+03 -0.73484443585E+02  0.72399367523E+03  0.10100000352E+00 0.  1.
</event>
<event>
 5   0  0.1914170E-04  0.1601378E+04  0.7818609E-02  0.8819702E-01
        2   -1    0    0  501    0  0.00000000000E+00  0.00000000000E+00  0.22293610363E+04  0.22293610363E+04  0.25500000920E-02 0. -1.
       -2   -1    0    0    0  501  0.00000000000E+00  0.00000000000E+00 -0.28757244844E+03  0.28757244845E+03  0.25500000920E-02 0.  1.
    10030    2    1    2    0    0  0.00000000000E+00  0.00000000000E+00  0.19417885878E+04  0.25169334847E+04  0.16013779212E+04 0.  0.
        3    1    3    3  502    0  0.44631817757E+03 -0.33228203790E+03  0.65966093890E+02  0.56032383859E+03  0.10100000352E+00 0.  1.
       -3    1    3    3    0  502 -0.44631817757E+03  0.33228203790E+03  0.18758224939E+04  0.19566096461E+04  0.10100000352E+00 0. -1.
</event>
<event>
 5   0  0.9616567E-05  0.1574205E+04  0.7818609E-02  0.8836553E-01
        1   -1    0    0  501    0  0.00000000000E+00  0.00000000000E+00  0.93938812260E+03  0.93938812262E+03  0.50400001928E-02 0.  1.
       -1   -1    0    0    0  501  0.00000000000E+00  0.00000000000E+00 -0.65950418506E+03  0.65950418508E+03  0.50400001928E-02 0. -1.
    10030    2    1    2    0    0  0.00000000000E+00  0.00000000000E+00  0.27988393755E+03  0.15988923077E+04  0.15742050670E+04 0.  0.
        5    1    3    3  502    0 -0.55369586779E+02  0.20371053004E+03  0.91008410108E+03  0.93425849325E+03  0.46999998093E+01 0.  1.
       -5    1    3    3    0  502  0.55369586779E+02 -0.20371053004E+03 -0.63020016353E+03  0.66463381444E+03  0.46999998093E+01 0. -1.
</event>
<event>
 5   0  0.1774934E-04  0.1627530E+04  0.7818609E-02  0.8803812E-01
        2   -1    0    0  501    0  0.00000000000E+00  0.00000000000E+00  0.93211623838E+03  0.93211623838E+03  0.25500000920E-02 0.  1.
       -2   -1    0    0    0  501  0.00000000000E+00  0.00000000000E+00 -0.71044048871E+03  0.71044048871E+03  0.25500000920E-02 0. -1.
    10030    2    1    2    0    0  0.00000000000E+00  0.00000000000E+00  0.22167574967E+03  0.16425567271E+04  0.16275295585E+04 0.  0.
        1    1    3    3  502    0 -0.36528633942E+03 -0.72433228344E+03  0.46044249597E+02  0.81253396208E+03  0.50400001928E-02 0.  1.
       -1    1    3    3    0  502  0.36528633942E+03  0.72433228344E+03  0.17563150007E+03  0.83002276501E+03  0.50400001928E-02 0. -1.
</event>
<event>
 5   0  0.1914170E-04  0.1597911E+04  0.7818609E-02  0.8821833E-01
       -2   -1    0    0    0  501  0.00000000000E+00  0.00000000000E+00  0.64582796976E+03  0.64582796977E+03  0.25500000920E-02 0.  1.
        2   -1    0    0  501    0  0.00000000000E+00  0.00000000000E+00 -0.98838939709E+03  0.98838939710E+03  0.25500000920E-02 0. -1.
    10030    2    1    2    0    0  0.00000000000E+00  0.00000000000E+00 -0.34256142733E+03  0.16342173669E+04  0.15979105327E+04 0.  0.
        3    1    3    3  502    0  0.34174007621E+03  0.67960418045E+03  0.78567823512E+02  0.76473592492E+03  0.10100000352E+00 0.  1.
       -3    1    3    3    0  502 -0.34174007621E+03 -0.67960418045E+03 -0.42112925084E+03  0.86948144194E+03  0.10100000352E+00 0. -1.
</event>
<event>
 5   0  0.9616567E-05  0.1600090E+04  0.7818609E-02  0.8820493E-01
       -1   -1    0    0    0  501  0.00000000000E+00  0.00000000000E+00  0.52492797151E+03  0.52492797153E+03  0.50400001928E-02 0. -1.
        1   -1    0    0  501    0  0.00000000000E+00  0.00000000000E+00 -0.12193520434E+04  0.12193520434E+04  0.50400001928E-02 0.  1.
    10030    2    1    2    0    0  0.00000000000E+00  0.00000000000E+00 -0.69442407187E+03  0.17442800149E+04  0.16000899909E+04 0.  0.
        5    1    3    3  502    0 -0.48691755155E+03  0.51926323896E+03 -0.74525566117E+03  0.10306071530E+04  0.46999998093E+01 0. -1.
       -5    1    3    3    0  502  0.48691755155E+03 -0.51926323896E+03  0.50831589299E+02  0.71367286190E+03  0.46999998093E+01 0.  1.
</event>
<event>
 5   0  0.9432152E-05  0.1605488E+04  0.7818609E-02  0.8817184E-01
       -1   -1    0    0    0  501  0.00000000000E+00  0.00000000000E+00  0.25188573003E+03  0.25188573008E+03  0.50400001928E-02 0. -1.
        1   -1    0    0  501    0  0.00000000000E+00  0.00000000000E+00 -0.25582934369E+04  0.25582934369E+04  0.50400001928E-02 0.  1.
    10030    2    1    2    0    0  0.00000000000E+00  0.00000000000E+00 -0.23064077068E+04  0.28101791670E+04  0.16054876020E+04 0.  0.
        4    1    3    3  502    0  0.55308728530E+02 -0.68484240207E+03 -0.42658818539E+03  0.80873188631E+03  0.12699999809E+01 0.  1.
       -4    1    3    3    0  502 -0.55308728530E+02  0.68484240207E+03 -0.18798195215E+04  0.20014472807E+04  0.12699999809E+01 0. -1.
</event>
<event>
 5   0  0.9726935E-05  0.1605890E+04  0.7818609E-02  0.8816937E-01
       -1   -1    0    0    0  501  0.00000000000E+00  0.00000000000E+00  0.73723906167E+03  0.73723906168E+03  0.50400001928E-02 0.  1.
        1   -1    0    0  501    0  0.00000000000E+00  0.00000000000E+00 -0.87450738380E+03  0.87450738381E+03  0.50400001928E-02 0. -1.
    10030    2    1    2    0    0  0.00000000000E+00  0.00000000000E+00 -0.13726832213E+03  0.16117464455E+04  0.16058904111E+04 0.  0.
        2    1    3    3  502    0  0.34374169967E+03 -0.50092028384E+03  0.45829608898E+03  0.76099592117E+03  0.25500000920E-02 0.  1.
       -2    1    3    3    0  502 -0.34374169967E+03  0.50092028384E+03 -0.59556441111E+03  0.85075052433E+03  0.25500000920E-02 0. -1.
</event>
<event>
 5   0  0.1858913E-04  0.1600091E+04  0.7818609E-02  0.8820492E-01
       -2   -1    0    0    0  501  0.00000000000E+00  0.00000000000E+00  0.15444607307E+04  0.15444607307E+04  0.25500000920E-02 0.  1.
        2   -1    0    0  501    0  0.00000000000E+00  0.00000000000E+00 -0.41443121458E+03  0.41443121459E+03  0.25500000920E-02 0. -1.
    10030    2    1    2    0    0  0.00000000000E+00  0.00000000000E+00  0.11300295161E+04  0.19588919453E+04  0.16000909180E+04 0.  0.
        4    1    3    3  502    0  0.55560392580E+03 -0.13985177718E+03  0.12486361312E+04  0.13738078624E+04  0.12699999809E+01 0.  1.
       -4    1    3    3    0  502 -0.55560392580E+03  0.13985177718E+03 -0.11860661506E+03  0.58508408283E+03  0.12699999809E+01 0. -1.
</event>
<event>
 5   0  0.1774934E-04  0.1606343E+04  0.7818609E-02  0.8816661E-01
        2   -1    0    0  501    0  0.00000000000E+00  0.00000000000E+00  0.23221128152E+04  0.23221128152E+04  0.25500000920E-02 0.  1.
       -2   -1    0    0    0  501  0.00000000000E+00  0.00000000000E+00 -0.27780063258E+03  0.27780063259E+03  0.25500000920E-02 0. -1.
    10030    2    1    2    0    0  0.00000000000E+00  0.00000000000E+00  0.20443121826E+04  0.25999134478E+04  0.16063429385E+04 0.  0.
        1    1    3    3  502    0 -0.76915066332E+03  0.78708959220E+02  0.13741502253E+04  0.15767297437E+04  0.50400001928E-02 0.  1.
       -1    1    3    3    0  502  0.76915066332E+03 -0.78708959220E+02  0.67016195737E+03  0.10231837041E+04  0.50400001928E-02 0. -1.
</event>
<event>
 5   0  0.9673017E-05  0.1598429E+04  0.7818609E-02  0.8821514E-01
       -1   -1    0    0    0  501  0.00000000000E+00  0.00000000000E+00  0.32853739225E+03  0.32853739229E+03  0.50400001928E-02 0. -1.
        1   -1    0    0  501    0  0.00000000000E+00  0.00000000000E+00 -0.19442038453E+04  0.19442038453E+04  0.50400001928E-02 0.  1.
    10030    2    1    2    0    0  0.00000000000E+00  0.00000000000E+00 -0.16156664531E+04  0.22727412376E+04  0.15984288053E+04 0.  0.
        1    1    3    3  502    0  0.71879835677E+03  0.28525241792E+03 -0.52097102426E+03  0.93244347163E+03  0.50400001928E-02 0. -1.
       -1    1    3    3    0  502 -0.71879835677E+03 -0.28525241792E+03 -0.10946954288E+04  0.13402977660E+04  0.50400001928E-02 0.  1.
</event>
<event>
 5   0  0.1835088E-04  0.1602720E+04  0.7818609E-02  0.8818879E-01
       -2   -1    0    0    0  501  0.00000000000E+00  0.00000000000E+00  0.10522684304E+04  0.10522684304E+04  0.25500000920E-02 0.  1.
        2   -1    0    0  501    0  0.00000000000E+00  0.00000000000E+00 -0.61027974508E+03  0.61027974509E+03  0.25500000920E-02 0. -1.
    10030    2    1    2    0    0  0.00000000000E+00  0.00000000000E+00  0.44198868534E+03  0.16625481755E+04  0.16027203243E+04 0.  0.
        5    1    3    3  502    0 -0.40641828794E+02 -0.79875128607E+03  0.16912121314E+03  0.81748360838E+03  0.46999998093E+01 0.  1.
       -5    1    3    3    0  502  0.40641828794E+02  0.79875128607E+03  0.27286747220E+03  0.84506456713E+03  0.46999998093E+01 0. -1.
</event>
<event>
 5   0  0.9432152E-05  0.1547120E+04  0.7818609E-02  0.8853709E-01
       -1   -1    0    0    0  501  0.00000000000E+00  0.00000000000E+00  0.37005592199E+03  0.37005592202E+03  0.50400001928E-02 0. -1.
        1   -1    0    0  501    0  0.00000000000E+00  0.00000000000E+00 -0.16170393648E+04  0.16170393648E+04  0.50400001928E-02 0.  1.
    10030    2    1    2    0    0  0.00000000000E+00  0.00000000000E+00 -0.12469834428E+04  0.19870952868E+04  0.15471198959E+04 0.  0.
        4    1    3    3  502    0  0.11345213205E+03 -0.33170923256E+03  0.26216589750E+03  0.43776131847E+03  0.12699999809E+01 0. -1.
       -4    1    3    3    0  502 -0.11345213205E+03  0.33170923256E+03 -0.15091493403E+04  0.15493339683E+04  0.12699999809E+01 0.  1.
</event>
<event>
 5   0  0.9939872E-05  0.1600014E+04  0.7818609E-02  0.8820540E-01
        1   -1    0    0  501    0  0.00000000000E+00  0.00000000000E+00  0.21434397442E+04  0.21434397442E+04  0.50400001928E-02 0.  1.
       -1   -1    0    0    0  501  0.00000000000E+00  0.00000000000E+00 -0.29859054301E+03  0.29859054305E+03  0.50400001928E-02 0. -1.
    10030    2    1    2    0    0  0.00000000000E+00  0.00000000000E+00  0.18448492012E+04  0.24420302872E+04  0.16000135464E+04 0.  0.
        3    1    3    3  502    0  0.25875990160E+03  0.35693241119E+03 -0.96462339640E+02  0.45128973620E+03  0.10100000352E+00 0. -1.
       -3    1    3    3    0  502 -0.25875990160E+03 -0.35693241119E+03  0.19413115408E+04  0.19907405510E+04  0.10100000352E+00 0.  1.
</event>
<event>
 5   0  0.6838750E-05  0.1585529E+04  0.7818609E-02  0.8829488E-01
        3   -1    0    0  501    0  0.00000000000E+00  0.00000000000E+00  0.52163701615E+03  0.52163702593E+03  0.10100000352E+00 0.  1.
       -3   -1    0    0    0  501  0.00000000000E+00  0.00000000000E+00 -0.12048141546E+04  0.12048141588E+04  0.10100000352E+00 0. -1.
    10030    2    1    2    0    0  0.00000000000E+00  0.00000000000E+00 -0.68317713843E+03  0.17264511847E+04  0.15855291517E+04 0.  0.
        5    1    3    3  502    0 -0.18650028858E+03 -0.27230414973E+03  0.44325283766E+03  0.55265457177E+03  0.46999998093E+01 0.  1.
       -5    1    3    3    0  502  0.18650028858E+03  0.27230414973E+03 -0.11264299761E+04  0.11737966130E+04  0.46999998093E+01 0. -1.
</event>
<event>
 5   0  0.9726935E-05  0.1593861E+04  0.7818609E-02  0.8824328E-01
        1   -1    0    0  501    0  0.00000000000E+00  0.00000000000E+00  0.21030737830E+04  0.21030737830E+04  0.50400001928E-02 0.  1.
       -1   -1    0    0    0  501  0.00000000000E+00  0.00000000000E+00 -0.30198566250E+03  0.30198566254E+03  0.50400001928E-02 0. -1.
    10030    2    1    2    0    0  0.00000000000E+00  0.00000000000E+00  0.18010881205E+04  0.24050594455E+04  0.15938608844E+04 0.  0.
        2    1    3    3  502    0  0.77091872728E+03 -0.11193237336E+03  0.64690728823E+03  0.10125875665E+04  0.25500000920E-02 0. -1.
       -2    1    3    3    0  502 -0.77091872728E+03  0.11193237336E+03  0.11541808322E+04  0.13924718790E+04  0.25500000920E-02 0.  1.
</event>
<event>
 5   0  0.1858913E-04  0.1590646E+04  0.7818609E-02  0.8826315E-01
       -2   -1    0    0    0  501  0.00000000000E+00  0.00000000000E+00  0.92809323958E+03  0.92809323958E+03  0.25500000920E-02 0. -1.
        2   -1    0    0  501    0  0.00000000000E+00  0.00000000000E+00 -0.68154637674E+03  0.68154637674E+03  0.25500000920E-02 0.  1.
    10030    2    1    2    0    0  0.00000000000E+00  0.00000000000E+00  0.24654686284E+03  0.16096396163E+04  0.15906458873E+04 0.  0.
        4    1    3    3  502    0 -0.47537481071E+03  0.54126146466E+03 -0.21778486096E+03  0.75258025642E+03  0.12699999809E+01 0.  1.
       -4    1    3    3    0  502  0.47537481071E+03 -0.54126146466E+03  0.46433172380E+03  0.85705935991E+03  0.12699999809E+01 0. -1.
</event>
<event>
 5   0  0.9673017E-05  0.1552847E+04  0.7818609E-02  0.8850051E-01
        1   -1    0    0  501    0  0.00000000000E+00  0.00000000000E+00  0.19599934717E+04  0.19599934717E+04  0.50400001928E-02 0. -1.
       -1   -1    0    0    0  501  0.00000000000E+00  0.00000000000E+00 -0.30756914132E+03  0.30756914136E+03  0.50400001928E-02 0.  1.
    10030    2    1    2    0    0  0.00000000000E+00  0.00000000000E+00  0.16524243304E+04  0.22675626131E+04  0.15528470744E+04 0.  0.
        1    1    3    3  502    0 -0.62002818381E+03  0.39560143006E+03  0.11895153038E+04  0.13985285475E+04  0.50400001928E-02 0. -1.
       -1    1    3    3    0  502  0.62002818381E+03 -0.39560143006E+03  0.46290902657E+03  0.86903406556E+03  0.50400001928E-02 0.  1.
</event>
<event>
 5   0  0.9939872E-05  0.1625974E+04  0.7818609E-02  0.8804748E-01
        1   -1    0    0  501    0  0.00000000000E+00  0.00000000000E+00  0.56482674093E+03  0.56482674095E+03  0.50400001928E-02 0.  1.
       -1   -1    0    0    0  501  0.00000000000E+00  0.00000000000E+00 -0.11701775394E+04  0.11701775394E+04  0.50400001928E-02 0. -1.
    10030    2    1    2    0    0  0.00000000000E+00  0.00000000000E+00 -0.60535079842E+03  0.17350042803E+04  0.16259736356E+04 0.  0.
        3    1    3    3  502    0  0.80709078902E+03 -0.35930792881E+02 -0.20569071535E+03  0.83366374767E+03  0.10100000352E+00 0.  1.
       -3    1    3    3    0  502 -0.80709078902E+03  0.35930792881E+02 -0.39966008308E+03  0.90134053265E+03  0.10100000352E+00 0. -1.
</event>
<event>
 5   0  0.1832646E-04  0.1610860E+04  0.7818609E-02  0.8813904E-01
       -2   -1    0    0    0  501  0.00000000000E+00  0.00000000000E+00  0.65721574249E+03  0.65721574250E+03  0.25500000920E-02 0.  1.
        2   -1    0    0  501    0  0.00000000000E+00  0.00000000000E+00 -0.98706892085E+03  0.98706892085E+03  0.25500000920E-02 0. -1.
    10030    2    1    2    0    0  0.00000000000E+00  0.00000000000E+00 -0.32985317836E+03  0.16442846634E+04  0.16108596881E+04 0.  0.
        2    1    3    3  502    0  0.35718506805E+03 -0.59418705887E+03  0.25355318243E+03  0.73819282718E+03  0.25500000920E-02 0.  1.
       -2    1    3    3    0  502 -0.35718506805E+03  0.59418705887E+03 -0.58340636079E+03  0.90609183618E+03  0.25500000920E-02 0. -1.
</event>
<event>
 5   0  0.1858913E-04  0.1598318E+04  0.7818609E-02  0.8821582E-01
       -2   -1    0    0    0  501  0.00000000000E+00  0.00000000000E+00  0.38168575035E+03  0.38168575036E+03  0.25500000920E-02 0. -1.
        2   -1    0    0  501    0  0.00000000000E+00  0.00000000000E+00 -0.16732481505E+04  0.16732481505E+04  0.25500000920E-02 0.  1.
    10030    2    1    2    0    0  0.00000000000E+00  0.00000000000E+00 -0.12915624002E+04  0.20549339009E+04  0.15983178356E+04 0.  0.
        4    1    3    3  502    0 -0.30302251229E+03 -0.62348028615E+03 -0.11569976723E+04  0.13487755695E+04  0.12699999809E+01 0.  1.
       -4    1    3    3    0  502  0.30302251229E+03  0.62348028615E+03 -0.13456472789E+03  0.70615833144E+03  0.12699999809E+01 0. -1.
</event>
<event>
 5   0  0.9616567E-05  0.1608907E+04  0.7818609E-02  0.8815095E-01
       -1   -1    0    0    0  501  0.00000000000E+00  0.00000000000E+00  0.94607342425E+03  0.94607342426E+03  0.50400001928E-02 0.  1.
        1   -1    0    0  501    0  0.00000000000E+00  0.00000000000E+00 -0.68403314237E+03  0.68403314239E+03  0.50400001928E-02 0. -1.
    10030    2    1    2    0    0  0.00000000000E+00  0.00000000000E+00  0.26204028188E+03  0.16301065666E+04  0.16089071786E+04 0.  0.
        5    1    3    3  502    0  0.18629500390E+03  0.65608584208E+03  0.56321912686E+03  0.88452944299E+03  0.46999998093E+01 0.  1.
       -5    1    3    3    0  502 -0.18629500390E+03 -0.65608584208E+03 -0.30117884498E+03  0.74557712366E+03  0.46999998093E+01 0. -1.
</event>
<event>
 5   0  0.1858913E-04  0.1601061E+04  0.7818609E-02  0.8819896E-01
       -2   -1    0    0    0  501  0.00000000000E+00  0.00000000000E+00  0.59013653861E+03  0.59013653861E+03  0.25500000920E-02 0. -1.
        2   -1    0    0  501    0  0.00000000000E+00  0.00000000000E+00 -0.10859337908E+04  0.10859337908E+04  0.25500000920E-02 0.  1.
    10030    2    1    2    0    0  0.00000000000E+00  0.00000000000E+00 -0.49579725219E+03  0.16760703294E+04  0.16010611587E+04 0.  0.
        4    1    3    3  502    0  0.30282375542E+03  0.32062784430E+03  0.45149030612E+03  0.63114938866E+03  0.12699999809E+01 0. -1.
       -4    1    3    3    0  502 -0.30282375542E+03 -0.32062784430E+03 -0.94728755831E+03  0.10449209408E+04  0.12699999809E+01 0.  1.
</event>
<event>
 5   0  0.9726935E-05  0.1599449E+04  0.7818609E-02  0.8820887E-01
       -1   -1    0    0    0  501  0.00000000000E+00  0.00000000000E+00  0.40616780016E+03  0.40616780019E+03  0.50400001928E-02 0. -1.
        1   -1    0    0  501    0  0.00000000000E+00  0.00000000000E+00 -0.15746184736E+04  0.15746184736E+04  0.50400001928E-02 0.  1.
    10030    2    1    2    0    0  0.00000000000E+00  0.00000000000E+00 -0.11684506734E+04  0.19807862738E+04  0.15994490571E+04 0.  0.
        2    1    3    3  502    0 -0.59516417550E+03  0.31766431436E+03 -0.11160653369E+04  0.13041214854E+04  0.25500000920E-02 0.  1.
       -2    1    3    3    0  502  0.59516417550E+03 -0.31766431436E+03 -0.52385336565E+02  0.67666478844E+03  0.25500000920E-02 0. -1.
</event>
<event>
 5   0  0.1835088E-04  0.1609812E+04  0.7818609E-02  0.8814542E-01
       -2   -1    0    0    0  501  0.00000000000E+00  0.00000000000E+00  0.95180762467E+03  0.95180762468E+03  0.25500000920E-02 0. -1.
        2   -1    0    0  501    0  0.00000000000E+00  0.00000000000E+00 -0.68067747970E+03  0.68067747971E+03  0.25500000920E-02 0.  1.
    10030    2    1    2    0    0  0.00000000000E+00  0.00000000000E+00  0.27113014497E+03  0.16324851044E+04  0.16098124302E+04 0.  0.
        5    1    3    3  502    0  0.51417742448E+03  0.26650597184E+03  0.70240818326E+03  0.91038629316E+03  0.46999998093E+01 0. -1.
       -5    1    3    3    0  502 -0.51417742448E+03 -0.26650597184E+03 -0.43127803829E+03  0.72209881123E+03  0.46999998093E+01 0.  1.
</event>
<event>
 5   0  0.9432152E-05  0.1589405E+04  0.7818609E-02  0.8827084E-01
        1   -1    0    0  501    0  0.00000000000E+00  0.00000000000E+00  0.14776830494E+04  0.14776830494E+04  0.50400001928E-02 0. -1.
       -1   -1    0    0    0  501  0.00000000000E+00  0.00000000000E+00 -0.42739326617E+03  0.42739326620E+03  0.50400001928E-02 0.  1.
    10030    2    1    2    0    0  0.00000000000E+00  0.00000000000E+00  0.10502897832E+04  0.19050763156E+04  0.15894046494E+04 0.  0.
        4    1    3    3  502    0  0.48848974603E+03  0.39021636640E+03  0.11131472494E+04  0.12767104043E+04  0.12699999809E+01 0. -1.
       -4    1    3    3    0  502 -0.48848974603E+03 -0.39021636640E+03 -0.62857466194E+02  0.62836591134E+03  0.12699999809E+01 0.  1.
</event>
<event>
 5   0  0.1914170E-04  0.1599547E+04  0.7818609E-02  0.8820827E-01
       -2   -1    0    0    0  501  0.00000000000E+00  0.00000000000E+00  0.62008488839E+03  0.62008488839E+03  0.25500000920E-02 0. -1.
        2   -1    0    0  501    0  0.00000000000E+00  0.00000000000E+00 -0.10315318332E+04  0.10315318332E+04  0.25500000920E-02 0.  1.
    10030    2    1    2    0    0  0.00000000000E+00  0.00000000000E+00 -0.41144694485E+03  0.16516167216E+04  0.15995465629E+04 0.  0.
        3    1    3    3  502    0  0.46046150543E+03 -0.59547509821E+03  0.73298851432E+02  0.75629896363E+03  0.10100000352E+00 0.  1.
       -3    1    3    3    0  502 -0.46046150543E+03  0.59547509821E+03 -0.48474579628E+03  0.89531775799E+03  0.10100000352E+00 0. -1.
</event>
<event>
 5   0  0.6838750E-05  0.1595628E+04  0.7818609E-02  0.8823238E-01
        4   -1    0    0  501    0  0.00000000000E+00  0.00000000000E+00  0.11729073438E+04  0.11729080314E+04  0.12699999809E+01 0. -1.
       -4   -1    0    0    0  501  0.00000000000E+00  0.00000000000E+00 -0.54267342357E+03  0.54267490964E+03  0.12699999809E+01 0.  1.
    10030    2    1    2    0    0  0.00000000000E+00  0.00000000000E+00  0.63023392027E+03  0.17155829411E+04  0.15956284133E+04 0.  0.
        1    1    3    3  502    0  0.66623270259E+03  0.43850228088E+03  0.29479514885E+03  0.85032608107E+03  0.50400001928E-02 0.  1.
       -1    1    3    3    0  502 -0.66623270259E+03 -0.43850228088E+03  0.33543877143E+03  0.86525685998E+03  0.50400001928E-02 0. -1.
</event>
<event>
 5   0  0.1832646E-04  0.1600142E+04  0.7818609E-02  0.8820461E-01
        2   -1    0    0  501    0  0.00000000000E+00  0.00000000000E+00  0.65630974112E+03  0.65630974113E+03  0.25500000920E-02 0.  1.
       -2   -1    0    0    0  501  0.00000000000E+00  0.00000000000E+00 -0.97532280345E+03  0.97532280345E+03  0.25500000920E-02 0. -1.
    10030    2    1    2    0    0  0.00000000000E+00  0.00000000000E+00 -0.31901306233E+03  0.16316325446E+04  0.16001423145E+04 0.  0.
        2    1    3    3  502    0  0.42319552368E+03  0.16329509188E+03  0.51251891995E+03  0.68442339352E+03  0.25500000920E-02 0.  1.
       -2    1    3    3    0  502 -0.42319552368E+03 -0.16329509188E+03 -0.83153198228E+03  0.94720915106E+03  0.25500000920E-02 0. -1.
</event>
<event>
 5   0  0.6838750E-05  0.1596212E+04  0.7818609E-02  0.8822879E-01
       -3   -1    0    0    0  501  0.00000000000E+00  0.00000000000E+00  0.10805922904E+04  0.10805922951E+04  0.10100000352E+00 0. -1.
        3   -1    0    0  501    0  0.00000000000E+00  0.00000000000E+00 -0.58946639651E+03  0.58946640516E+03  0.10100000352E+00 0.  1.
    10030    2    1    2    0    0  0.00000000000E+00  0.00000000000E+00  0.49112589388E+03  0.16700587003E+04  0.15962115833E+04 0.  0.
        4    1    3    3  502    0 -0.19952260255E+03  0.70068362749E+03  0.58653013525E+03  0.93529996644E+03  0.12699999809E+01 0.  1.
       -4    1    3    3    0  502  0.19952260255E+03 -0.70068362749E+03 -0.95404241374E+02  0.73475873383E+03  0.12699999809E+01 0. -1.
</event>
<event>
 5   0  0.1858913E-04  0.1615691E+04  0.7818609E-02  0.8810966E-01
        2   -1    0    0  501    0  0.00000000000E+00  0.00000000000E+00  0.81698238346E+03  0.81698238346E+03  0.25500000920E-02 0.  1.
       -2   -1    0    0    0  501  0.00000000000E+00  0.00000000000E+00 -0.79881110167E+03  0.79881110167E+03  0.25500000920E-02 0. -1.
    10030    2    1    2    0    0  0.00000000000E+00  0.00000000000E+00  0.18171281792E+02  0.16157934851E+04  0.16156913044E+04 0.  0.
        4    1    3    3  502    0  0.23656621618E+03  0.53527605282E+03 -0.54784181000E+03  0.80163351293E+03  0.12699999809E+01 0. -1.
       -4    1    3    3    0  502 -0.23656621618E+03 -0.53527605282E+03  0.56601309180E+03  0.81415997221E+03  0.12699999809E+01 0.  1.
</event>
<event>
 5   0  0.1835088E-04  0.1597491E+04  0.7818609E-02  0.8822091E-01
        2   -1    0    0  501    0  0.00000000000E+00  0.00000000000E+00  0.40391301112E+03  0.40391301113E+03  0.25500000920E-02 0. -1.
       -2   -1    0    0    0  501  0.00000000000E+00  0.00000000000E+00 -0.15795332415E+04  0.15795332415E+04  0.25500000920E-02 0.  1.
    10030    2    1    2    0    0  0.00000000000E+00  0.00000000000E+00 -0.11756202303E+04  0.19834462526E+04  0.15974905668E+04 0.  0.
        5    1    3    3  502    0  0.63509334146E+03  0.47749146103E+03 -0.48671075743E+03  0.93179992440E+03  0.46999998093E+01 0.  1.
       -5    1    3    3    0  502 -0.63509334146E+03 -0.47749146103E+03 -0.68890947291E+03  0.10516463282E+04  0.46999998093E+01 0. -1.
</event>
<event>
 5   0  0.9432152E-05  0.1613143E+04  0.7818609E-02  0.8812514E-01
        1   -1    0    0  501    0  0.00000000000E+00  0.00000000000E+00  0.10919815408E+04  0.10919815408E+04  0.50400001928E-02 0. -1.
       -1   -1    0    0    0  501  0.00000000000E+00  0.00000000000E+00 -0.59575849753E+03  0.59575849756E+03  0.50400001928E-02 0.  1.
    10030    2    1    2    0    0  0.00000000000E+00  0.00000000000E+00  0.49622304328E+03  0.16877400384E+04  0.16131426250E+04 0.  0.
        4    1    3    3  502    0  0.35030637487E+02  0.29318427395E+03 -0.53717876357E+03  0.61298189287E+03  0.12699999809E+01 0.  1.
       -4    1    3    3    0  502 -0.35030637487E+02 -0.29318427395E+03  0.10334018068E+04  0.10747581455E+04  0.12699999809E+01 0. -1.
</event>
<event>
 5   0  0.6838750E-05  0.1600980E+04  0.7818609E-02  0.8819946E-01
       -4   -1    0    0    0  501  0.00000000000E+00  0.00000000000E+00  0.60328568787E+03  0.60328702463E+03  0.12699999809E+01 0. -1.
        4   -1    0    0  501    0  0.00000000000E+00  0.00000000000E+00 -0.10621539586E+04  0.10621547178E+04  0.12699999809E+01 0.  1.
    10030    2    1    2    0    0  0.00000000000E+00  0.00000000000E+00 -0.45886827072E+03  0.16654417425E+04  0.16009797337E+04 0.  0.
        5    1    3    3  502    0 -0.73309332879E+03 -0.31946241575E+03 -0.19221835990E+03  0.82246705203E+03  0.46999998093E+01 0. -1.
       -5    1    3    3    0  502  0.73309332879E+03  0.31946241575E+03 -0.26664991083E+03  0.84297469045E+03  0.46999998093E+01 0.  1.
</event>
<event>
 5   0  0.1835088E-04  0.1599706E+04  0.7818609E-02  0.8820729E-01
        2   -1    0    0  501    0  0.00000000000E+00  0.00000000000E+00  0.97995908781E+03  0.97995908782E+03  0.25500000920E-02 0.  1.
       -2   -1    0    0    0  501  0.00000000000E+00  0.00000000000E+00 -0.65284813690E+03  0.65284813691E+03  0.25500000920E-02 0. -1.
    10030    2    1    2    0    0  0.00000000000E+00  0.00000000000E+00  0.32711095091E+03  0.16328072247E+04  0.15997055538E+04 0.  0.
        5    1    3    3  502    0  0.44498287547E+03 -0.65696482981E+03  0.26628514449E+03  0.83698411888E+03  0.46999998093E+01 0.  1.
       -5    1    3    3    0  502 -0.44498287547E+03  0.65696482981E+03  0.60825806416E+02  0.79582310585E+03  0.46999998093E+01 0. -1.
</event>
<event>
 5   0  0.9939872E-05  0.1597232E+04  0.7818609E-02  0.8822250E-01
       -1   -1    0    0    0  501  0.00000000000E+00  0.00000000000E+00  0.29392873147E+03  0.29392873152E+03  0.50400001928E-02 0.  1.
        1   -1    0    0  501    0  0.00000000000E+00  0.00000000000E+00 -0.21698723831E+04  0.21698723831E+04  0.50400001928E-02 0. -1.
    10030    2    1    2    0    0  0.00000000000E+00  0.00000000000E+00 -0.18759436517E+04  0.24638011147E+04  0.15972324027E+04 0.  0.
        3    1    3    3  502    0  0.18486904920E+03 -0.29498630150E+03  0.17072386243E+03  0.38773719299E+03  0.10100000352E+00 0.  1.
       -3    1    3    3    0  502 -0.18486904920E+03  0.29498630150E+03 -0.20466675141E+04  0.20760639217E+04  0.10100000352E+00 0. -1.
</event>
<event>
 5   0  0.1774934E-04  0.1601513E+04  0.7818609E-02  0.8819619E-01
        2   -1    0    0  501    0  0.00000000000E+00  0.00000000000E+00  0.72245405135E+03  0.72245405135E+03  0.25500000920E-02 0. -1.
       -2   -1    0    0    0  501  0.00000000000E+00  0.00000000000E+00 -0.88754535831E+03  0.88754535832E+03  0.25500000920E-02 0.  1.
    10030    2    1    2    0    0  0.00000000000E+00  0.00000000000E+00 -0.16509130696E+03  0.16099994097E+04  0.16015127098E+04 0.  0.
        1    1    3    3  502    0 -0.15969930342E+02 -0.52568033254E+03  0.52448849431E+03  0.74275368150E+03  0.50400001928E-02 0. -1.
       -1    1    3    3    0  502  0.15969930342E+02  0.52568033254E+03 -0.68957980127E+03  0.86724572817E+03  0.50400001928E-02 0.  1.
</event>
<event>
 5   0  0.9673017E-05  0.1601744E+04  0.7818609E-02  0.8819477E-01
        1   -1    0    0  501    0  0.00000000000E+00  0.00000000000E+00  0.12454313142E+04  0.12454313142E+04  0.50400001928E-02 0.  1.
       -1   -1    0    0    0  501  0.00000000000E+00  0.00000000000E+00 -0.51499916155E+03  0.51499916157E+03  0.50400001928E-02 0. -1.
    10030    2    1    2    0    0  0.00000000000E+00  0.00000000000E+00  0.73043215264E+03  0.17604304758E+04  0.16017441526E+04 0.  0.
        1    1    3    3  502    0  0.43349987798E+03  0.65811184601E+03  0.52205137014E+03  0.94528883372E+03  0.50400001928E-02 0.  1.
       -1    1    3    3    0  502 -0.43349987798E+03 -0.65811184601E+03  0.20838078250E+03  0.81514164205E+03  0.50400001928E-02 0. -1.
</event>
<event>
 5   0  0.1774934E-04  0.1600450E+04  0.7818609E-02  0.8820271E-01
        2   -1    0    0  501    0  0.00000000000E+00  0.00000000000E+00  0.14689668647E+04  0.14689668647E+04  0.25500000920E-02 0. -1.
       -2   -1    0    0    0  501  0.00000000000E+00  0.00000000000E+00 -0.43592557275E+03  0.43592557275E+03  0.25500000920E-02 0.  1.
    10030    2    1    2    0    0  0.00000000000E+00  0.00000000000E+00  0.10330412920E+04  0.19048924375E+04  0.16004502140E+04 0.  0.
        1    1    3    3  502    0 -0.11156092445E+02 -0.18643416030E+03 -0.40962117724E+03  0.45019069670E+03  0.50400001928E-02 0.  1.
       -1    1    3    3    0  502  0.11156092445E+02  0.18643416030E+03  0.14426624692E+04  0.14547017408E+04  0.50400001928E-02 0. -1.
</event>
<event>
 5   0  0.1774934E-04  0.1601033E+04  0.7818609E-02  0.8819914E-01
       -2   -1    0    0    0  501  0.00000000000E+00  0.00000000000E+00  0.11610479956E+04  0.11610479956E+04  0.25500000920E-02 0. -1.
        2   -1    0    0  501    0  0.00000000000E+00  0.00000000000E+00 -0.55193796906E+03  0.55193796906E+03  0.25500000920E-02 0.  1.
    10030    2    1    2    0    0  0.00000000000E+00  0.00000000000E+00  0.60911002658E+03  0.17129859647E+04  0.16010327576E+04 0.  0.
        1    1    3    3  502    0  0.23873530562E+03 -0.30602160379E+01  0.11220668017E+04  0.11471869153E+04  0.50400001928E-02 0. -1.
       -1    1    3    3    0  502 -0.23873530562E+03  0.30602160379E+01 -0.51295677516E+03  0.56579904938E+03  0.50400001928E-02 0.  1.
</event>
<event>
 5   0  0.1835088E-04  0.1601770E+04  0.7818609E-02  0.8819461E-01
       -2   -1    0    0    0  501  0.00000000000E+00  0.00000000000E+00  0.17710676540E+04  0.17710676540E+04  0.25500000920E-02 0.  1.
        2   -1    0    0  501    0  0.00000000000E+00  0.00000000000E+00 -0.36216388263E+03  0.36216388264E+03  0.25500000920E-02 0. -1.
    10030    2    1    2    0    0  0.00000000000E+00  0.00000000000E+00  0.14089037713E+04  0.21332315366E+04  0.16017699435E+04 0.  0.
        5    1    3    3  502    0  0.56275676125E+03 -0.29907939843E+03  0.58494922089E+02  0.63999015993E+03  0.46999998093E+01 0. -1.
       -5    1    3    3    0  502 -0.56275676125E+03  0.29907939843E+03  0.13504088493E+04  0.14932413767E+04  0.46999998093E+01 0.  1.
</event>
<event>
 5   0  0.1914170E-04  0.1565816E+04  0.7818609E-02  0.8841828E-01
       -2   -1    0    0    0  501  0.00000000000E+00  0.00000000000E+00  0.47074140607E+03  0.47074140608E+03  0.25500000920E-02 0. -1.
        2   -1    0    0  501    0  0.00000000000E+00  0.00000000000E+00 -0.13020844074E+04  0.13020844074E+04  0.25500000920E-02 0.  1.
    10030    2    1    2    0    0  0.00000000000E+00  0.00000000000E+00 -0.83134300128E+03  0.17728258134E+04  0.15658161383E+04 0.  0.
        3    1    3    3  502    0  0.67028099949E+03 -0.31450262307E+03 -0.12755572368E+03  0.75130485892E+03  0.10100000352E+00 0. -1.
       -3    1    3    3    0  502 -0.67028099949E+03  0.31450262307E+03 -0.70378727760E+03  0.10215209545E+04  0.10100000352E+00 0.  1.
</event>
<event>
 5   0  0.9726935E-05  0.1596832E+04  0.7818609E-02  0.8822496E-01
       -1   -1    0    0    0  501  0.00000000000E+00  0.00000000000E+00  0.75361075760E+03  0.75361075761E+03  0.50400001928E-02 0. -1.
        1   -1    0    0  501    0  0.00000000000E+00  0.00000000000E+00 -0.84588550747E+03  0.84588550749E+03  0.50400001928E-02 0.  1.
    10030    2    1    2    0    0  0.00000000000E+00  0.00000000000E+00 -0.92274749873E+02  0.15994962651E+04  0.15968323871E+04 0.  0.
        2    1    3    3  502    0  0.28750816092E+03 -0.79698429317E+02 -0.78795073328E+03  0.84254325723E+03  0.25500000920E-02 0.  1.
       -2    1    3    3    0  502 -0.28750816092E+03  0.79698429317E+02  0.69567598340E+03  0.75695300787E+03  0.25500000920E-02 0. -1.
</event>
<event>
 5   0  0.9939872E-05  0.1606028E+04  0.7818609E-02  0.8816853E-01
       -1   -1    0    0    0  501  0.00000000000E+00  0.00000000000E+00  0.31225059976E+03  0.31225059980E+03  0.50400001928E-02 0.  1.
        1   -1    0    0  501    0  0.00000000000E+00  0.00000000000E+00 -0.20651087396E+04  0.20651087396E+04  0.50400001928E-02 0. -1.
    10030    2    1    2    0    0  0.00000000000E+00  0.00000000000E+00 -0.17528581398E+04  0.23773593394E+04  0.16060279481E+04 0.  0.
        3    1    3    3  502    0  0.37450395867E+03  0.23045769266E+03 -0.18710439749E+04  0.19220222500E+04  0.10100000352E+00 0. -1.
       -3    1    3    3    0  502 -0.37450395867E+03 -0.23045769266E+03  0.11818583509E+03  0.45533708940E+03  0.10100000352E+00 0.  1.
</event>
<event>
 5   0  0.6838750E-05  0.1600619E+04  0.7818609E-02  0.8820168E-01
       -3   -1    0    0    0  501  0.00000000000E+00  0.00000000000E+00  0.49859923880E+03  0.49859924903E+03  0.10100000352E+00 0.  1.
        3   -1    0    0  501    0  0.00000000000E+00  0.00000000000E+00 -0.12845894020E+04  0.12845894060E+04  0.10100000352E+00 0. -1.
    10030    2    1    2    0    0  0.00000000000E+00  0.00000000000E+00 -0.78599016320E+03  0.17831886550E+04  0.16006190186E+04 0.  0.
        1    1    3    3  502    0 -0.73367300894E+03  0.23514642824E+03 -0.63432615060E+03  0.99796773100E+03  0.50400001928E-02 0. -1.
       -1    1    3    3    0  502  0.73367300894E+03 -0.23514642824E+03 -0.15166401260E+03  0.78522092401E+03  0.50400001928E-02 0.  1.
</event>
<event>
 5   0  0.9726935E-05  0.1623127E+04  0.7818609E-02  0.8806465E-01
       -1   -1    0    0    0  501  0.00000000000E+00  0.00000000000E+00  0.80810037455E+03  0.80810037457E+03  0.50400001928E-02 0.  1.
        1   -1    0    0  501    0  0.00000000000E+00  0.00000000000E+00 -0.81504104596E+03  0.81504104598E+03  0.50400001928E-02 0. -1.
    10030    2    1    2    0    0  0.00000000000E+00  0.00000000000E+00 -0.69406714065E+01  0.16231414205E+04  0.16231265811E+04 0.  0.
        2    1    3    3  502    0  0.14642406860E+02  0.14587889382E+03 -0.80168808355E+03  0.81498394773E+03  0.25500000920E-02 0. -1.
       -2    1    3    3    0  502 -0.14642406860E+02 -0.14587889382E+03  0.79474741215E+03  0.80815747281E+03  0.25500000920E-02 0.  1.
</event>
<event>
 5   0  0.9673017E-05  0.1607568E+04  0.7818609E-02  0.8815912E-01
        1   -1    0    0  501    0  0.00000000000E+00  0.00000000000E+00  0.76089574828E+03  0.76089574829E+03  0.50400001928E-02 0.  1.
       -1   -1    0    0    0  501  0.00000000000E+00  0.00000000000E+00 -0.84908975732E+03  0.84908975734E+03  0.50400001928E-02 0. -1.
    10030    2    1    2    0    0  0.00000000000E+00  0.00000000000E+00 -0.88194009048E+02  0.16099855056E+04  0.16075680841E+04 0.  0.
        1    1    3    3  502    0 -0.72732881495E+03 -0.24255769748E+03  0.19756929012E+03  0.79175442284E+03  0.50400001928E-02 0. -1.
       -1    1    3    3    0  502  0.72732881495E+03  0.24255769748E+03 -0.28576329916E+03  0.81823108279E+03  0.50400001928E-02 0.  1.
</event>
<event>
 5   0  0.1774934E-04  0.1600380E+04  0.7818609E-02  0.8820315E-01
       -2   -1    0    0    0  501  0.00000000000E+00  0.00000000000E+00  0.47332646124E+03  0.47332646125E+03  0.25500000920E-02 0.  1.
        2   -1    0    0  501    0  0.00000000000E+00  0.00000000000E+00 -0.13527740555E+04  0.13527740555E+04  0.25500000920E-02 0. -1.
    10030    2    1    2    0    0  0.00000000000E+00  0.00000000000E+00 -0.87944759424E+03  0.18261005167E+04  0.16003796506E+04 0.  0.
        1    1    3    3  502    0 -0.32789484906E+03  0.24390273524E+03  0.34527681201E+03  0.53499500300E+03  0.50400001928E-02 0.  1.
       -1    1    3    3    0  502  0.32789484906E+03 -0.24390273524E+03 -0.12247244063E+04  0.12911055137E+04  0.50400001928E-02 0. -1.
</event>
<event>
 5   0  0.9939872E-05  0.1590909E+04  0.7818609E-02  0.8826153E-01
        1   -1    0    0  501    0  0.00000000000E+00  0.00000000000E+00  0.63573154958E+03  0.63573154960E+03  0.50400001928E-02 0.  1.
       -1   -1    0    0    0  501  0.00000000000E+00  0.00000000000E+00 -0.99530656299E+03  0.99530656300E+03  0.50400001928E-02 0. -1.
    10030    2    1    2    0    0  0.00000000000E+00  0.00000000000E+00 -0.35957501341E+03  0.16310381126E+04  0.15909089020E+04 0.  0.
        3    1    3    3  502    0  0.56715962053E+02 -0.43288228652E+03 -0.86149907670E+03  0.96580766392E+03  0.10100000352E+00 0. -1.
       -3    1    3    3    0  502 -0.56715962053E+02  0.43288228652E+03  0.50192406329E+03  0.66523044868E+03  0.10100000352E+00 0.  1.
</event>
<event>
 5   0  0.1832646E-04  0.1599572E+04  0.7818609E-02  0.8820811E-01
        2   -1    0    0  501    0  0.00000000000E+00  0.00000000000E+00  0.10328345789E+04  0.10328345789E+04  0.25500000920E-02 0.  1.
       -2   -1    0    0    0  501  0.00000000000E+00  0.00000000000E+00 -0.61932228663E+03  0.61932228663E+03  0.25500000920E-02 0. -1.
    10030    2    1    2    0    0  0.00000000000E+00  0.00000000000E+00  0.41351229225E+03  0.16521568655E+04  0.15995717841E+04 0.  0.
        2    1    3    3  502    0 -0.18621261474E+03  0.64169095055E+02  0.10073935518E+04  0.10264670374E+04  0.25500000920E-02 0.  1.
       -2    1    3    3    0  502  0.18621261474E+03 -0.64169095055E+02 -0.59388125951E+03  0.62568982815E+03  0.25500000920E-02 0. -1.
</event>
<event>
 5   0  0.9616567E-05  0.1601976E+04  0.7818609E-02  0.8819335E-01
       -1   -1    0    0    0  501  0.00000000000E+00  0.00000000000E+00  0.68513282410E+03  0.68513282412E+03  0.50400001928E-02 0. -1.
        1   -1    0    0  501    0  0.00000000000E+00  0.00000000000E+00 -0.93643389862E+03  0.93643389863E+03  0.50400001928E-02 0.  1.
    10030    2    1    2    0    0  0.00000000000E+00  0.00000000000E+00 -0.25130107452E+03  0.16215667228E+04  0.16019757821E+04 0.  0.
        5    1    3    3  502    0 -0.76495088802E+03  0.10642445562E+03  0.89274801820E+02  0.77747546976E+03  0.46999998093E+01 0. -1.
       -5    1    3    3    0  502  0.76495088802E+03 -0.10642445562E+03 -0.34057587633E+03  0.84409125299E+03  0.46999998093E+01 0.  1.
</event>
<event>
 5   0  0.1858913E-04  0.1626107E+04  0.7818609E-02  0.8804668E-01
       -2   -1    0    0    0  501  0.00000000000E+00  0.00000000000E+00  0.25832562206E+03  0.25832562207E+03  0.25500000920E-02 0.  1.
        2   -1    0    0  501    0  0.00000000000E+00  0.00000000000E+00 -0.25590032464E+04  0.25590032464E+04  0.25500000920E-02 0. -1.
    10030    2    1    2    0    0  0.00000000000E+00  0.00000000000E+00 -0.23006776244E+04  0.28173288685E+04  0.16261071373E+04 0.  0.
        4    1    3    3  502    0  0.81253664431E+02  0.20600127380E+03 -0.25057457676E+04  0.25155123032E+04  0.12699999809E+01 0. -1.
       -4    1    3    3    0  502 -0.81253664431E+02 -0.20600127380E+03  0.20506814327E+03  0.30181656527E+03  0.12699999809E+01 0.  1.
</event>
<event>
 5   0  0.1774934E-04  0.1580803E+04  0.7818609E-02  0.8832429E-01
        2   -1    0    0  501    0  0.00000000000E+00  0.00000000000E+00  0.21749302417E+04  0.21749302417E+04  0.25500000920E-02 0. -1.
       -2   -1    0    0    0  501  0.00000000000E+00  0.00000000000E+00 -0.28724331353E+03  0.28724331354E+03  0.25500000920E-02 0.  1.
    10030    2    1    2    0    0  0.00000000000E+00  0.00000000000E+00  0.18876869281E+04  0.24621735552E+04  0.15808025422E+04 0.  0.
        1    1    3    3  502    0  0.20877214316E+03  0.65137345701E+02  0.21268669647E+04  0.21380813284E+04  0.50400001928E-02 0. -1.
       -1    1    3    3    0  502 -0.20877214316E+03 -0.65137345701E+02 -0.23918003652E+03  0.32409222678E+03  0.50400001928E-02 0.  1.
</event>
<event>
 5   0  0.1774934E-04  0.1598920E+04  0.7818609E-02  0.8821212E-01
        2   -1    0    0  501    0  0.00000000000E+00  0.00000000000E+00  0.12971573152E+04  0.12971573152E+04  0.25500000920E-02 0. -1.
       -2   -1    0    0    0  501  0.00000000000E+00  0.00000000000E+00 -0.49272054373E+03  0.49272054374E+03  0.25500000920E-02 0.  1.
    10030    2    1    2    0    0  0.00000000000E+00  0.00000000000E+00  0.80443677145E+03  0.17898778589E+04  0.15989197074E+04 0.  0.
        1    1    3    3  502    0 -0.52881983054E+03 -0.22294981448E+03  0.10252681620E+04  0.11749603555E+04  0.50400001928E-02 0. -1.
       -1    1    3    3    0  502  0.52881983054E+03  0.22294981448E+03 -0.22083139054E+03  0.61491750343E+03  0.50400001928E-02 0.  1.
</event>
<event>
 5   0  0.9432152E-05  0.1591631E+04  0.7818609E-02  0.8825706E-01
        1   -1    0    0  501    0  0.00000000000E+00  0.00000000000E+00  0.11935501906E+04  0.11935501907E+04  0.50400001928E-02 0.  1.
       -1   -1    0    0    0  501  0.00000000000E+00  0.00000000000E+00 -0.53062064364E+03  0.53062064366E+03  0.50400001928E-02 0. -1.
    10030    2    1    2    0    0  0.00000000000E+00  0.00000000000E+00  0.66292954700E+03  0.17241708343E+04  0.15916310759E+04 0.  0.
        4    1    3    3  502    0  0.45820822630E+03  0.24043016604E+03 -0.32349829392E+03  0.61025748865E+03  0.12699999809E+01 0. -1.
       -4    1    3    3    0  502 -0.45820822630E+03 -0.24043016604E+03  0.98642784093E+03  0.11139133457E+04  0.12699999809E+01 0.  1.
</event>
<event>
 5   0  0.1858913E-04  0.1642038E+04  0.7818609E-02  0.8795131E-01
        2   -1    0    0  501    0  0.00000000000E+00  0.00000000000E+00  0.64015921979E+03  0.64015921980E+03  0.25500000920E-02 0.  1.
       -2   -1    0    0    0  501  0.00000000000E+00  0.00000000000E+00 -0.10529758407E+04  0.10529758407E+04  0.25500000920E-02 0. -1.
    10030    2    1    2    0    0  0.00000000000E+00  0.00000000000E+00 -0.41281662088E+03  0.16931350605E+04  0.16420379930E+04 0.  0.
        4    1    3    3  502    0 -0.13138823880E+03 -0.55326100554E+03 -0.81704438516E+03  0.99545153060E+03  0.12699999809E+01 0.  1.
       -4    1    3    3    0  502  0.13138823880E+03  0.55326100554E+03  0.40422776428E+03  0.69768352988E+03  0.12699999809E+01 0. -1.
</event>
<event>
 5   0  0.1858913E-04  0.1599750E+04  0.7818609E-02  0.8820701E-01
       -2   -1    0    0    0  501  0.00000000000E+00  0.00000000000E+00  0.11708414137E+04  0.11708414137E+04  0.25500000920E-02 0. -1.
        2   -1    0    0  501    0  0.00000000000E+00  0.00000000000E+00 -0.54644497391E+03  0.54644497391E+03  0.25500000920E-02 0.  1.
    10030    2    1    2    0    0  0.00000000000E+00  0.00000000000E+00  0.62439643984E+03  0.17172863877E+04  0.15997504878E+04 0.  0.
        4    1    3    3  502    0 -0.81640234561E+01 -0.79636936222E+03  0.23238520276E+03  0.82962359400E+03  0.12699999809E+01 0.  1.
       -4    1    3    3    0  502  0.81640234561E+01  0.79636936222E+03  0.39201123708E+03  0.88766279367E+03  0.12699999809E+01 0. -1.
</event>
<event>
 5   0  0.9726935E-05  0.1594417E+04  0.7818609E-02  0.8823985E-01
       -1   -1    0    0    0  501  0.00000000000E+00  0.00000000000E+00  0.50032400037E+03  0.50032400039E+03  0.50400001928E-02 0. -1.
        1   -1    0    0  501    0  0.00000000000E+00  0.00000000000E+00 -0.12702598699E+04  0.12702598699E+04  0.50400001928E-02 0.  1.
    10030    2    1    2    0    0  0.00000000000E+00  0.00000000000E+00 -0.76993586955E+03  0.17705838703E+04  0.15944171344E+04 0.  0.
        2    1    3    3  502    0 -0.65237410819E+03  0.17833186871E+03  0.83741972040E+02  0.68147410099E+03  0.25500000920E-02 0.  1.
       -2    1    3    3    0  502  0.65237410819E+03 -0.17833186871E+03 -0.85367784159E+03  0.10891097693E+04  0.25500000920E-02 0. -1.
</event>
<event>
 5   0  0.1774934E-04  0.1678273E+04  0.7818609E-02  0.8773854E-01
        2   -1    0    0  501    0  0.00000000000E+00  0.00000000000E+00  0.10132448747E+04  0.10132448747E+04  0.25500000920E-02 0.  1.
       -2   -1    0    0    0  501  0.00000000000E+00  0.00000000000E+00 -0.69494577024E+03  0.69494577025E+03  0.25500000920E-02 0. -1.
    10030    2    1    2    0    0  0.00000000000E+00  0.00000000000E+00  0.31829910444E+03  0.17081906449E+04  0.16782732077E+04 0.  0.
        1    1    3    3  502    0 -0.38077740436E+03 -0.47977747288E+03 -0.42463607590E+03  0.74531446527E+03  0.50400001928E-02 0. -1.
       -1    1    3    3    0  502  0.38077740436E+03  0.47977747288E+03  0.74293518034E+03  0.96287617967E+03  0.50400001928E-02 0.  1.
</event>
<event>
 5   0  0.9616567E-05  0.1601328E+04  0.7818609E-02  0.8819733E-01
        1   -1    0    0  501    0  0.00000000000E+00  0.00000000000E+00  0.96885676115E+03  0.96885676116E+03  0.50400001928E-02 0.  1.
       -1   -1    0    0    0  501  0.00000000000E+00  0.00000000000E+00 -0.66166935809E+03  0.66166935811E+03  0.50400001928E-02 0. -1.
    10030    2    1    2    0    0  0.00000000000E+00  0.00000000000E+00  0.30718740305E+03  0.16305261193E+04  0.16013279880E+04 0.  0.
        5    1    3    3  502    0 -0.67564166789E+03  0.19515587370E+03  0.54327702297E+03  0.88867850887E+03  0.46999998093E+01 0.  1.
       -5    1    3    3    0  502  0.67564166789E+03 -0.19515587370E+03 -0.23608961992E+03  0.74184761041E+03  0.46999998093E+01 0. -1.
</event>
<event>
 5   0  0.9616567E-05  0.1598839E+04  0.7818609E-02  0.8821262E-01
        1   -1    0    0  501    0  0.00000000000E+00  0.00000000000E+00  0.49628045342E+03  0.49628045344E+03  0.50400001928E-02 0.  1.
       -1   -1    0    0    0  501  0.00000000000E+00  0.00000000000E+00 -0.12877226089E+04  0.12877226089E+04  0.50400001928E-02 0. -1.
    10030    2    1    2    0    0  0.00000000000E+00  0.00000000000E+00 -0.79144215545E+03  0.17840030623E+04  0.15988390291E+04 0.  0.
        5    1    3    3  502    0 -0.59780766079E+03  0.44863524075E+03 -0.71211198055E+03  0.10323628923E+04  0.46999998093E+01 0. -1.
       -5    1    3    3    0  502  0.59780766079E+03 -0.44863524075E+03 -0.79330174897E+02  0.75164017002E+03  0.46999998093E+01 0.  1.
</event>
<event>
 5   0  0.9616567E-05  0.1599638E+04  0.7818609E-02  0.8820770E-01
        1   -1    0    0  501    0  0.00000000000E+00  0.00000000000E+00  0.15652453869E+04  0.15652453869E+04  0.50400001928E-02 0.  1.
       -1   -1    0    0    0  501  0.00000000000E+00  0.00000000000E+00 -0.40869673536E+03  0.40869673539E+03  0.50400001928E-02 0. -1.
    10030    2    1    2    0    0  0.00000000000E+00  0.00000000000E+00  0.11565486515E+04  0.19739421223E+04  0.15996383087E+04 0.  0.
        5    1    3    3  502    0  0.26089140036E+03  0.18286677556E+03 -0.32699543423E+03  0.45656618840E+03  0.46999998093E+01 0. -1.
       -5    1    3    3    0  502 -0.26089140036E+03 -0.18286677556E+03  0.14835440857E+04  0.15173759339E+04  0.46999998093E+01 0.  1.
</event>
<event>
 5   0  0.9726935E-05  0.1597484E+04  0.7818609E-02  0.8822095E-01
        1   -1    0    0  501    0  0.00000000000E+00  0.00000000000E+00  0.11844787836E+04  0.11844787836E+04  0.50400001928E-02 0. -1.
       -1   -1    0    0    0  501  0.00000000000E+00  0.00000000000E+00 -0.53862405070E+03  0.53862405072E+03  0.50400001928E-02 0.  1.
    10030    2    1    2    0    0  0.00000000000E+00  0.00000000000E+00  0.64585473288E+03  0.17231028343E+04  0.15974839723E+04 0.  0.
        2    1    3    3  502    0 -0.65443556856E+03 -0.37942996777E+03  0.46376204787E+02  0.75789429752E+03  0.25500000920E-02 0.  1.
       -2    1    3    3    0  502  0.65443556856E+03  0.37942996777E+03  0.59947852810E+03  0.96520853679E+03  0.25500000920E-02 0. -1.
</event>
<event>
 5   0  0.1914170E-04  0.1602607E+04  0.7818609E-02  0.8818948E-01
        2   -1    0    0  501    0  0.00000000000E+00  0.00000000000E+00  0.22375554644E+04  0.22375554644E+04  0.25500000920E-02 0.  1.
       -2   -1    0    0    0  501  0.00000000000E+00  0.00000000000E+00 -0.28695920765E+03  0.28695920766E+03  0.25500000920E-02 0. -1.
    10030    2    1    2    0    0  0.00000000000E+00  0.00000000000E+00  0.19505962568E+04  0.25245146721E+04  0.16026068054E+04 0.  0.
        3    1    3    3  502    0  0.65549350214E+03  0.23644058907E+03  0.35210350798E+03  0.78073860801E+03  0.10100000352E+00 0. -1.
       -3    1    3    3    0  502 -0.65549350214E+03 -0.23644058907E+03  0.15984927488E+04  0.17437760641E+04  0.10100000352E+00 0.  1.
</event>
<event>
 5   0  0.1835088E-04  0.1599282E+04  0.7818609E-02  0.8820989E-01
       -2   -1    0    0    0  501  0.00000000000E+00  0.00000000000E+00  0.32090257547E+03  0.32090257548E+03  0.25500000920E-02 0. -1.
        2   -1    0    0  501    0  0.00000000000E+00  0.00000000000E+00 -0.19925864467E+04  0.19925864467E+04  0.25500000920E-02 0.  1.
    10030    2    1    2    0    0  0.00000000000E+00  0.00000000000E+00 -0.16716838712E+04  0.23134890221E+04  0.15992824924E+04 0.  0.
        5    1    3    3  502    0  0.44356404068E+03  0.32454100122E+03 -0.16760145635E+04  0.17638375284E+04  0.46999998093E+01 0.  1.
       -5    1    3    3    0  502 -0.44356404068E+03 -0.32454100122E+03  0.43306922920E+01  0.54965149372E+03  0.46999998093E+01 0. -1.
</event>
<event>
 5   0  0.1832646E-04  0.1610419E+04  0.7818609E-02  0.8814173E-01
        2   -1    0    0  501    0  0.00000000000E+00  0.00000000000E+00  0.13684664794E+04  0.13684664794E+04  0.25500000920E-02 0.  1.
       -2   -1    0    0    0  501  0.00000000000E+00  0.00000000000E+00 -0.47378743888E+03  0.47378743889E+03  0.25500000920E-02 0. -1.
    10030    2    1    2    0    0  0.00000000000E+00  0.00000000000E+00  0.89467904050E+03  0.18422539183E+04  0.16104188629E+04 0.  0.
        2    1    3    3  502    0  0.73921079350E+01  0.28747513393E+03  0.13077199769E+04  0.13389653221E+04  0.25500000920E-02 0.  1.
       -2    1    3    3    0  502 -0.73921079350E+01 -0.28747513393E+03 -0.41304093638E+03  0.50328859616E+03  0.25500000920E-02 0. -1.
</event>
<event>
 5   0  0.9726935E-05  0.1601774E+04  0.7818609E-02  0.8819459E-01
        1   -1    0    0  501    0  0.00000000000E+00  0.00000000000E+00  0.24270211244E+04  0.24270211244E+04  0.50400001928E-02 0.  1.
       -1   -1    0    0    0  501  0.00000000000E+00  0.00000000000E+00 -0.26428276956E+03  0.26428276961E+03  0.50400001928E-02 0. -1.
    10030    2    1    2    0    0  0.00000000000E+00  0.00000000000E+00  0.21627383548E+04  0.26913038940E+04  0.16017738475E+04 0.  0.
        2    1    3    3  502    0  0.37409653814E+03  0.59942036910E+03  0.44784858530E+03  0.83655325838E+03  0.25500000920E-02 0. -1.
       -2    1    3    3    0  502 -0.37409653814E+03 -0.59942036910E+03  0.17148897695E+04  0.18547506356E+04  0.25500000920E-02 0.  1.
</event>
<event>
 5   0  0.1774934E-04  0.1597007E+04  0.7818609E-02  0.8822389E-01
       -2   -1    0    0    0  501  0.00000000000E+00  0.00000000000E+00  0.63604098887E+03  0.63604098887E+03  0.25500000920E-02 0.  1.
        2   -1    0    0  501    0  0.00000000000E+00  0.00000000000E+00 -0.10024637567E+04  0.10024637567E+04  0.25500000920E-02 0. -1.
    10030    2    1    2    0    0  0.00000000000E+00  0.00000000000E+00 -0.36642276782E+03  0.16385047456E+04  0.15970072500E+04 0.  0.
        1    1    3    3  502    0  0.76743817695E+03  0.55360545896E+02  0.35835458617E+02  0.77026639912E+03  0.50400001928E-02 0.  1.
       -1    1    3    3    0  502 -0.76743817695E+03 -0.55360545896E+02 -0.40225822644E+03  0.86823834645E+03  0.50400001928E-02 0. -1.
</event>
<event>
 5   0  0.6838750E-05  0.1597404E+04  0.7818609E-02  0.8822144E-01
        3   -1    0    0  501    0  0.00000000000E+00  0.00000000000E+00  0.15709959070E+04  0.15709959102E+04  0.10100000352E+00 0.  1.
       -3   -1    0    0    0  501  0.00000000000E+00  0.00000000000E+00 -0.40606415935E+03  0.40606417191E+03  0.10100000352E+00 0. -1.
    10030    2    1    2    0    0  0.00000000000E+00  0.00000000000E+00  0.11649317476E+04  0.19770600821E+04  0.15974043295E+04 0.  0.
        3    1    3    3  502    0 -0.13686452451E+03  0.78554452949E+03  0.63935876874E+03  0.10220527145E+04  0.10100000352E+00 0.  1.
       -3    1    3    3    0  502  0.13686452451E+03 -0.78554452949E+03  0.52557297890E+03  0.95500736763E+03  0.10100000352E+00 0. -1.
</event>
<event>
 5   0  0.6838750E-05  0.1600443E+04  0.7818609E-02  0.8820276E-01
        4   -1    0    0  501    0  0.00000000000E+00  0.00000000000E+00  0.13873334270E+04  0.13873340082E+04  0.12699999809E+01 0.  1.
       -4   -1    0    0    0  501  0.00000000000E+00  0.00000000000E+00 -0.46157057822E+03  0.46157232540E+03  0.12699999809E+01 0. -1.
    10030    2    1    2    0    0  0.00000000000E+00  0.00000000000E+00  0.92576284873E+03  0.18489063336E+04  0.16004429945E+04 0.  0.
        5    1    3    3  502    0  0.32713257592E+03 -0.37640808289E+03 -0.26007923585E+03  0.56246072397E+03  0.46999998093E+01 0. -1.
       -5    1    3    3    0  502 -0.32713257592E+03  0.37640808289E+03  0.11858420846E+04  0.12864456097E+04  0.46999998093E+01 0.  1.
</event>
<event>
 5   0  0.9673017E-05  0.1586315E+04  0.7818609E-02  0.8828999E-01
       -1   -1    0    0    0  501  0.00000000000E+00  0.00000000000E+00  0.26665344963E+03  0.26665344968E+03  0.50400001928E-02 0.  1.
        1   -1    0    0  501    0  0.00000000000E+00  0.00000000000E+00 -0.23592380576E+04  0.23592380576E+04  0.50400001928E-02 0. -1.
    10030    2    1    2    0    0  0.00000000000E+00  0.00000000000E+00 -0.20925846080E+04  0.26258915073E+04  0.15863151851E+04 0.  0.
        1    1    3    3  502    0  0.75773912796E+02 -0.49446789399E+03 -0.20651791998E+04  0.21249012474E+04  0.50400001928E-02 0. -1.
       -1    1    3    3    0  502 -0.75773912796E+02  0.49446789399E+03 -0.27405408176E+02  0.50099025986E+03  0.50400001928E-02 0.  1.
</event>
<event>
 5   0  0.9939872E-05  0.1595680E+04  0.7818609E-02  0.8823206E-01
       -1   -1    0    0    0  501  0.00000000000E+00  0.00000000000E+00  0.28130795255E+03  0.28130795260E+03  0.50400001928E-02 0.  1.
        1   -1    0    0  501    0  0.00000000000E+00  0.00000000000E+00 -0.22628177496E+04  0.22628177496E+04  0.50400001928E-02 0. -1.
    10030    2    1    2    0    0  0.00000000000E+00  0.00000000000E+00 -0.19815097970E+04  0.25441257022E+04  0.15956799531E+04 0.  0.
        3    1    3    3  502    0 -0.40368008580E+03  0.67718245150E+03 -0.11861233733E+04  0.14242269311E+04  0.10100000352E+00 0. -1.
       -3    1    3    3    0  502  0.40368008580E+03 -0.67718245150E+03 -0.79538642374E+03  0.11198987711E+04  0.10100000352E+00 0.  1.
</event>
<event>
 5   0  0.9726935E-05  0.1601131E+04  0.7818609E-02  0.8819853E-01
        1   -1    0    0  501    0  0.00000000000E+00  0.00000000000E+00  0.14464371555E+04  0.14464371555E+04  0.50400001928E-02 0. -1.
       -1   -1    0    0    0  501  0.00000000000E+00  0.00000000000E+00 -0.44309240257E+03  0.44309240259E+03  0.50400001928E-02 0.  1.
    10030    2    1    2    0    0  0.00000000000E+00  0.00000000000E+00  0.10033447529E+04  0.18895295581E+04  0.16011312431E+04 0.  0.
        2    1    3    3  502    0  0.53186322969E+03  0.33846327274E+03  0.10839753120E+04  0.12539690423E+04  0.25500000920E-02 0.  1.
       -2    1    3    3    0  502 -0.53186322969E+03 -0.33846327274E+03 -0.80630559102E+02  0.63556051573E+03  0.25500000920E-02 0. -1.
</event>
<event>
 5   0  0.9939872E-05  0.1598581E+04  0.7818609E-02  0.8821420E-01
       -1   -1    0    0    0  501  0.00000000000E+00  0.00000000000E+00  0.66190047586E+03  0.66190047588E+03  0.50400001928E-02 0.  1.
        1   -1    0    0  501    0  0.00000000000E+00  0.00000000000E+00 -0.96519797659E+03  0.96519797660E+03  0.50400001928E-02 0. -1.
    10030    2    1    2    0    0  0.00000000000E+00  0.00000000000E+00 -0.30329750073E+03  0.16270984525E+04  0.15985806205E+04 0.  0.
        3    1    3    3  502    0  0.14434616317E+03  0.76031933022E+03 -0.35507331048E+03  0.85146835804E+03  0.10100000352E+00 0. -1.
       -3    1    3    3    0  502 -0.14434616317E+03 -0.76031933022E+03  0.51775809753E+02  0.77563009444E+03  0.10100000352E+00 0.  1.
</event>
<event>
 5   0  0.9432152E-05  0.1530604E+04  0.7818609E-02  0.8864353E-01
       -1   -1    0    0    0  501  0.00000000000E+00  0.00000000000E+00  0.57593067299E+03  0.57593067301E+03  0.50400001928E-02 0. -1.
        1   -1    0    0  501    0  0.00000000000E+00  0.00000000000E+00 -0.10169402237E+04  0.10169402238E+04  0.50400001928E-02 0.  1.
    10030    2    1    2    0    0  0.00000000000E+00  0.00000000000E+00 -0.44100955076E+03  0.15928708968E+04  0.15306038906E+04 0.  0.
        4    1    3    3  502    0  0.44711330167E+03 -0.62057365250E+03 -0.24731099473E+03  0.80385714136E+03  0.12699999809E+01 0.  1.
       -4    1    3    3    0  502 -0.44711330167E+03  0.62057365250E+03 -0.19369855603E+03  0.78901375540E+03  0.12699999809E+01 0. -1.
</event>
<event>
 5   0  0.9726935E-05  0.1600599E+04  0.7818609E-02  0.8820180E-01
        1   -1    0    0  501    0  0.00000000000E+00  0.00000000000E+00  0.96501363275E+03  0.96501363276E+03  0.50400001928E-02 0. -1.
       -1   -1    0    0    0  501  0.00000000000E+00  0.00000000000E+00 -0.66369981553E+03  0.66369981555E+03  0.50400001928E-02 0.  1.
    10030    2    1    2    0    0  0.00000000000E+00  0.00000000000E+00  0.30131381722E+03  0.16287134483E+04  0.16005991004E+04 0.  0.
        2    1    3    3  502    0 -0.18047008467E+03 -0.23785187732E+03 -0.60490568403E+03  0.67457679591E+03  0.25500000920E-02 0.  1.
       -2    1    3    3    0  502  0.18047008467E+03  0.23785187732E+03  0.90621950125E+03  0.95413665240E+03  0.25500000920E-02 0. -1.
</event>
<event>
 5   0  0.1832646E-04  0.1602383E+04  0.7818609E-02  0.8819085E-01
        2   -1    0    0  501    0  0.00000000000E+00  0.00000000000E+00  0.12802244483E+04  0.12802244483E+04  0.25500000920E-02 0.  1.
       -2   -1    0    0    0  501  0.00000000000E+00  0.00000000000E+00 -0.50140271851E+03  0.50140271852E+03  0.25500000920E-02 0. -1.
    10030    2    1    2    0    0  0.00000000000E+00  0.00000000000E+00  0.77882172977E+03  0.17816271668E+04  0.16023832484E+04 0.  0.
        2    1    3    3  502    0  0.52600687422E+03  0.60244315740E+03  0.33623846389E+03  0.86756976332E+03  0.25500000920E-02 0. -1.
       -2    1    3    3    0  502 -0.52600687422E+03 -0.60244315740E+03  0.44258326588E+03  0.91405740348E+03  0.25500000920E-02 0.  1.
</event>
<event>
 5   0  0.9726935E-05  0.1584173E+04  0.7818609E-02  0.8830330E-01
        1   -1    0    0  501    0  0.00000000000E+00  0.00000000000E+00  0.88440623790E+03  0.88440623792E+03  0.50400001928E-02 0. -1.
       -1   -1    0    0    0  501  0.00000000000E+00  0.00000000000E+00 -0.70940376003E+03  0.70940376004E+03  0.50400001928E-02 0.  1.
    10030    2    1    2    0    0  0.00000000000E+00  0.00000000000E+00  0.17500247788E+03  0.15938099980E+04  0.15841731100E+04 0.  0.
        2    1    3    3  502    0 -0.48711244360E+03 -0.40423919131E+03  0.56654188553E+03  0.84950430521E+03  0.25500000920E-02 0. -1.
       -2    1    3    3    0  502  0.48711244360E+03  0.40423919131E+03 -0.39153940766E+03  0.74430569275E+03  0.25500000920E-02 0.  1.
</event>
<event>
 5   0  0.9616567E-05  0.1601084E+04  0.7818609E-02  0.8819882E-01
       -1   -1    0    0    0  501  0.00000000000E+00  0.00000000000E+00  0.85693085131E+03  0.85693085132E+03  0.50400001928E-02 0. -1.
        1   -1    0    0  501    0  0.00000000000E+00  0.00000000000E+00 -0.74786359022E+03  0.74786359024E+03  0.50400001928E-02 0.  1.
    10030    2    1    2    0    0  0.00000000000E+00  0.00000000000E+00  0.10906726109E+03  0.16047944416E+04  0.16010838617E+04 0.  0.
        5    1    3    3  502    0  0.98502915494E+02 -0.62805973977E+03 -0.43309507146E+03  0.76925632399E+03  0.46999998093E+01 0.  1.
       -5    1    3    3    0  502 -0.98502915494E+02  0.62805973977E+03  0.54216233255E+03  0.83553811757E+03  0.46999998093E+01 0. -1.
</event>
<event>
 5   0  0.6838750E-05  0.1593826E+04  0.7818609E-02  0.8824350E-01
       -3   -1    0    0    0  501  0.00000000000E+00  0.00000000000E+00  0.12421887768E+04  0.12421887809E+04  0.10100000352E+00 0.  1.
        3   -1    0    0  501    0  0.00000000000E+00  0.00000000000E+00 -0.51125114779E+03  0.51125115777E+03  0.10100000352E+00 0. -1.
    10030    2    1    2    0    0  0.00000000000E+00  0.00000000000E+00  0.73093762897E+03  0.17534399386E+04  0.15938261514E+04 0.  0.
        4    1    3    3  502    0 -0.28050844659E+03 -0.68994699512E+03  0.67733032887E+03  0.10067223212E+04  0.12699999809E+01 0.  1.
       -4    1    3    3    0  502  0.28050844659E+03  0.68994699512E+03  0.53607300104E+02  0.74671761745E+03  0.12699999809E+01 0. -1.
</event>
<event>
 5   0  0.1914170E-04  0.1596572E+04  0.7818609E-02  0.8822657E-01
        2   -1    0    0  501    0  0.00000000000E+00  0.00000000000E+00  0.12170019360E+04  0.12170019360E+04  0.25500000920E-02 0.  1.
       -2   -1    0    0    0  501  0.00000000000E+00  0.00000000000E+00 -0.52363127051E+03  0.52363127051E+03  0.25500000920E-02 0. -1.
    10030    2    1    2    0    0  0.00000000000E+00  0.00000000000E+00  0.69337066545E+03  0.17406332065E+04  0.15965716645E+04 0.  0.
        3    1    3    3  502    0 -0.68764329879E+03 -0.33830538201E+03  0.10300834948E+03  0.77324935702E+03  0.10100000352E+00 0.  1.
       -3    1    3    3    0  502  0.68764329879E+03  0.33830538201E+03  0.59036231597E+03  0.96738384946E+03  0.10100000352E+00 0. -1.
</event>
<event>
 5   0  0.1914170E-04  0.1603575E+04  0.7818609E-02  0.8818355E-01
       -2   -1    0    0    0  501  0.00000000000E+00  0.00000000000E+00  0.63237261101E+03  0.63237261102E+03  0.25500000920E-02 0.  1.
        2   -1    0    0  501    0  0.00000000000E+00  0.00000000000E+00 -0.10165893121E+04  0.10165893121E+04  0.25500000920E-02 0. -1.
    10030    2    1    2    0    0  0.00000000000E+00  0.00000000000E+00 -0.38421670107E+03  0.16489619231E+04  0.16035750530E+04 0.  0.
        3    1    3    3  502    0 -0.21410890754E+03 -0.41950878678E+02  0.60126014583E+03  0.63962197716E+03  0.10100000352E+00 0.  1.
       -3    1    3    3    0  502  0.21410890754E+03  0.41950878678E+02 -0.98547684690E+03  0.10093399459E+04  0.10100000352E+00 0. -1.
</event>
<event>
 5   0  0.1858913E-04  0.1601901E+04  0.7818609E-02  0.8819381E-01
       -2   -1    0    0    0  501  0.00000000000E+00  0.00000000000E+00  0.67853057760E+03  0.67853057760E+03  0.25500000920E-02 0. -1.
        2   -1    0    0  501    0  0.00000000000E+00  0.00000000000E+00 -0.94545777337E+03  0.94545777338E+03  0.25500000920E-02 0.  1.
    10030    2    1    2    0    0  0.00000000000E+00  0.00000000000E+00 -0.26692719577E+03  0.16239883510E+04  0.16019013816E+04 0.  0.
        4    1    3    3  502    0  0.22856599804E+03 -0.63075089116E+03  0.31009765472E+03  0.73908813448E+03  0.12699999809E+01 0. -1.
       -4    1    3    3    0  502 -0.22856599804E+03  0.63075089116E+03 -0.57702485050E+03  0.88490021650E+03  0.12699999809E+01 0.  1.
</event>
<event>
 5   0  0.1914170E-04  0.1590568E+04  0.7818609E-02  0.8826363E-01
        2   -1    0    0  501    0  0.00000000000E+00  0.00000000000E+00  0.19861358462E+04  0.19861358462E+04  0.25500000920E-02 0.  1.
       -2   -1    0    0    0  501  0.00000000000E+00  0.00000000000E+00 -0.31844588298E+03  0.31844588299E+03  0.25500000920E-02 0. -1.
    10030    2    1    2    0    0  0.00000000000E+00  0.00000000000E+00  0.16676899633E+04  0.23045817292E+04  0.15905681793E+04 0.  0.
        3    1    3    3  502    0 -0.68311018435E+03 -0.81414269229E+02  0.14119724248E+04  0.15706476199E+04  0.10100000352E+00 0.  1.
       -3    1    3    3    0  502  0.68311018435E+03  0.81414269229E+02  0.25571753847E+03  0.73393410936E+03  0.10100000352E+00 0. -1.
</event>
<event>
 5   0  0.1774934E-04  0.1600859E+04  0.7818609E-02  0.8820021E-01
        2   -1    0    0  501    0  0.00000000000E+00  0.00000000000E+00  0.15235812450E+04  0.15235812450E+04  0.25500000920E-02 0.  1.
       -2   -1    0    0    0  501  0.00000000000E+00  0.00000000000E+00 -0.42051386901E+03  0.42051386901E+03  0.25500000920E-02 0. -1.
    10030    2    1    2    0    0  0.00000000000E+00  0.00000000000E+00  0.11030673760E+04  0.19440951140E+04  0.16008585748E+04 0.  0.
        1    1    3    3  502    0 -0.77886088746E+03  0.14255536321E+03  0.69388761520E+03  0.10528182826E+04  0.50400001928E-02 0.  1.
       -1    1    3    3    0  502  0.77886088746E+03 -0.14255536321E+03  0.40917976081E+03  0.89127683145E+03  0.50400001928E-02 0. -1.
</event>
<event>
 5   0  0.1914170E-04  0.1617946E+04  0.7818609E-02  0.8809598E-01
        2   -1    0    0  501    0  0.00000000000E+00  0.00000000000E+00  0.20462920212E+04  0.20462920212E+04  0.25500000920E-02 0. -1.
       -2   -1    0    0    0  501  0.00000000000E+00  0.00000000000E+00 -0.31981609083E+03  0.31981609084E+03  0.25500000920E-02 0.  1.
    10030    2    1    2    0    0  0.00000000000E+00  0.00000000000E+00  0.17264759303E+04  0.23661081120E+04  0.16179457530E+04 0.  0.
        3    1    3    3  502    0 -0.19654528044E+03 -0.78381232307E+03  0.91883473741E+03  0.12236213017E+04  0.10100000352E+00 0. -1.
       -3    1    3    3    0  502  0.19654528044E+03  0.78381232307E+03  0.80764119293E+03  0.11424868103E+04  0.10100000352E+00 0.  1.
</event>
<event>
 5   0  0.1835088E-04  0.1607409E+04  0.7818609E-02  0.8816010E-01
        2   -1    0    0  501    0  0.00000000000E+00  0.00000000000E+00  0.11343671172E+04  0.11343671172E+04  0.25500000920E-02 0.  1.
       -2   -1    0    0    0  501  0.00000000000E+00  0.00000000000E+00 -0.56942818563E+03  0.56942818564E+03  0.25500000920E-02 0. -1.
    10030    2    1    2    0    0  0.00000000000E+00  0.00000000000E+00  0.56493893152E+03  0.17037953028E+04  0.16074086094E+04 0.  0.
        5    1    3    3  502    0 -0.67978899913E+03 -0.10574270651E+03 -0.15792475260E+03  0.70587316198E+03  0.46999998093E+01 0. -1.
       -5    1    3    3    0  502  0.67978899913E+03  0.10574270651E+03  0.72286368412E+03  0.99792214082E+03  0.46999998093E+01 0.  1.
</event>
<event>
 5   0  0.9939872E-05  0.1630003E+04  0.7818609E-02  0.8802325E-01
        1   -1    0    0  501    0  0.00000000000E+00  0.00000000000E+00  0.13873996668E+04  0.13873996668E+04  0.50400001928E-02 0.  1.
       -1   -1    0    0    0  501  0.00000000000E+00  0.00000000000E+00 -0.47875681114E+03  0.47875681117E+03  0.50400001928E-02 0. -1.
    10030    2    1    2    0    0  0.00000000000E+00  0.00000000000E+00  0.90864285563E+03  0.18661564779E+04  0.16300025034E+04 0.  0.
        3    1    3    3  502    0  0.55323460668E+02 -0.28970633400E+03 -0.41551323361E+03  0.50955049089E+03  0.10100000352E+00 0. -1.
       -3    1    3    3    0  502 -0.55323460668E+02  0.28970633400E+03  0.13241560892E+04  0.13566059871E+04  0.10100000352E+00 0.  1.
</event>
<event>
 5   0  0.9673017E-05  0.1587671E+04  0.7818609E-02  0.8828158E-01
       -1   -1    0    0    0  501  0.00000000000E+00  0.00000000000E+00  0.21455902200E+03  0.21455902206E+03  0.50400001928E-02 0. -1.
        1   -1    0    0  501    0  0.00000000000E+00  0.00000000000E+00 -0.29370693666E+04  0.29370693666E+04  0.50400001928E-02 0.  1.
    10030    2    1    2    0    0  0.00000000000E+00  0.00000000000E+00 -0.27225103446E+04  0.31516283887E+04  0.15876709117E+04 0.  0.
        1    1    3    3  502    0 -0.49177749291E+03  0.26052118321E+03 -0.23752949119E+03  0.60509226457E+03  0.50400001928E-02 0. -1.
       -1    1    3    3    0  502  0.49177749291E+03 -0.26052118321E+03 -0.24849808534E+04  0.25465361241E+04  0.50400001928E-02 0.  1.
</event>
<event>
 5   0  0.9939872E-05  0.1593892E+04  0.7818609E-02  0.8824309E-01
       -1   -1    0    0    0  501  0.00000000000E+00  0.00000000000E+00  0.72692325827E+03  0.72692325829E+03  0.50400001928E-02 0. -1.
        1   -1    0    0  501    0  0.00000000000E+00  0.00000000000E+00 -0.87371365955E+03  0.87371365956E+03  0.50400001928E-02 0.  1.
    10030    2    1    2    0    0  0.00000000000E+00  0.00000000000E+00 -0.14679040128E+03  0.16006369179E+04  0.15938918159E+04 0.  0.
        3    1    3    3  502    0  0.18199155354E+03  0.49412382418E+03 -0.67412690042E+03  0.85541005795E+03  0.10100000352E+00 0. -1.
       -3    1    3    3    0  502 -0.18199155354E+03 -0.49412382418E+03  0.52733649915E+03  0.74522685990E+03  0.10100000352E+00 0.  1.
</event>
<event>
 5   0  0.9673017E-05  0.1601091E+04  0.7818609E-02  0.8819878E-01
        1   -1    0    0  501    0  0.00000000000E+00  0.00000000000E+00  0.20592943413E+04  0.20592943413E+04  0.50400001928E-02 0.  1.
       -1   -1    0    0    0  501  0.00000000000E+00  0.00000000000E+00 -0.31121001445E+03  0.31121001449E+03  0.50400001928E-02 0. -1.
    10030    2    1    2    0    0  0.00000000000E+00  0.00000000000E+00  0.17480843268E+04  0.23705043558E+04  0.16010909053E+04 0.  0.
        1    1    3    3  502    0 -0.55500256060E+03  0.52388433200E+03  0.51627914931E+03  0.92142650039E+03  0.50400001928E-02 0. -1.
       -1    1    3    3    0  502  0.55500256060E+03 -0.52388433200E+03  0.12318051775E+04  0.14490778554E+04  0.50400001928E-02 0.  1.
</event>
<event>
 5   0  0.9432152E-05  0.1603814E+04  0.7818609E-02  0.8818208E-01
       -1   -1    0    0    0  501  0.00000000000E+00  0.00000000000E+00  0.13098254497E+04  0.13098254497E+04  0.50400001928E-02 0.  1.
        1   -1    0    0  501    0  0.00000000000E+00  0.00000000000E+00 -0.49094697515E+03  0.49094697517E+03  0.50400001928E-02 0. -1.
    10030    2    1    2    0    0  0.00000000000E+00  0.00000000000E+00  0.81887847458E+03  0.18007724249E+04  0.16038140074E+04 0.  0.
        4    1    3    3  502    0 -0.20577435598E+03 -0.58050522971E+03 -0.16716723158E+03  0.63818171669E+03  0.12699999809E+01 0. -1.
       -4    1    3    3    0  502  0.20577435598E+03  0.58050522971E+03  0.98604570617E+03  0.11625907082E+04  0.12699999809E+01 0.  1.
</event>
<event>
 5   0  0.1858913E-04  0.1602034E+04  0.7818609E-02  0.8819299E-01
       -2   -1    0    0    0  501  0.00000000000E+00  0.00000000000E+00  0.46213945070E+03  0.46213945071E+03  0.25500000920E-02 0.  1.
        2   -1    0    0  501    0  0.00000000000E+00  0.00000000000E+00 -0.13883864458E+04  0.13883864458E+04  0.25500000920E-02 0. -1.
    10030    2    1    2    0    0  0.00000000000E+00  0.00000000000E+00 -0.92624699510E+03  0.18505258965E+04  0.16020338941E+04 0.  0.
        4    1    3    3  502    0 -0.57200794051E+03  0.44003553118E+03 -0.86460067256E+03  0.11262150277E+04  0.12699999809E+01 0. -1.
       -4    1    3    3    0  502  0.57200794051E+03 -0.44003553118E+03 -0.61646322533E+02  0.72431086882E+03  0.12699999809E+01 0.  1.
</event>
<event>
 5   0  0.1835088E-04  0.1603975E+04  0.7818609E-02  0.8818110E-01
       -2   -1    0    0    0  501  0.00000000000E+00  0.00000000000E+00  0.62210013006E+03  0.62210013007E+03  0.25500000920E-02 0. -1.
        2   -1    0    0  501    0  0.00000000000E+00  0.00000000000E+00 -0.10338908374E+04  0.10338908374E+04  0.25500000920E-02 0.  1.
    10030    2    1    2    0    0  0.00000000000E+00  0.00000000000E+00 -0.41179070737E+03  0.16559909675E+04  0.16039745939E+04 0.  0.
        5    1    3    3  502    0  0.73002850961E+03 -0.15235950549E+03  0.98639009416E+02  0.75226776346E+03  0.46999998093E+01 0. -1.
       -5    1    3    3    0  502 -0.73002850961E+03  0.15235950549E+03 -0.51042971679E+03  0.90372320405E+03  0.46999998093E+01 0.  1.
</event>
<event>
 5   0  0.9673017E-05  0.1597677E+04  0.7818609E-02  0.8821976E-01
       -1   -1    0    0    0  501  0.00000000000E+00  0.00000000000E+00  0.81753674297E+03  0.81753674298E+03  0.50400001928E-02 0.  1.
        1   -1    0    0  501    0  0.00000000000E+00  0.00000000000E+00 -0.78056802402E+03  0.78056802404E+03  0.50400001928E-02 0. -1.
    10030    2    1    2    0    0  0.00000000000E+00  0.00000000000E+00  0.36968718947E+02  0.15981047670E+04  0.15976771139E+04 0.  0.
        1    1    3    3  502    0  0.24470947235E+03 -0.27363733449E+03 -0.69120038903E+03  0.78263535219E+03  0.50400001928E-02 0. -1.
       -1    1    3    3    0  502 -0.24470947235E+03  0.27363733449E+03  0.72816910797E+03  0.81546941483E+03  0.50400001928E-02 0.  1.
</event>
<event>
 5   0  0.1914170E-04  0.1607547E+04  0.7818609E-02  0.8815925E-01
       -2   -1    0    0    0  501  0.00000000000E+00  0.00000000000E+00  0.65617973387E+03  0.65617973388E+03  0.25500000920E-02 0.  1.
        2   -1    0    0  501    0  0.00000000000E+00  0.00000000000E+00 -0.98456513147E+03  0.98456513148E+03  0.25500000920E-02 0. -1.
    10030    2    1    2    0    0  0.00000000000E+00  0.00000000000E+00 -0.32838539760E+03  0.16407448654E+04  0.16075468092E+04 0.  0.
        3    1    3    3  502    0 -0.39349693418E+03 -0.60729981283E+03  0.19288766066E+03  0.74890490699E+03  0.10100000352E+00 0.  1.
       -3    1    3    3    0  502  0.39349693418E+03  0.60729981283E+03 -0.52127305826E+03  0.89183995837E+03  0.10100000352E+00 0. -1.
</event>
<event>
 5   0  0.1774934E-04  0.1598704E+04  0.7818609E-02  0.8821344E-01
       -2   -1    0    0    0  501  0.00000000000E+00  0.00000000000E+00  0.91481583054E+03  0.91481583055E+03  0.25500000920E-02 0.  1.
        2   -1    0    0  501    0  0.00000000000E+00  0.00000000000E+00 -0.69846189492E+03  0.69846189493E+03  0.25500000920E-02 0. -1.
    10030    2    1    2    0    0  0.00000000000E+00  0.00000000000E+00  0.21635393562E+03  0.16132777255E+04  0.15987044736E+04 0.  0.
        1    1    3    3  502    0 -0.23214560565E+03 -0.55678025573E+03 -0.42107332981E+03  0.73566200425E+03  0.50400001928E-02 0. -1.
       -1    1    3    3    0  502  0.23214560565E+03  0.55678025573E+03  0.63742726543E+03  0.87761572122E+03  0.50400001928E-02 0.  1.
</event>
<event>
 5   0  0.1832646E-04  0.1529986E+04  0.7818609E-02  0.8864754E-01
       -2   -1    0    0    0  501  0.00000000000E+00  0.00000000000E+00  0.86786899054E+03  0.86786899054E+03  0.25500000920E-02 0.  1.
        2   -1    0    0  501    0  0.00000000000E+00  0.00000000000E+00 -0.67431203656E+03  0.67431203656E+03  0.25500000920E-02 0. -1.
    10030    2    1    2    0    0  0.00000000000E+00  0.00000000000E+00  0.19355695398E+03  0.15421810271E+04  0.15299862829E+04 0.  0.
        2    1    3    3  502    0 -0.23845660536E+03 -0.42475764570E+03 -0.49778220879E+03  0.69646804493E+03  0.25500000920E-02 0. -1.
       -2    1    3    3    0  502  0.23845660536E+03  0.42475764570E+03  0.69133916277E+03  0.84571298217E+03  0.25500000920E-02 0.  1.
</event>
<event>
 5   0  0.6838750E-05  0.1610928E+04  0.7818609E-02  0.8813863E-01
       -4   -1    0    0    0  501  0.00000000000E+00  0.00000000000E+00  0.31718290075E+03  0.31718544327E+03  0.12699999809E+01 0. -1.
        4   -1    0    0  501    0  0.00000000000E+00  0.00000000000E+00 -0.20454080000E+04  0.20454083943E+04  0.12699999809E+01 0.  1.
    10030    2    1    2    0    0  0.00000000000E+00  0.00000000000E+00 -0.17282250993E+04  0.23625938376E+04  0.16109275737E+04 0.  0.
        5    1    3    3  502    0  0.45300487538E+03  0.50941154057E+03 -0.14932778798E+04  0.16415280842E+04  0.46999998093E+01 0.  1.
       -5    1    3    3    0  502 -0.45300487538E+03 -0.50941154057E+03 -0.23494721944E+03  0.72106575338E+03  0.46999998093E+01 0. -1.
</event>
<event>
 5   0  0.9432152E-05  0.1625484E+04  0.7818609E-02  0.8805043E-01
        1   -1    0    0  501    0  0.00000000000E+00  0.00000000000E+00  0.13544739381E+04  0.13544739382E+04  0.50400001928E-02 0.  1.
       -1   -1    0    0    0  501  0.00000000000E+00  0.00000000000E+00 -0.48767979546E+03  0.48767979548E+03  0.50400001928E-02 0. -1.
    10030    2    1    2    0    0  0.00000000000E+00  0.00000000000E+00  0.86679414269E+03  0.18421537336E+04  0.16254840179E+04 0.  0.
        4    1    3    3  502    0  0.53792208889E+03  0.45123549373E+03  0.89732112893E+03  0.11393684504E+04  0.12699999809E+01 0.  1.
       -4    1    3    3    0  502 -0.53792208889E+03 -0.45123549373E+03 -0.30526986236E+02  0.70278528321E+03  0.12699999809E+01 0. -1.
</event>
<event>
 5   0  0.1835088E-04  0.1619034E+04  0.7818609E-02  0.8808939E-01
       -2   -1    0    0    0  501  0.00000000000E+00  0.00000000000E+00  0.38432968982E+03  0.38432968983E+03  0.25500000920E-02 0.  1.
        2   -1    0    0  501    0  0.00000000000E+00  0.00000000000E+00 -0.17050921962E+04  0.17050921962E+04  0.25500000920E-02 0. -1.
    10030    2    1    2    0    0  0.00000000000E+00  0.00000000000E+00 -0.13207625063E+04  0.20894218860E+04  0.16190337302E+04 0.  0.
        5    1    3    3  502    0  0.69723266185E+02 -0.71860792287E+03 -0.11328599618E+04  0.13433735384E+04  0.46999998093E+01 0. -1.
       -5    1    3    3    0  502 -0.69723266185E+02  0.71860792287E+03 -0.18790254453E+03  0.74604834756E+03  0.46999998093E+01 0.  1.
</event>
<event>
 5   0  0.6838750E-05  0.1596676E+04  0.7818609E-02  0.8822592E-01
        4   -1    0    0  501    0  0.00000000000E+00  0.00000000000E+00  0.79535103595E+03  0.79535204991E+03  0.12699999809E+01 0.  1.
       -4   -1    0    0    0  501  0.00000000000E+00  0.00000000000E+00 -0.80133453811E+03  0.80133554449E+03  0.12699999809E+01 0. -1.
    10030    2    1    2    0    0  0.00000000000E+00  0.00000000000E+00 -0.59835021570E+01  0.15966875944E+04  0.15966763829E+04 0.  0.
        1    1    3    3  502    0 -0.17525844257E+02 -0.79493510173E+03 -0.74510759596E+02  0.79861181090E+03  0.50400001928E-02 0.  1.
       -1    1    3    3    0  502  0.17525844257E+02  0.79493510173E+03  0.68527257439E+02  0.79807578351E+03  0.50400001928E-02 0. -1.
</event>
<event>
 5   0  0.9616567E-05  0.1608911E+04  0.7818609E-02  0.8815092E-01
        1   -1    0    0  501    0  0.00000000000E+00  0.00000000000E+00  0.13685282753E+04  0.13685282754E+04  0.50400001928E-02 0.  1.
       -1   -1    0    0    0  501  0.00000000000E+00  0.00000000000E+00 -0.47287945876E+03  0.47287945879E+03  0.50400001928E-02 0. -1.
    10030    2    1    2    0    0  0.00000000000E+00  0.00000000000E+00  0.89564881658E+03  0.18414077341E+04  0.16089113216E+04 0.  0.
        5    1    3    3  502    0 -0.92304678275E+02 -0.26496496785E+02 -0.46627983064E+03  0.47608947524E+03  0.46999998093E+01 0. -1.
       -5    1    3    3    0  502  0.92304678275E+02  0.26496496785E+02  0.13619286472E+04  0.13653182589E+04  0.46999998093E+01 0.  1.
</event>
<event>
 5   0  0.9432152E-05  0.1608645E+04  0.7818609E-02  0.8815255E-01
        1   -1    0    0  501    0  0.00000000000E+00  0.00000000000E+00  0.69613018396E+03  0.69613018398E+03  0.50400001928E-02 0. -1.
       -1   -1    0    0    0  501  0.00000000000E+00  0.00000000000E+00 -0.92932991996E+03  0.92932991997E+03  0.50400001928E-02 0.  1.
    10030    2    1    2    0    0  0.00000000000E+00  0.00000000000E+00 -0.23319973600E+03  0.16254601039E+04  0.16086449057E+04 0.  0.
        4    1    3    3  502    0  0.14855120262E+03  0.60057246549E+02 -0.91303856868E+03  0.92699265017E+03  0.12699999809E+01 0.  1.
       -4    1    3    3    0  502 -0.14855120262E+03 -0.60057246549E+02  0.67983883268E+03  0.69846745378E+03  0.12699999809E+01 0. -1.
</event>
<event>
 5   0  0.9939872E-05  0.1596581E+04  0.7818609E-02  0.8822651E-01
        1   -1    0    0  501    0  0.00000000000E+00  0.00000000000E+00  0.17880078542E+04  0.17880078543E+04  0.50400001928E-02 0.  1.
       -1   -1    0    0    0  501  0.00000000000E+00  0.00000000000E+00 -0.35641199383E+03  0.35641199387E+03  0.50400001928E-02 0. -1.
    10030    2    1    2    0    0  0.00000000000E+00  0.00000000000E+00  0.14315958604E+04  0.21444198481E+04  0.15965806517E+04 0.  0.
        3    1    3    3  502    0 -0.48422917644E+03  0.46725418983E+03  0.13893363169E+03  0.68710038383E+03  0.10100000352E+00 0.  1.
       -3    1    3    3    0  502  0.48422917644E+03 -0.46725418983E+03  0.12926622287E+04  0.14573194643E+04  0.10100000352E+00 0. -1.
</event>
<event>
 5   0  0.9616567E-05  0.1611549E+04  0.7818609E-02  0.8813484E-01
        1   -1    0    0  501    0  0.00000000000E+00  0.00000000000E+00  0.10242350111E+04  0.10242350111E+04  0.50400001928E-02 0. -1.
       -1   -1    0    0    0  501  0.00000000000E+00  0.00000000000E+00 -0.63390975541E+03  0.63390975543E+03  0.50400001928E-02 0.  1.
    10030    2    1    2    0    0  0.00000000000E+00  0.00000000000E+00  0.39032525572E+03  0.16581447666E+04  0.16115490255E+04 0.  0.
        5    1    3    3  502    0  0.22172368653E+03  0.66343579880E+03 -0.21632825307E+03  0.73220793179E+03  0.46999998093E+01 0.  1.
       -5    1    3    3    0  502 -0.22172368653E+03 -0.66343579880E+03  0.60665350879E+03  0.92593683479E+03  0.46999998093E+01 0. -1.
</event>
<event>
 5   0  0.9673017E-05  0.1599087E+04  0.7818609E-02  0.8821109E-01
        1   -1    0    0  501    0  0.00000000000E+00  0.00000000000E+00  0.83892214289E+03  0.83892214291E+03  0.50400001928E-02 0. -1.
       -1   -1    0    0    0  501  0.00000000000E+00  0.00000000000E+00 -0.76201298066E+03  0.76201298068E+03  0.50400001928E-02 0.  1.
    10030    2    1    2    0    0  0.00000000000E+00  0.00000000000E+00  0.76909162227E+02  0.16009351236E+04  0.15990866927E+04 0.  0.
        1    1    3    3  502    0  0.52748379892E+03  0.27577358392E+02  0.63937326792E+03  0.82933578518E+03  0.50400001928E-02 0. -1.
       -1    1    3    3    0  502 -0.52748379892E+03 -0.27577358392E+02 -0.56246410569E+03  0.77159933841E+03  0.50400001928E-02 0.  1.
</event>
<event>
 5   0  0.6838750E-05  0.1597686E+04  0.7818609E-02  0.8821971E-01
        3   -1    0    0  501    0  0.00000000000E+00  0.00000000000E+00  0.12921797618E+04  0.12921797658E+04  0.10100000352E+00 0. -1.
       -3   -1    0    0    0  501  0.00000000000E+00  0.00000000000E+00 -0.49385525147E+03  0.49385526179E+03  0.10100000352E+00 0.  1.
    10030    2    1    2    0    0  0.00000000000E+00  0.00000000000E+00  0.79832451036E+03  0.17860350276E+04  0.15976855435E+04 0.  0.
        4    1    3    3  502    0 -0.43112337950E+03  0.19873315142E+03 -0.31906372034E+03  0.57198383226E+03  0.12699999809E+01 0.  1.
       -4    1    3    3    0  502  0.43112337950E+03 -0.19873315142E+03  0.11173882307E+04  0.12140511953E+04  0.12699999809E+01 0. -1.
</event>
<event>
 5   0  0.1774934E-04  0.1606953E+04  0.7818609E-02  0.8816288E-01
        2   -1    0    0  501    0  0.00000000000E+00  0.00000000000E+00  0.18955641077E+04  0.18955641077E+04  0.25500000920E-02 0.  1.
       -2   -1    0    0    0  501  0.00000000000E+00  0.00000000000E+00 -0.34057112210E+03  0.34057112211E+03  0.25500000920E-02 0. -1.
    10030    2    1    2    0    0  0.00000000000E+00  0.00000000000E+00  0.15549929855E+04  0.22361352298E+04  0.16069528869E+04 0.  0.
        1    1    3    3  502    0  0.29419303850E+03 -0.21937362916E+02 -0.26247985187E+03  0.39487525177E+03  0.50400001928E-02 0. -1.
       -1    1    3    3    0  502 -0.29419303850E+03  0.21937362916E+02  0.18174728374E+04  0.18412599780E+04  0.50400001928E-02 0.  1.
</event>
<event>
 5   0  0.9673017E-05  0.1595940E+04  0.7818609E-02  0.8823046E-01
        1   -1    0    0  501    0  0.00000000000E+00  0.00000000000E+00  0.70165455093E+03  0.70165455095E+03  0.50400001928E-02 0. -1.
       -1   -1    0    0    0  501  0.00000000000E+00  0.00000000000E+00 -0.90750704602E+03  0.90750704603E+03  0.50400001928E-02 0.  1.
    10030    2    1    2    0    0  0.00000000000E+00  0.00000000000E+00 -0.20585249508E+03  0.16091615970E+04  0.15959404110E+04 0.  0.
        1    1    3    3  502    0  0.52511833696E+03  0.26168799597E+03  0.44241161308E+03  0.73481828397E+03  0.50400001928E-02 0. -1.
       -1    1    3    3    0  502 -0.52511833696E+03 -0.26168799597E+03 -0.64826410816E+03  0.87434331301E+03  0.50400001928E-02 0.  1.
</event>
<event>
 5   0  0.1858913E-04  0.1603056E+04  0.7818609E-02  0.8818673E-01
        2   -1    0    0  501    0  0.00000000000E+00  0.00000000000E+00  0.13174698603E+04  0.13174698603E+04  0.25500000920E-02 0. -1.
       -2   -1    0    0    0  501  0.00000000000E+00  0.00000000000E+00 -0.48763688633E+03  0.48763688633E+03  0.25500000920E-02 0.  1.
    10030    2    1    2    0    0  0.00000000000E+00  0.00000000000E+00  0.82983297402E+03  0.18051067467E+04  0.16030557077E+04 0.  0.
        4    1    3    3  502    0  0.72498245849E+02 -0.69209994861E+03  0.86277373301E+03  0.11084396518E+04  0.12699999809E+01 0. -1.
       -4    1    3    3    0  502 -0.72498245849E+02  0.69209994861E+03 -0.32940758994E+02  0.69666709483E+03  0.12699999809E+01 0.  1.
</event>
<event>
 5   0  0.1835088E-04  0.1587902E+04  0.7818609E-02  0.8828015E-01
        2   -1    0    0  501    0  0.00000000000E+00  0.00000000000E+00  0.18636200220E+04  0.18636200220E+04  0.25500000920E-02 0. -1.
       -2   -1    0    0    0  501  0.00000000000E+00  0.00000000000E+00 -0.33824385950E+03  0.33824385951E+03  0.25500000920E-02 0.  1.
    10030    2    1    2    0    0  0.00000000000E+00  0.00000000000E+00  0.15253761625E+04  0.22018638815E+04  0.15879017966E+04 0.  0.
        5    1    3    3  502    0 -0.11224308435E+03  0.53907884762E+03  0.15557881000E+04  0.16503645706E+04  0.46999998093E+01 0. -1.
       -5    1    3    3    0  502  0.11224308435E+03 -0.53907884762E+03 -0.30411937506E+02  0.55149931086E+03  0.46999998093E+01 0.  1.
</event>
<event>
 5   0  0.9726935E-05  0.1598973E+04  0.7818609E-02  0.8821179E-01
        1   -1    0    0  501    0  0.00000000000E+00  0.00000000000E+00  0.12089630769E+04  0.12089630769E+04  0.50400001928E-02 0.  1.
       -1   -1    0    0    0  501  0.00000000000E+00  0.00000000000E+00 -0.52869960540E+03  0.52869960543E+03  0.50400001928E-02 0. -1.
    10030    2    1    2    0    0  0.00000000000E+00  0.00000000000E+00  0.68026347149E+03  0.17376626823E+04  0.15989725473E+04 0.  0.
        2    1    3    3  502    0 -0.71775032509E+03  0.34075576420E+03  0.24355094049E+03  0.83102170888E+03  0.25500000920E-02 0.  1.
       -2    1    3    3    0  502  0.71775032509E+03 -0.34075576420E+03  0.43671253100E+03  0.90664097345E+03  0.25500000920E-02 0. -1.
</event>
<event>
 5   0  0.9673017E-05  0.1602188E+04  0.7818609E-02  0.8819205E-01
        1   -1    0    0  501    0  0.00000000000E+00  0.00000000000E+00  0.11803942893E+04  0.11803942893E+04  0.50400001928E-02 0.  1.
       -1   -1    0    0    0  501  0.00000000000E+00  0.00000000000E+00 -0.54367568211E+03  0.54367568213E+03  0.50400001928E-02 0. -1.
    10030    2    1    2    0    0  0.00000000000E+00  0.00000000000E+00  0.63671860717E+03  0.17240699714E+04  0.16021880918E+04 0.  0.
        1    1    3    3  502    0 -0.12994628832E+03  0.48574050694E+03 -0.35271796389E+03  0.61419853468E+03  0.50400001928E-02 0. -1.
       -1    1    3    3    0  502  0.12994628832E+03 -0.48574050694E+03  0.98943657106E+03  0.11098714367E+04  0.50400001928E-02 0.  1.
</event>
<event>
 5   0  0.1832646E-04  0.1594576E+04  0.7818609E-02  0.8823887E-01
       -2   -1    0    0    0  501  0.00000000000E+00  0.00000000000E+00  0.29188904964E+03  0.29188904965E+03  0.25500000920E-02 0. -1.
        2   -1    0    0  501    0  0.00000000000E+00  0.00000000000E+00 -0.21777742347E+04  0.21777742347E+04  0.25500000920E-02 0.  1.
    10030    2    1    2    0    0  0.00000000000E+00  0.00000000000E+00 -0.18858851851E+04  0.24696632844E+04  0.15945763722E+04 0.  0.
        2    1    3    3  502    0 -0.35099665496E+03 -0.39547967989E+03 -0.18760724843E+02  0.52910754464E+03  0.25500000920E-02 0. -1.
       -2    1    3    3    0  502  0.35099665496E+03  0.39547967989E+03 -0.18671244603E+04  0.19405557398E+04  0.25500000920E-02 0.  1.
</event>
<event>
 5   0  0.9939872E-05  0.1592312E+04  0.7818609E-02  0.8825285E-01
        1   -1    0    0  501    0  0.00000000000E+00  0.00000000000E+00  0.51029496689E+03  0.51029496691E+03  0.50400001928E-02 0. -1.
       -1   -1    0    0    0  501  0.00000000000E+00  0.00000000000E+00 -0.12421535711E+04  0.12421535712E+04  0.50400001928E-02 0.  1.
    10030    2    1    2    0    0  0.00000000000E+00  0.00000000000E+00 -0.73185860426E+03  0.17524485381E+04  0.15923124260E+04 0.  0.
        3    1    3    3  502    0 -0.73836045017E+03  0.24078802127E+03 -0.55879484001E+03  0.95676889006E+03  0.10100000352E+00 0.  1.
       -3    1    3    3    0  502  0.73836045017E+03 -0.24078802127E+03 -0.17306376425E+03  0.79567964801E+03  0.10100000352E+00 0. -1.
</event>
<event>
 5   0  0.9939872E-05  0.1564489E+04  0.7818609E-02  0.8842666E-01
        1   -1    0    0  501    0  0.00000000000E+00  0.00000000000E+00  0.14077768335E+04  0.14077768335E+04  0.50400001928E-02 0. -1.
       -1   -1    0    0    0  501  0.00000000000E+00  0.00000000000E+00 -0.43466134237E+03  0.43466134240E+03  0.50400001928E-02 0.  1.
    10030    2    1    2    0    0  0.00000000000E+00  0.00000000000E+00  0.97311549116E+03  0.18424381759E+04  0.15644886299E+04 0.  0.
        3    1    3    3  502    0 -0.34486106231E+03  0.45101546633E+03  0.11202688796E+04  0.12559245503E+04  0.10100000352E+00 0. -1.
       -3    1    3    3    0  502  0.34486106231E+03 -0.45101546633E+03 -0.14715338844E+03  0.58651362567E+03  0.10100000352E+00 0.  1.
</event>
<event>
 5   0  0.1832646E-04  0.1596999E+04  0.7818609E-02  0.8822394E-01
        2   -1    0    0  501    0  0.00000000000E+00  0.00000000000E+00  0.18541233496E+04  0.18541233496E+04  0.25500000920E-02 0.  1.
       -2   -1    0    0    0  501  0.00000000000E+00  0.00000000000E+00 -0.34388280171E+03  0.34388280171E+03  0.25500000920E-02 0. -1.
    10030    2    1    2    0    0  0.00000000000E+00  0.00000000000E+00  0.15102405479E+04  0.21980061513E+04  0.15969986001E+04 0.  0.
        2    1    3    3  502    0 -0.60726566118E+03  0.15703637277E+03  0.14352155259E+04  0.15662935905E+04  0.25500000920E-02 0.  1.
       -2    1    3    3    0  502  0.60726566118E+03 -0.15703637277E+03  0.75025021969E+02  0.63171256086E+03  0.25500000920E-02 0. -1.
</event>
<event>
 5   0  0.9616567E-05  0.1614315E+04  0.7818609E-02  0.8811802E-01
        1   -1    0    0  501    0  0.00000000000E+00  0.00000000000E+00  0.13556485174E+04  0.13556485174E+04  0.50400001928E-02 0.  1.
       -1   -1    0    0    0  501  0.00000000000E+00  0.00000000000E+00 -0.48058408553E+03  0.48058408556E+03  0.50400001928E-02 0. -1.
    10030    2    1    2    0    0  0.00000000000E+00  0.00000000000E+00  0.87506443191E+03  0.18362326030E+04  0.16143148430E+04 0.  0.
        5    1    3    3  502    0 -0.53520773256E+03 -0.39963439728E+03  0.95295246295E+03  0.11637420054E+04  0.46999998093E+01 0.  1.
       -5    1    3    3    0  502  0.53520773256E+03  0.39963439728E+03 -0.77888031045E+02  0.67249059760E+03  0.46999998093E+01 0. -1.
</event>
<event>
 5   0  0.1914170E-04  0.1604297E+04  0.7818609E-02  0.8817913E-01
       -2   -1    0    0    0  501  0.00000000000E+00  0.00000000000E+00  0.84628210277E+03  0.84628210277E+03  0.25500000920E-02 0.  1.
        2   -1    0    0  501    0  0.00000000000E+00  0.00000000000E+00 -0.76031621869E+03  0.76031621869E+03  0.25500000920E-02 0. -1.
    10030    2    1    2    0    0  0.00000000000E+00  0.00000000000E+00  0.85965884082E+02  0.16065983215E+04  0.16042967410E+04 0.  0.
        3    1    3    3  502    0 -0.66154376301E+02  0.77486545863E+03  0.23985877080E+03  0.81383359516E+03  0.10100000352E+00 0.  1.
       -3    1    3    3    0  502  0.66154376301E+02 -0.77486545863E+03 -0.15389288672E+03  0.79276472630E+03  0.10100000352E+00 0. -1.
</event>
<event>
 5   0  0.1914170E-04  0.1594863E+04  0.7818609E-02  0.8823710E-01
        2   -1    0    0  501    0  0.00000000000E+00  0.00000000000E+00  0.90543338412E+03  0.90543338413E+03  0.25500000920E-02 0. -1.
       -2   -1    0    0    0  501  0.00000000000E+00  0.00000000000E+00 -0.70231265671E+03  0.70231265671E+03  0.25500000920E-02 0.  1.
    10030    2    1    2    0    0  0.00000000000E+00  0.00000000000E+00  0.20312072742E+03  0.16077460408E+04  0.15948634117E+04 0.  0.
        3    1    3    3  502    0  0.20830401309E+03  0.65507695107E+03 -0.30590870925E+03  0.75239386115E+03  0.10100000352E+00 0.  1.
       -3    1    3    3    0  502 -0.20830401309E+03 -0.65507695107E+03  0.50902943667E+03  0.85535217969E+03  0.10100000352E+00 0. -1.
</event>
<event>
 5   0  0.1832646E-04  0.1613285E+04  0.7818609E-02  0.8812428E-01
        2   -1    0    0  501    0  0.00000000000E+00  0.00000000000E+00  0.41745190667E+03  0.41745190667E+03  0.25500000920E-02 0.  1.
       -2   -1    0    0    0  501  0.00000000000E+00  0.00000000000E+00 -0.15586765186E+04  0.15586765187E+04  0.25500000920E-02 0. -1.
    10030    2    1    2    0    0  0.00000000000E+00  0.00000000000E+00 -0.11412246120E+04  0.19761284253E+04  0.16132854485E+04 0.  0.
        2    1    3    3  502    0  0.79057408245E+03 -0.14749272420E+03 -0.49400892904E+03  0.94382535753E+03  0.25500000920E-02 0.  1.
       -2    1    3    3    0  502 -0.79057408245E+03  0.14749272420E+03 -0.64721568294E+03  0.10323030678E+04  0.25500000920E-02 0. -1.
</event>
<event>
 5   0  0.9432152E-05  0.1603760E+04  0.7818609E-02  0.8818242E-01
        1   -1    0    0  501    0  0.00000000000E+00  0.00000000000E+00  0.64790986915E+03  0.64790986917E+03  0.50400001928E-02 0. -1.
       -1   -1    0    0    0  501  0.00000000000E+00  0.00000000000E+00 -0.99243951869E+03  0.99243951870E+03  0.50400001928E-02 0.  1.
    10030    2    1    2    0    0  0.00000000000E+00  0.00000000000E+00 -0.34452964954E+03  0.16403493879E+04  0.16037597809E+04 0.  0.
        4    1    3    3  502    0  0.29126702126E+03  0.61720409438E+03 -0.60285941601E+03  0.91061433119E+03  0.12699999809E+01 0.  1.
       -4    1    3    3    0  502 -0.29126702126E+03 -0.61720409438E+03  0.25832976647E+03  0.72973505668E+03  0.12699999809E+01 0. -1.
</event>
<event>
 5   0  0.1774934E-04  0.1586795E+04  0.7818609E-02  0.8828701E-01
       -2   -1    0    0    0  501  0.00000000000E+00  0.00000000000E+00  0.45017532679E+03  0.45017532680E+03  0.25500000920E-02 0. -1.
        2   -1    0    0  501    0  0.00000000000E+00  0.00000000000E+00 -0.13982995667E+04  0.13982995667E+04  0.25500000920E-02 0.  1.
    10030    2    1    2    0    0  0.00000000000E+00  0.00000000000E+00 -0.94812423991E+03  0.18484748935E+04  0.15867954681E+04 0.  0.
        1    1    3    3  502    0 -0.77794852249E+03  0.14772166772E+03 -0.41635059002E+03  0.89463590840E+03  0.50400001928E-02 0. -1.
       -1    1    3    3    0  502  0.77794852249E+03 -0.14772166772E+03 -0.53177364990E+03  0.95383898511E+03  0.50400001928E-02 0.  1.
</event>
<event>
 5   0  0.1832646E-04  0.1607612E+04  0.7818609E-02  0.8815886E-01
        2   -1    0    0  501    0  0.00000000000E+00  0.00000000000E+00  0.21737645023E+04  0.21737645023E+04  0.25500000920E-02 0.  1.
       -2   -1    0    0    0  501  0.00000000000E+00  0.00000000000E+00 -0.29722802632E+03  0.29722802633E+03  0.25500000920E-02 0. -1.
    10030    2    1    2    0    0  0.00000000000E+00  0.00000000000E+00  0.18765364760E+04  0.24709925286E+04  0.16076115609E+04 0.  0.
        2    1    3    3  502    0  0.70761165540E+02  0.11388142071E+03 -0.27991958548E+03  0.31037250985E+03  0.25500000920E-02 0. -1.
       -2    1    3    3    0  502 -0.70761165540E+02 -0.11388142071E+03  0.21564560614E+04  0.21606200188E+04  0.25500000920E-02 0.  1.
</event>
<event>
 5   0  0.1774934E-04  0.1590790E+04  0.7818609E-02  0.8826226E-01
       -2   -1    0    0    0  501  0.00000000000E+00  0.00000000000E+00  0.22797658825E+04  0.22797658825E+04  0.25500000920E-02 0. -1.
        2   -1    0    0  501    0  0.00000000000E+00  0.00000000000E+00 -0.27750785393E+03  0.27750785394E+03  0.25500000920E-02 0.  1.
    10030    2    1    2    0    0  0.00000000000E+00  0.00000000000E+00  0.20022580286E+04  0.25572737365E+04  0.15907896625E+04 0.  0.
        1    1    3    3  502    0  0.26691335366E+03  0.27617716830E+03  0.21208153437E+04  0.21553130373E+04  0.50400001928E-02 0. -1.
       -1    1    3    3    0  502 -0.26691335366E+03 -0.27617716830E+03 -0.11855731514E+03  0.40196069914E+03  0.50400001928E-02 0.  1.
</event>
<event>
 5   0  0.1914170E-04  0.1634353E+04  0.7818609E-02  0.8799717E-01
        2   -1    0    0  501    0  0.00000000000E+00  0.00000000000E+00  0.12804509103E+04  0.12804509103E+04  0.25500000920E-02 0.  1.
       -2   -1    0    0    0  501  0.00000000000E+00  0.00000000000E+00 -0.52151716150E+03  0.52151716151E+03  0.25500000920E-02 0. -1.
    10030    2    1    2    0    0  0.00000000000E+00  0.00000000000E+00  0.75893374884E+03  0.18019680719E+04  0.16343526232E+04 0.  0.
        3    1    3    3  502    0 -0.72605579904E+03 -0.29364633685E+03  0.12232753721E+03  0.79268482452E+03  0.10100000352E+00 0.  1.
       -3    1    3    3    0  502  0.72605579904E+03  0.29364633685E+03  0.63660621163E+03  0.10092832473E+04  0.10100000352E+00 0. -1.
</event>
<event>
 5   0  0.9726935E-05  0.1597683E+04  0.7818609E-02  0.8821973E-01
        1   -1    0    0  501    0  0.00000000000E+00  0.00000000000E+00  0.44775343857E+03  0.44775343860E+03  0.50400001928E-02 0.  1.
       -1   -1    0    0    0  501  0.00000000000E+00  0.00000000000E+00 -0.14252214045E+04  0.14252214045E+04  0.50400001928E-02 0. -1.
    10030    2    1    2    0    0  0.00000000000E+00  0.00000000000E+00 -0.97746796591E+03  0.18729748431E+04  0.15976830532E+04 0.  0.
        2    1    3    3  502    0 -0.61452508067E+03  0.64529009099E+02 -0.10822764630E+04  0.12462453250E+04  0.25500000920E-02 0. -1.
       -2    1    3    3    0  502  0.61452508067E+03 -0.64529009099E+02  0.10480849706E+03  0.62672951809E+03  0.25500000920E-02 0.  1.
</event>
<event>
 5   0  0.1774934E-04  0.1634320E+04  0.7818609E-02  0.8799737E-01
       -2   -1    0    0    0  501  0.00000000000E+00  0.00000000000E+00  0.68655443398E+03  0.68655443399E+03  0.25500000920E-02 0. -1.
        2   -1    0    0  501    0  0.00000000000E+00  0.00000000000E+00 -0.97261111930E+03  0.97261111930E+03  0.25500000920E-02 0.  1.
    10030    2    1    2    0    0  0.00000000000E+00  0.00000000000E+00 -0.28605668531E+03  0.16591655533E+04  0.16343200133E+04 0.  0.
        1    1    3    3  502    0 -0.95544212185E+02 -0.95234726508E+02  0.67517194558E+03  0.68851688849E+03  0.50400001928E-02 0. -1.
       -1    1    3    3    0  502  0.95544212185E+02  0.95234726508E+02 -0.96122863089E+03  0.97064866480E+03  0.50400001928E-02 0.  1.
</event>
<event>
 5   0  0.1858913E-04  0.1619641E+04  0.7818609E-02  0.8808572E-01
        2   -1    0    0  501    0  0.00000000000E+00  0.00000000000E+00  0.74321426265E+03  0.74321426266E+03  0.25500000920E-02 0. -1.
       -2   -1    0    0    0  501  0.00000000000E+00  0.00000000000E+00 -0.88239601967E+03  0.88239601967E+03  0.25500000920E-02 0.  1.
    10030    2    1    2    0    0  0.00000000000E+00  0.00000000000E+00 -0.13918175702E+03  0.16256102823E+04  0.16196410802E+04 0.  0.
        4    1    3    3  502    0  0.62816744217E+03  0.11083356750E+01  0.44338190626E+03  0.76888535654E+03  0.12699999809E+01 0. -1.
       -4    1    3    3    0  502 -0.62816744217E+03 -0.11083356750E+01 -0.58256366328E+03  0.85672492579E+03  0.12699999809E+01 0.  1.
</event>
<event>
 5   0  0.9673017E-05  0.1599846E+04  0.7818609E-02  0.8820643E-01
        1   -1    0    0  501    0  0.00000000000E+00  0.00000000000E+00  0.46601222227E+03  0.46601222230E+03  0.50400001928E-02 0. -1.
       -1   -1    0    0    0  501  0.00000000000E+00  0.00000000000E+00 -0.13730893870E+04  0.13730893871E+04  0.50400001928E-02 0.  1.
    10030    2    1    2    0    0  0.00000000000E+00  0.00000000000E+00 -0.90707716477E+03  0.18391016094E+04  0.15998455384E+04 0.  0.
        1    1    3    3  502    0  0.45470068311E+03 -0.64496429394E+03 -0.60405840270E+03  0.99378981962E+03  0.50400001928E-02 0. -1.
       -1    1    3    3    0  502 -0.45470068311E+03  0.64496429394E+03 -0.30301876207E+03  0.84531178974E+03  0.50400001928E-02 0.  1.
</event>
<event>
 5   0  0.9726935E-05  0.1598747E+04  0.7818609E-02  0.8821318E-01
       -1   -1    0    0    0  501  0.00000000000E+00  0.00000000000E+00  0.97726662960E+03  0.97726662961E+03  0.50400001928E-02 0.  1.
        1   -1    0    0  501    0  0.00000000000E+00  0.00000000000E+00 -0.65386289331E+03  0.65386289332E+03  0.50400001928E-02 0. -1.
    10030    2    1    2    0    0  0.00000000000E+00  0.00000000000E+00  0.32340373629E+03  0.16311295229E+04  0.15987474922E+04 0.  0.
        2    1    3    3  502    0 -0.40525060178E+03 -0.59623282294E+03 -0.19065803561E+03  0.74570243123E+03  0.25500000920E-02 0. -1.
       -2    1    3    3    0  502  0.40525060178E+03  0.59623282294E+03  0.51406177190E+03  0.88542709171E+03  0.25500000920E-02 0.  1.
</event>
<event>
 5   0  0.9616567E-05  0.1602127E+04  0.7818609E-02  0.8819243E-01
       -1   -1    0    0    0  501  0.00000000000E+00  0.00000000000E+00  0.51096023370E+03  0.51096023372E+03  0.50400001928E-02 0. -1.
        1   -1    0    0  501    0  0.00000000000E+00  0.00000000000E+00 -0.12558753486E+04  0.12558753486E+04  0.50400001928E-02 0.  1.
    10030    2    1    2    0    0  0.00000000000E+00  0.00000000000E+00 -0.74491511487E+03  0.17668355823E+04  0.16021265389E+04 0.  0.
        5    1    3    3  502    0  0.11303372181E+03 -0.29852037390E+03 -0.11826933647E+04  0.12250211104E+04  0.46999998093E+01 0.  1.
       -5    1    3    3    0  502 -0.11303372181E+03  0.29852037390E+03  0.43777824988E+03  0.54181447191E+03  0.46999998093E+01 0. -1.
</event>
<event>
 5   0  0.6838750E-05  0.1602998E+04  0.7818609E-02  0.8818708E-01
        3   -1    0    0  501    0  0.00000000000E+00  0.00000000000E+00  0.15501135164E+04  0.15501135197E+04  0.10100000352E+00 0.  1.
       -3   -1    0    0    0  501  0.00000000000E+00  0.00000000000E+00 -0.41442181809E+03  0.41442183039E+03  0.10100000352E+00 0. -1.
    10030    2    1    2    0    0  0.00000000000E+00  0.00000000000E+00  0.11356916983E+04  0.19645353501E+04  0.16029982870E+04 0.  0.
        4    1    3    3  502    0 -0.52625264206E+03  0.29505877456E+03 -0.78789798579E+02  0.60844964375E+03  0.12699999809E+01 0. -1.
       -4    1    3    3    0  502  0.52625264206E+03 -0.29505877456E+03  0.12144814969E+04  0.13560857063E+04  0.12699999809E+01 0.  1.
</event>
<event>
 5   0  0.9939872E-05  0.1602111E+04  0.7818609E-02  0.8819252E-01
        1   -1    0    0  501    0  0.00000000000E+00  0.00000000000E+00  0.94148816429E+03  0.94148816430E+03  0.50400001928E-02 0.  1.
       -1   -1    0    0    0  501  0.00000000000E+00  0.00000000000E+00 -0.68157002244E+03  0.68157002246E+03  0.50400001928E-02 0. -1.
    10030    2    1    2    0    0  0.00000000000E+00  0.00000000000E+00  0.25991814185E+03  0.16230581868E+04  0.16021112437E+04 0.  0.
        3    1    3    3  502    0  0.40712096167E+03  0.57535946809E+03  0.51559879581E+03  0.87328581999E+03  0.10100000352E+00 0.  1.
       -3    1    3    3    0  502 -0.40712096167E+03 -0.57535946809E+03 -0.25568065396E+03  0.74977236677E+03  0.10100000352E+00 0. -1.
</event>
<event>
 5   0  0.1858913E-04  0.1613390E+04  0.7818609E-02  0.8812364E-01
        2   -1    0    0  501    0  0.00000000000E+00  0.00000000000E+00  0.11588180437E+04  0.11588180437E+04  0.25500000920E-02 0. -1.
       -2   -1    0    0    0  501  0.00000000000E+00  0.00000000000E+00 -0.56156980354E+03  0.56156980355E+03  0.25500000920E-02 0.  1.
    10030    2    1    2    0    0  0.00000000000E+00  0.00000000000E+00  0.59724824011E+03  0.17203878472E+04  0.16133904935E+04 0.  0.
        4    1    3    3  502    0  0.79137325790E+03  0.59452367360E+02  0.45296201511E+03  0.91377372327E+03  0.12699999809E+01 0. -1.
       -4    1    3    3    0  502 -0.79137325790E+03 -0.59452367360E+02  0.14428622501E+03  0.80661412393E+03  0.12699999809E+01 0.  1.
</event>
<event>
 5   0  0.9673017E-05  0.1595215E+04  0.7818609E-02  0.8823493E-01
        1   -1    0    0  501    0  0.00000000000E+00  0.00000000000E+00  0.93806708036E+03  0.93806708038E+03  0.50400001928E-02 0.  1.
       -1   -1    0    0    0  501  0.00000000000E+00  0.00000000000E+00 -0.67817963700E+03  0.67817963702E+03  0.50400001928E-02 0. -1.
    10030    2    1    2    0    0  0.00000000000E+00  0.00000000000E+00  0.25988744337E+03  0.16162467174E+04  0.15952153360E+04 0.  0.
        1    1    3    3  502    0 -0.16048150204E+03  0.69614939491E+03  0.48930240349E+03  0.86590711662E+03  0.50400001928E-02 0.  1.
       -1    1    3    3    0  502  0.16048150204E+03 -0.69614939491E+03 -0.22941496012E+03  0.75033960077E+03  0.50400001928E-02 0. -1.
</event>
<event>
 5   0  0.1835088E-04  0.1602941E+04  0.7818609E-02  0.8818743E-01
        2   -1    0    0  501    0  0.00000000000E+00  0.00000000000E+00  0.48245026631E+03  0.48245026632E+03  0.25500000920E-02 0. -1.
       -2   -1    0    0    0  501  0.00000000000E+00  0.00000000000E+00 -0.13314423913E+04  0.13314423913E+04  0.25500000920E-02 0.  1.
    10030    2    1    2    0    0  0.00000000000E+00  0.00000000000E+00 -0.84899212501E+03  0.18138926576E+04  0.16029407179E+04 0.  0.
        5    1    3    3  502    0 -0.18623398343E+03  0.56547738202E+03 -0.10316566184E+04  0.11911277154E+04  0.46999998093E+01 0.  1.
       -5    1    3    3    0  502  0.18623398343E+03 -0.56547738202E+03  0.18266449336E+03  0.62276494225E+03  0.46999998093E+01 0. -1.
</event>
<event>
 5   0  0.1835088E-04  0.1609554E+04  0.7818609E-02  0.8814700E-01
       -2   -1    0    0    0  501  0.00000000000E+00  0.00000000000E+00  0.79486459744E+03  0.79486459745E+03  0.25500000920E-02 0.  1.
        2   -1    0    0  501    0  0.00000000000E+00  0.00000000000E+00 -0.81481349473E+03  0.81481349473E+03  0.25500000920E-02 0. -1.
    10030    2    1    2    0    0  0.00000000000E+00  0.00000000000E+00 -0.19948897287E+02  0.16096780922E+04  0.16095544731E+04 0.  0.
        5    1    3    3  502    0  0.81509396070E+02 -0.59109491514E+02 -0.80847587369E+03  0.81473495198E+03  0.46999998093E+01 0. -1.
       -5    1    3    3    0  502 -0.81509396070E+02  0.59109491514E+02  0.78852697641E+03  0.79494314020E+03  0.46999998093E+01 0.  1.
</event>
<event>
 5   0  0.1835088E-04  0.1605568E+04  0.7818609E-02  0.8817135E-01
       -2   -1    0    0    0  501  0.00000000000E+00  0.00000000000E+00  0.28894822655E+03  0.28894822656E+03  0.25500000920E-02 0. -1.
        2   -1    0    0  501    0  0.00000000000E+00  0.00000000000E+00 -0.22303722815E+04  0.22303722815E+04  0.25500000920E-02 0.  1.
    10030    2    1    2    0    0  0.00000000000E+00  0.00000000000E+00 -0.19414240549E+04  0.25193205080E+04  0.16055679560E+04 0.  0.
        5    1    3    3  502    0  0.51453260027E+03  0.61334207579E+03 -0.87777953179E+03  0.11880451570E+04  0.46999998093E+01 0. -1.
       -5    1    3    3    0  502 -0.51453260027E+03 -0.61334207579E+03 -0.10636445231E+04  0.13312753510E+04  0.46999998093E+01 0.  1.
</event>
<event>
 5   0  0.1832646E-04  0.1578391E+04  0.7818609E-02  0.8833934E-01
        2   -1    0    0  501    0  0.00000000000E+00  0.00000000000E+00  0.44565374668E+03  0.44565374669E+03  0.25500000920E-02 0. -1.
       -2   -1    0    0    0  501  0.00000000000E+00  0.00000000000E+00 -0.13975634761E+04  0.13975634761E+04  0.25500000920E-02 0.  1.
    10030    2    1    2    0    0  0.00000000000E+00  0.00000000000E+00 -0.95190972939E+03  0.18432172228E+04  0.15783908253E+04 0.  0.
        2    1    3    3  502    0 -0.71642160895E+03  0.93061041390E+02 -0.10499478035E+03  0.73003026177E+03  0.25500000920E-02 0. -1.
       -2    1    3    3    0  502  0.71642160895E+03 -0.93061041390E+02 -0.84691494904E+03  0.11131869610E+04  0.25500000920E-02 0.  1.
</event>
<event>
 5   0  0.9432152E-05  0.1594005E+04  0.7818609E-02  0.8824240E-01
        1   -1    0    0  501    0  0.00000000000E+00  0.00000000000E+00  0.65684457545E+03  0.65684457547E+03  0.50400001928E-02 0.  1.
       -1   -1    0    0    0  501  0.00000000000E+00  0.00000000000E+00 -0.96706685692E+03  0.96706685693E+03  0.50400001928E-02 0. -1.
    10030    2    1    2    0    0  0.00000000000E+00  0.00000000000E+00 -0.31022228147E+03  0.16239114324E+04  0.15940045409E+04 0.  0.
        4    1    3    3  502    0  0.57884696753E+03 -0.27842921714E+03 -0.63579454948E+03  0.90378258603E+03  0.12699999809E+01 0. -1.
       -4    1    3    3    0  502 -0.57884696753E+03  0.27842921714E+03  0.32557226801E+03  0.72012884636E+03  0.12699999809E+01 0.  1.
</event>
<event>
 5   0  0.1774934E-04  0.1604883E+04  0.7818609E-02  0.8817554E-01
        2   -1    0    0  501    0  0.00000000000E+00  0.00000000000E+00  0.65675843483E+03  0.65675843484E+03  0.25500000920E-02 0. -1.
       -2   -1    0    0    0  501  0.00000000000E+00  0.00000000000E+00 -0.98044051455E+03  0.98044051455E+03  0.25500000920E-02 0.  1.
    10030    2    1    2    0    0  0.00000000000E+00  0.00000000000E+00 -0.32368207972E+03  0.16371989494E+04  0.16048832703E+04 0.  0.
        1    1    3    3  502    0 -0.39360160630E+03  0.20253577810E+03 -0.84462338773E+03  0.95358881758E+03  0.50400001928E-02 0.  1.
       -1    1    3    3    0  502  0.39360160630E+03 -0.20253577810E+03  0.52094130801E+03  0.68361013181E+03  0.50400001928E-02 0. -1.
</event>
<event>
 5   0  0.1835088E-04  0.1624833E+04  0.7818609E-02  0.8805436E-01
       -2   -1    0    0    0  501  0.00000000000E+00  0.00000000000E+00  0.40607597154E+03  0.40607597155E+03  0.25500000920E-02 0. -1.
        2   -1    0    0  501    0  0.00000000000E+00  0.00000000000E+00 -0.16253630047E+04  0.16253630047E+04  0.25500000920E-02 0.  1.
    10030    2    1    2    0    0  0.00000000000E+00  0.00000000000E+00 -0.12192870332E+04  0.20314389763E+04  0.16248333592E+04 0.  0.
        5    1    3    3  502    0 -0.70523251960E+03 -0.27455729594E+02 -0.11126895302E+04  0.13176520042E+04  0.46999998093E+01 0.  1.
       -5    1    3    3    0  502  0.70523251960E+03  0.27455729594E+02 -0.10659750304E+03  0.71378697204E+03  0.46999998093E+01 0. -1.
</event>
<event>
 5   0  0.1858913E-04  0.1600624E+04  0.7818609E-02  0.8820165E-01
        2   -1    0    0  501    0  0.00000000000E+00  0.00000000000E+00  0.82741782887E+03  0.82741782888E+03  0.25500000920E-02 0. -1.
       -2   -1    0    0    0  501  0.00000000000E+00  0.00000000000E+00 -0.77409425535E+03  0.77409425535E+03  0.25500000920E-02 0.  1.
    10030    2    1    2    0    0  0.00000000000E+00  0.00000000000E+00  0.53323573528E+02  0.16015120842E+04  0.16006241134E+04 0.  0.
        4    1    3    3  502    0 -0.35168291058E+03  0.71777625088E+03 -0.13537103067E+02  0.79941758924E+03  0.12699999809E+01 0. -1.
       -4    1    3    3    0  502  0.35168291058E+03 -0.71777625088E+03  0.66860676595E+02  0.80209449499E+03  0.12699999809E+01 0.  1.
</event>
<event>
 5   0  0.1914170E-04  0.1600745E+04  0.7818609E-02  0.8820090E-01
       -2   -1    0    0    0  501  0.00000000000E+00  0.00000000000E+00  0.10758284644E+04  0.10758284644E+04  0.25500000920E-02 0. -1.
        2   -1    0    0  501    0  0.00000000000E+00  0.00000000000E+00 -0.59544478342E+03  0.59544478342E+03  0.25500000920E-02 0.  1.
    10030    2    1    2    0    0  0.00000000000E+00  0.00000000000E+00  0.48038368098E+03  0.16712732478E+04  0.16007453851E+04 0.  0.
        3    1    3    3  502    0  0.65554037381E+03  0.28216246273E+03  0.61843483040E+03  0.94435718175E+03  0.10100000352E+00 0. -1.
       -3    1    3    3    0  502 -0.65554037381E+03 -0.28216246273E+03 -0.13805114942E+03  0.72691606608E+03  0.10100000352E+00 0.  1.
</event>
<event>
 5   0  0.1835088E-04  0.1619832E+04  0.7818609E-02  0.8808456E-01
       -2   -1    0    0    0  501  0.00000000000E+00  0.00000000000E+00  0.97281364538E+03  0.97281364538E+03  0.25500000920E-02 0.  1.
        2   -1    0    0  501    0  0.00000000000E+00  0.00000000000E+00 -0.67429586931E+03  0.67429586932E+03  0.25500000920E-02 0. -1.
    10030    2    1    2    0    0  0.00000000000E+00  0.00000000000E+00  0.29851777606E+03  0.16471095147E+04  0.16198323650E+04 0.  0.
        5    1    3    3  502    0 -0.59725131656E+03  0.21129198754E+03 -0.36380560499E+03  0.73056830437E+03  0.46999998093E+01 0. -1.
       -5    1    3    3    0  502  0.59725131656E+03 -0.21129198754E+03  0.66232338106E+03  0.91654121033E+03  0.46999998093E+01 0.  1.
</event>
<event>
 5   0  0.9432152E-05  0.1598546E+04  0.7818609E-02  0.8821442E-01
        1   -1    0    0  501    0  0.00000000000E+00  0.00000000000E+00  0.69559269535E+03  0.69559269537E+03  0.50400001928E-02 0. -1.
       -1   -1    0    0    0  501  0.00000000000E+00  0.00000000000E+00 -0.91840717560E+03  0.91840717561E+03  0.50400001928E-02 0.  1.
    10030    2    1    2    0    0  0.00000000000E+00  0.00000000000E+00 -0.22281448025E+03  0.16139998710E+04  0.15985459927E+04 0.  0.
        4    1    3    3  502    0  0.72457731979E+03  0.22874720965E+03 -0.36179282380E+03  0.84156594425E+03  0.12699999809E+01 0.  1.
       -4    1    3    3    0  502 -0.72457731979E+03 -0.22874720965E+03  0.13897834355E+03  0.77243392672E+03  0.12699999809E+01 0. -1.
</event>
<event>
 5   0  0.9939872E-05  0.1594276E+04  0.7818609E-02  0.8824072E-01
       -1   -1    0    0    0  501  0.00000000000E+00  0.00000000000E+00  0.36439468735E+03  0.36439468738E+03  0.50400001928E-02 0.  1.
        1   -1    0    0  501    0  0.00000000000E+00  0.00000000000E+00 -0.17437936533E+04  0.17437936533E+04  0.50400001928E-02 0. -1.
    10030    2    1    2    0    0  0.00000000000E+00  0.00000000000E+00 -0.13793989660E+04  0.21081883407E+04  0.15942761908E+04 0.  0.
        3    1    3    3  502    0 -0.44878218095E+03 -0.32901786808E+03 -0.14444475515E+04  0.15479298895E+04  0.10100000352E+00 0. -1.
       -3    1    3    3    0  502  0.44878218095E+03  0.32901786808E+03  0.65048585572E+02  0.56025845120E+03  0.10100000352E+00 0.  1.
</event>
<event>
 5   0  0.9616567E-05  0.1599757E+04  0.7818609E-02  0.8820697E-01
        1   -1    0    0  501    0  0.00000000000E+00  0.00000000000E+00  0.56073177083E+03  0.56073177086E+03  0.50400001928E-02 0.  1.
       -1   -1    0    0    0  501  0.00000000000E+00  0.00000000000E+00 -0.11410195727E+04  0.11410195727E+04  0.50400001928E-02 0. -1.
    10030    2    1    2    0    0  0.00000000000E+00  0.00000000000E+00 -0.58028780185E+03  0.17017513436E+04  0.15997573886E+04 0.  0.
        5    1    3    3  502    0 -0.63165284282E+03 -0.49064306593E+03 -0.28137816565E+03  0.84788660450E+03  0.46999998093E+01 0. -1.
       -5    1    3    3    0  502  0.63165284282E+03  0.49064306593E+03 -0.29890963620E+03  0.85386473905E+03  0.46999998093E+01 0.  1.
</event>
<event>
 5   0  0.1774934E-04  0.1601052E+04  0.7818609E-02  0.8819902E-01
        2   -1    0    0  501    0  0.00000000000E+00  0.00000000000E+00  0.38680732790E+03  0.38680732791E+03  0.25500000920E-02 0.  1.
       -2   -1    0    0    0  501  0.00000000000E+00  0.00000000000E+00 -0.16567477907E+04  0.16567477907E+04  0.25500000920E-02 0. -1.
    10030    2    1    2    0    0  0.00000000000E+00  0.00000000000E+00 -0.12699404628E+04  0.20435551186E+04  0.16010523863E+04 0.  0.
        1    1    3    3  502    0  0.41987989467E+03  0.34854552751E+03  0.11262284390E+03  0.55719567092E+03  0.50400001928E-02 0.  1.
       -1    1    3    3    0  502 -0.41987989467E+03 -0.34854552751E+03 -0.13825633067E+04  0.14863594477E+04  0.50400001928E-02 0. -1.
</event>
<event>
 5   0  0.1835088E-04  0.1593538E+04  0.7818609E-02  0.8824528E-01
        2   -1    0    0  501    0  0.00000000000E+00  0.00000000000E+00  0.14724263110E+04  0.14724263110E+04  0.25500000920E-02 0.  1.
       -2   -1    0    0    0  501  0.00000000000E+00  0.00000000000E+00 -0.43115294398E+03  0.43115294399E+03  0.25500000920E-02 0. -1.
    10030    2    1    2    0    0  0.00000000000E+00  0.00000000000E+00  0.10412733670E+04  0.19035792550E+04  0.15935381248E+04 0.  0.
        5    1    3    3  502    0  0.78070474964E+03  0.53401943039E+02  0.34158321406E+03  0.85384592038E+03  0.46999998093E+01 0.  1.
       -5    1    3    3    0  502 -0.78070474964E+03 -0.53401943039E+02  0.69969015294E+03  0.10497333346E+04  0.46999998093E+01 0. -1.
</event>
<event>
 5   0  0.9616567E-05  0.1607111E+04  0.7818609E-02  0.8816191E-01
       -1   -1    0    0    0  501  0.00000000000E+00  0.00000000000E+00  0.92761751744E+03  0.92761751745E+03  0.50400001928E-02 0. -1.
        1   -1    0    0  501    0  0.00000000000E+00  0.00000000000E+00 -0.69608603525E+03  0.69608603527E+03  0.50400001928E-02 0.  1.
    10030    2    1    2    0    0  0.00000000000E+00  0.00000000000E+00  0.23153148218E+03  0.16237035527E+04  0.16071111971E+04 0.  0.
        5    1    3    3  502    0  0.19408039153E+03  0.75620998642E+02  0.89985409208E+03  0.92365860081E+03  0.46999998093E+01 0. -1.
       -5    1    3    3    0  502 -0.19408039153E+03 -0.75620998642E+02 -0.66832260990E+03  0.70004495192E+03  0.46999998093E+01 0.  1.
</event>
<event>
 5   0  0.9673017E-05  0.1602399E+04  0.7818609E-02  0.8819076E-01
       -1   -1    0    0    0  501  0.00000000000E+00  0.00000000000E+00  0.10107112994E+04  0.10107112994E+04  0.50400001928E-02 0.  1.
        1   -1    0    0  501    0  0.00000000000E+00  0.00000000000E+00 -0.63511739232E+03  0.63511739234E+03  0.50400001928E-02 0. -1.
    10030    2    1    2    0    0  0.00000000000E+00  0.00000000000E+00  0.37559390711E+03  0.16458286918E+04  0.16023986082E+04 0.  0.
        1    1    3    3  502    0 -0.34444932137E+03  0.50188696665E+03 -0.34726806654E+03  0.70080737179E+03  0.50400001928E-02 0. -1.
       -1    1    3    3    0  502  0.34444932137E+03 -0.50188696665E+03  0.72286197365E+03  0.94502132000E+03  0.50400001928E-02 0.  1.
</event>
<event>
 5   0  0.1858913E-04  0.1644977E+04  0.7818609E-02  0.8793383E-01
       -2   -1    0    0    0  501  0.00000000000E+00  0.00000000000E+00  0.28904932773E+03  0.28904932774E+03  0.25500000920E-02 0. -1.
        2   -1    0    0  501    0  0.00000000000E+00  0.00000000000E+00 -0.23403883463E+04  0.23403883463E+04  0.25500000920E-02 0.  1.
    10030    2    1    2    0    0  0.00000000000E+00  0.00000000000E+00 -0.20513390186E+04  0.26294376740E+04  0.16449774201E+04 0.  0.
        4    1    3    3  502    0  0.14775704637E+03 -0.16170339205E+03  0.24156686778E+03  0.32609246581E+03  0.12699999809E+01 0. -1.
       -4    1    3    3    0  502 -0.14775704637E+03  0.16170339205E+03 -0.22929058863E+04  0.23033452082E+04  0.12699999809E+01 0.  1.
</event>
<event>
 5   0  0.9673017E-05  0.1593596E+04  0.7818609E-02  0.8824492E-01
       -1   -1    0    0    0  501  0.00000000000E+00  0.00000000000E+00  0.10250262151E+04  0.10250262151E+04  0.50400001928E-02 0. -1.
        1   -1    0    0  501    0  0.00000000000E+00  0.00000000000E+00 -0.61938631794E+03  0.61938631796E+03  0.50400001928E-02 0.  1.
    10030    2    1    2    0    0  0.00000000000E+00  0.00000000000E+00  0.40563989717E+03  0.16444125331E+04  0.15935962013E+04 0.  0.
        1    1    3    3  502    0 -0.30655171995E+03  0.59428971796E+03  0.64991801098E+03  0.93249538707E+03  0.50400001928E-02 0.  1.
       -1    1    3    3    0  502  0.30655171995E+03 -0.59428971796E+03 -0.24427811381E+03  0.71191714602E+03  0.50400001928E-02 0. -1.
</event>
<event>
 5   0  0.1858913E-04  0.1603951E+04  0.7818609E-02  0.8818125E-01
        2   -1    0    0  501    0  0.00000000000E+00  0.00000000000E+00  0.10792938039E+04  0.10792938040E+04  0.25500000920E-02 0. -1.
       -2   -1    0    0    0  501  0.00000000000E+00  0.00000000000E+00 -0.59591220941E+03  0.59591220942E+03  0.25500000920E-02 0.  1.
    10030    2    1    2    0    0  0.00000000000E+00  0.00000000000E+00  0.48338159453E+03  0.16752060134E+04  0.16039505670E+04 0.  0.
        4    1    3    3  502    0 -0.59540097736E+03 -0.46281984922E+02  0.80074446344E+03  0.99891824220E+03  0.12699999809E+01 0. -1.
       -4    1    3    3    0  502  0.59540097736E+03  0.46281984922E+02 -0.31736286891E+03  0.67628777117E+03  0.12699999809E+01 0.  1.
</event>
<event>
 5   0  0.1774934E-04  0.1597053E+04  0.7818609E-02  0.8822360E-01
        2   -1    0    0  501    0  0.00000000000E+00  0.00000000000E+00  0.94750037457E+03  0.94750037457E+03  0.25500000920E-02 0.  1.
       -2   -1    0    0    0  501  0.00000000000E+00  0.00000000000E+00 -0.67297588973E+03  0.67297588973E+03  0.25500000920E-02 0. -1.
    10030    2    1    2    0    0  0.00000000000E+00  0.00000000000E+00  0.27452448484E+03  0.16204762643E+04  0.15970534213E+04 0.  0.
        1    1    3    3  502    0  0.87125793040E+02  0.72658711021E+03  0.46151944945E+03  0.86517046574E+03  0.50400001928E-02 0.  1.
       -1    1    3    3    0  502 -0.87125793040E+02 -0.72658711021E+03 -0.18699496461E+03  0.75530579857E+03  0.50400001928E-02 0. -1.
</event>
<event>
 5   0  0.6838750E-05  0.1592686E+04  0.7818609E-02  0.8825054E-01
       -4   -1    0    0    0  501  0.00000000000E+00  0.00000000000E+00  0.54289516696E+03  0.54289665242E+03  0.12699999809E+01 0. -1.
        4   -1    0    0  501    0  0.00000000000E+00  0.00000000000E+00 -0.11681076998E+04  0.11681083902E+04  0.12699999809E+01 0.  1.
    10030    2    1    2    0    0  0.00000000000E+00  0.00000000000E+00 -0.62521253281E+03  0.17110050426E+04  0.15926856390E+04 0.  0.
        4    1    3    3  502    0 -0.66173201984E+03  0.31846321181E+03 -0.64346675474E+03  0.97640112695E+03  0.12699999809E+01 0.  1.
       -4    1    3    3    0  502  0.66173201984E+03 -0.31846321181E+03  0.18254221927E+02  0.73460391564E+03  0.12699999809E+01 0. -1.
</event>
<event>
 5   0  0.9673017E-05  0.1599661E+04  0.7818609E-02  0.8820756E-01
        1   -1    0    0  501    0  0.00000000000E+00  0.00000000000E+00  0.82815573412E+03  0.82815573413E+03  0.50400001928E-02 0. -1.
       -1   -1    0    0    0  501  0.00000000000E+00  0.00000000000E+00 -0.77247442699E+03  0.77247442700E+03  0.50400001928E-02 0.  1.
    10030    2    1    2    0    0  0.00000000000E+00  0.00000000000E+00  0.55681307129E+02  0.16006301611E+04  0.15996613719E+04 0.  0.
        1    1    3    3  502    0  0.59022584714E+03 -0.46114148546E+03 -0.25288425282E+03  0.79054947068E+03  0.50400001928E-02 0.  1.
       -1    1    3    3    0  502 -0.59022584714E+03  0.46114148546E+03  0.30856555995E+03  0.81008069046E+03  0.50400001928E-02 0. -1.
</event>
<event>
 5   0  0.6838750E-05  0.1606960E+04  0.7818609E-02  0.8816284E-01
       -3   -1    0    0    0  501  0.00000000000E+00  0.00000000000E+00  0.61341242779E+03  0.61341243610E+03  0.10100000352E+00 0. -1.
        3   -1    0    0  501    0  0.00000000000E+00  0.00000000000E+00 -0.10524399413E+04  0.10524399461E+04  0.10100000352E+00 0.  1.
    10030    2    1    2    0    0  0.00000000000E+00  0.00000000000E+00 -0.43902751346E+03  0.16658523822E+04  0.16069595520E+04 0.  0.
        2    1    3    3  502    0  0.46616429637E+03 -0.65411201439E+03 -0.19857263768E+03  0.82740725826E+03  0.25500000920E-02 0.  1.
       -2    1    3    3    0  502 -0.46616429637E+03  0.65411201439E+03 -0.24045487578E+03  0.83844512394E+03  0.25500000920E-02 0. -1.
</event>
<event>
 5   0  0.1858913E-04  0.1598982E+04  0.7818609E-02  0.8821174E-01
       -2   -1    0    0    0  501  0.00000000000E+00  0.00000000000E+00  0.36627636156E+03  0.36627636157E+03  0.25500000920E-02 0. -1.
        2   -1    0    0  501    0  0.00000000000E+00  0.00000000000E+00 -0.17450916521E+04  0.17450916521E+04  0.25500000920E-02 0.  1.
    10030    2    1    2    0    0  0.00000000000E+00  0.00000000000E+00 -0.13788152906E+04  0.21113680137E+04  0.15989819523E+04 0.  0.
        4    1    3    3  502    0 -0.55220802361E+03  0.19197131879E+03  0.30686113692E+02  0.58543141276E+03  0.12699999809E+01 0. -1.
       -4    1    3    3    0  502  0.55220802361E+03 -0.19197131879E+03 -0.14095014043E+04  0.15259366010E+04  0.12699999809E+01 0.  1.
</event>
<event>
 5   0  0.9432152E-05  0.1601749E+04  0.7818609E-02  0.8819474E-01
       -1   -1    0    0    0  501  0.00000000000E+00  0.00000000000E+00  0.32880357380E+03  0.32880357384E+03  0.50400001928E-02 0. -1.
        1   -1    0    0  501    0  0.00000000000E+00  0.00000000000E+00 -0.19507096416E+04  0.19507096416E+04  0.50400001928E-02 0.  1.
    10030    2    1    2    0    0  0.00000000000E+00  0.00000000000E+00 -0.16219060678E+04  0.22795132155E+04  0.16017494207E+04 0.  0.
        4    1    3    3  502    0  0.57211837603E+03 -0.56033099597E+03 -0.82577198042E+03  0.11503004989E+04  0.12699999809E+01 0.  1.
       -4    1    3    3    0  502 -0.57211837603E+03  0.56033099597E+03 -0.79613408743E+03  0.11292127166E+04  0.12699999809E+01 0. -1.
</event>
<event>
 5   0  0.1858913E-04  0.1603144E+04  0.7818609E-02  0.8818619E-01
        2   -1    0    0  501    0  0.00000000000E+00  0.00000000000E+00  0.14602057910E+04  0.14602057910E+04  0.25500000920E-02 0.  1.
       -2   -1    0    0    0  501  0.00000000000E+00  0.00000000000E+00 -0.44001866793E+03  0.44001866793E+03  0.25500000920E-02 0. -1.
    10030    2    1    2    0    0  0.00000000000E+00  0.00000000000E+00  0.10201871231E+04  0.19002244590E+04  0.16031441695E+04 0.  0.
        4    1    3    3  502    0  0.87796546619E+02  0.21392367217E+03 -0.39962367197E+03  0.46170581890E+03  0.12699999809E+01 0. -1.
       -4    1    3    3    0  502 -0.87796546619E+02 -0.21392367217E+03  0.14198107951E+04  0.14385186401E+04  0.12699999809E+01 0.  1.
</event>
<event>
 5   0  0.9726935E-05  0.1632018E+04  0.7818609E-02  0.8801116E-01
        1   -1    0    0  501    0  0.00000000000E+00  0.00000000000E+00  0.15758662941E+04  0.15758662941E+04  0.50400001928E-02 0.  1.
       -1   -1    0    0    0  501  0.00000000000E+00  0.00000000000E+00 -0.42254242668E+03  0.42254242671E+03  0.50400001928E-02 0. -1.
    10030    2    1    2    0    0  0.00000000000E+00  0.00000000000E+00  0.11533238674E+04  0.19984087208E+04  0.16320176078E+04 0.  0.
        2    1    3    3  502    0 -0.92404973041E+02  0.63037307296E+03 -0.47667736970E+02  0.63889052529E+03  0.25500000920E-02 0. -1.
       -2    1    3    3    0  502  0.92404973041E+02 -0.63037307296E+03  0.12009916044E+04  0.13595181955E+04  0.25500000920E-02 0.  1.
</event>
<event>
 5   0  0.1774934E-04  0.1598201E+04  0.7818609E-02  0.8821654E-01
        2   -1    0    0  501    0  0.00000000000E+00  0.00000000000E+00  0.65911902077E+03  0.65911902078E+03  0.25500000920E-02 0.  1.
       -2   -1    0    0    0  501  0.00000000000E+00  0.00000000000E+00 -0.96881035875E+03  0.96881035875E+03  0.25500000920E-02 0. -1.
    10030    2    1    2    0    0  0.00000000000E+00  0.00000000000E+00 -0.30969133798E+03  0.16279293795E+04  0.15982006570E+04 0.  0.
        1    1    3    3  502    0  0.11156262602E+03 -0.12607304479E+03 -0.95054267705E+03  0.96533518172E+03  0.50400001928E-02 0. -1.
       -1    1    3    3    0  502 -0.11156262602E+03  0.12607304479E+03  0.64085133907E+03  0.66259419781E+03  0.50400001928E-02 0.  1.
</event>
<event>
 5   0  0.9673017E-05  0.1598586E+04  0.7818609E-02  0.8821417E-01
       -1   -1    0    0    0  501  0.00000000000E+00  0.00000000000E+00  0.67736954641E+03  0.67736954643E+03  0.50400001928E-02 0. -1.
        1   -1    0    0  501    0  0.00000000000E+00  0.00000000000E+00 -0.94316218266E+03  0.94316218268E+03  0.50400001928E-02 0.  1.
    10030    2    1    2    0    0  0.00000000000E+00  0.00000000000E+00 -0.26579263626E+03  0.16205317291E+04  0.15985860501E+04 0.  0.
        1    1    3    3  502    0 -0.37226014293E+03 -0.27362417726E+02 -0.84938274761E+03  0.92778088355E+03  0.50400001928E-02 0.  1.
       -1    1    3    3    0  502  0.37226014293E+03  0.27362417726E+02  0.58359011135E+03  0.69275084555E+03  0.50400001928E-02 0. -1.
</event>
<event>
 5   0  0.9673017E-05  0.1595099E+04  0.7818609E-02  0.8823564E-01
        1   -1    0    0  501    0  0.00000000000E+00  0.00000000000E+00  0.18747756257E+04  0.18747756257E+04  0.50400001928E-02 0. -1.
       -1   -1    0    0    0  501  0.00000000000E+00  0.00000000000E+00 -0.33928612735E+03  0.33928612738E+03  0.50400001928E-02 0.  1.
    10030    2    1    2    0    0  0.00000000000E+00  0.00000000000E+00  0.15354894983E+04  0.22140617531E+04  0.15950991966E+04 0.  0.
        1    1    3    3  502    0  0.68763217214E+03 -0.24006644385E+03  0.31665206777E+03  0.79419042658E+03  0.50400001928E-02 0.  1.
       -1    1    3    3    0  502 -0.68763217214E+03  0.24006644385E+03  0.12188374306E+04  0.14198713265E+04  0.50400001928E-02 0. -1.
</event>
<event>
 5   0  0.9939872E-05  0.1605392E+04  0.7818609E-02  0.8817243E-01
       -1   -1    0    0    0  501  0.00000000000E+00  0.00000000000E+00  0.13085006164E+04  0.13085006164E+04  0.50400001928E-02 0.  1.
        1   -1    0    0  501    0  0.00000000000E+00  0.00000000000E+00 -0.49241131398E+03  0.49241131401E+03  0.50400001928E-02 0. -1.
    10030    2    1    2    0    0  0.00000000000E+00  0.00000000000E+00  0.81608930241E+03  0.18009119304E+04  0.16053915509E+04 0.  0.
        3    1    3    3  502    0 -0.25091861816E+03  0.25200311320E+03 -0.39921918057E+03  0.53464164291E+03  0.10100000352E+00 0. -1.
       -3    1    3    3    0  502  0.25091861816E+03 -0.25200311320E+03  0.12153084830E+04  0.12662702875E+04  0.10100000352E+00 0.  1.
</event>
<event>
 5   0  0.1914170E-04  0.1601639E+04  0.7818609E-02  0.8819541E-01
        2   -1    0    0  501    0  0.00000000000E+00  0.00000000000E+00  0.10785065887E+04  0.10785065887E+04  0.25500000920E-02 0.  1.
       -2   -1    0    0    0  501  0.00000000000E+00  0.00000000000E+00 -0.59462989376E+03  0.59462989377E+03  0.25500000920E-02 0. -1.
    10030    2    1    2    0    0  0.00000000000E+00  0.00000000000E+00  0.48387669490E+03  0.16731364824E+04  0.16016394828E+04 0.  0.
        3    1    3    3  502    0 -0.23880180970E+03 -0.75035331024E+03  0.89636252518E+02  0.79252196340E+03  0.10100000352E+00 0. -1.
       -3    1    3    3    0  502  0.23880180970E+03  0.75035331024E+03  0.39424044239E+03  0.88061451903E+03  0.10100000352E+00 0.  1.
</event>
<event>
 5   0  0.1832646E-04  0.1601723E+04  0.7818609E-02  0.8819490E-01
       -2   -1    0    0    0  501  0.00000000000E+00  0.00000000000E+00  0.59901709853E+03  0.59901709853E+03  0.25500000920E-02 0. -1.
        2   -1    0    0  501    0  0.00000000000E+00  0.00000000000E+00 -0.10707197979E+04  0.10707197979E+04  0.25500000920E-02 0.  1.
    10030    2    1    2    0    0  0.00000000000E+00  0.00000000000E+00 -0.47170269939E+03  0.16697368965E+04  0.16017234052E+04 0.  0.
        2    1    3    3  502    0 -0.39711052058E+03 -0.40320597853E+03 -0.82657701698E+03  0.10017491661E+04  0.25500000920E-02 0.  1.
       -2    1    3    3    0  502  0.39711052058E+03  0.40320597853E+03  0.35487431759E+03  0.66798773040E+03  0.25500000920E-02 0. -1.
</event>
<event>
 5   0  0.9432152E-05  0.1582398E+04  0.7818609E-02  0.8831435E-01
       -1   -1    0    0    0  501  0.00000000000E+00  0.00000000000E+00  0.90247083688E+03  0.90247083690E+03  0.50400001928E-02 0. -1.
        1   -1    0    0  501    0  0.00000000000E+00  0.00000000000E+00 -0.69364703054E+03  0.69364703055E+03  0.50400001928E-02 0.  1.
    10030    2    1    2    0    0  0.00000000000E+00  0.00000000000E+00  0.20882380635E+03  0.15961178675E+04  0.15823984532E+04 0.  0.
        4    1    3    3  502    0 -0.71684933647E+03  0.17414694656E+03  0.39288883414E+03  0.83580104037E+03  0.12699999809E+01 0.  1.
       -4    1    3    3    0  502  0.71684933647E+03 -0.17414694656E+03 -0.18406502779E+03  0.76031682708E+03  0.12699999809E+01 0. -1.
</event>
<event>
 5   0  0.1774934E-04  0.1600337E+04  0.7818609E-02  0.8820341E-01
        2   -1    0    0  501    0  0.00000000000E+00  0.00000000000E+00  0.18156510484E+04  0.18156510484E+04  0.25500000920E-02 0.  1.
       -2   -1    0    0    0  501  0.00000000000E+00  0.00000000000E+00 -0.35263932033E+03  0.35263932033E+03  0.25500000920E-02 0. -1.
    10030    2    1    2    0    0  0.00000000000E+00  0.00000000000E+00  0.14630117281E+04  0.21682903688E+04  0.16003374040E+04 0.  0.
        1    1    3    3  502    0  0.13843631112E+03  0.78435267462E+03  0.62746767841E+03  0.10139474434E+04  0.50400001928E-02 0. -1.
       -1    1    3    3    0  502 -0.13843631112E+03 -0.78435267462E+03  0.83554404968E+03  0.11543429254E+04  0.50400001928E-02 0.  1.
</event>
<event>
 5   0  0.1835088E-04  0.1597493E+04  0.7818609E-02  0.8822090E-01
        2   -1    0    0  501    0  0.00000000000E+00  0.00000000000E+00  0.95868248370E+03  0.95868248370E+03  0.25500000920E-02 0. -1.
       -2   -1    0    0    0  501  0.00000000000E+00  0.00000000000E+00 -0.66549224489E+03  0.66549224489E+03  0.25500000920E-02 0.  1.
    10030    2    1    2    0    0  0.00000000000E+00  0.00000000000E+00  0.29319023881E+03  0.16241747286E+04  0.15974927333E+04 0.  0.
        5    1    3    3  502    0  0.64392657714E+03  0.31928366568E+03  0.50082534965E+03  0.87603174415E+03  0.46999998093E+01 0. -1.
       -5    1    3    3    0  502 -0.64392657714E+03 -0.31928366568E+03 -0.20763511084E+03  0.74814298444E+03  0.46999998093E+01 0.  1.
</event>
<event>
 5   0  0.9432152E-05  0.1576589E+04  0.7818609E-02  0.8835061E-01
        1   -1    0    0  501    0  0.00000000000E+00  0.00000000000E+00  0.10142763311E+04  0.10142763311E+04  0.50400001928E-02 0. -1.
       -1   -1    0    0    0  501  0.00000000000E+00  0.00000000000E+00 -0.61266149655E+03  0.61266149657E+03  0.50400001928E-02 0.  1.
    10030    2    1    2    0    0  0.00000000000E+00  0.00000000000E+00  0.40161483456E+03  0.16269378277E+04  0.15765887922E+04 0.  0.
        4    1    3    3  502    0  0.25860963963E+02  0.69847611749E+03  0.57695993469E+03  0.90632337237E+03  0.12699999809E+01 0.  1.
       -4    1    3    3    0  502 -0.25860963963E+02 -0.69847611749E+03 -0.17534510013E+03  0.72061445531E+03  0.12699999809E+01 0. -1.
</event>
<event>
 5   0  0.1774934E-04  0.1588303E+04  0.7818609E-02  0.8827766E-01
        2   -1    0    0  501    0  0.00000000000E+00  0.00000000000E+00  0.22984598319E+04  0.22984598319E+04  0.25500000920E-02 0. -1.
       -2   -1    0    0    0  501  0.00000000000E+00  0.00000000000E+00 -0.27439092091E+03  0.27439092092E+03  0.25500000920E-02 0.  1.
    10030    2    1    2    0    0  0.00000000000E+00  0.00000000000E+00  0.20240689110E+04  0.25728507528E+04  0.15883028804E+04 0.  0.
        1    1    3    3  502    0  0.30391121663E+03  0.36049380567E+03 -0.23112898006E+02  0.47207204705E+03  0.50400001928E-02 0.  1.
       -1    1    3    3    0  502 -0.30391121663E+03 -0.36049380567E+03  0.20471818090E+04  0.21007787057E+04  0.50400001928E-02 0. -1.
</event>
<event>
 5   0  0.9673017E-05  0.1598636E+04  0.7818609E-02  0.8821386E-01
       -1   -1    0    0    0  501  0.00000000000E+00  0.00000000000E+00  0.48425674038E+03  0.48425674041E+03  0.50400001928E-02 0.  1.
        1   -1    0    0  501    0  0.00000000000E+00  0.00000000000E+00 -0.13193608456E+04  0.13193608456E+04  0.50400001928E-02 0. -1.
    10030    2    1    2    0    0  0.00000000000E+00  0.00000000000E+00 -0.83510410524E+03  0.18036175860E+04  0.15986361469E+04 0.  0.
        1    1    3    3  502    0 -0.21240556586E+03  0.64937372522E+03  0.50499972836E+02  0.68509313724E+03  0.50400001928E-02 0.  1.
       -1    1    3    3    0  502  0.21240556586E+03 -0.64937372522E+03 -0.88560407807E+03  0.11185244488E+04  0.50400001928E-02 0. -1.
</event>
<event>
 5   0  0.1774934E-04  0.1598468E+04  0.7818609E-02  0.8821490E-01
        2   -1    0    0  501    0  0.00000000000E+00  0.00000000000E+00  0.13413046314E+04  0.13413046314E+04  0.25500000920E-02 0.  1.
       -2   -1    0    0    0  501  0.00000000000E+00  0.00000000000E+00 -0.47623415839E+03  0.47623415840E+03  0.25500000920E-02 0. -1.
    10030    2    1    2    0    0  0.00000000000E+00  0.00000000000E+00  0.86507047297E+03  0.18175387898E+04  0.15984681195E+04 0.  0.
        1    1    3    3  502    0 -0.57746602912E+03  0.26040241570E+03 -0.12159300070E+03  0.64502813174E+03  0.50400001928E-02 0. -1.
       -1    1    3    3    0  502  0.57746602912E+03 -0.26040241570E+03  0.98666347368E+03  0.11725106580E+04  0.50400001928E-02 0.  1.
</event>
<event>
 5   0  0.9432152E-05  0.1595983E+04  0.7818609E-02  0.8823019E-01
       -1   -1    0    0    0  501  0.00000000000E+00  0.00000000000E+00  0.52394163761E+03  0.52394163763E+03  0.50400001928E-02 0. -1.
        1   -1    0    0  501    0  0.00000000000E+00  0.00000000000E+00 -0.12153849649E+04  0.12153849649E+04  0.50400001928E-02 0.  1.
    10030    2    1    2    0    0  0.00000000000E+00  0.00000000000E+00 -0.69144332733E+03  0.17393266026E+04  0.15959834446E+04 0.  0.
        4    1    3    3  502    0 -0.37689131883E+03  0.38040503795E+03  0.29905297293E+03  0.61334276928E+03  0.12699999809E+01 0. -1.
       -4    1    3    3    0  502  0.37689131883E+03 -0.38040503795E+03 -0.99049630026E+03  0.11259838333E+04  0.12699999809E+01 0.  1.
</event>
<event>
 5   0  0.1832646E-04  0.1615468E+04  0.7818609E-02  0.8811101E-01
        2   -1    0    0  501    0  0.00000000000E+00  0.00000000000E+00  0.16915583752E+04  0.16915583752E+04  0.25500000920E-02 0.  1.
       -2   -1    0    0    0  501  0.00000000000E+00  0.00000000000E+00 -0.38570021291E+03  0.38570021292E+03  0.25500000920E-02 0. -1.
    10030    2    1    2    0    0  0.00000000000E+00  0.00000000000E+00  0.13058581623E+04  0.20772585881E+04  0.16154682609E+04 0.  0.
        2    1    3    3  502    0  0.74452045729E+02 -0.43582130864E+03  0.15221436550E+04  0.15850566635E+04  0.25500000920E-02 0.  1.
       -2    1    3    3    0  502 -0.74452045729E+02  0.43582130864E+03 -0.21628549272E+03  0.49220192456E+03  0.25500000920E-02 0. -1.
</event>
<event>
 5   0  0.1832646E-04  0.1603648E+04  0.7818609E-02  0.8818310E-01
        2   -1    0    0  501    0  0.00000000000E+00  0.00000000000E+00  0.12721239474E+04  0.12721239474E+04  0.25500000920E-02 0. -1.
       -2   -1    0    0    0  501  0.00000000000E+00  0.00000000000E+00 -0.50539254122E+03  0.50539254123E+03  0.25500000920E-02 0.  1.
    10030    2    1    2    0    0  0.00000000000E+00  0.00000000000E+00  0.76673140622E+03  0.17775164887E+04  0.16036482838E+04 0.  0.
        2    1    3    3  502    0 -0.69285636055E+03  0.26046906528E+02  0.82976277776E+03  0.10813115393E+04  0.25500000920E-02 0.  1.
       -2    1    3    3    0  502  0.69285636055E+03 -0.26046906528E+02 -0.63031371544E+02  0.69620494935E+03  0.25500000920E-02 0. -1.
</event>
<event>
 5   0  0.9432152E-05  0.1590631E+04  0.7818609E-02  0.8826325E-01
       -1   -1    0    0    0  501  0.00000000000E+00  0.00000000000E+00  0.31241221444E+03  0.31241221448E+03  0.50400001928E-02 0.  1.
        1   -1    0    0  501    0  0.00000000000E+00  0.00000000000E+00 -0.20246536190E+04  0.20246536190E+04  0.50400001928E-02 0. -1.
    10030    2    1    2    0    0  0.00000000000E+00  0.00000000000E+00 -0.17122414045E+04  0.23370658334E+04  0.15906307185E+04 0.  0.
        4    1    3    3  502    0  0.15794452232E+03  0.18823012950E+03 -0.19674831486E+04  0.19827679155E+04  0.12699999809E+01 0. -1.
       -4    1    3    3    0  502 -0.15794452232E+03 -0.18823012950E+03  0.25524174414E+03  0.35429791790E+03  0.12699999809E+01 0.  1.
</event>
<event>
 5   0  0.9616567E-05  0.1603120E+04  0.7818609E-02  0.8818633E-01
        1   -1    0    0  501    0  0.00000000000E+00  0.00000000000E+00  0.16452586987E+04  0.16452586987E+04  0.50400001928E-02 0.  1.
       -1   -1    0    0    0  501  0.00000000000E+00  0.00000000000E+00 -0.39051530965E+03  0.39051530969E+03  0.50400001928E-02 0. -1.
    10030    2    1    2    0    0  0.00000000000E+00  0.00000000000E+00  0.12547433890E+04  0.20357740083E+04  0.16031203451E+04 0.  0.
        5    1    3    3  502    0  0.24187377174E+03  0.35679947775E+03 -0.23077918031E+03  0.48896820842E+03  0.46999998093E+01 0. -1.
       -5    1    3    3    0  502 -0.24187377174E+03 -0.35679947775E+03  0.14855225693E+04  0.15468057999E+04  0.46999998093E+01 0.  1.
</event>
<event>
 5   0  0.9726935E-05  0.1600478E+04  0.7818609E-02  0.8820254E-01
        1   -1    0    0  501    0  0.00000000000E+00  0.00000000000E+00  0.62524017604E+03  0.62524017606E+03  0.50400001928E-02 0.  1.
       -1   -1    0    0    0  501  0.00000000000E+00  0.00000000000E+00 -0.10242184161E+04  0.10242184162E+04  0.50400001928E-02 0. -1.
    10030    2    1    2    0    0  0.00000000000E+00  0.00000000000E+00 -0.39897824011E+03  0.16494585922E+04  0.16004780571E+04 0.  0.
        2    1    3    3  502    0  0.37647405952E+03  0.24686523983E+00 -0.92725130396E+03  0.10007635880E+04  0.25500000920E-02 0. -1.
       -2    1    3    3    0  502 -0.37647405952E+03 -0.24686523983E+00  0.52827306386E+03  0.64869500417E+03  0.25500000920E-02 0.  1.
</event>
<event>
 5   0  0.1914170E-04  0.1593893E+04  0.7818609E-02  0.8824309E-01
        2   -1    0    0  501    0  0.00000000000E+00  0.00000000000E+00  0.24767521996E+04  0.24767521996E+04  0.25500000920E-02 0.  1.
       -2   -1    0    0    0  501  0.00000000000E+00  0.00000000000E+00 -0.25643398807E+03  0.25643398808E+03  0.25500000920E-02 0. -1.
    10030    2    1    2    0    0  0.00000000000E+00  0.00000000000E+00  0.22203182115E+04  0.27331861877E+04  0.15938926488E+04 0.  0.
        3    1    3    3  502    0 -0.26682385403E+03  0.10444639844E+03 -0.16504686867E+03  0.33067279641E+03  0.10100000352E+00 0. -1.
       -3    1    3    3    0  502  0.26682385403E+03 -0.10444639844E+03  0.23853650802E+04  0.24025133913E+04  0.10100000352E+00 0.  1.
</event>
<event>
 5   0  0.9726935E-05  0.1599726E+04  0.7818609E-02  0.8820716E-01
       -1   -1    0    0    0  501  0.00000000000E+00  0.00000000000E+00  0.66296094565E+03  0.66296094567E+03  0.50400001928E-02 0. -1.
        1   -1    0    0  501    0  0.00000000000E+00  0.00000000000E+00 -0.96503539928E+03  0.96503539929E+03  0.50400001928E-02 0.  1.
    10030    2    1    2    0    0  0.00000000000E+00  0.00000000000E+00 -0.30207445363E+03  0.16279963450E+04  0.15997259527E+04 0.  0.
        2    1    3    3  502    0  0.52674961328E+03 -0.41121996959E+02  0.46009546122E+03  0.70060260289E+03  0.25500000920E-02 0. -1.
       -2    1    3    3    0  502 -0.52674961328E+03  0.41121996959E+02 -0.76216991486E+03  0.92739374208E+03  0.25500000920E-02 0.  1.
</event>
<event>
 5   0  0.9673017E-05  0.1602765E+04  0.7818609E-02  0.8818851E-01
        1   -1    0    0  501    0  0.00000000000E+00  0.00000000000E+00  0.12080982698E+04  0.12080982698E+04  0.50400001928E-02 0. -1.
       -1   -1    0    0    0  501  0.00000000000E+00  0.00000000000E+00 -0.53159048986E+03  0.53159048989E+03  0.50400001928E-02 0.  1.
    10030    2    1    2    0    0  0.00000000000E+00  0.00000000000E+00  0.67650777996E+03  0.17396887597E+04  0.16027645505E+04 0.  0.
        1    1    3    3  502    0 -0.20902166092E+03 -0.72984121963E+03  0.61680004246E+03  0.97816182353E+03  0.50400001928E-02 0. -1.
       -1    1    3    3    0  502  0.20902166092E+03  0.72984121963E+03  0.59707737501E+02  0.76152693619E+03  0.50400001928E-02 0.  1.
</event>
<event>
 5   0  0.1774934E-04  0.1590441E+04  0.7818609E-02  0.8826442E-01
       -2   -1    0    0    0  501  0.00000000000E+00  0.00000000000E+00  0.47093947009E+03  0.47093947009E+03  0.25500000920E-02 0.  1.
        2   -1    0    0  501    0  0.00000000000E+00  0.00000000000E+00 -0.13427955819E+04  0.13427955819E+04  0.25500000920E-02 0. -1.
    10030    2    1    2    0    0  0.00000000000E+00  0.00000000000E+00 -0.87185611177E+03  0.18137350519E+04  0.15904407436E+04 0.  0.
        1    1    3    3  502    0 -0.23434469382E+03  0.40804414062E+03 -0.11669914934E+04  0.12582871699E+04  0.50400001928E-02 0. -1.
       -1    1    3    3    0  502  0.23434469382E+03 -0.40804414062E+03  0.29513538160E+03  0.55544788209E+03  0.50400001928E-02 0.  1.
</event>
<event>
 5   0  0.9616567E-05  0.1584135E+04  0.7818609E-02  0.8830354E-01
       -1   -1    0    0    0  501  0.00000000000E+00  0.00000000000E+00  0.62606969571E+03  0.62606969573E+03  0.50400001928E-02 0. -1.
        1   -1    0    0  501    0  0.00000000000E+00  0.00000000000E+00 -0.10020784369E+04  0.10020784369E+04  0.50400001928E-02 0.  1.
    10030    2    1    2    0    0  0.00000000000E+00  0.00000000000E+00 -0.37600874116E+03  0.16281481326E+04  0.15841350221E+04 0.  0.
        5    1    3    3  502    0  0.42601813321E+03 -0.20596315275E+03  0.46480947649E+03  0.66331154788E+03  0.46999998093E+01 0. -1.
       -5    1    3    3    0  502 -0.42601813321E+03  0.20596315275E+03 -0.84081821765E+03  0.96483658473E+03  0.46999998093E+01 0.  1.
</event>
<event>
 5   0  0.9616567E-05  0.1603836E+04  0.7818609E-02  0.8818195E-01
       -1   -1    0    0    0  501  0.00000000000E+00  0.00000000000E+00  0.11336217784E+04  0.11336217784E+04  0.50400001928E-02 0.  1.
        1   -1    0    0  501    0  0.00000000000E+00  0.00000000000E+00 -0.56727271885E+03  0.56727271887E+03  0.50400001928E-02 0. -1.
    10030    2    1    2    0    0  0.00000000000E+00  0.00000000000E+00  0.56634905951E+03  0.17008944972E+04  0.16038362864E+04 0.  0.
        5    1    3    3  502    0  0.41296571702E+03 -0.65106363080E+03  0.49316661088E+02  0.77257928903E+03  0.46999998093E+01 0.  1.
       -5    1    3    3    0  502 -0.41296571702E+03  0.65106363080E+03  0.51703239842E+03  0.92831520821E+03  0.46999998093E+01 0. -1.
</event>
<event>
 5   0  0.1832646E-04  0.1611146E+04  0.7818609E-02  0.8813730E-01
       -2   -1    0    0    0  501  0.00000000000E+00  0.00000000000E+00  0.49569786593E+03  0.49569786594E+03  0.25500000920E-02 0. -1.
        2   -1    0    0  501    0  0.00000000000E+00  0.00000000000E+00 -0.13091597148E+04  0.13091597148E+04  0.25500000920E-02 0.  1.
    10030    2    1    2    0    0  0.00000000000E+00  0.00000000000E+00 -0.81346184889E+03  0.18048575808E+04  0.16111457747E+04 0.  0.
        2    1    3    3  502    0 -0.54953775445E+03 -0.33227449038E+03 -0.95157120367E+03  0.11479920889E+04  0.25500000920E-02 0.  1.
       -2    1    3    3    0  502  0.54953775445E+03  0.33227449038E+03  0.13810935478E+03  0.65686549186E+03  0.25500000920E-02 0. -1.
</event>
<event>
 5   0  0.1832646E-04  0.1605148E+04  0.7818609E-02  0.8817391E-01
        2   -1    0    0  501    0  0.00000000000E+00  0.00000000000E+00  0.10985558202E+04  0.10985558202E+04  0.25500000920E-02 0. -1.
       -2   -1    0    0    0  501  0.00000000000E+00  0.00000000000E+00 -0.58633836768E+03  0.58633836768E+03  0.25500000920E-02 0.  1.
    10030    2    1    2    0    0  0.00000000000E+00  0.00000000000E+00  0.51221745251E+03  0.16848941879E+04  0.16051484996E+04 0.  0.
        2    1    3    3  502    0 -0.59092563535E+03  0.42461864729E+03  0.61150189019E+03  0.95048864478E+03  0.25500000920E-02 0. -1.
       -2    1    3    3    0  502  0.59092563535E+03 -0.42461864729E+03 -0.99284437687E+02  0.73440554308E+03  0.25500000920E-02 0.  1.
</event>
<event>
 5   0  0.9939872E-05  0.1607216E+04  0.7818609E-02  0.8816127E-01
       -1   -1    0    0    0  501  0.00000000000E+00  0.00000000000E+00  0.92854946053E+03  0.92854946054E+03  0.50400001928E-02 0.  1.
        1   -1    0    0  501    0  0.00000000000E+00  0.00000000000E+00 -0.69547795050E+03  0.69547795052E+03  0.50400001928E-02 0. -1.
    10030    2    1    2    0    0  0.00000000000E+00  0.00000000000E+00  0.23307151003E+03  0.16240274111E+04  0.16072158234E+04 0.  0.
        3    1    3    3  502    0  0.26961637743E+03  0.23804752845E+03 -0.60960903512E+03  0.70780138646E+03  0.10100000352E+00 0. -1.
       -3    1    3    3    0  502 -0.26961637743E+03 -0.23804752845E+03  0.84268054515E+03  0.91622602460E+03  0.10100000352E+00 0.  1.
</event>
<event>
 5   0  0.1835088E-04  0.1578057E+04  0.7818609E-02  0.8834143E-01
        2   -1    0    0  501    0  0.00000000000E+00  0.00000000000E+00  0.15368693360E+04  0.15368693360E+04  0.25500000920E-02 0. -1.
       -2   -1    0    0    0  501  0.00000000000E+00  0.00000000000E+00 -0.40508729423E+03  0.40508729424E+03  0.25500000920E-02 0.  1.
    10030    2    1    2    0    0  0.00000000000E+00  0.00000000000E+00  0.11317820417E+04  0.19419566302E+04  0.15780573385E+04 0.  0.
        5    1    3    3  502    0 -0.72263602709E+02  0.12977145918E+03  0.15194917185E+04  0.15267415735E+04  0.46999998093E+01 0. -1.
       -5    1    3    3    0  502  0.72263602709E+02 -0.12977145918E+03 -0.38770967670E+03  0.41521505669E+03  0.46999998093E+01 0.  1.
</event>
<event>
 5   0  0.9432152E-05  0.1600196E+04  0.7818609E-02  0.8820427E-01
        1   -1    0    0  501    0  0.00000000000E+00  0.00000000000E+00  0.61582142599E+03  0.61582142601E+03  0.50400001928E-02 0. -1.
       -1   -1    0    0    0  501  0.00000000000E+00  0.00000000000E+00 -0.10395174979E+04  0.10395174979E+04  0.50400001928E-02 0.  1.
    10030    2    1    2    0    0  0.00000000000E+00  0.00000000000E+00 -0.42369607193E+03  0.16553389239E+04  0.16001964229E+04 0.  0.
        4    1    3    3  502    0  0.49312810974E+03  0.12679031651E+03 -0.85029031177E+03  0.99108341938E+03  0.12699999809E+01 0.  1.
       -4    1    3    3    0  502 -0.49312810974E+03 -0.12679031651E+03  0.42659423984E+03  0.66425550456E+03  0.12699999809E+01 0. -1.
</event>
<event>
 5   0  0.1832646E-04  0.1588070E+04  0.7818609E-02  0.8827911E-01
        2   -1    0    0  501    0  0.00000000000E+00  0.00000000000E+00  0.65627335138E+03  0.65627335138E+03  0.25500000920E-02 0.  1.
       -2   -1    0    0    0  501  0.00000000000E+00  0.00000000000E+00 -0.96071455531E+03  0.96071455531E+03  0.25500000920E-02 0. -1.
    10030    2    1    2    0    0  0.00000000000E+00  0.00000000000E+00 -0.30444120393E+03  0.16169879067E+04  0.15880697226E+04 0.  0.
        2    1    3    3  502    0 -0.16598640875E+03  0.77649042866E+03 -0.15061478408E+03  0.80819161520E+03  0.25500000920E-02 0.  1.
       -2    1    3    3    0  502  0.16598640875E+03 -0.77649042866E+03 -0.15382641985E+03  0.80879629150E+03  0.25500000920E-02 0. -1.
</event>
<event>
 5   0  0.9939872E-05  0.1619726E+04  0.7818609E-02  0.8808520E-01
       -1   -1    0    0    0  501  0.00000000000E+00  0.00000000000E+00  0.68344417175E+03  0.68344417177E+03  0.50400001928E-02 0.  1.
        1   -1    0    0  501    0  0.00000000000E+00  0.00000000000E+00 -0.95966583763E+03  0.95966583765E+03  0.50400001928E-02 0. -1.
    10030    2    1    2    0    0  0.00000000000E+00  0.00000000000E+00 -0.27622166588E+03  0.16431100094E+04  0.16197259319E+04 0.  0.
        3    1    3    3  502    0 -0.20872356927E+03 -0.78138887519E+03 -0.95747781767E+02  0.81443339234E+03  0.10100000352E+00 0.  1.
       -3    1    3    3    0  502  0.20872356927E+03  0.78138887519E+03 -0.18047388411E+03  0.82867661708E+03  0.10100000352E+00 0. -1.
</event>
<event>
 5   0  0.9616567E-05  0.1604165E+04  0.7818609E-02  0.8817993E-01
        1   -1    0    0  501    0  0.00000000000E+00  0.00000000000E+00  0.88099691791E+03  0.88099691792E+03  0.50400001928E-02 0. -1.
       -1   -1    0    0    0  501  0.00000000000E+00  0.00000000000E+00 -0.73023698711E+03  0.73023698712E+03  0.50400001928E-02 0.  1.
    10030    2    1    2    0    0  0.00000000000E+00  0.00000000000E+00  0.15075993080E+03  0.16112339050E+04  0.16041652471E+04 0.  0.
        5    1    3    3  502    0 -0.45765663875E+02 -0.34431762070E+03  0.80152159094E+03  0.87356057069E+03  0.46999998093E+01 0. -1.
       -5    1    3    3    0  502  0.45765663875E+02  0.34431762070E+03 -0.65076166014E+03  0.73767333436E+03  0.46999998093E+01 0.  1.
</event>
<event>
 5   0  0.9726935E-05  0.1604542E+04  0.7818609E-02  0.8817763E-01
       -1   -1    0    0    0  501  0.00000000000E+00  0.00000000000E+00  0.48759689876E+03  0.48759689879E+03  0.50400001928E-02 0.  1.
        1   -1    0    0  501    0  0.00000000000E+00  0.00000000000E+00 -0.13200223026E+04  0.13200223026E+04  0.50400001928E-02 0. -1.
    10030    2    1    2    0    0  0.00000000000E+00  0.00000000000E+00 -0.83242540381E+03  0.18076192014E+04  0.16045420294E+04 0.  0.
        2    1    3    3  502    0  0.10257337755E+03 -0.30266457400E+03  0.41279725404E+03  0.52204282878E+03  0.25500000920E-02 0.  1.
       -2    1    3    3    0  502 -0.10257337755E+03  0.30266457400E+03 -0.12452226578E+04  0.12855763726E+04  0.25500000920E-02 0. -1.
</event>
<event>
 5   0  0.9616567E-05  0.1595278E+04  0.7818609E-02  0.8823454E-01
        1   -1    0    0  501    0  0.00000000000E+00  0.00000000000E+00  0.94024629010E+03  0.94024629011E+03  0.50400001928E-02 0.  1.
       -1   -1    0    0    0  501  0.00000000000E+00  0.00000000000E+00 -0.67666083749E+03  0.67666083751E+03  0.50400001928E-02 0. -1.
    10030    2    1    2    0    0  0.00000000000E+00  0.00000000000E+00  0.26358545261E+03  0.16169071276E+04  0.15952778343E+04 0.  0.
        5    1    3    3  502    0 -0.25483219302E+03 -0.36897048815E+03  0.80037799445E+03  0.91744519821E+03  0.46999998093E+01 0.  1.
       -5    1    3    3    0  502  0.25483219302E+03  0.36897048815E+03 -0.53679254184E+03  0.69946192941E+03  0.46999998093E+01 0. -1.
</event>
<event>
 5   0  0.1832646E-04  0.1597359E+04  0.7818609E-02  0.8822172E-01
        2   -1    0    0  501    0  0.00000000000E+00  0.00000000000E+00  0.78445852856E+03  0.78445852856E+03  0.25500000920E-02 0.  1.
       -2   -1    0    0    0  501  0.00000000000E+00  0.00000000000E+00 -0.81315799409E+03  0.81315799410E+03  0.25500000920E-02 0. -1.
    10030    2    1    2    0    0  0.00000000000E+00  0.00000000000E+00 -0.28699465533E+02  0.15976165227E+04  0.15973587243E+04 0.  0.
        2    1    3    3  502    0 -0.87692368447E+02  0.14973435742E+03 -0.79407698589E+03  0.81281522427E+03  0.25500000920E-02 0. -1.
       -2    1    3    3    0  502  0.87692368447E+02 -0.14973435742E+03  0.76537752036E+03  0.78480129839E+03  0.25500000920E-02 0.  1.
</event>
<event>
 5   0  0.1832646E-04  0.1601065E+04  0.7818609E-02  0.8819894E-01
       -2   -1    0    0    0  501  0.00000000000E+00  0.00000000000E+00  0.38134969999E+03  0.38134970000E+03  0.25500000920E-02 0.  1.
        2   -1    0    0  501    0  0.00000000000E+00  0.00000000000E+00 -0.16804851433E+04  0.16804851433E+04  0.25500000920E-02 0. -1.
    10030    2    1    2    0    0  0.00000000000E+00  0.00000000000E+00 -0.12991354433E+04  0.20618348433E+04  0.16010652769E+04 0.  0.
        2    1    3    3  502    0 -0.31041895289E+03  0.12511483257E+03  0.28692954662E+03  0.44084261633E+03  0.25500000920E-02 0.  1.
       -2    1    3    3    0  502  0.31041895289E+03 -0.12511483257E+03 -0.15860649899E+04  0.16209922269E+04  0.25500000920E-02 0. -1.
</event>
<event>
 5   0  0.9432152E-05  0.1600139E+04  0.7818609E-02  0.8820463E-01
       -1   -1    0    0    0  501  0.00000000000E+00  0.00000000000E+00  0.69024097275E+03  0.69024097277E+03  0.50400001928E-02 0.  1.
        1   -1    0    0  501    0  0.00000000000E+00  0.00000000000E+00 -0.92737313949E+03  0.92737313951E+03  0.50400001928E-02 0. -1.
    10030    2    1    2    0    0  0.00000000000E+00  0.00000000000E+00 -0.23713216674E+03  0.16176141123E+04  0.16001386664E+04 0.  0.
        4    1    3    3  502    0 -0.35926270654E+03 -0.18829070469E+03 -0.81572526140E+03  0.91100625507E+03  0.12699999809E+01 0. -1.
       -4    1    3    3    0  502  0.35926270654E+03  0.18829070469E+03  0.57859309466E+03  0.70660785721E+03  0.12699999809E+01 0.  1.
</event>
<event>
 5   0  0.1858913E-04  0.1605878E+04  0.7818609E-02  0.8816945E-01
       -2   -1    0    0    0  501  0.00000000000E+00  0.00000000000E+00  0.54191868380E+03  0.54191868381E+03  0.25500000920E-02 0. -1.
        2   -1    0    0  501    0  0.00000000000E+00  0.00000000000E+00 -0.11896820180E+04  0.11896820180E+04  0.25500000920E-02 0.  1.
    10030    2    1    2    0    0  0.00000000000E+00  0.00000000000E+00 -0.64776333418E+03  0.17316007018E+04  0.16058778451E+04 0.  0.
        4    1    3    3  502    0 -0.19535890364E+03 -0.54279126257E+03  0.27834244745E+03  0.64051821746E+03  0.12699999809E+01 0. -1.
       -4    1    3    3    0  502  0.19535890364E+03  0.54279126257E+03 -0.92610578162E+03  0.10910824843E+04  0.12699999809E+01 0.  1.
</event>
<event>
 5   0  0.6838750E-05  0.1601340E+04  0.7818609E-02  0.8819725E-01
        3   -1    0    0  501    0  0.00000000000E+00  0.00000000000E+00  0.10058110970E+04  0.10058111021E+04  0.10100000352E+00 0. -1.
       -3   -1    0    0    0  501  0.00000000000E+00  0.00000000000E+00 -0.63736863318E+03  0.63736864119E+03  0.10100000352E+00 0.  1.
    10030    2    1    2    0    0  0.00000000000E+00  0.00000000000E+00  0.36844246385E+03  0.16431797433E+04  0.16013400075E+04 0.  0.
        2    1    3    3  502    0  0.20460826905E+03  0.33947494141E+03  0.89807351047E+03  0.98165360990E+03  0.25500000920E-02 0. -1.
       -2    1    3    3    0  502 -0.20460826905E+03 -0.33947494141E+03 -0.52963104662E+03  0.66152613339E+03  0.25500000920E-02 0.  1.
</event>
<event>
 5   0  0.9616567E-05  0.1599177E+04  0.7818609E-02  0.8821054E-01
        1   -1    0    0  501    0  0.00000000000E+00  0.00000000000E+00  0.10193227042E+04  0.10193227042E+04  0.50400001928E-02 0. -1.
       -1   -1    0    0    0  501  0.00000000000E+00  0.00000000000E+00 -0.62722183541E+03  0.62722183543E+03  0.50400001928E-02 0.  1.
    10030    2    1    2    0    0  0.00000000000E+00  0.00000000000E+00  0.39210086882E+03  0.16465445397E+04  0.15991766100E+04 0.  0.
        5    1    3    3  502    0 -0.72407353523E+03 -0.29604550383E+03  0.25636805183E+02  0.78269071831E+03  0.46999998093E+01 0.  1.
       -5    1    3    3    0  502  0.72407353523E+03  0.29604550383E+03  0.36646406364E+03  0.86385382137E+03  0.46999998093E+01 0. -1.
</event>
<event>
 5   0  0.9939872E-05  0.1561432E+04  0.7818609E-02  0.8844599E-01
       -1   -1    0    0    0  501  0.00000000000E+00  0.00000000000E+00  0.69990141875E+03  0.69990141877E+03  0.50400001928E-02 0.  1.
        1   -1    0    0  501    0  0.00000000000E+00  0.00000000000E+00 -0.87086139905E+03  0.87086139906E+03  0.50400001928E-02 0. -1.
    10030    2    1    2    0    0  0.00000000000E+00  0.00000000000E+00 -0.17095998029E+03  0.15707628178E+04  0.15614315595E+04 0.  0.
        3    1    3    3  502    0 -0.44852070445E+03  0.28175688173E+03  0.49149738098E+03  0.72258386948E+03  0.10100000352E+00 0.  1.
       -3    1    3    3    0  502  0.44852070445E+03 -0.28175688173E+03 -0.66245736127E+03  0.84817894835E+03  0.10100000352E+00 0. -1.
</event>
<event>
 5   0  0.1832646E-04  0.1602047E+04  0.7818609E-02  0.8819291E-01
        2   -1    0    0  501    0  0.00000000000E+00  0.00000000000E+00  0.21917232496E+04  0.21917232496E+04  0.25500000920E-02 0. -1.
       -2   -1    0    0    0  501  0.00000000000E+00  0.00000000000E+00 -0.29275550442E+03  0.29275550443E+03  0.25500000920E-02 0.  1.
    10030    2    1    2    0    0  0.00000000000E+00  0.00000000000E+00  0.18989677451E+04  0.24844787540E+04  0.16020474968E+04 0.  0.
        2    1    3    3  502    0 -0.10094391110E+03  0.14729894169E+03 -0.26149525191E+03  0.31664872997E+03  0.25500000920E-02 0.  1.
       -2    1    3    3    0  502  0.10094391110E+03 -0.14729894169E+03  0.21604629971E+04  0.21678300240E+04  0.25500000920E-02 0. -1.
</event>
<event>
 5   0  0.9673017E-05  0.1600224E+04  0.7818609E-02  0.8820410E-01
       -1   -1    0    0    0  501  0.00000000000E+00  0.00000000000E+00  0.98557346660E+03  0.98557346661E+03  0.50400001928E-02 0. -1.
        1   -1    0    0  501    0  0.00000000000E+00  0.00000000000E+00 -0.64954996421E+03  0.64954996422E+03  0.50400001928E-02 0.  1.
    10030    2    1    2    0    0  0.00000000000E+00  0.00000000000E+00  0.33602350240E+03  0.16351234308E+04  0.16002239968E+04 0.  0.
        1    1    3    3  502    0 -0.69622133280E+03 -0.23666203963E+03  0.49024009472E+03  0.88378075095E+03  0.50400001928E-02 0. -1.
       -1    1    3    3    0  502  0.69622133280E+03  0.23666203963E+03 -0.15421659232E+03  0.75134267989E+03  0.50400001928E-02 0.  1.
</event>
<event>
 5   0  0.1832646E-04  0.1600910E+04  0.7818609E-02  0.8819989E-01
       -2   -1    0    0    0  501  0.00000000000E+00  0.00000000000E+00  0.26327418244E+03  0.26327418245E+03  0.25500000920E-02 0.  1.
        2   -1    0    0  501    0  0.00000000000E+00  0.00000000000E+00 -0.24336912263E+04  0.24336912263E+04  0.25500000920E-02 0. -1.
    10030    2    1    2    0    0  0.00000000000E+00  0.00000000000E+00 -0.21704170438E+04  0.26969654087E+04  0.16009098262E+04 0.  0.
        2    1    3    3  502    0  0.45543385810E+03  0.61452585864E+03 -0.68773915657E+03  0.10286142025E+04  0.25500000920E-02 0. -1.
       -2    1    3    3    0  502 -0.45543385810E+03 -0.61452585864E+03 -0.14826778873E+04  0.16683512063E+04  0.25500000920E-02 0.  1.
</event>
<event>
 5   0  0.1832646E-04  0.1600180E+04  0.7818609E-02  0.8820437E-01
       -2   -1    0    0    0  501  0.00000000000E+00  0.00000000000E+00  0.62554806794E+03  0.62554806794E+03  0.25500000920E-02 0.  1.
        2   -1    0    0  501    0  0.00000000000E+00  0.00000000000E+00 -0.10233330856E+04  0.10233330856E+04  0.25500000920E-02 0. -1.
    10030    2    1    2    0    0  0.00000000000E+00  0.00000000000E+00 -0.39778501767E+03  0.16488811536E+04  0.16001800331E+04 0.  0.
        2    1    3    3  502    0 -0.59986055386E+03 -0.46486934749E+03  0.62212100164E+02  0.76145028710E+03  0.25500000920E-02 0. -1.
       -2    1    3    3    0  502  0.59986055386E+03  0.46486934749E+03 -0.45999711783E+03  0.88743086645E+03  0.25500000920E-02 0.  1.
</event>
<event>
 5   0  0.9939872E-05  0.1604815E+04  0.7818609E-02  0.8817595E-01
        1   -1    0    0  501    0  0.00000000000E+00  0.00000000000E+00  0.47457173927E+03  0.47457173929E+03  0.50400001928E-02 0.  1.
       -1   -1    0    0    0  501  0.00000000000E+00  0.00000000000E+00 -0.13567139140E+04  0.13567139140E+04  0.50400001928E-02 0. -1.
    10030    2    1    2    0    0  0.00000000000E+00  0.00000000000E+00 -0.88214217473E+03  0.18312856533E+04  0.16048153562E+04 0.  0.
        3    1    3    3  502    0 -0.16729935322E+03  0.40052586579E+03  0.32903478508E+03  0.54467783391E+03  0.10100000352E+00 0.  1.
       -3    1    3    3    0  502  0.16729935322E+03 -0.40052586579E+03 -0.12111769598E+04  0.12866078194E+04  0.10100000352E+00 0. -1.
</event>
<event>
 5   0  0.9673017E-05  0.1585488E+04  0.7818609E-02  0.8829513E-01
        1   -1    0    0  501    0  0.00000000000E+00  0.00000000000E+00  0.10233522077E+04  0.10233522077E+04  0.50400001928E-02 0.  1.
       -1   -1    0    0    0  501  0.00000000000E+00  0.00000000000E+00 -0.61410215215E+03  0.61410215217E+03  0.50400001928E-02 0. -1.
    10030    2    1    2    0    0  0.00000000000E+00  0.00000000000E+00  0.40925005554E+03  0.16374543599E+04  0.15854876766E+04 0.  0.
        1    1    3    3  502    0  0.21989154190E+03 -0.55649707062E+03 -0.33242023750E+03  0.68450310016E+03  0.50400001928E-02 0. -1.
       -1    1    3    3    0  502 -0.21989154190E+03  0.55649707062E+03  0.74167029303E+03  0.95295125972E+03  0.50400001928E-02 0.  1.
</event>
<event>
 5   0  0.9939872E-05  0.1594767E+04  0.7818609E-02  0.8823769E-01
       -1   -1    0    0    0  501  0.00000000000E+00  0.00000000000E+00  0.96828045725E+03  0.96828045726E+03  0.50400001928E-02 0. -1.
        1   -1    0    0  501    0  0.00000000000E+00  0.00000000000E+00 -0.65664939959E+03  0.65664939961E+03  0.50400001928E-02 0.  1.
    10030    2    1    2    0    0  0.00000000000E+00  0.00000000000E+00  0.31163105766E+03  0.16249298569E+04  0.15947674199E+04 0.  0.
        3    1    3    3  502    0 -0.33099627064E+03  0.16548085540E+02  0.89478304386E+03  0.95418503242E+03  0.10100000352E+00 0. -1.
       -3    1    3    3    0  502  0.33099627064E+03 -0.16548085540E+02 -0.58315198620E+03  0.67074482445E+03  0.10100000352E+00 0.  1.
</event>
<event>
 5   0  0.9616567E-05  0.1606242E+04  0.7818609E-02  0.8816723E-01
        1   -1    0    0  501    0  0.00000000000E+00  0.00000000000E+00  0.14095924938E+04  0.14095924938E+04  0.50400001928E-02 0. -1.
       -1   -1    0    0    0  501  0.00000000000E+00  0.00000000000E+00 -0.45758121993E+03  0.45758121996E+03  0.50400001928E-02 0.  1.
    10030    2    1    2    0    0  0.00000000000E+00  0.00000000000E+00  0.95201127386E+03  0.18671737138E+04  0.16062416418E+04 0.  0.
        5    1    3    3  502    0  0.20771454871E+03  0.77217775405E+03  0.56281764975E+03  0.97784948456E+03  0.46999998093E+01 0.  1.
       -5    1    3    3    0  502 -0.20771454871E+03 -0.77217775405E+03  0.38919362411E+03  0.88932422920E+03  0.46999998093E+01 0. -1.
</event>
<event>
 5   0  0.9432152E-05  0.1585068E+04  0.7818609E-02  0.8829774E-01
       -1   -1    0    0    0  501  0.00000000000E+00  0.00000000000E+00  0.41302476768E+03  0.41302476771E+03  0.50400001928E-02 0. -1.
        1   -1    0    0  501    0  0.00000000000E+00  0.00000000000E+00 -0.15207568793E+04  0.15207568793E+04  0.50400001928E-02 0.  1.
    10030    2    1    2    0    0  0.00000000000E+00  0.00000000000E+00 -0.11077321116E+04  0.19337816470E+04  0.15850681459E+04 0.  0.
        4    1    3    3  502    0 -0.14332394443E+03  0.71106739241E+02 -0.15008484086E+04  0.15093526691E+04  0.12699999809E+01 0.  1.
       -4    1    3    3    0  502  0.14332394443E+03 -0.71106739241E+02  0.39311629697E+03  0.42442897787E+03  0.12699999809E+01 0. -1.
</event>
<event>
 5   0  0.9432152E-05  0.1601423E+04  0.7818609E-02  0.8819675E-01
       -1   -1    0    0    0  501  0.00000000000E+00  0.00000000000E+00  0.58820511871E+03  0.58820511873E+03  0.50400001928E-02 0. -1.
        1   -1    0    0  501    0  0.00000000000E+00  0.00000000000E+00 -0.10899915727E+04  0.10899915727E+04  0.50400001928E-02 0.  1.
    10030    2    1    2    0    0  0.00000000000E+00  0.00000000000E+00 -0.50178645402E+03  0.16781966915E+04  0.16014226456E+04 0.  0.
        4    1    3    3  502    0  0.24674257484E+03 -0.42429070846E+03  0.41207554793E+03  0.64086845267E+03  0.12699999809E+01 0. -1.
       -4    1    3    3    0  502 -0.24674257484E+03  0.42429070846E+03 -0.91386200195E+03  0.10373282388E+04  0.12699999809E+01 0.  1.
</event>
<event>
 5   0  0.1774934E-04  0.1613401E+04  0.7818609E-02  0.8812357E-01
        2   -1    0    0  501    0  0.00000000000E+00  0.00000000000E+00  0.10618307981E+04  0.10618307981E+04  0.25500000920E-02 0. -1.
       -2   -1    0    0    0  501  0.00000000000E+00  0.00000000000E+00 -0.61287158691E+03  0.61287158691E+03  0.25500000920E-02 0.  1.
    10030    2    1    2    0    0  0.00000000000E+00  0.00000000000E+00  0.44895921121E+03  0.16747023850E+04  0.16134012846E+04 0.  0.
        1    1    3    3  502    0 -0.20407164600E+03  0.46006913157E+03  0.87887519156E+03  0.10127835133E+04  0.50400001928E-02 0. -1.
       -1    1    3    3    0  502  0.20407164600E+03 -0.46006913157E+03 -0.42991598035E+03  0.66191887170E+03  0.50400001928E-02 0.  1.
</event>
<event>
 5   0  0.1914170E-04  0.1625779E+04  0.7818609E-02  0.8804866E-01
        2   -1    0    0  501    0  0.00000000000E+00  0.00000000000E+00  0.15103791111E+04  0.15103791111E+04  0.25500000920E-02 0.  1.
       -2   -1    0    0    0  501  0.00000000000E+00  0.00000000000E+00 -0.43749894568E+03  0.43749894569E+03  0.25500000920E-02 0. -1.
    10030    2    1    2    0    0  0.00000000000E+00  0.00000000000E+00  0.10728801654E+04  0.19478780568E+04  0.16257789132E+04 0.  0.
        3    1    3    3  502    0  0.51512040834E+03  0.49227994020E+03  0.67638742920E+02  0.71572591427E+03  0.10100000352E+00 0. -1.
       -3    1    3    3    0  502 -0.51512040834E+03 -0.49227994020E+03  0.10052414225E+04  0.12321521425E+04  0.10100000352E+00 0.  1.
</event>
<event>
 5   0  0.9616567E-05  0.1597435E+04  0.7818609E-02  0.8822125E-01
        1   -1    0    0  501    0  0.00000000000E+00  0.00000000000E+00  0.16523033801E+04  0.16523033801E+04  0.50400001928E-02 0. -1.
       -1   -1    0    0    0  501  0.00000000000E+00  0.00000000000E+00 -0.38609731208E+03  0.38609731211E+03  0.50400001928E-02 0.  1.
    10030    2    1    2    0    0  0.00000000000E+00  0.00000000000E+00  0.12662060680E+04  0.20384006922E+04  0.15974353118E+04 0.  0.
        5    1    3    3  502    0 -0.77884651483E+03  0.17195511420E+03  0.68659582660E+03  0.10524287976E+04  0.46999998093E+01 0. -1.
       -5    1    3    3    0  502  0.77884651483E+03 -0.17195511420E+03  0.57961024142E+03  0.98597189459E+03  0.46999998093E+01 0.  1.
</event>
<event>
 5   0  0.1832646E-04  0.1596428E+04  0.7818609E-02  0.8822746E-01
        2   -1    0    0  501    0  0.00000000000E+00  0.00000000000E+00  0.14519788608E+04  0.14519788608E+04  0.25500000920E-02 0.  1.
       -2   -1    0    0    0  501  0.00000000000E+00  0.00000000000E+00 -0.43881182393E+03  0.43881182394E+03  0.25500000920E-02 0. -1.
    10030    2    1    2    0    0  0.00000000000E+00  0.00000000000E+00  0.10131670369E+04  0.18907906847E+04  0.15964278778E+04 0.  0.
        2    1    3    3  502    0  0.61934755244E+03 -0.12597671723E+02 -0.89618599424E+02  0.62592458445E+03  0.25500000920E-02 0. -1.
       -2    1    3    3    0  502 -0.61934755244E+03  0.12597671723E+02  0.11027856363E+04  0.12648661003E+04  0.25500000920E-02 0.  1.
</event>
<event>
 5   0  0.1858913E-04  0.1595740E+04  0.7818609E-02  0.8823169E-01
        2   -1    0    0  501    0  0.00000000000E+00  0.00000000000E+00  0.16262323958E+04  0.16262323958E+04  0.25500000920E-02 0.  1.
       -2   -1    0    0    0  501  0.00000000000E+00  0.00000000000E+00 -0.39145479921E+03  0.39145479922E+03  0.25500000920E-02 0. -1.
    10030    2    1    2    0    0  0.00000000000E+00  0.00000000000E+00  0.12347775966E+04  0.20176871950E+04  0.15957399236E+04 0.  0.
        4    1    3    3  502    0 -0.49365796258E+03  0.21095207392E+03  0.13637142385E+04  0.14655773943E+04  0.12699999809E+01 0.  1.
       -4    1    3    3    0  502  0.49365796258E+03 -0.21095207392E+03 -0.12893664192E+03  0.55210980071E+03  0.12699999809E+01 0. -1.
</event>
<event>
 5   0  0.9432152E-05  0.1614826E+04  0.7818609E-02  0.8811491E-01
       -1   -1    0    0    0  501  0.00000000000E+00  0.00000000000E+00  0.78028607152E+03  0.78028607154E+03  0.50400001928E-02 0.  1.
        1   -1    0    0  501    0  0.00000000000E+00  0.00000000000E+00 -0.83548325026E+03  0.83548325028E+03  0.50400001928E-02 0. -1.
    10030    2    1    2    0    0  0.00000000000E+00  0.00000000000E+00 -0.55197178741E+02  0.16157693218E+04  0.16148262361E+04 0.  0.
        4    1    3    3  502    0 -0.20313662046E+03  0.34479672304E+03  0.67407058438E+03  0.78391455683E+03  0.12699999809E+01 0.  1.
       -4    1    3    3    0  502  0.20313662046E+03 -0.34479672304E+03 -0.72926776312E+03  0.83185476498E+03  0.12699999809E+01 0. -1.
</event>
<event>
 5   0  0.1835088E-04  0.1599926E+04  0.7818609E-02  0.8820593E-01
       -2   -1    0    0    0  501  0.00000000000E+00  0.00000000000E+00  0.62682982863E+03  0.62682982863E+03  0.25500000920E-02 0.  1.
        2   -1    0    0  501    0  0.00000000000E+00  0.00000000000E+00 -0.10209167103E+04  0.10209167103E+04  0.25500000920E-02 0. -1.
    10030    2    1    2    0    0  0.00000000000E+00  0.00000000000E+00 -0.39408688167E+03  0.16477465389E+04  0.15999263065E+04 0.  0.
        5    1    3    3  502    0  0.26456858449E+03 -0.41103636930E+03  0.45510610218E+03  0.66790050684E+03  0.46999998093E+01 0.  1.
       -5    1    3    3    0  502 -0.26456858449E+03  0.41103636930E+03 -0.84919298385E+03  0.97984603209E+03  0.46999998093E+01 0. -1.
</event>
<event>
 5   0  0.1774934E-04  0.1608587E+04  0.7818609E-02  0.8815290E-01
       -2   -1    0    0    0  501  0.00000000000E+00  0.00000000000E+00  0.12562844469E+04  0.12562844469E+04  0.25500000920E-02 0.  1.
        2   -1    0    0  501    0  0.00000000000E+00  0.00000000000E+00 -0.51492133764E+03  0.51492133764E+03  0.25500000920E-02 0. -1.
    10030    2    1    2    0    0  0.00000000000E+00  0.00000000000E+00  0.74136310927E+03  0.17712057846E+04  0.16085865446E+04 0.  0.
        1    1    3    3  502    0  0.37391001536E+03 -0.71111481278E+03  0.32956055763E+03  0.86839112024E+03  0.50400001928E-02 0.  1.
       -1    1    3    3    0  502 -0.37391001536E+03  0.71111481278E+03  0.41180255164E+03  0.90281466431E+03  0.50400001928E-02 0. -1.
</event>
<event>
 5   0  0.9432152E-05  0.1597567E+04  0.7818609E-02  0.8822044E-01
        1   -1    0    0  501    0  0.00000000000E+00  0.00000000000E+00  0.90746958325E+03  0.90746958327E+03  0.50400001928E-02 0.  1.
       -1   -1    0    0    0  501  0.00000000000E+00  0.00000000000E+00 -0.70311479213E+03  0.70311479215E+03  0.50400001928E-02 0. -1.
    10030    2    1    2    0    0  0.00000000000E+00  0.00000000000E+00  0.20435479112E+03  0.16105843754E+04  0.15975672598E+04 0.  0.
        4    1    3    3  502    0 -0.36364884569E+03  0.66982708411E+03 -0.13882033364E+03  0.77471382040E+03  0.12699999809E+01 0. -1.
       -4    1    3    3    0  502  0.36364884569E+03 -0.66982708411E+03  0.34317512476E+03  0.83587055501E+03  0.12699999809E+01 0.  1.
</event>
<event>
 5   0  0.9673017E-05  0.1604630E+04  0.7818609E-02  0.8817708E-01
       -1   -1    0    0    0  501  0.00000000000E+00  0.00000000000E+00  0.46694386104E+03  0.46694386107E+03  0.50400001928E-02 0. -1.
        1   -1    0    0  501    0  0.00000000000E+00  0.00000000000E+00 -0.13785590371E+04  0.13785590371E+04  0.50400001928E-02 0.  1.
    10030    2    1    2    0    0  0.00000000000E+00  0.00000000000E+00 -0.91161517607E+03  0.18455028982E+04  0.16046303992E+04 0.  0.
        1    1    3    3  502    0  0.11947456408E+03  0.49772007822E+03  0.25476200119E+03  0.57175442718E+03  0.50400001928E-02 0. -1.
       -1    1    3    3    0  502 -0.11947456408E+03 -0.49772007822E+03 -0.11663771773E+04  0.12737484710E+04  0.50400001928E-02 0.  1.
</event>
<event>
 5   0  0.1858913E-04  0.1597819E+04  0.7818609E-02  0.8821889E-01
        2   -1    0    0  501    0  0.00000000000E+00  0.00000000000E+00  0.12447207488E+04  0.12447207488E+04  0.25500000920E-02 0.  1.
       -2   -1    0    0    0  501  0.00000000000E+00  0.00000000000E+00 -0.51277075282E+03  0.51277075282E+03  0.25500000920E-02 0. -1.
    10030    2    1    2    0    0  0.00000000000E+00  0.00000000000E+00  0.73194999596E+03  0.17574915016E+04  0.15978190078E+04 0.  0.
        4    1    3    3  502    0  0.72671966732E+03  0.32568748311E+03  0.43606895746E+03  0.90793808164E+03  0.12699999809E+01 0. -1.
       -4    1    3    3    0  502 -0.72671966732E+03 -0.32568748311E+03  0.29588103850E+03  0.84955341996E+03  0.12699999809E+01 0.  1.
</event>
<event>
 5   0  0.1914170E-04  0.1602084E+04  0.7818609E-02  0.8819269E-01
       -2   -1    0    0    0  501  0.00000000000E+00  0.00000000000E+00  0.52135542570E+03  0.52135542570E+03  0.25500000920E-02 0. -1.
        2   -1    0    0  501    0  0.00000000000E+00  0.00000000000E+00 -0.12307689803E+04  0.12307689803E+04  0.25500000920E-02 0.  1.
    10030    2    1    2    0    0  0.00000000000E+00  0.00000000000E+00 -0.70941355460E+03  0.17521244060E+04  0.16020837502E+04 0.  0.
        3    1    3    3  502    0 -0.57398752341E+03 -0.91903371063E+02  0.24805421120E+03  0.63201171551E+03  0.10100000352E+00 0. -1.
       -3    1    3    3    0  502  0.57398752341E+03  0.91903371063E+02 -0.95746776580E+03  0.11201126905E+04  0.10100000352E+00 0.  1.
</event>
<event>
 5   0  0.1832646E-04  0.1607068E+04  0.7818609E-02  0.8816218E-01
       -2   -1    0    0    0  501  0.00000000000E+00  0.00000000000E+00  0.36368651403E+03  0.36368651404E+03  0.25500000920E-02 0.  1.
        2   -1    0    0  501    0  0.00000000000E+00  0.00000000000E+00 -0.17753382416E+04  0.17753382416E+04  0.25500000920E-02 0. -1.
    10030    2    1    2    0    0  0.00000000000E+00  0.00000000000E+00 -0.14116517275E+04  0.21390247556E+04  0.16070676107E+04 0.  0.
        2    1    3    3  502    0 -0.23538757903E+02  0.78407972066E+03 -0.47401778385E+03  0.91653038186E+03  0.25500000920E-02 0.  1.
       -2    1    3    3    0  502  0.23538757903E+02 -0.78407972066E+03 -0.93763394369E+03  0.12224943737E+04  0.25500000920E-02 0. -1.
</event>
<event>
 5   0  0.1832646E-04  0.1579732E+04  0.7818609E-02  0.8833097E-01
       -2   -1    0    0    0  501  0.00000000000E+00  0.00000000000E+00  0.29497673105E+03  0.29497673106E+03  0.25500000920E-02 0.  1.
        2   -1    0    0  501    0  0.00000000000E+00  0.00000000000E+00 -0.21150416078E+04  0.21150416078E+04  0.25500000920E-02 0. -1.
    10030    2    1    2    0    0  0.00000000000E+00  0.00000000000E+00 -0.18200648767E+04  0.24100183388E+04  0.15797316981E+04 0.  0.
        2    1    3    3  502    0  0.55035565216E+03 -0.31250859714E+03 -0.16309996248E+04  0.17494892807E+04  0.25500000920E-02 0. -1.
       -2    1    3    3    0  502 -0.55035565216E+03  0.31250859714E+03 -0.18906525191E+03  0.66052905813E+03  0.25500000920E-02 0.  1.
</event>
<event>
 5   0  0.1858913E-04  0.1622692E+04  0.7818609E-02  0.8806728E-01
        2   -1    0    0  501    0  0.00000000000E+00  0.00000000000E+00  0.18174529902E+04  0.18174529902E+04  0.25500000920E-02 0.  1.
       -2   -1    0    0    0  501  0.00000000000E+00  0.00000000000E+00 -0.36220034227E+03  0.36220034228E+03  0.25500000920E-02 0. -1.
    10030    2    1    2    0    0  0.00000000000E+00  0.00000000000E+00  0.14552526480E+04  0.21796533325E+04  0.16226917084E+04 0.  0.
        4    1    3    3  502    0 -0.35469421554E+03 -0.72863067413E+03  0.67440586592E+03  0.10542938541E+04  0.12699999809E+01 0. -1.
       -4    1    3    3    0  502  0.35469421554E+03  0.72863067413E+03  0.78084678205E+03  0.11253594785E+04  0.12699999809E+01 0.  1.
</event>
<event>
 5   0  0.1835088E-04  0.1598085E+04  0.7818609E-02  0.8821725E-01
       -2   -1    0    0    0  501  0.00000000000E+00  0.00000000000E+00  0.69912930853E+03  0.69912930853E+03  0.25500000920E-02 0. -1.
        2   -1    0    0  501    0  0.00000000000E+00  0.00000000000E+00 -0.91323439165E+03  0.91323439166E+03  0.25500000920E-02 0.  1.
    10030    2    1    2    0    0  0.00000000000E+00  0.00000000000E+00 -0.21410508313E+03  0.16123637002E+04  0.15980850150E+04 0.  0.
        5    1    3    3  502    0  0.43252722220E+03 -0.49981099857E+03 -0.56001374457E+03  0.86633037366E+03  0.46999998093E+01 0.  1.
       -5    1    3    3    0  502 -0.43252722220E+03  0.49981099857E+03  0.34590866144E+03  0.74603332653E+03  0.46999998093E+01 0. -1.
</event>
<event>
 5   0  0.1835088E-04  0.1603118E+04  0.7818609E-02  0.8818635E-01
        2   -1    0    0  501    0  0.00000000000E+00  0.00000000000E+00  0.11337563945E+04  0.11337563945E+04  0.25500000920E-02 0. -1.
       -2   -1    0    0    0  501  0.00000000000E+00  0.00000000000E+00 -0.56669722950E+03  0.56669722951E+03  0.25500000920E-02 0.  1.
    10030    2    1    2    0    0  0.00000000000E+00  0.00000000000E+00  0.56705916501E+03  0.17004536240E+04  0.16031177221E+04 0.  0.
        5    1    3    3  502    0  0.42981790043E+03 -0.67066918286E+03  0.37801042556E+03  0.88173383297E+03  0.46999998093E+01 0. -1.
       -5    1    3    3    0  502 -0.42981790043E+03  0.67066918286E+03  0.18904873945E+03  0.81871979105E+03  0.46999998093E+01 0.  1.
</event>
<event>
 5   0  0.1914170E-04  0.1592954E+04  0.7818609E-02  0.8824889E-01
       -2   -1    0    0    0  501  0.00000000000E+00  0.00000000000E+00  0.28052098638E+03  0.28052098639E+03  0.25500000920E-02 0.  1.
        2   -1    0    0  501    0  0.00000000000E+00  0.00000000000E+00 -0.22614187550E+04  0.22614187550E+04  0.25500000920E-02 0. -1.
    10030    2    1    2    0    0  0.00000000000E+00  0.00000000000E+00 -0.19808977686E+04  0.25419397414E+04  0.15929537593E+04 0.  0.
        3    1    3    3  502    0 -0.65436916620E+03 -0.44907861657E+03 -0.88334632683E+03  0.11875063591E+04  0.10100000352E+00 0.  1.
       -3    1    3    3    0  502  0.65436916620E+03  0.44907861657E+03 -0.10975514418E+04  0.13544333823E+04  0.10100000352E+00 0. -1.
</event>
<event>
 5   0  0.9673017E-05  0.1529998E+04  0.7818609E-02  0.8864746E-01
       -1   -1    0    0    0  501  0.00000000000E+00  0.00000000000E+00  0.53092094308E+03  0.53092094310E+03  0.50400001928E-02 0. -1.
        1   -1    0    0  501    0  0.00000000000E+00  0.00000000000E+00 -0.11022798838E+04  0.11022798839E+04  0.50400001928E-02 0.  1.
    10030    2    1    2    0    0  0.00000000000E+00  0.00000000000E+00 -0.57135894077E+03  0.16332008270E+04  0.15299980072E+04 0.  0.
        1    1    3    3  502    0  0.58826285552E+03  0.38772870543E+02  0.23471554139E+03  0.63454543421E+03  0.50400001928E-02 0. -1.
       -1    1    3    3    0  502 -0.58826285552E+03 -0.38772870543E+02 -0.80607448216E+03  0.99865539276E+03  0.50400001928E-02 0.  1.
</event>
<event>
 5   0  0.9673017E-05  0.1611820E+04  0.7818609E-02  0.8813319E-01
        1   -1    0    0  501    0  0.00000000000E+00  0.00000000000E+00  0.17017032373E+04  0.17017032374E+04  0.50400001928E-02 0.  1.
       -1   -1    0    0    0  501  0.00000000000E+00  0.00000000000E+00 -0.38167110352E+03  0.38167110356E+03  0.50400001928E-02 0. -1.
    10030    2    1    2    0    0  0.00000000000E+00  0.00000000000E+00  0.13200321338E+04  0.20833743409E+04  0.16118200303E+04 0.  0.
        1    1    3    3  502    0 -0.11461831147E+02 -0.43814172554E+03 -0.21415164873E+03  0.48781192473E+03  0.50400001928E-02 0. -1.
       -1    1    3    3    0  502  0.11461831147E+02  0.43814172554E+03  0.15341837826E+04  0.15955624162E+04  0.50400001928E-02 0.  1.
</event>
<event>
 5   0  0.1832646E-04  0.1599044E+04  0.7818609E-02  0.8821136E-01
        2   -1    0    0  501    0  0.00000000000E+00  0.00000000000E+00  0.17941584331E+04  0.17941584331E+04  0.25500000920E-02 0.  1.
       -2   -1    0    0    0  501  0.00000000000E+00  0.00000000000E+00 -0.35628706531E+03  0.35628706532E+03  0.25500000920E-02 0. -1.
    10030    2    1    2    0    0  0.00000000000E+00  0.00000000000E+00  0.14378713678E+04  0.21504454984E+04  0.15990440180E+04 0.  0.
        2    1    3    3  502    0 -0.54508775050E+03 -0.53223008935E+03  0.39270395609E+03  0.85709154755E+03  0.25500000920E-02 0.  1.
       -2    1    3    3    0  502  0.54508775050E+03  0.53223008935E+03  0.10451674117E+04  0.12933539509E+04  0.25500000920E-02 0. -1.
</event>
<event>
 5   0  0.1858913E-04  0.1598185E+04  0.7818609E-02  0.8821664E-01
        2   -1    0    0  501    0  0.00000000000E+00  0.00000000000E+00  0.86228300343E+03  0.86228300343E+03  0.25500000920E-02 0.  1.
       -2   -1    0    0    0  501  0.00000000000E+00  0.00000000000E+00 -0.74053244780E+03  0.74053244781E+03  0.25500000920E-02 0. -1.
    10030    2    1    2    0    0  0.00000000000E+00  0.00000000000E+00  0.12175055563E+03  0.16028154512E+04  0.15981846492E+04 0.  0.
        4    1    3    3  502    0  0.50612433792E+03 -0.32129904322E+03  0.59075456688E+03  0.84165758583E+03  0.12699999809E+01 0. -1.
       -4    1    3    3    0  502 -0.50612433792E+03  0.32129904322E+03 -0.46900401125E+03  0.76115786541E+03  0.12699999809E+01 0.  1.
</event>
<event>
 5   0  0.9616567E-05  0.1607185E+04  0.7818609E-02  0.8816146E-01
       -1   -1    0    0    0  501  0.00000000000E+00  0.00000000000E+00  0.16103740692E+04  0.16103740692E+04  0.50400001928E-02 0. -1.
        1   -1    0    0  501    0  0.00000000000E+00  0.00000000000E+00 -0.40100067072E+03  0.40100067075E+03  0.50400001928E-02 0.  1.
    10030    2    1    2    0    0  0.00000000000E+00  0.00000000000E+00  0.12093733984E+04  0.20113747399E+04  0.16071852188E+04 0.  0.
        5    1    3    3  502    0 -0.65597624932E+03 -0.45662786184E+03  0.70883245883E+03  0.10683067858E+04  0.46999998093E+01 0. -1.
       -5    1    3    3    0  502  0.65597624932E+03  0.45662786184E+03  0.50054093961E+03  0.94306795413E+03  0.46999998093E+01 0.  1.
</event>
<event>
 5   0  0.6838750E-05  0.1610126E+04  0.7818609E-02  0.8814352E-01
        3   -1    0    0  501    0  0.00000000000E+00  0.00000000000E+00  0.76988595678E+03  0.76988596340E+03  0.10100000352E+00 0.  1.
       -3   -1    0    0    0  501  0.00000000000E+00  0.00000000000E+00 -0.84184683672E+03  0.84184684278E+03  0.10100000352E+00 0. -1.
    10030    2    1    2    0    0  0.00000000000E+00  0.00000000000E+00 -0.71960879947E+02  0.16117328062E+04  0.16101255449E+04 0.  0.
        3    1    3    3  502    0 -0.18553925475E+03 -0.64812539131E+03  0.40449826885E+03  0.78619984585E+03  0.10100000352E+00 0.  1.
       -3    1    3    3    0  502  0.18553925475E+03  0.64812539131E+03 -0.47645914880E+03  0.82553296033E+03  0.10100000352E+00 0. -1.
</event>
<event>
 5   0  0.1774934E-04  0.1599747E+04  0.7818609E-02  0.8820703E-01
        2   -1    0    0  501    0  0.00000000000E+00  0.00000000000E+00  0.89536114905E+03  0.89536114906E+03  0.25500000920E-02 0.  1.
       -2   -1    0    0    0  501  0.00000000000E+00  0.00000000000E+00 -0.71456941802E+03  0.71456941803E+03  0.25500000920E-02 0. -1.
    10030    2    1    2    0    0  0.00000000000E+00  0.00000000000E+00  0.18079173103E+03  0.16099305671E+04  0.15997470990E+04 0.  0.
        1    1    3    3  502    0  0.13206049840E+03 -0.47713773444E+03 -0.54185276015E+03  0.73396512626E+03  0.50400001928E-02 0. -1.
       -1    1    3    3    0  502 -0.13206049840E+03  0.47713773444E+03  0.72264449118E+03  0.87596544082E+03  0.50400001928E-02 0.  1.
</event>
<event>
 5   0  0.9616567E-05  0.1598406E+04  0.7818609E-02  0.8821528E-01
       -1   -1    0    0    0  501  0.00000000000E+00  0.00000000000E+00  0.68504888659E+03  0.68504888661E+03  0.50400001928E-02 0. -1.
        1   -1    0    0  501    0  0.00000000000E+00  0.00000000000E+00 -0.93237944870E+03  0.93237944872E+03  0.50400001928E-02 0.  1.
    10030    2    1    2    0    0  0.00000000000E+00  0.00000000000E+00 -0.24733056211E+03  0.16174283353E+04  0.15984060851E+04 0.  0.
        5    1    3    3  502    0 -0.13437068052E+03  0.73622654655E+03 -0.40739187136E+03  0.85210048379E+03  0.46999998093E+01 0.  1.
       -5    1    3    3    0  502  0.13437068052E+03 -0.73622654655E+03  0.16006130926E+03  0.76532785154E+03  0.46999998093E+01 0. -1.
</event>
<event>
 5   0  0.9432152E-05  0.1585560E+04  0.7818609E-02  0.8829469E-01
       -1   -1    0    0    0  501  0.00000000000E+00  0.00000000000E+00  0.49120868612E+03  0.49120868615E+03  0.50400001928E-02 0. -1.
        1   -1    0    0  501    0  0.00000000000E+00  0.00000000000E+00 -0.12794965371E+04  0.12794965371E+04  0.50400001928E-02 0.  1.
    10030    2    1    2    0    0  0.00000000000E+00  0.00000000000E+00 -0.78828785094E+03  0.17707052232E+04  0.15855596020E+04 0.  0.
        4    1    3    3  502    0  0.73524980810E+03  0.52439970491E+00 -0.72525375829E+03  0.10327570780E+04  0.12699999809E+01 0.  1.
       -4    1    3    3    0  502 -0.73524980810E+03 -0.52439970491E+00 -0.63034092642E+02  0.73794814523E+03  0.12699999809E+01 0. -1.
</event>
<event>
 5   0  0.9673017E-05  0.1598521E+04  0.7818609E-02  0.8821457E-01
        1   -1    0    0  501    0  0.00000000000E+00  0.00000000000E+00  0.93359201305E+03  0.93359201306E+03  0.50400001928E-02 0.  1.
       -1   -1    0    0    0  501  0.00000000000E+00  0.00000000000E+00 -0.68425771178E+03  0.68425771180E+03  0.50400001928E-02 0. -1.
    10030    2    1    2    0    0  0.00000000000E+00  0.00000000000E+00  0.24933430126E+03  0.16178497249E+04  0.15985212349E+04 0.  0.
        1    1    3    3  502    0  0.10931441679E+03  0.78838608266E+03  0.19845464148E+03  0.82029659380E+03  0.50400001928E-02 0.  1.
       -1    1    3    3    0  502 -0.10931441679E+03 -0.78838608266E+03  0.50879659786E+02  0.79755313106E+03  0.50400001928E-02 0. -1.
</event>
<event>
 5   0  0.9673017E-05  0.1598788E+04  0.7818609E-02  0.8821293E-01
       -1   -1    0    0    0  501  0.00000000000E+00  0.00000000000E+00  0.11028255104E+04  0.11028255104E+04  0.50400001928E-02 0.  1.
        1   -1    0    0  501    0  0.00000000000E+00  0.00000000000E+00 -0.57944876612E+03  0.57944876614E+03  0.50400001928E-02 0. -1.
    10030    2    1    2    0    0  0.00000000000E+00  0.00000000000E+00  0.52337674427E+03  0.16822742765E+04  0.15987881426E+04 0.  0.
        1    1    3    3  502    0 -0.22685441313E+03  0.54853013920E+03  0.82507506569E+03  0.10164138441E+04  0.50400001928E-02 0.  1.
       -1    1    3    3    0  502  0.22685441313E+03 -0.54853013920E+03 -0.30169832142E+03  0.66586043247E+03  0.50400001928E-02 0. -1.
</event>
<event>
 5   0  0.9673017E-05  0.1596182E+04  0.7818609E-02  0.8822897E-01
        1   -1    0    0  501    0  0.00000000000E+00  0.00000000000E+00  0.90910668142E+03  0.90910668143E+03  0.50400001928E-02 0. -1.
       -1   -1    0    0    0  501  0.00000000000E+00  0.00000000000E+00 -0.70063162429E+03  0.70063162431E+03  0.50400001928E-02 0.  1.
    10030    2    1    2    0    0  0.00000000000E+00  0.00000000000E+00  0.20847505713E+03  0.16097383057E+04  0.15961815572E+04 0.  0.
        1    1    3    3  502    0  0.30369484621E+03  0.60967809615E+03 -0.31524104842E+03  0.75054304285E+03  0.50400001928E-02 0.  1.
       -1    1    3    3    0  502 -0.30369484621E+03 -0.60967809615E+03  0.52371610555E+03  0.85919526289E+03  0.50400001928E-02 0. -1.
</event>
<event>
 5   0  0.9726935E-05  0.1605210E+04  0.7818609E-02  0.8817354E-01
        1   -1    0    0  501    0  0.00000000000E+00  0.00000000000E+00  0.57311839177E+03  0.57311839180E+03  0.50400001928E-02 0.  1.
       -1   -1    0    0    0  501  0.00000000000E+00  0.00000000000E+00 -0.11239822536E+04  0.11239822536E+04  0.50400001928E-02 0. -1.
    10030    2    1    2    0    0  0.00000000000E+00  0.00000000000E+00 -0.55086386178E+03  0.16971006454E+04  0.16052101440E+04 0.  0.
        2    1    3    3  502    0  0.14418074540E+03 -0.36896909632E+02  0.55840240356E+03  0.57789507144E+03  0.25500000920E-02 0.  1.
       -2    1    3    3    0  502 -0.14418074540E+03  0.36896909632E+02 -0.11092662653E+04  0.11192055739E+04  0.25500000920E-02 0. -1.
</event>
<event>
 5   0  0.9616567E-05  0.1598779E+04  0.7818609E-02  0.8821298E-01
       -1   -1    0    0    0  501  0.00000000000E+00  0.00000000000E+00  0.50468963804E+03  0.50468963807E+03  0.50400001928E-02 0. -1.
        1   -1    0    0  501    0  0.00000000000E+00  0.00000000000E+00 -0.12661719076E+04  0.12661719076E+04  0.50400001928E-02 0.  1.
    10030    2    1    2    0    0  0.00000000000E+00  0.00000000000E+00 -0.76148226954E+03  0.17708615457E+04  0.15987793366E+04 0.  0.
        5    1    3    3  502    0  0.75060356084E+03  0.26720271370E+03 -0.30896891131E+03  0.85456823830E+03  0.46999998093E+01 0. -1.
       -5    1    3    3    0  502 -0.75060356084E+03 -0.26720271370E+03 -0.45251335824E+03  0.91629330737E+03  0.46999998093E+01 0.  1.
</event>
<event>
 5   0  0.1914170E-04  0.1598999E+04  0.7818609E-02  0.8821163E-01
        2   -1    0    0  501    0  0.00000000000E+00  0.00000000000E+00  0.12060261196E+04  0.12060261196E+04  0.25500000920E-02 0.  1.
       -2   -1    0    0    0  501  0.00000000000E+00  0.00000000000E+00 -0.53000490522E+03  0.53000490522E+03  0.25500000920E-02 0. -1.
    10030    2    1    2    0    0  0.00000000000E+00  0.00000000000E+00  0.67602121440E+03  0.17360310248E+04  0.15989993861E+04 0.  0.
        3    1    3    3  502    0 -0.43742141671E+03 -0.66662064572E+03  0.27397126227E+03  0.84307819557E+03  0.10100000352E+00 0. -1.
       -3    1    3    3    0  502  0.43742141671E+03  0.66662064572E+03  0.40204995213E+03  0.89295282927E+03  0.10100000352E+00 0.  1.
</event>
<event>
 5   0  0.9939872E-05  0.1602497E+04  0.7818609E-02  0.8819015E-01
       -1   -1    0    0    0  501  0.00000000000E+00  0.00000000000E+00  0.10689554504E+04  0.10689554505E+04  0.50400001928E-02 0.  1.
        1   -1    0    0  501    0  0.00000000000E+00  0.00000000000E+00 -0.60058584187E+03  0.60058584189E+03  0.50400001928E-02 0. -1.
    10030    2    1    2    0    0  0.00000000000E+00  0.00000000000E+00  0.46836960858E+03  0.16695412923E+04  0.16024974373E+04 0.  0.
        3    1    3    3  502    0 -0.21948156971E+03  0.15070282538E+03  0.10215242026E+04  0.10556491878E+04  0.10100000352E+00 0.  1.
       -3    1    3    3    0  502  0.21948156971E+03 -0.15070282538E+03 -0.55315459398E+03  0.61389210458E+03  0.10100000352E+00 0. -1.
</event>
<event>
 5   0  0.9726935E-05  0.1596267E+04  0.7818609E-02  0.8822844E-01
        1   -1    0    0  501    0  0.00000000000E+00  0.00000000000E+00  0.17369956531E+04  0.17369956531E+04  0.50400001928E-02 0. -1.
       -1   -1    0    0    0  501  0.00000000000E+00  0.00000000000E+00 -0.36673515782E+03  0.36673515785E+03  0.50400001928E-02 0.  1.
    10030    2    1    2    0    0  0.00000000000E+00  0.00000000000E+00  0.13702604952E+04  0.21037308109E+04  0.15962673648E+04 0.  0.
        2    1    3    3  502    0  0.20862016016E+02  0.65953193554E+03  0.93392114988E+02  0.66643805778E+03  0.25500000920E-02 0.  1.
       -2    1    3    3    0  502 -0.20862016016E+02 -0.65953193554E+03  0.12768683803E+04  0.14372927531E+04  0.25500000920E-02 0. -1.
</event>
<event>
 5   0  0.1835088E-04  0.1594118E+04  0.7818609E-02  0.8824170E-01
       -2   -1    0    0    0  501  0.00000000000E+00  0.00000000000E+00  0.15771534655E+04  0.15771534655E+04  0.25500000920E-02 0. -1.
        2   -1    0    0  501    0  0.00000000000E+00  0.00000000000E+00 -0.40281625777E+03  0.40281625778E+03  0.25500000920E-02 0.  1.
    10030    2    1    2    0    0  0.00000000000E+00  0.00000000000E+00  0.11743372078E+04  0.19799697233E+04  0.15941180094E+04 0.  0.
        5    1    3    3  502    0  0.67381278076E+03 -0.24087319285E+03  0.10231915645E+04  0.12485938596E+04  0.46999998093E+01 0. -1.
       -5    1    3    3    0  502 -0.67381278076E+03  0.24087319285E+03  0.15114564325E+03  0.73137586372E+03  0.46999998093E+01 0.  1.
</event>
<event>
 5   0  0.1914170E-04  0.1598327E+04  0.7818609E-02  0.8821577E-01
        2   -1    0    0  501    0  0.00000000000E+00  0.00000000000E+00  0.10540869069E+04  0.10540869069E+04  0.25500000920E-02 0.  1.
       -2   -1    0    0    0  501  0.00000000000E+00  0.00000000000E+00 -0.60589119218E+03  0.60589119218E+03  0.25500000920E-02 0. -1.
    10030    2    1    2    0    0  0.00000000000E+00  0.00000000000E+00  0.44819571475E+03  0.16599780991E+04  0.15983265908E+04 0.  0.
        3    1    3    3  502    0 -0.47925558303E+03 -0.57972207156E+03 -0.56313588980E+02  0.75427768403E+03  0.10100000352E+00 0.  1.
       -3    1    3    3    0  502  0.47925558303E+03  0.57972207156E+03  0.50450930373E+03  0.90570041508E+03  0.10100000352E+00 0. -1.
</event>
<event>
 5   0  0.9673017E-05  0.1598018E+04  0.7818609E-02  0.8821767E-01
       -1   -1    0    0    0  501  0.00000000000E+00  0.00000000000E+00  0.32387769220E+03  0.32387769224E+03  0.50400001928E-02 0.  1.
        1   -1    0    0  501    0  0.00000000000E+00  0.00000000000E+00 -0.19711618902E+04  0.19711618902E+04  0.50400001928E-02 0. -1.
    10030    2    1    2    0    0  0.00000000000E+00  0.00000000000E+00 -0.16472841980E+04  0.22950395824E+04  0.15980179774E+04 0.  0.
        1    1    3    3  502    0  0.37321968613E+03 -0.43752967408E+03 -0.26996132678E+02  0.57572036704E+03  0.50400001928E-02 0.  1.
       -1    1    3    3    0  502 -0.37321968613E+03  0.43752967408E+03 -0.16202880653E+04  0.17193192154E+04  0.50400001928E-02 0. -1.
</event>
<event>
 5   0  0.1858913E-04  0.1595515E+04  0.7818609E-02  0.8823308E-01
        2   -1    0    0  501    0  0.00000000000E+00  0.00000000000E+00  0.76118590663E+03  0.76118590663E+03  0.25500000920E-02 0.  1.
       -2   -1    0    0    0  501  0.00000000000E+00  0.00000000000E+00 -0.83608636295E+03  0.83608636296E+03  0.25500000920E-02 0. -1.
    10030    2    1    2    0    0  0.00000000000E+00  0.00000000000E+00 -0.74900456324E+02  0.15972722696E+04  0.15955151597E+04 0.  0.
        4    1    3    3  502    0 -0.48309133117E+03  0.96076754140E+02 -0.66568221497E+03  0.82809564736E+03  0.12699999809E+01 0. -1.
       -4    1    3    3    0  502  0.48309133117E+03 -0.96076754140E+02  0.59078175865E+03  0.76917662223E+03  0.12699999809E+01 0.  1.
</event>
<event>
 5   0  0.1774934E-04  0.1598121E+04  0.7818609E-02  0.8821703E-01
       -2   -1    0    0    0  501  0.00000000000E+00  0.00000000000E+00  0.29077808363E+03  0.29077808364E+03  0.25500000920E-02 0.  1.
        2   -1    0    0  501    0  0.00000000000E+00  0.00000000000E+00 -0.21958242082E+04  0.21958242082E+04  0.25500000920E-02 0. -1.
    10030    2    1    2    0    0  0.00000000000E+00  0.00000000000E+00 -0.19050461245E+04  0.24866022918E+04  0.15981208406E+04 0.  0.
        1    1    3    3  502    0  0.29010781949E+03 -0.67119021701E+03 -0.14539138355E+04  0.16274287374E+04  0.50400001928E-02 0. -1.
       -1    1    3    3    0  502 -0.29010781949E+03  0.67119021701E+03 -0.45113228908E+03  0.85917355442E+03  0.50400001928E-02 0.  1.
</event>
<event>
 5   0  0.1914170E-04  0.1597500E+04  0.7818609E-02  0.8822085E-01
        2   -1    0    0  501    0  0.00000000000E+00  0.00000000000E+00  0.14703192449E+04  0.14703192449E+04  0.25500000920E-02 0. -1.
       -2   -1    0    0    0  501  0.00000000000E+00  0.00000000000E+00 -0.43392067814E+03  0.43392067815E+03  0.25500000920E-02 0.  1.
    10030    2    1    2    0    0  0.00000000000E+00  0.00000000000E+00  0.10363985667E+04  0.19042399230E+04  0.15975004524E+04 0.  0.
        3    1    3    3  502    0  0.19961709836E+03  0.39064994982E+03 -0.27746104274E+03  0.51907514841E+03  0.10100000352E+00 0.  1.
       -3    1    3    3    0  502 -0.19961709836E+03 -0.39064994982E+03  0.13138596095E+04  0.13851647746E+04  0.10100000352E+00 0. -1.
</event>
<event>
 5   0  0.9616567E-05  0.1599247E+04  0.7818609E-02  0.8821011E-01
        1   -1    0    0  501    0  0.00000000000E+00  0.00000000000E+00  0.77572782436E+03  0.77572782438E+03  0.50400001928E-02 0. -1.
       -1   -1    0    0    0  501  0.00000000000E+00  0.00000000000E+00 -0.82425485104E+03  0.82425485106E+03  0.50400001928E-02 0.  1.
    10030    2    1    2    0    0  0.00000000000E+00  0.00000000000E+00 -0.48527026679E+02  0.15999826754E+04  0.15992466006E+04 0.  0.
        5    1    3    3  502    0  0.65640939213E+03 -0.44261940609E+03  0.87993761798E+02  0.79658660599E+03  0.46999998093E+01 0. -1.
       -5    1    3    3    0  502 -0.65640939213E+03  0.44261940609E+03 -0.13652078848E+03  0.80339606945E+03  0.46999998093E+01 0.  1.
</event>
<event>
 5   0  0.9726935E-05  0.1602677E+04  0.7818609E-02  0.8818905E-01
       -1   -1    0    0    0  501  0.00000000000E+00  0.00000000000E+00  0.43360677659E+03  0.43360677662E+03  0.50400001928E-02 0. -1.
        1   -1    0    0  501    0  0.00000000000E+00  0.00000000000E+00 -0.14809351980E+04  0.14809351981E+04  0.50400001928E-02 0.  1.
    10030    2    1    2    0    0  0.00000000000E+00  0.00000000000E+00 -0.10473284215E+04  0.19145419747E+04  0.16026771822E+04 0.  0.
        2    1    3    3  502    0 -0.42873658648E+03 -0.56493871720E+03 -0.96931625241E+03  0.12010598703E+04  0.25500000920E-02 0.  1.
       -2    1    3    3    0  502  0.42873658648E+03  0.56493871720E+03 -0.78012169041E+02  0.71348210440E+03  0.25500000920E-02 0. -1.
</event>
<event>
 5   0  0.9673017E-05  0.1590222E+04  0.7818609E-02  0.8826578E-01
       -1   -1    0    0    0  501  0.00000000000E+00  0.00000000000E+00  0.75156640272E+03  0.75156640274E+03  0.50400001928E-02 0.  1.
        1   -1    0    0  501    0  0.00000000000E+00  0.00000000000E+00 -0.84117817334E+03  0.84117817336E+03  0.50400001928E-02 0. -1.
    10030    2    1    2    0    0  0.00000000000E+00  0.00000000000E+00 -0.89611770619E+02  0.15927445761E+04  0.15902216875E+04 0.  0.
        1    1    3    3  502    0  0.46831852745E+03 -0.63781940392E+03  0.33198470194E+02  0.79198356903E+03  0.50400001928E-02 0. -1.
       -1    1    3    3    0  502 -0.46831852745E+03  0.63781940392E+03 -0.12281024081E+03  0.80076100707E+03  0.50400001928E-02 0.  1.
</event>
<event>
 5   0  0.1832646E-04  0.1602201E+04  0.7818609E-02  0.8819197E-01
       -2   -1    0    0    0  501  0.00000000000E+00  0.00000000000E+00  0.66960473270E+03  0.66960473270E+03  0.25500000920E-02 0. -1.
        2   -1    0    0  501    0  0.00000000000E+00  0.00000000000E+00 -0.95841866243E+03  0.95841866243E+03  0.25500000920E-02 0.  1.
    10030    2    1    2    0    0  0.00000000000E+00  0.00000000000E+00 -0.28881392973E+03  0.16280233951E+04  0.16022005770E+04 0.  0.
        2    1    3    3  502    0  0.78655990217E+03  0.11423772802E+03 -0.42617924685E+02  0.79595416056E+03  0.25500000920E-02 0. -1.
       -2    1    3    3    0  502 -0.78655990217E+03 -0.11423772802E+03 -0.24619600505E+03  0.83206923457E+03  0.25500000920E-02 0.  1.
</event>
<event>
 5   0  0.1858913E-04  0.1612471E+04  0.7818609E-02  0.8812923E-01
        2   -1    0    0  501    0  0.00000000000E+00  0.00000000000E+00  0.86583492118E+03  0.86583492118E+03  0.25500000920E-02 0.  1.
       -2   -1    0    0    0  501  0.00000000000E+00  0.00000000000E+00 -0.75073873618E+03  0.75073873619E+03  0.25500000920E-02 0. -1.
    10030    2    1    2    0    0  0.00000000000E+00  0.00000000000E+00  0.11509618500E+03  0.16165736574E+04  0.16124711650E+04 0.  0.
        4    1    3    3  502    0 -0.24025070856E+03 -0.18523065476E+01 -0.71401398770E+03  0.75335345060E+03  0.12699999809E+01 0. -1.
       -4    1    3    3    0  502  0.24025070856E+03  0.18523065476E+01  0.82911017270E+03  0.86322020677E+03  0.12699999809E+01 0.  1.
</event>
<event>
 5   0  0.9726935E-05  0.1598096E+04  0.7818609E-02  0.8821719E-01
        1   -1    0    0  501    0  0.00000000000E+00  0.00000000000E+00  0.16006986870E+04  0.16006986870E+04  0.50400001928E-02 0. -1.
       -1   -1    0    0    0  501  0.00000000000E+00  0.00000000000E+00 -0.39887433415E+03  0.39887433418E+03  0.50400001928E-02 0.  1.
    10030    2    1    2    0    0  0.00000000000E+00  0.00000000000E+00  0.12018243528E+04  0.19995730212E+04  0.15980958957E+04 0.  0.
        2    1    3    3  502    0 -0.61310296462E+03 -0.53939014141E+02  0.12385114256E+04  0.13830094771E+04  0.25500000920E-02 0.  1.
       -2    1    3    3    0  502  0.61310296462E+03  0.53939014141E+02 -0.36687072818E+02  0.61656354400E+03  0.25500000920E-02 0. -1.
</event>
<event>
 5   0  0.9616567E-05  0.1601666E+04  0.7818609E-02  0.8819525E-01
       -1   -1    0    0    0  501  0.00000000000E+00  0.00000000000E+00  0.61134540497E+03  0.61134540499E+03  0.50400001928E-02 0.  1.
        1   -1    0    0  501    0  0.00000000000E+00  0.00000000000E+00 -0.10490530793E+04  0.10490530793E+04  0.50400001928E-02 0. -1.
    10030    2    1    2    0    0  0.00000000000E+00  0.00000000000E+00 -0.43770767432E+03  0.16603984843E+04  0.16016663568E+04 0.  0.
        5    1    3    3  502    0 -0.33892179565E+03  0.64259295500E+03 -0.56813297064E+03  0.92227482439E+03  0.46999998093E+01 0. -1.
       -5    1    3    3    0  502  0.33892179565E+03 -0.64259295500E+03  0.13042529632E+03  0.73812365990E+03  0.46999998093E+01 0.  1.
</event>
<event>
 5   0  0.9726935E-05  0.1597059E+04  0.7818609E-02  0.8822357E-01
       -1   -1    0    0    0  501  0.00000000000E+00  0.00000000000E+00  0.13027509115E+04  0.13027509115E+04  0.50400001928E-02 0.  1.
        1   -1    0    0  501    0  0.00000000000E+00  0.00000000000E+00 -0.48946387240E+03  0.48946387242E+03  0.50400001928E-02 0. -1.
    10030    2    1    2    0    0  0.00000000000E+00  0.00000000000E+00  0.81328703907E+03  0.17922147839E+04  0.15970591798E+04 0.  0.
        2    1    3    3  502    0  0.95214119593E+02 -0.44031655714E+03  0.11465322580E+04  0.12318606325E+04  0.25500000920E-02 0.  1.
       -2    1    3    3    0  502 -0.95214119593E+02  0.44031655714E+03 -0.33324521898E+03  0.56035415144E+03  0.25500000920E-02 0. -1.
</event>
<event>
 5   0  0.6838750E-05  0.1594747E+04  0.7818609E-02  0.8823782E-01
        3   -1    0    0  501    0  0.00000000000E+00  0.00000000000E+00  0.36226151223E+03  0.36226152631E+03  0.10100000352E+00 0.  1.
       -3   -1    0    0    0  501  0.00000000000E+00  0.00000000000E+00 -0.17550979108E+04  0.17550979137E+04  0.10100000352E+00 0. -1.
    10030    2    1    2    0    0  0.00000000000E+00  0.00000000000E+00 -0.13928363985E+04  0.21173594400E+04  0.15947469282E+04 0.  0.
        1    1    3    3  502    0 -0.62740322297E+03  0.17224560093E+02 -0.13493930689E+04  0.14882181104E+04  0.50400001928E-02 0. -1.
       -1    1    3    3    0  502  0.62740322297E+03 -0.17224560093E+02 -0.43443329621E+02  0.62914132958E+03  0.50400001928E-02 0.  1.
</event>
<event>
 5   0  0.1832646E-04  0.1627075E+04  0.7818609E-02  0.8804085E-01
        2   -1    0    0  501    0  0.00000000000E+00  0.00000000000E+00  0.15351460905E+04  0.15351460905E+04  0.25500000920E-02 0. -1.
       -2   -1    0    0    0  501  0.00000000000E+00  0.00000000000E+00 -0.43112716367E+03  0.43112716368E+03  0.25500000920E-02 0.  1.
    10030    2    1    2    0    0  0.00000000000E+00  0.00000000000E+00  0.11040189268E+04  0.19662732541E+04  0.16270748966E+04 0.  0.
        2    1    3    3  502    0  0.28225945589E+03 -0.42413677464E+03 -0.21447078291E+03  0.55277492777E+03  0.25500000920E-02 0.  1.
       -2    1    3    3    0  502 -0.28225945589E+03  0.42413677464E+03  0.13184897097E+04  0.14134983264E+04  0.25500000920E-02 0. -1.
</event>
<event>
 5   0  0.1914170E-04  0.1598665E+04  0.7818609E-02  0.8821368E-01
       -2   -1    0    0    0  501  0.00000000000E+00  0.00000000000E+00  0.24677992377E+03  0.24677992378E+03  0.25500000920E-02 0.  1.
        2   -1    0    0  501    0  0.00000000000E+00  0.00000000000E+00 -0.25890784241E+04  0.25890784241E+04  0.25500000920E-02 0. -1.
    10030    2    1    2    0    0  0.00000000000E+00  0.00000000000E+00 -0.23422985004E+04  0.28358583479E+04  0.15986651634E+04 0.  0.
        3    1    3    3  502    0 -0.29432080483E+03 -0.56653230547E+03 -0.20243688316E+04  0.21226522951E+04  0.10100000352E+00 0. -1.
       -3    1    3    3    0  502  0.29432080483E+03  0.56653230547E+03 -0.31792966874E+03  0.71320605280E+03  0.10100000352E+00 0.  1.
</event>
<event>
 5   0  0.1832646E-04  0.1598581E+04  0.7818609E-02  0.8821420E-01
       -2   -1    0    0    0  501  0.00000000000E+00  0.00000000000E+00  0.41227030204E+03  0.41227030205E+03  0.25500000920E-02 0.  1.
        2   -1    0    0  501    0  0.00000000000E+00  0.00000000000E+00 -0.15496271351E+04  0.15496271351E+04  0.25500000920E-02 0. -1.
    10030    2    1    2    0    0  0.00000000000E+00  0.00000000000E+00 -0.11373568331E+04  0.19618974372E+04  0.15985809295E+04 0.  0.
        2    1    3    3  502    0  0.25451910015E+03  0.75510491501E+03 -0.49201705749E+03  0.93650637471E+03  0.25500000920E-02 0. -1.
       -2    1    3    3    0  502 -0.25451910015E+03 -0.75510491501E+03 -0.64533977557E+03  0.10253910624E+04  0.25500000920E-02 0.  1.
</event>
<event>
 5   0  0.9939872E-05  0.1599662E+04  0.7818609E-02  0.8820755E-01
        1   -1    0    0  501    0  0.00000000000E+00  0.00000000000E+00  0.95469973504E+03  0.95469973506E+03  0.50400001928E-02 0. -1.
       -1   -1    0    0    0  501  0.00000000000E+00  0.00000000000E+00 -0.67008504316E+03  0.67008504318E+03  0.50400001928E-02 0.  1.
    10030    2    1    2    0    0  0.00000000000E+00  0.00000000000E+00  0.28461469188E+03  0.16247847782E+04  0.15996624809E+04 0.  0.
        3    1    3    3  502    0 -0.15542841984E+03 -0.45140353491E+03  0.79410721716E+03  0.92656863080E+03  0.10100000352E+00 0. -1.
       -3    1    3    3    0  502  0.15542841984E+03  0.45140353491E+03 -0.50949252528E+03  0.69821614744E+03  0.10100000352E+00 0.  1.
</event>
<event>
 5   0  0.9616567E-05  0.1646307E+04  0.7818609E-02  0.8792594E-01
       -1   -1    0    0    0  501  0.00000000000E+00  0.00000000000E+00  0.92528165008E+03  0.92528165010E+03  0.50400001928E-02 0. -1.
        1   -1    0    0  501    0  0.00000000000E+00  0.00000000000E+00 -0.73229782786E+03  0.73229782788E+03  0.50400001928E-02 0.  1.
    10030    2    1    2    0    0  0.00000000000E+00  0.00000000000E+00  0.19298382223E+03  0.16575794780E+04  0.16463070704E+04 0.  0.
        5    1    3    3  502    0 -0.22509357965E+03  0.74158454340E+03  0.37578065437E+03  0.86130595308E+03  0.46999998093E+01 0. -1.
       -5    1    3    3    0  502  0.22509357965E+03 -0.74158454340E+03 -0.18279683214E+03  0.79627352490E+03  0.46999998093E+01 0.  1.
</event>
<event>
 5   0  0.1835088E-04  0.1596973E+04  0.7818609E-02  0.8822410E-01
        2   -1    0    0  501    0  0.00000000000E+00  0.00000000000E+00  0.15894895015E+04  0.15894895015E+04  0.25500000920E-02 0. -1.
       -2   -1    0    0    0  501  0.00000000000E+00  0.00000000000E+00 -0.40112303714E+03  0.40112303715E+03  0.25500000920E-02 0.  1.
    10030    2    1    2    0    0  0.00000000000E+00  0.00000000000E+00  0.11883664643E+04  0.19906125386E+04  0.15969732075E+04 0.  0.
        5    1    3    3  502    0 -0.33347412127E+03  0.67045589133E+03  0.24864958716E+03  0.78902775551E+03  0.46999998093E+01 0. -1.
       -5    1    3    3    0  502  0.33347412127E+03 -0.67045589133E+03  0.93971687717E+03  0.12015847831E+04  0.46999998093E+01 0.  1.
</event>
<event>
 5   0  0.9616567E-05  0.1598231E+04  0.7818609E-02  0.8821636E-01
       -1   -1    0    0    0  501  0.00000000000E+00  0.00000000000E+00  0.34326170811E+03  0.34326170815E+03  0.50400001928E-02 0.  1.
        1   -1    0    0  501    0  0.00000000000E+00  0.00000000000E+00 -0.18603458495E+04  0.18603458495E+04  0.50400001928E-02 0. -1.
    10030    2    1    2    0    0  0.00000000000E+00  0.00000000000E+00 -0.15170841413E+04  0.22036075576E+04  0.15982308895E+04 0.  0.
        5    1    3    3  502    0 -0.31093079174E+03 -0.27280240889E+03 -0.17012321884E+04  0.17508032900E+04  0.46999998093E+01 0. -1.
       -5    1    3    3    0  502  0.31093079174E+03  0.27280240889E+03  0.18414804703E+03  0.45280426761E+03  0.46999998093E+01 0.  1.
</event>
<event>
 5   0  0.9726935E-05  0.1602297E+04  0.7818609E-02  0.8819138E-01
        1   -1    0    0  501    0  0.00000000000E+00  0.00000000000E+00  0.78741852870E+03  0.78741852872E+03  0.50400001928E-02 0. -1.
       -1   -1    0    0    0  501  0.00000000000E+00  0.00000000000E+00 -0.81511813304E+03  0.81511813305E+03  0.50400001928E-02 0.  1.
    10030    2    1    2    0    0  0.00000000000E+00  0.00000000000E+00 -0.27699604332E+02  0.16025366618E+04  0.16022972522E+04 0.  0.
        2    1    3    3  502    0  0.70007701260E+03 -0.34335921854E+03 -0.19782223628E+03  0.80444826664E+03  0.25500000920E-02 0.  1.
       -2    1    3    3    0  502 -0.70007701260E+03  0.34335921854E+03  0.17012263195E+03  0.79808839513E+03  0.25500000920E-02 0. -1.
</event>
<event>
 5   0  0.1835088E-04  0.1586301E+04  0.7818609E-02  0.8829008E-01
       -2   -1    0    0    0  501  0.00000000000E+00  0.00000000000E+00  0.60359568398E+03  0.60359568399E+03  0.25500000920E-02 0.  1.
        2   -1    0    0  501    0  0.00000000000E+00  0.00000000000E+00 -0.10422341748E+04  0.10422341748E+04  0.25500000920E-02 0. -1.
    10030    2    1    2    0    0  0.00000000000E+00  0.00000000000E+00 -0.43863849085E+03  0.16458298588E+04  0.15863014211E+04 0.  0.
        5    1    3    3  502    0  0.44100475378E+02  0.60268272649E+03  0.31366516653E+03  0.68086654157E+03  0.46999998093E+01 0.  1.
       -5    1    3    3    0  502 -0.44100475378E+02 -0.60268272649E+03 -0.75230365738E+03  0.96496331725E+03  0.46999998093E+01 0. -1.
</event>
<event>
 5   0  0.9673017E-05  0.1599139E+04  0.7818609E-02  0.8821077E-01
       -1   -1    0    0    0  501  0.00000000000E+00  0.00000000000E+00  0.93319083308E+03  0.93319083310E+03  0.50400001928E-02 0.  1.
        1   -1    0    0  501    0  0.00000000000E+00  0.00000000000E+00 -0.68508074937E+03  0.68508074938E+03  0.50400001928E-02 0. -1.
    10030    2    1    2    0    0  0.00000000000E+00  0.00000000000E+00  0.24811008372E+03  0.16182715825E+04  0.15991386122E+04 0.  0.
        1    1    3    3  502    0  0.24857103764E+03 -0.72732981152E+03 -0.98841170274E+02  0.77496180064E+03  0.50400001928E-02 0. -1.
       -1    1    3    3    0  502 -0.24857103764E+03  0.72732981152E+03  0.34695125399E+03  0.84330978184E+03  0.50400001928E-02 0.  1.
</event>
<event>
 5   0  0.1914170E-04  0.1599089E+04  0.7818609E-02  0.8821108E-01
       -2   -1    0    0    0  501  0.00000000000E+00  0.00000000000E+00  0.49047766100E+03  0.49047766101E+03  0.25500000920E-02 0.  1.
        2   -1    0    0  501    0  0.00000000000E+00  0.00000000000E+00 -0.13033647803E+04  0.13033647803E+04  0.25500000920E-02 0. -1.
    10030    2    1    2    0    0  0.00000000000E+00  0.00000000000E+00 -0.81288711929E+03  0.17938424413E+04  0.15990888767E+04 0.  0.
        3    1    3    3  502    0  0.50158624752E+03  0.59918076064E+03 -0.21651630314E+03  0.81085489908E+03  0.10100000352E+00 0.  1.
       -3    1    3    3    0  502 -0.50158624752E+03 -0.59918076064E+03 -0.59637081615E+03  0.98298754223E+03  0.10100000352E+00 0. -1.
</event>
<event>
 5   0  0.1774934E-04  0.1606394E+04  0.7818609E-02  0.8816629E-01
        2   -1    0    0  501    0  0.00000000000E+00  0.00000000000E+00  0.13721111388E+04  0.13721111388E+04  0.25500000920E-02 0. -1.
       -2   -1    0    0    0  501  0.00000000000E+00  0.00000000000E+00 -0.47017012534E+03  0.47017012535E+03  0.25500000920E-02 0.  1.
    10030    2    1    2    0    0  0.00000000000E+00  0.00000000000E+00  0.90194101347E+03  0.18422812642E+04  0.16063943054E+04 0.  0.
        1    1    3    3  502    0 -0.26418598101E+03  0.73967938837E+03  0.25836297434E+03  0.82684415502E+03  0.50400001928E-02 0.  1.
       -1    1    3    3    0  502  0.26418598101E+03 -0.73967938837E+03  0.64357803913E+03  0.10154371091E+04  0.50400001928E-02 0. -1.
</event>
<event>
 5   0  0.1914170E-04  0.1597801E+04  0.7818609E-02  0.8821900E-01
       -2   -1    0    0    0  501  0.00000000000E+00  0.00000000000E+00  0.36912337578E+03  0.36912337579E+03  0.25500000920E-02 0.  1.
        2   -1    0    0  501    0  0.00000000000E+00  0.00000000000E+00 -0.17290743975E+04  0.17290743975E+04  0.25500000920E-02 0. -1.
    10030    2    1    2    0    0  0.00000000000E+00  0.00000000000E+00 -0.13599510217E+04  0.20981977733E+04  0.15978007117E+04 0.  0.
        3    1    3    3  502    0 -0.32964897087E+02  0.58054137259E+03 -0.13993850621E+04  0.15153856050E+04  0.10100000352E+00 0. -1.
       -3    1    3    3    0  502  0.32964897087E+02 -0.58054137259E+03  0.39434040373E+02  0.58281216825E+03  0.10100000352E+00 0.  1.
</event>
<event>
 5   0  0.9726935E-05  0.1600558E+04  0.7818609E-02  0.8820205E-01
       -1   -1    0    0    0  501  0.00000000000E+00  0.00000000000E+00  0.55887522484E+03  0.55887522486E+03  0.50400001928E-02 0.  1.
        1   -1    0    0  501    0  0.00000000000E+00  0.00000000000E+00 -0.11459561915E+04  0.11459561915E+04  0.50400001928E-02 0. -1.
    10030    2    1    2    0    0  0.00000000000E+00  0.00000000000E+00 -0.58708096670E+03  0.17048314164E+04  0.16005580580E+04 0.  0.
        2    1    3    3  502    0  0.62642717044E+03  0.42568547522E+03 -0.18189081541E+02  0.75759485636E+03  0.25500000920E-02 0.  1.
       -2    1    3    3    0  502 -0.62642717044E+03 -0.42568547522E+03 -0.56889188516E+03  0.94723656005E+03  0.25500000920E-02 0. -1.
</event>
<event>
 5   0  0.1858913E-04  0.1597909E+04  0.7818609E-02  0.8821833E-01
        2   -1    0    0  501    0  0.00000000000E+00  0.00000000000E+00  0.19671749109E+04  0.19671749109E+04  0.25500000920E-02 0.  1.
       -2   -1    0    0    0  501  0.00000000000E+00  0.00000000000E+00 -0.32448993728E+03  0.32448993729E+03  0.25500000920E-02 0. -1.
    10030    2    1    2    0    0  0.00000000000E+00  0.00000000000E+00  0.16426849737E+04  0.22916648482E+04  0.15979092133E+04 0.  0.
        4    1    3    3  502    0  0.57831906331E+03  0.27372470996E+03  0.13511503385E+03  0.65393871357E+03  0.12699999809E+01 0. -1.
       -4    1    3    3    0  502 -0.57831906331E+03 -0.27372470996E+03  0.15075699398E+04  0.16377261347E+04  0.12699999809E+01 0.  1.
</event>
<event>
 5   0  0.9616567E-05  0.1597731E+04  0.7818609E-02  0.8821943E-01
       -1   -1    0    0    0  501  0.00000000000E+00  0.00000000000E+00  0.85613611095E+03  0.85613611097E+03  0.50400001928E-02 0.  1.
        1   -1    0    0  501    0  0.00000000000E+00  0.00000000000E+00 -0.74542550370E+03  0.74542550372E+03  0.50400001928E-02 0. -1.
    10030    2    1    2    0    0  0.00000000000E+00  0.00000000000E+00  0.11071060725E+03  0.16015616147E+04  0.15977305051E+04 0.  0.
        5    1    3    3  502    0  0.10928183158E+03  0.19828369179E+03  0.82328931611E+03  0.85386552171E+03  0.46999998093E+01 0.  1.
       -5    1    3    3    0  502 -0.10928183158E+03 -0.19828369179E+03 -0.71257870886E+03  0.74769609298E+03  0.46999998093E+01 0. -1.
</event>
<event>
 5   0  0.6838750E-05  0.1585435E+04  0.7818609E-02  0.8829546E-01
        4   -1    0    0  501    0  0.00000000000E+00  0.00000000000E+00  0.69076999729E+03  0.69077116475E+03  0.12699999809E+01 0.  1.
       -4   -1    0    0    0  501  0.00000000000E+00  0.00000000000E+00 -0.90970816291E+03  0.90970904940E+03  0.12699999809E+01 0. -1.
    10030    2    1    2    0    0  0.00000000000E+00  0.00000000000E+00 -0.21893816562E+03  0.16004802142E+04  0.15854346393E+04 0.  0.
        3    1    3    3  502    0  0.20721404447E+02  0.68804923618E+03 -0.50634063935E+03  0.85453026937E+03  0.10100000352E+00 0. -1.
       -3    1    3    3    0  502 -0.20721404447E+02 -0.68804923618E+03  0.28740247373E+03  0.74594994478E+03  0.10100000352E+00 0.  1.
</event>
<event>
 5   0  0.6838750E-05  0.1600017E+04  0.7818609E-02  0.8820537E-01
        3   -1    0    0  501    0  0.00000000000E+00  0.00000000000E+00  0.52431795483E+03  0.52431796455E+03  0.10100000352E+00 0. -1.
       -3   -1    0    0    0  501  0.00000000000E+00  0.00000000000E+00 -0.12206599433E+04  0.12206599475E+04  0.10100000352E+00 0.  1.
    10030    2    1    2    0    0  0.00000000000E+00  0.00000000000E+00 -0.69634198846E+03  0.17449779120E+04  0.16000174213E+04 0.  0.
        4    1    3    3  502    0 -0.37258889635E+03  0.76993670728E+02 -0.11156785230E+04  0.11787665971E+04  0.12699999809E+01 0.  1.
       -4    1    3    3    0  502  0.37258889635E+03 -0.76993670728E+02  0.41933653452E+03  0.56621131488E+03  0.12699999809E+01 0. -1.
</event>
<event>
 5   0  0.9726935E-05  0.1600662E+04  0.7818609E-02  0.8820141E-01
       -1   -1    0    0    0  501  0.00000000000E+00  0.00000000000E+00  0.60131532324E+03  0.60131532326E+03  0.50400001928E-02 0. -1.
        1   -1    0    0  501    0  0.00000000000E+00  0.00000000000E+00 -0.10652143521E+04  0.10652143522E+04  0.50400001928E-02 0.  1.
    10030    2    1    2    0    0  0.00000000000E+00  0.00000000000E+00 -0.46389902891E+03  0.16665296754E+04  0.16006620037E+04 0.  0.
        2    1    3    3  502    0 -0.37161073444E+03 -0.44198288043E+03  0.34500774492E+03  0.67266168957E+03  0.25500000920E-02 0. -1.
       -2    1    3    3    0  502  0.37161073444E+03  0.44198288043E+03 -0.80890677383E+03  0.99386798585E+03  0.25500000920E-02 0.  1.
</event>
<event>
 5   0  0.9939872E-05  0.1583330E+04  0.7818609E-02  0.8830855E-01
        1   -1    0    0  501    0  0.00000000000E+00  0.00000000000E+00  0.12014560562E+04  0.12014560562E+04  0.50400001928E-02 0. -1.
       -1   -1    0    0    0  501  0.00000000000E+00  0.00000000000E+00 -0.52164506934E+03  0.52164506936E+03  0.50400001928E-02 0.  1.
    10030    2    1    2    0    0  0.00000000000E+00  0.00000000000E+00  0.67981098689E+03  0.17231011256E+04  0.15833301965E+04 0.  0.
        3    1    3    3  502    0  0.38351574946E+03  0.42429858845E+03  0.93560147178E+03  0.10965690796E+04  0.10100000352E+00 0. -1.
       -3    1    3    3    0  502 -0.38351574946E+03 -0.42429858845E+03 -0.25579048489E+03  0.62653204595E+03  0.10100000352E+00 0.  1.
</event>
<event>
 5   0  0.9616567E-05  0.1599666E+04  0.7818609E-02  0.8820753E-01
        1   -1    0    0  501    0  0.00000000000E+00  0.00000000000E+00  0.16243397715E+04  0.16243397715E+04  0.50400001928E-02 0.  1.
       -1   -1    0    0    0  501  0.00000000000E+00  0.00000000000E+00 -0.39384166154E+03  0.39384166157E+03  0.50400001928E-02 0. -1.
    10030    2    1    2    0    0  0.00000000000E+00  0.00000000000E+00  0.12304981099E+04  0.20181814331E+04  0.15996658083E+04 0.  0.
        5    1    3    3  502    0 -0.60235283807E+03 -0.48047603497E+03  0.34458840540E+03  0.84406718977E+03  0.46999998093E+01 0. -1.
       -5    1    3    3    0  502  0.60235283807E+03  0.48047603497E+03  0.88590970455E+03  0.11741142433E+04  0.46999998093E+01 0.  1.
</event>
<event>
 5   0  0.1835088E-04  0.1604535E+04  0.7818609E-02  0.8817767E-01
        2   -1    0    0  501    0  0.00000000000E+00  0.00000000000E+00  0.15226319592E+04  0.15226319592E+04  0.25500000920E-02 0. -1.
       -2   -1    0    0    0  501  0.00000000000E+00  0.00000000000E+00 -0.42271065997E+03  0.42271065998E+03  0.25500000920E-02 0.  1.
    10030    2    1    2    0    0  0.00000000000E+00  0.00000000000E+00  0.10999212992E+04  0.19453426192E+04  0.16045345249E+04 0.  0.
        5    1    3    3  502    0 -0.36987680753E+03  0.51006049325E+03 -0.52153577022E+02  0.63222831723E+03  0.46999998093E+01 0.  1.
       -5    1    3    3    0  502  0.36987680753E+03 -0.51006049325E+03  0.11520748762E+04  0.13131143020E+04  0.46999998093E+01 0. -1.
</event>
<event>
 5   0  0.9673017E-05  0.1625009E+04  0.7818609E-02  0.8805329E-01
        1   -1    0    0  501    0  0.00000000000E+00  0.00000000000E+00  0.14957572152E+04  0.14957572152E+04  0.50400001928E-02 0. -1.
       -1   -1    0    0    0  501  0.00000000000E+00  0.00000000000E+00 -0.44135767945E+03  0.44135767948E+03  0.50400001928E-02 0.  1.
    10030    2    1    2    0    0  0.00000000000E+00  0.00000000000E+00  0.10543995358E+04  0.19371148947E+04  0.16250094567E+04 0.  0.
        1    1    3    3  502    0  0.31193936367E+03  0.42990166513E+03 -0.20574238698E+03  0.56960647653E+03  0.50400001928E-02 0.  1.
       -1    1    3    3    0  502 -0.31193936367E+03 -0.42990166513E+03  0.12601419228E+04  0.13675084182E+04  0.50400001928E-02 0. -1.
</event>
<event>
 5   0  0.9616567E-05  0.1595539E+04  0.7818609E-02  0.8823293E-01
       -1   -1    0    0    0  501  0.00000000000E+00  0.00000000000E+00  0.89165231768E+03  0.89165231770E+03  0.50400001928E-02 0.  1.
        1   -1    0    0  501    0  0.00000000000E+00  0.00000000000E+00 -0.71377165452E+03  0.71377165453E+03  0.50400001928E-02 0. -1.
    10030    2    1    2    0    0  0.00000000000E+00  0.00000000000E+00  0.17788066317E+03  0.16054239722E+04  0.15955389686E+04 0.  0.
        5    1    3    3  502    0 -0.15310231706E+03  0.67095958541E+03 -0.31702799815E+03  0.75773077432E+03  0.46999998093E+01 0.  1.
       -5    1    3    3    0  502  0.15310231706E+03 -0.67095958541E+03  0.49490866132E+03  0.84769319791E+03  0.46999998093E+01 0. -1.
</event>
<event>
 5   0  0.9432152E-05  0.1590806E+04  0.7818609E-02  0.8826216E-01
       -1   -1    0    0    0  501  0.00000000000E+00  0.00000000000E+00  0.15537193796E+04  0.15537193796E+04  0.50400001928E-02 0. -1.
        1   -1    0    0  501    0  0.00000000000E+00  0.00000000000E+00 -0.40719465574E+03  0.40719465577E+03  0.50400001928E-02 0.  1.
    10030    2    1    2    0    0  0.00000000000E+00  0.00000000000E+00  0.11465247239E+04  0.19609140354E+04  0.15908063716E+04 0.  0.
        4    1    3    3  502    0 -0.34115356847E+03 -0.27906851494E+03 -0.24289954074E+03  0.50325619033E+03  0.12699999809E+01 0.  1.
       -4    1    3    3    0  502  0.34115356847E+03  0.27906851494E+03  0.13894242646E+04  0.14576578451E+04  0.12699999809E+01 0. -1.
</event>
<event>
 5   0  0.9726935E-05  0.1631606E+04  0.7818609E-02  0.8801363E-01
       -1   -1    0    0    0  501  0.00000000000E+00  0.00000000000E+00  0.63683851743E+03  0.63683851745E+03  0.50400001928E-02 0.  1.
        1   -1    0    0  501    0  0.00000000000E+00  0.00000000000E+00 -0.10450604897E+04  0.10450604897E+04  0.50400001928E-02 0. -1.
    10030    2    1    2    0    0  0.00000000000E+00  0.00000000000E+00 -0.40822197230E+03  0.16818990072E+04  0.16316062919E+04 0.  0.
        2    1    3    3  502    0  0.41567748988E+02 -0.51399208662E+03 -0.85575081884E+03  0.99911220932E+03  0.25500000920E-02 0. -1.
       -2    1    3    3    0  502 -0.41567748988E+02  0.51399208662E+03  0.44752884654E+03  0.68278679788E+03  0.25500000920E-02 0.  1.
</event>
<event>
 5   0  0.1832646E-04  0.1606583E+04  0.7818609E-02  0.8816514E-01
        2   -1    0    0  501    0  0.00000000000E+00  0.00000000000E+00  0.10237489558E+04  0.10237489558E+04  0.25500000920E-02 0. -1.
       -2   -1    0    0    0  501  0.00000000000E+00  0.00000000000E+00 -0.63030780366E+03  0.63030780366E+03  0.25500000920E-02 0.  1.
    10030    2    1    2    0    0  0.00000000000E+00  0.00000000000E+00  0.39344115211E+03  0.16540567594E+04  0.16065826537E+04 0.  0.
        2    1    3    3  502    0 -0.37528460249E+03 -0.52766469094E+03  0.68617202919E+03  0.94345143626E+03  0.25500000920E-02 0. -1.
       -2    1    3    3    0  502  0.37528460249E+03  0.52766469094E+03 -0.29273087708E+03  0.71060532318E+03  0.25500000920E-02 0.  1.
</event>
<event>
 5   0  0.1914170E-04  0.1599660E+04  0.7818609E-02  0.8820757E-01
       -2   -1    0    0    0  501  0.00000000000E+00  0.00000000000E+00  0.94349815879E+03  0.94349815879E+03  0.25500000920E-02 0. -1.
        2   -1    0    0  501    0  0.00000000000E+00  0.00000000000E+00 -0.67803840733E+03  0.67803840733E+03  0.25500000920E-02 0.  1.
    10030    2    1    2    0    0  0.00000000000E+00  0.00000000000E+00  0.26545975146E+03  0.16215365661E+04  0.15996599500E+04 0.  0.
        3    1    3    3  502    0 -0.37046088924E+03 -0.49125121862E+03 -0.38529609177E+03  0.72596289078E+03  0.10100000352E+00 0.  1.
       -3    1    3    3    0  502  0.37046088924E+03  0.49125121862E+03  0.65075584324E+03  0.89557367534E+03  0.10100000352E+00 0. -1.
</event>
<event>
 5   0  0.1858913E-04  0.1629708E+04  0.7818609E-02  0.8802502E-01
       -2   -1    0    0    0  501  0.00000000000E+00  0.00000000000E+00  0.57481920189E+03  0.57481920190E+03  0.25500000920E-02 0.  1.
        2   -1    0    0  501    0  0.00000000000E+00  0.00000000000E+00 -0.11551237348E+04  0.11551237348E+04  0.25500000920E-02 0. -1.
    10030    2    1    2    0    0  0.00000000000E+00  0.00000000000E+00 -0.58030453290E+03  0.17299429367E+04  0.16297083215E+04 0.  0.
        4    1    3    3  502    0  0.75982323002E+03 -0.15985549864E+03 -0.55254060068E+03  0.95298890320E+03  0.12699999809E+01 0.  1.
       -4    1    3    3    0  502 -0.75982323002E+03  0.15985549864E+03 -0.27763932222E+02  0.77695403349E+03  0.12699999809E+01 0. -1.
</event>
<event>
 5   0  0.9616567E-05  0.1600704E+04  0.7818609E-02  0.8820116E-01
       -1   -1    0    0    0  501  0.00000000000E+00  0.00000000000E+00  0.10513119550E+04  0.10513119550E+04  0.50400001928E-02 0.  1.
        1   -1    0    0  501    0  0.00000000000E+00  0.00000000000E+00 -0.60929868433E+03  0.60929868435E+03  0.50400001928E-02 0. -1.
    10030    2    1    2    0    0  0.00000000000E+00  0.00000000000E+00  0.44201327063E+03  0.16606106393E+04  0.16007035841E+04 0.  0.
        5    1    3    3  502    0 -0.32724764056E+03  0.51440382692E+03 -0.31689479568E+03  0.68712933057E+03  0.46999998093E+01 0. -1.
       -5    1    3    3    0  502  0.32724764056E+03 -0.51440382692E+03  0.75890806631E+03  0.97348130876E+03  0.46999998093E+01 0.  1.
</event>
<event>
 5   0  0.1774934E-04  0.1598201E+04  0.7818609E-02  0.8821654E-01
        2   -1    0    0  501    0  0.00000000000E+00  0.00000000000E+00  0.10265128121E+04  0.10265128121E+04  0.25500000920E-02 0.  1.
       -2   -1    0    0    0  501  0.00000000000E+00  0.00000000000E+00 -0.62206888142E+03  0.62206888143E+03  0.25500000920E-02 0. -1.
    10030    2    1    2    0    0  0.00000000000E+00  0.00000000000E+00  0.40444393070E+03  0.16485816936E+04  0.15982010847E+04 0.  0.
        1    1    3    3  502    0  0.59226840608E+03  0.39467502027E+03  0.57700923997E+03  0.91623681410E+03  0.50400001928E-02 0.  1.
       -1    1    3    3    0  502 -0.59226840608E+03 -0.39467502027E+03 -0.17256530927E+03  0.73234487945E+03  0.50400001928E-02 0. -1.
</event>
<event>
 5   0  0.1835088E-04  0.1596487E+04  0.7818609E-02  0.8822709E-01
        2   -1    0    0  501    0  0.00000000000E+00  0.00000000000E+00  0.17905136308E+04  0.17905136308E+04  0.25500000920E-02 0.  1.
       -2   -1    0    0    0  501  0.00000000000E+00  0.00000000000E+00 -0.35587164514E+03  0.35587164515E+03  0.25500000920E-02 0. -1.
    10030    2    1    2    0    0  0.00000000000E+00  0.00000000000E+00  0.14346419857E+04  0.21463852759E+04  0.15964874336E+04 0.  0.
        5    1    3    3  502    0  0.41003849089E+03  0.14170193543E+03  0.16181574857E+04  0.16753109386E+04  0.46999998093E+01 0.  1.
       -5    1    3    3    0  502 -0.41003849089E+03 -0.14170193543E+03 -0.18351550006E+03  0.47107433731E+03  0.46999998093E+01 0. -1.
</event>
<event>
 5   0  0.9432152E-05  0.1588035E+04  0.7818609E-02  0.8827933E-01
       -1   -1    0    0    0  501  0.00000000000E+00  0.00000000000E+00  0.11555988905E+04  0.11555988905E+04  0.50400001928E-02 0.  1.
        1   -1    0    0  501    0  0.00000000000E+00  0.00000000000E+00 -0.54557299372E+03  0.54557299374E+03  0.50400001928E-02 0. -1.
    10030    2    1    2    0    0  0.00000000000E+00  0.00000000000E+00  0.61002589681E+03  0.17011718843E+04  0.15880346927E+04 0.  0.
        4    1    3    3  502    0  0.45861231301E+03  0.57774731281E+03 -0.97663107716E+01  0.73770875339E+03  0.12699999809E+01 0.  1.
       -4    1    3    3    0  502 -0.45861231301E+03 -0.57774731281E+03  0.61979220758E+03  0.96346313089E+03  0.12699999809E+01 0. -1.
</event>
<event>
 5   0  0.9726935E-05  0.1598677E+04  0.7818609E-02  0.8821361E-01
       -1   -1    0    0    0  501  0.00000000000E+00  0.00000000000E+00  0.82327034579E+03  0.82327034580E+03  0.50400001928E-02 0.  1.
        1   -1    0    0  501    0  0.00000000000E+00  0.00000000000E+00 -0.77610187921E+03  0.77610187923E+03  0.50400001928E-02 0. -1.
    10030    2    1    2    0    0  0.00000000000E+00  0.00000000000E+00  0.47168466576E+02  0.15993722250E+04  0.15986765307E+04 0.  0.
        2    1    3    3  502    0  0.30420857515E+03  0.43052818933E+03 -0.57754685252E+03  0.78195763688E+03  0.25500000920E-02 0. -1.
       -2    1    3    3    0  502 -0.30420857515E+03 -0.43052818933E+03  0.62471531910E+03  0.81741458815E+03  0.25500000920E-02 0.  1.
</event>
<event>
 5   0  0.9726935E-05  0.1605235E+04  0.7818609E-02  0.8817338E-01
       -1   -1    0    0    0  501  0.00000000000E+00  0.00000000000E+00  0.35522657309E+03  0.35522657312E+03  0.50400001928E-02 0. -1.
        1   -1    0    0  501    0  0.00000000000E+00  0.00000000000E+00 -0.18134757632E+04  0.18134757632E+04  0.50400001928E-02 0.  1.
    10030    2    1    2    0    0  0.00000000000E+00  0.00000000000E+00 -0.14582491901E+04  0.21687023363E+04  0.16052349121E+04 0.  0.
        2    1    3    3  502    0 -0.46468214689E+03  0.81859463517E+02  0.14806459173E+03  0.49452360180E+03  0.25500000920E-02 0. -1.
       -2    1    3    3    0  502  0.46468214689E+03 -0.81859463517E+02 -0.16063137818E+04  0.16741787345E+04  0.25500000920E-02 0.  1.
</event>
<event>
 5   0  0.9939872E-05  0.1625172E+04  0.7818609E-02  0.8805231E-01
        1   -1    0    0  501    0  0.00000000000E+00  0.00000000000E+00  0.15577488352E+04  0.15577488352E+04  0.50400001928E-02 0.  1.
       -1   -1    0    0    0  501  0.00000000000E+00  0.00000000000E+00 -0.42387856315E+03  0.42387856318E+03  0.50400001928E-02 0. -1.
    10030    2    1    2    0    0  0.00000000000E+00  0.00000000000E+00  0.11338702720E+04  0.19816273984E+04  0.16251724069E+04 0.  0.
        3    1    3    3  502    0 -0.74768603991E+03 -0.73700953380E+02  0.18947291545E+03  0.77483304053E+03  0.10100000352E+00 0.  1.
       -3    1    3    3    0  502  0.74768603991E+03  0.73700953380E+02  0.94439735655E+03  0.12067943578E+04  0.10100000352E+00 0. -1.
</event>
<event>
 5   0  0.9726935E-05  0.1604740E+04  0.7818609E-02  0.8817641E-01
       -1   -1    0    0    0  501  0.00000000000E+00  0.00000000000E+00  0.52287937056E+03  0.52287937058E+03  0.50400001928E-02 0.  1.
        1   -1    0    0  501    0  0.00000000000E+00  0.00000000000E+00 -0.12312548554E+04  0.12312548554E+04  0.50400001928E-02 0. -1.
    10030    2    1    2    0    0  0.00000000000E+00  0.00000000000E+00 -0.70837548480E+03  0.17541342260E+04  0.16047401831E+04 0.  0.
        2    1    3    3  502    0  0.65544204205E+03 -0.64701560918E+02  0.14674011997E+03  0.67477642615E+03  0.25500000920E-02 0.  1.
       -2    1    3    3    0  502 -0.65544204205E+03  0.64701560918E+02 -0.85511560477E+03  0.10793577998E+04  0.25500000920E-02 0. -1.
</event>
<event>
 5   0  0.1832646E-04  0.1612772E+04  0.7818609E-02  0.8812740E-01
       -2   -1    0    0    0  501  0.00000000000E+00  0.00000000000E+00  0.74038408312E+03  0.74038408312E+03  0.25500000920E-02 0. -1.
        2   -1    0    0  501    0  0.00000000000E+00  0.00000000000E+00 -0.87827139540E+03  0.87827139541E+03  0.25500000920E-02 0.  1.
    10030    2    1    2    0    0  0.00000000000E+00  0.00000000000E+00 -0.13788731228E+03  0.16186554785E+04  0.16127717282E+04 0.  0.
        2    1    3    3  502    0  0.20138078841E+03  0.11612975673E+03  0.70602474679E+03  0.74331102873E+03  0.25500000920E-02 0. -1.
       -2    1    3    3    0  502 -0.20138078841E+03 -0.11612975673E+03 -0.84391205908E+03  0.87534444980E+03  0.25500000920E-02 0.  1.
</event>
<event>
 5   0  0.1832646E-04  0.1610546E+04  0.7818609E-02  0.8814095E-01
       -2   -1    0    0    0  501  0.00000000000E+00  0.00000000000E+00  0.73813932898E+03  0.73813932898E+03  0.25500000920E-02 0. -1.
        2   -1    0    0  501    0  0.00000000000E+00  0.00000000000E+00 -0.87851249034E+03  0.87851249034E+03  0.25500000920E-02 0.  1.
    10030    2    1    2    0    0  0.00000000000E+00  0.00000000000E+00 -0.14037316136E+03  0.16166518193E+04  0.16105460194E+04 0.  0.
        2    1    3    3  502    0  0.19046560654E+02 -0.32275066545E+03  0.67012816962E+03  0.74404470782E+03  0.25500000920E-02 0. -1.
       -2    1    3    3    0  502 -0.19046560654E+02  0.32275066545E+03 -0.81050133098E+03  0.87260711150E+03  0.25500000920E-02 0.  1.
</event>
<event>
 5   0  0.1914170E-04  0.1600173E+04  0.7818609E-02  0.8820442E-01
        2   -1    0    0  501    0  0.00000000000E+00  0.00000000000E+00  0.22803048962E+04  0.22803048962E+04  0.25500000920E-02 0.  1.
       -2   -1    0    0    0  501  0.00000000000E+00  0.00000000000E+00 -0.28072478256E+03  0.28072478257E+03  0.25500000920E-02 0. -1.
    10030    2    1    2    0    0  0.00000000000E+00  0.00000000000E+00  0.19995801137E+04  0.25610296788E+04  0.16001726109E+04 0.  0.
        3    1    3    3  502    0 -0.33295941141E+03 -0.69128822270E+02  0.21588860817E+04  0.21855044927E+04  0.10100000352E+00 0.  1.
       -3    1    3    3    0  502  0.33295941141E+03  0.69128822270E+02 -0.15930596805E+03  0.37552518607E+03  0.10100000352E+00 0. -1.
</event>
<event>
 5   0  0.9673017E-05  0.1602121E+04  0.7818609E-02  0.8819246E-01
       -1   -1    0    0    0  501  0.00000000000E+00  0.00000000000E+00  0.44160833590E+03  0.44160833593E+03  0.50400001928E-02 0. -1.
        1   -1    0    0  501    0  0.00000000000E+00  0.00000000000E+00 -0.14530922548E+04  0.14530922548E+04  0.50400001928E-02 0.  1.
    10030    2    1    2    0    0  0.00000000000E+00  0.00000000000E+00 -0.10114839189E+04  0.18947005907E+04  0.16021206604E+04 0.  0.
        1    1    3    3  502    0  0.13909817682E+03 -0.70869538320E+03 -0.95899224131E+02  0.72855618189E+03  0.50400001928E-02 0. -1.
       -1    1    3    3    0  502 -0.13909817682E+03  0.70869538320E+03 -0.91558469477E+03  0.11661444088E+04  0.50400001928E-02 0.  1.
</event>
<event>
 5   0  0.9726935E-05  0.1592549E+04  0.7818609E-02  0.8825138E-01
        1   -1    0    0  501    0  0.00000000000E+00  0.00000000000E+00  0.98167201282E+03  0.98167201283E+03  0.50400001928E-02 0. -1.
       -1   -1    0    0    0  501  0.00000000000E+00  0.00000000000E+00 -0.64589115139E+03  0.64589115141E+03  0.50400001928E-02 0.  1.
    10030    2    1    2    0    0  0.00000000000E+00  0.00000000000E+00  0.33578086143E+03  0.16275631642E+04  0.15925492352E+04 0.  0.
        2    1    3    3  502    0  0.25832070541E+03 -0.68423649920E+03  0.48968477457E+03  0.88017063808E+03  0.25500000920E-02 0. -1.
       -2    1    3    3    0  502 -0.25832070541E+03  0.68423649920E+03 -0.15390391314E+03  0.74739252616E+03  0.25500000920E-02 0.  1.
</event>
<event>
 5   0  0.9726935E-05  0.1608482E+04  0.7818609E-02  0.8815354E-01
       -1   -1    0    0    0  501  0.00000000000E+00  0.00000000000E+00  0.89509430727E+03  0.89509430728E+03  0.50400001928E-02 0. -1.
        1   -1    0    0  501    0  0.00000000000E+00  0.00000000000E+00 -0.72260950906E+03  0.72260950908E+03  0.50400001928E-02 0.  1.
    10030    2    1    2    0    0  0.00000000000E+00  0.00000000000E+00  0.17248479821E+03  0.16177038164E+04  0.16084820894E+04 0.  0.
        2    1    3    3  502    0 -0.11573822972E+03  0.72876507997E+03  0.40793520784E+03  0.84315183295E+03  0.25500000920E-02 0. -1.
       -2    1    3    3    0  502  0.11573822972E+03 -0.72876507997E+03 -0.23545040963E+03  0.77455198341E+03  0.25500000920E-02 0.  1.
</event>
<event>
 5   0  0.1914170E-04  0.1599405E+04  0.7818609E-02  0.8820913E-01
       -2   -1    0    0    0  501  0.00000000000E+00  0.00000000000E+00  0.43136964300E+03  0.43136964300E+03  0.25500000920E-02 0.  1.
        2   -1    0    0  501    0  0.00000000000E+00  0.00000000000E+00 -0.14825437373E+04  0.14825437373E+04  0.25500000920E-02 0. -1.
    10030    2    1    2    0    0  0.00000000000E+00  0.00000000000E+00 -0.10511740943E+04  0.19139133803E+04  0.15994053429E+04 0.  0.
        3    1    3    3  502    0 -0.51226966687E+03  0.47127081616E+03 -0.99671702024E+03  0.12157142849E+04  0.10100000352E+00 0. -1.
       -3    1    3    3    0  502  0.51226966687E+03 -0.47127081616E+03 -0.54457074052E+02  0.69819909544E+03  0.10100000352E+00 0.  1.
</event>
<event>
 5   0  0.1832646E-04  0.1593234E+04  0.7818609E-02  0.8824716E-01
       -2   -1    0    0    0  501  0.00000000000E+00  0.00000000000E+00  0.10413179952E+04  0.10413179952E+04  0.25500000920E-02 0. -1.
        2   -1    0    0  501    0  0.00000000000E+00  0.00000000000E+00 -0.60941839469E+03  0.60941839469E+03  0.25500000920E-02 0.  1.
    10030    2    1    2    0    0  0.00000000000E+00  0.00000000000E+00  0.43189960056E+03  0.16507363899E+04  0.15932336188E+04 0.  0.
        2    1    3    3  502    0 -0.14368802253E+03  0.11198155357E+03 -0.58754743962E+03  0.61514072372E+03  0.25500000920E-02 0.  1.
       -2    1    3    3    0  502  0.14368802253E+03 -0.11198155357E+03  0.10194470402E+04  0.10355956662E+04  0.25500000920E-02 0. -1.
</event>
<event>
 5   0  0.1832646E-04  0.1599323E+04  0.7818609E-02  0.8820964E-01
       -2   -1    0    0    0  501  0.00000000000E+00  0.00000000000E+00  0.77191444872E+03  0.77191444873E+03  0.25500000920E-02 0. -1.
        2   -1    0    0  501    0  0.00000000000E+00  0.00000000000E+00 -0.82840546406E+03  0.82840546406E+03  0.25500000920E-02 0.  1.
    10030    2    1    2    0    0  0.00000000000E+00  0.00000000000E+00 -0.56491015335E+02  0.16003199128E+04  0.15993225405E+04 0.  0.
        2    1    3    3  502    0  0.75316853265E+03  0.18847115526E+03  0.16337831067E+03  0.79339566885E+03  0.25500000920E-02 0.  1.
       -2    1    3    3    0  502 -0.75316853265E+03 -0.18847115526E+03 -0.21986932600E+03  0.80692424394E+03  0.25500000920E-02 0. -1.
</event>
<event>
 5   0  0.9432152E-05  0.1601340E+04  0.7818609E-02  0.8819725E-01
       -1   -1    0    0    0  501  0.00000000000E+00  0.00000000000E+00  0.42659990213E+03  0.42659990216E+03  0.50400001928E-02 0. -1.
        1   -1    0    0  501    0  0.00000000000E+00  0.00000000000E+00 -0.15027491670E+04  0.15027491670E+04  0.50400001928E-02 0.  1.
    10030    2    1    2    0    0  0.00000000000E+00  0.00000000000E+00 -0.10761492648E+04  0.19293490691E+04  0.16013402482E+04 0.  0.
        4    1    3    3  502    0  0.27133752152E+03  0.57884877007E+03  0.42726665911E+02  0.64071610724E+03  0.12699999809E+01 0. -1.
       -4    1    3    3    0  502 -0.27133752152E+03 -0.57884877007E+03 -0.11188759308E+04  0.12886329619E+04  0.12699999809E+01 0.  1.
</event>
<event>
 5   0  0.6838750E-05  0.1603447E+04  0.7818609E-02  0.8818433E-01
        3   -1    0    0  501    0  0.00000000000E+00  0.00000000000E+00  0.68686380886E+03  0.68686381629E+03  0.10100000352E+00 0.  1.
       -3   -1    0    0    0  501  0.00000000000E+00  0.00000000000E+00 -0.93578997615E+03  0.93578998160E+03  0.10100000352E+00 0. -1.
    10030    2    1    2    0    0  0.00000000000E+00  0.00000000000E+00 -0.24892616729E+03  0.16226537979E+04  0.16034466349E+04 0.  0.
        2    1    3    3  502    0  0.49891780842E+03  0.82728934025E+02  0.50507974868E+03  0.71475073181E+03  0.25500000920E-02 0.  1.
       -2    1    3    3    0  502 -0.49891780842E+03 -0.82728934025E+02 -0.75400591596E+03  0.90790306608E+03  0.25500000920E-02 0. -1.
</event>
<event>
 5   0  0.1774934E-04  0.1600667E+04  0.7818609E-02  0.8820138E-01
       -2   -1    0    0    0  501  0.00000000000E+00  0.00000000000E+00  0.29884961840E+03  0.29884961841E+03  0.25500000920E-02 0. -1.
        2   -1    0    0  501    0  0.00000000000E+00  0.00000000000E+00 -0.21433319667E+04  0.21433319667E+04  0.25500000920E-02 0.  1.
    10030    2    1    2    0    0  0.00000000000E+00  0.00000000000E+00 -0.18444823483E+04  0.24421815851E+04  0.16006672863E+04 0.  0.
        1    1    3    3  502    0 -0.57362031714E+03 -0.43838531824E+03 -0.14492512498E+04  0.16191204837E+04  0.50400001928E-02 0.  1.
       -1    1    3    3    0  502  0.57362031714E+03  0.43838531824E+03 -0.39523109847E+03  0.82306110144E+03  0.50400001928E-02 0. -1.
</event>
<event>
 5   0  0.1914170E-04  0.1601830E+04  0.7818609E-02  0.8819425E-01
       -2   -1    0    0    0  501  0.00000000000E+00  0.00000000000E+00  0.83196036652E+03  0.83196036652E+03  0.25500000920E-02 0.  1.
        2   -1    0    0  501    0  0.00000000000E+00  0.00000000000E+00 -0.77102795498E+03  0.77102795498E+03  0.25500000920E-02 0. -1.
    10030    2    1    2    0    0  0.00000000000E+00  0.00000000000E+00  0.60932411541E+02  0.16029883215E+04  0.16018298287E+04 0.  0.
        3    1    3    3  502    0  0.75821286799E+03 -0.97488968964E+02 -0.20860788851E+03  0.79240653304E+03  0.10100000352E+00 0.  1.
       -3    1    3    3    0  502 -0.75821286799E+03  0.97488968964E+02  0.26954030005E+03  0.81058178847E+03  0.10100000352E+00 0. -1.
</event>
<event>
 5   0  0.9726935E-05  0.1597690E+04  0.7818609E-02  0.8821968E-01
        1   -1    0    0  501    0  0.00000000000E+00  0.00000000000E+00  0.17543556393E+04  0.17543556393E+04  0.50400001928E-02 0.  1.
       -1   -1    0    0    0  501  0.00000000000E+00  0.00000000000E+00 -0.36375368274E+03  0.36375368278E+03  0.50400001928E-02 0. -1.
    10030    2    1    2    0    0  0.00000000000E+00  0.00000000000E+00  0.13906019565E+04  0.21181093221E+04  0.15976899883E+04 0.  0.
        2    1    3    3  502    0  0.21009562570E+03  0.50799454356E+03 -0.73114697924E+02  0.55456684654E+03  0.25500000920E-02 0. -1.
       -2    1    3    3    0  502 -0.21009562570E+03 -0.50799454356E+03  0.14637166545E+04  0.15635424755E+04  0.25500000920E-02 0.  1.
</event>
<event>
 5   0  0.1914170E-04  0.1581046E+04  0.7818609E-02  0.8832277E-01
        2   -1    0    0  501    0  0.00000000000E+00  0.00000000000E+00  0.13302430471E+04  0.13302430471E+04  0.25500000920E-02 0. -1.
       -2   -1    0    0    0  501  0.00000000000E+00  0.00000000000E+00 -0.46978407907E+03  0.46978407908E+03  0.25500000920E-02 0.  1.
    10030    2    1    2    0    0  0.00000000000E+00  0.00000000000E+00  0.86045896804E+03  0.18000271262E+04  0.15810464950E+04 0.  0.
        3    1    3    3  502    0  0.53554698977E+03 -0.49175677006E+03  0.76941533746E+02  0.73113289419E+03  0.10100000352E+00 0.  1.
       -3    1    3    3    0  502 -0.53554698977E+03  0.49175677006E+03  0.78351743430E+03  0.10688942320E+04  0.10100000352E+00 0. -1.
</event>
<event>
 5   0  0.1832646E-04  0.1586248E+04  0.7818609E-02  0.8829041E-01
       -2   -1    0    0    0  501  0.00000000000E+00  0.00000000000E+00  0.11391718606E+04  0.11391718606E+04  0.25500000920E-02 0.  1.
        2   -1    0    0  501    0  0.00000000000E+00  0.00000000000E+00 -0.55219533324E+03  0.55219533325E+03  0.25500000920E-02 0. -1.
    10030    2    1    2    0    0  0.00000000000E+00  0.00000000000E+00  0.58697652740E+03  0.16913671939E+04  0.15862476291E+04 0.  0.
        2    1    3    3  502    0 -0.26915329918E+03  0.28479593491E+03  0.10287450720E+04  0.11008490570E+04  0.25500000920E-02 0.  1.
       -2    1    3    3    0  502  0.26915329918E+03 -0.28479593491E+03 -0.44176854463E+03  0.59051813692E+03  0.25500000920E-02 0. -1.
</event>
<event>
 5   0  0.1835088E-04  0.1601406E+04  0.7818609E-02  0.8819685E-01
       -2   -1    0    0    0  501  0.00000000000E+00  0.00000000000E+00  0.60901583228E+03  0.60901583228E+03  0.25500000920E-02 0. -1.
        2   -1    0    0  501    0  0.00000000000E+00  0.00000000000E+00 -0.10527229351E+04  0.10527229351E+04  0.25500000920E-02 0.  1.
    10030    2    1    2    0    0  0.00000000000E+00  0.00000000000E+00 -0.44370710282E+03  0.16617387674E+04  0.16014055507E+04 0.  0.
        5    1    3    3  502    0 -0.95288193348E+02  0.48948462682E+03  0.42818828388E+03  0.65729927441E+03  0.46999998093E+01 0. -1.
       -5    1    3    3    0  502  0.95288193348E+02 -0.48948462682E+03 -0.87189538670E+03  0.10044394930E+04  0.46999998093E+01 0.  1.
</event>
<event>
 5   0  0.9939872E-05  0.1569501E+04  0.7818609E-02  0.8839507E-01
       -1   -1    0    0    0  501  0.00000000000E+00  0.00000000000E+00  0.58016722479E+03  0.58016722481E+03  0.50400001928E-02 0. -1.
        1   -1    0    0  501    0  0.00000000000E+00  0.00000000000E+00 -0.10614761056E+04  0.10614761056E+04  0.50400001928E-02 0.  1.
    10030    2    1    2    0    0  0.00000000000E+00  0.00000000000E+00 -0.48130888084E+03  0.16416433305E+04  0.15695013812E+04 0.  0.
        3    1    3    3  502    0  0.17174917175E+03  0.12980623479E+03  0.54867573622E+03  0.58940012750E+03  0.10100000352E+00 0. -1.
       -3    1    3    3    0  502 -0.17174917175E+03 -0.12980623479E+03 -0.10299846171E+04  0.10522432030E+04  0.10100000352E+00 0.  1.
</event>
<event>
 5   0  0.9616567E-05  0.1629940E+04  0.7818609E-02  0.8802363E-01
       -1   -1    0    0    0  501  0.00000000000E+00  0.00000000000E+00  0.94234720213E+03  0.94234720214E+03  0.50400001928E-02 0. -1.
        1   -1    0    0  501    0  0.00000000000E+00  0.00000000000E+00 -0.70481011176E+03  0.70481011178E+03  0.50400001928E-02 0.  1.
    10030    2    1    2    0    0  0.00000000000E+00  0.00000000000E+00  0.23753709037E+03  0.16471573139E+04  0.16299396760E+04 0.  0.
        5    1    3    3  502    0  0.59980524241E+03 -0.48676788679E+03 -0.14367544487E+03  0.78573152405E+03  0.46999998093E+01 0. -1.
       -5    1    3    3    0  502 -0.59980524241E+03  0.48676788679E+03  0.38121253523E+03  0.86142578987E+03  0.46999998093E+01 0.  1.
</event>
<event>
 5   0  0.1774934E-04  0.1580439E+04  0.7818609E-02  0.8832656E-01
        2   -1    0    0  501    0  0.00000000000E+00  0.00000000000E+00  0.72232824666E+03  0.72232824666E+03  0.25500000920E-02 0.  1.
       -2   -1    0    0    0  501  0.00000000000E+00  0.00000000000E+00 -0.86449165705E+03  0.86449165705E+03  0.25500000920E-02 0. -1.
    10030    2    1    2    0    0  0.00000000000E+00  0.00000000000E+00 -0.14216341039E+03  0.15868199037E+04  0.15804388541E+04 0.  0.
        1    1    3    3  502    0  0.26696767455E+03 -0.16117822876E+03  0.65793290866E+03  0.72809743373E+03  0.50400001928E-02 0.  1.
       -1    1    3    3    0  502 -0.26696767455E+03  0.16117822876E+03 -0.80009631904E+03  0.85872246998E+03  0.50400001928E-02 0. -1.
</event>
<event>
 5   0  0.9726935E-05  0.1582238E+04  0.7818609E-02  0.8831535E-01
        1   -1    0    0  501    0  0.00000000000E+00  0.00000000000E+00  0.13133864176E+04  0.13133864176E+04  0.50400001928E-02 0. -1.
       -1   -1    0    0    0  501  0.00000000000E+00  0.00000000000E+00 -0.47653114936E+03  0.47653114939E+03  0.50400001928E-02 0.  1.
    10030    2    1    2    0    0  0.00000000000E+00  0.00000000000E+00  0.83685526821E+03  0.17899175670E+04  0.15822383375E+04 0.  0.
        2    1    3    3  502    0  0.24331836253E+03 -0.43986412601E+03  0.11094997509E+04  0.12180615634E+04  0.25500000920E-02 0. -1.
       -2    1    3    3    0  502 -0.24331836253E+03  0.43986412601E+03 -0.27264448270E+03  0.57185600360E+03  0.25500000920E-02 0.  1.
</event>
<event>
 5   0  0.1832646E-04  0.1602595E+04  0.7818609E-02  0.8818955E-01
       -2   -1    0    0    0  501  0.00000000000E+00  0.00000000000E+00  0.85216512559E+03  0.85216512559E+03  0.25500000920E-02 0. -1.
        2   -1    0    0  501    0  0.00000000000E+00  0.00000000000E+00 -0.75346658176E+03  0.75346658176E+03  0.25500000920E-02 0.  1.
    10030    2    1    2    0    0  0.00000000000E+00  0.00000000000E+00  0.98698543834E+02  0.16056317074E+04  0.16025953254E+04 0.  0.
        2    1    3    3  502    0 -0.60965029209E+02 -0.75541404537E+03  0.31005533503E+03  0.81884151428E+03  0.25500000920E-02 0. -1.
       -2    1    3    3    0  502  0.60965029209E+02  0.75541404537E+03 -0.21135679120E+03  0.78679019307E+03  0.25500000920E-02 0.  1.
</event>
<event>
 5   0  0.9673017E-05  0.1600972E+04  0.7818609E-02  0.8819951E-01
       -1   -1    0    0    0  501  0.00000000000E+00  0.00000000000E+00  0.45064893809E+03  0.45064893811E+03  0.50400001928E-02 0.  1.
        1   -1    0    0  501    0  0.00000000000E+00  0.00000000000E+00 -0.14219010850E+04  0.14219010850E+04  0.50400001928E-02 0. -1.
    10030    2    1    2    0    0  0.00000000000E+00  0.00000000000E+00 -0.97125214688E+03  0.18725500231E+04  0.16009724720E+04 0.  0.
        1    1    3    3  502    0 -0.51926553868E+02  0.65597273075E+03  0.47528490712E+02  0.65973899987E+03  0.50400001928E-02 0.  1.
       -1    1    3    3    0  502  0.51926553868E+02 -0.65597273075E+03 -0.10187806376E+04  0.12128110232E+04  0.50400001928E-02 0. -1.
</event>
<event>
 5   0  0.1858913E-04  0.1601248E+04  0.7818609E-02  0.8819782E-01
       -2   -1    0    0    0  501  0.00000000000E+00  0.00000000000E+00  0.43977517779E+03  0.43977517780E+03  0.25500000920E-02 0. -1.
        2   -1    0    0  501    0  0.00000000000E+00  0.00000000000E+00 -0.14575594491E+04  0.14575594491E+04  0.25500000920E-02 0.  1.
    10030    2    1    2    0    0  0.00000000000E+00  0.00000000000E+00 -0.10177842713E+04  0.18973346269E+04  0.16012475959E+04 0.  0.
        4    1    3    3  502    0 -0.24734883422E+03  0.70385301875E+03 -0.16464291625E+03  0.76400223858E+03  0.12699999809E+01 0. -1.
       -4    1    3    3    0  502  0.24734883422E+03 -0.70385301875E+03 -0.85314135504E+03  0.11333323883E+04  0.12699999809E+01 0.  1.
</event>
<event>
 5   0  0.9432152E-05  0.1605043E+04  0.7818609E-02  0.8817456E-01
       -1   -1    0    0    0  501  0.00000000000E+00  0.00000000000E+00  0.72558816924E+03  0.72558816926E+03  0.50400001928E-02 0. -1.
        1   -1    0    0  501    0  0.00000000000E+00  0.00000000000E+00 -0.88761209570E+03  0.88761209571E+03  0.50400001928E-02 0.  1.
    10030    2    1    2    0    0  0.00000000000E+00  0.00000000000E+00 -0.16202392646E+03  0.16132002650E+04  0.16050430967E+04 0.  0.
        4    1    3    3  502    0 -0.60016859417E+03  0.51073032855E+03 -0.23341176965E+03  0.82190661089E+03  0.12699999809E+01 0.  1.
       -4    1    3    3    0  502  0.60016859417E+03 -0.51073032855E+03  0.71387843188E+02  0.79129365407E+03  0.12699999809E+01 0. -1.
</event>
<event>
 5   0  0.1835088E-04  0.1598555E+04  0.7818609E-02  0.8821437E-01
        2   -1    0    0  501    0  0.00000000000E+00  0.00000000000E+00  0.46349499118E+03  0.46349499119E+03  0.25500000920E-02 0. -1.
       -2   -1    0    0    0  501  0.00000000000E+00  0.00000000000E+00 -0.13783193769E+04  0.13783193770E+04  0.25500000920E-02 0.  1.
    10030    2    1    2    0    0  0.00000000000E+00  0.00000000000E+00 -0.91482438577E+03  0.18418143681E+04  0.15985545064E+04 0.  0.
        5    1    3    3  502    0  0.58617041916E+03  0.37155661855E+03 -0.91419099053E+03  0.11477880197E+04  0.46999998093E+01 0.  1.
       -5    1    3    3    0  502 -0.58617041916E+03 -0.37155661855E+03 -0.63339523735E+00  0.69402634840E+03  0.46999998093E+01 0. -1.
</event>
<event>
 5   0  0.9432152E-05  0.1608727E+04  0.7818609E-02  0.8815205E-01
        1   -1    0    0  501    0  0.00000000000E+00  0.00000000000E+00  0.13865812781E+04  0.13865812781E+04  0.50400001928E-02 0.  1.
       -1   -1    0    0    0  501  0.00000000000E+00  0.00000000000E+00 -0.46661546190E+03  0.46661546192E+03  0.50400001928E-02 0. -1.
    10030    2    1    2    0    0  0.00000000000E+00  0.00000000000E+00  0.91996581624E+03  0.18531967401E+04  0.16087265319E+04 0.  0.
        4    1    3    3  502    0  0.27109730379E+03 -0.68264976931E+03  0.82296106096E+02  0.73910670248E+03  0.12699999809E+01 0. -1.
       -4    1    3    3    0  502 -0.27109730379E+03  0.68264976931E+03  0.83766971014E+03  0.11140900376E+04  0.12699999809E+01 0.  1.
</event>
<event>
 5   0  0.9616567E-05  0.1601447E+04  0.7818609E-02  0.8819660E-01
       -1   -1    0    0    0  501  0.00000000000E+00  0.00000000000E+00  0.67742367247E+03  0.67742367249E+03  0.50400001928E-02 0.  1.
        1   -1    0    0  501    0  0.00000000000E+00  0.00000000000E+00 -0.94646556880E+03  0.94646556882E+03  0.50400001928E-02 0. -1.
    10030    2    1    2    0    0  0.00000000000E+00  0.00000000000E+00 -0.26904189633E+03  0.16238892413E+04  0.16014470725E+04 0.  0.
        5    1    3    3  502    0 -0.46793733421E+03 -0.26240641944E+03 -0.73725260273E+03  0.91180368936E+03  0.46999998093E+01 0. -1.
       -5    1    3    3    0  502  0.46793733421E+03  0.26240641944E+03  0.46821070639E+03  0.71208555195E+03  0.46999998093E+01 0.  1.
</event>
<event>
 5   0  0.1774934E-04  0.1607863E+04  0.7818609E-02  0.8815732E-01
        2   -1    0    0  501    0  0.00000000000E+00  0.00000000000E+00  0.21997255821E+04  0.21997255821E+04  0.25500000920E-02 0.  1.
       -2   -1    0    0    0  501  0.00000000000E+00  0.00000000000E+00 -0.29381194865E+03  0.29381194866E+03  0.25500000920E-02 0. -1.
    10030    2    1    2    0    0  0.00000000000E+00  0.00000000000E+00  0.19059136334E+04  0.24935375307E+04  0.16078627551E+04 0.  0.
        1    1    3    3  502    0 -0.40900038673E+03  0.37913580268E+03  0.18509457992E+04  0.19331388012E+04  0.50400001928E-02 0.  1.
       -1    1    3    3    0  502  0.40900038673E+03 -0.37913580268E+03  0.54967834245E+02  0.56039872952E+03  0.50400001928E-02 0. -1.
</event>
<event>
 5   0  0.9939872E-05  0.1558617E+04  0.7818609E-02  0.8846382E-01
       -1   -1    0    0    0  501  0.00000000000E+00  0.00000000000E+00  0.56086241661E+03  0.56086241663E+03  0.50400001928E-02 0.  1.
        1   -1    0    0  501    0  0.00000000000E+00  0.00000000000E+00 -0.10828354414E+04  0.10828354414E+04  0.50400001928E-02 0. -1.
    10030    2    1    2    0    0  0.00000000000E+00  0.00000000000E+00 -0.52197302475E+03  0.16436978580E+04  0.15586169542E+04 0.  0.
        3    1    3    3  502    0  0.38002805046E+03  0.48312908539E+03  0.24421113066E+03  0.66141826315E+03  0.10100000352E+00 0.  1.
       -3    1    3    3    0  502 -0.38002805046E+03 -0.48312908539E+03 -0.76618415541E+03  0.98227959486E+03  0.10100000352E+00 0. -1.
</event>
<event>
 5   0  0.1774934E-04  0.1582561E+04  0.7818609E-02  0.8831334E-01
        2   -1    0    0  501    0  0.00000000000E+00  0.00000000000E+00  0.22682058206E+04  0.22682058206E+04  0.25500000920E-02 0.  1.
       -2   -1    0    0    0  501  0.00000000000E+00  0.00000000000E+00 -0.27604405295E+03  0.27604405297E+03  0.25500000920E-02 0. -1.
    10030    2    1    2    0    0  0.00000000000E+00  0.00000000000E+00  0.19921617676E+04  0.25442498735E+04  0.15825608711E+04 0.  0.
        1    1    3    3  502    0 -0.10639692509E+03 -0.75155984766E+03  0.63672878127E+03  0.99075024663E+03  0.50400001928E-02 0. -1.
       -1    1    3    3    0  502  0.10639692509E+03  0.75155984766E+03  0.13554329864E+04  0.15534996269E+04  0.50400001928E-02 0.  1.
</event>
<event>
 5   0  0.9939872E-05  0.1601624E+04  0.7818609E-02  0.8819551E-01
       -1   -1    0    0    0  501  0.00000000000E+00  0.00000000000E+00  0.65960267732E+03  0.65960267734E+03  0.50400001928E-02 0.  1.
        1   -1    0    0  501    0  0.00000000000E+00  0.00000000000E+00 -0.97225215210E+03  0.97225215211E+03  0.50400001928E-02 0. -1.
    10030    2    1    2    0    0  0.00000000000E+00  0.00000000000E+00 -0.31264947478E+03  0.16318548295E+04  0.16016243287E+04 0.  0.
        3    1    3    3  502    0  0.74327700939E+03 -0.25241397254E+03  0.51808707568E+01  0.78498431694E+03  0.10100000352E+00 0.  1.
       -3    1    3    3    0  502 -0.74327700939E+03  0.25241397254E+03 -0.31783034554E+03  0.84687051251E+03  0.10100000352E+00 0. -1.
</event>
<event>
 5   0  0.9616567E-05  0.1598089E+04  0.7818609E-02  0.8821723E-01
       -1   -1    0    0    0  501  0.00000000000E+00  0.00000000000E+00  0.51497203218E+03  0.51497203221E+03  0.50400001928E-02 0. -1.
        1   -1    0    0  501    0  0.00000000000E+00  0.00000000000E+00 -0.12398190408E+04  0.12398190409E+04  0.50400001928E-02 0.  1.
    10030    2    1    2    0    0  0.00000000000E+00  0.00000000000E+00 -0.72484700866E+03  0.17547910731E+04  0.15980890226E+04 0.  0.
        5    1    3    3  502    0 -0.76069524284E+03  0.12337488631E+02 -0.63058434521E+03  0.98816404130E+03  0.46999998093E+01 0.  1.
       -5    1    3    3    0  502  0.76069524284E+03 -0.12337488631E+02 -0.94262663453E+02  0.76662703176E+03  0.46999998093E+01 0. -1.
</event>
<event>
 5   0  0.1858913E-04  0.1605154E+04  0.7818609E-02  0.8817388E-01
        2   -1    0    0  501    0  0.00000000000E+00  0.00000000000E+00  0.69313387897E+03  0.69313387897E+03  0.25500000920E-02 0. -1.
       -2   -1    0    0    0  501  0.00000000000E+00  0.00000000000E+00 -0.92930085000E+03  0.92930085000E+03  0.25500000920E-02 0.  1.
    10030    2    1    2    0    0  0.00000000000E+00  0.00000000000E+00 -0.23616697103E+03  0.16224347290E+04  0.16051540772E+04 0.  0.
        4    1    3    3  502    0  0.62065023415E+03  0.48019077983E+03 -0.28823589682E+03  0.83598531285E+03  0.12699999809E+01 0.  1.
       -4    1    3    3    0  502 -0.62065023415E+03 -0.48019077983E+03  0.52068925787E+02  0.78644941612E+03  0.12699999809E+01 0. -1.
</event>
<event>
 5   0  0.1832646E-04  0.1581826E+04  0.7818609E-02  0.8831791E-01
       -2   -1    0    0    0  501  0.00000000000E+00  0.00000000000E+00  0.84442929754E+03  0.84442929755E+03  0.25500000920E-02 0. -1.
        2   -1    0    0  501    0  0.00000000000E+00  0.00000000000E+00 -0.74078843719E+03  0.74078843719E+03  0.25500000920E-02 0.  1.
    10030    2    1    2    0    0  0.00000000000E+00  0.00000000000E+00  0.10364086036E+03  0.15852177347E+04  0.15818261088E+04 0.  0.
        2    1    3    3  502    0  0.60126474296E+03  0.49959536330E+03  0.17219726066E+03  0.80047905328E+03  0.25500000920E-02 0. -1.
       -2    1    3    3    0  502 -0.60126474296E+03 -0.49959536330E+03 -0.68556400304E+02  0.78473868146E+03  0.25500000920E-02 0.  1.
</event>
<event>
 5   0  0.9432152E-05  0.1600819E+04  0.7818609E-02  0.8820045E-01
        1   -1    0    0  501    0  0.00000000000E+00  0.00000000000E+00  0.23407866945E+04  0.23407866945E+04  0.50400001928E-02 0.  1.
       -1   -1    0    0    0  501  0.00000000000E+00  0.00000000000E+00 -0.27369240190E+03  0.27369240194E+03  0.50400001928E-02 0. -1.
    10030    2    1    2    0    0  0.00000000000E+00  0.00000000000E+00  0.20670942926E+04  0.26144790964E+04  0.16008192063E+04 0.  0.
        4    1    3    3  502    0  0.67604834888E+03  0.41520454514E+03  0.12065269846E+04  0.14440031724E+04  0.12699999809E+01 0.  1.
       -4    1    3    3    0  502 -0.67604834888E+03 -0.41520454514E+03  0.86056730793E+03  0.11704759240E+04  0.12699999809E+01 0. -1.
</event>
<event>
 5   0  0.1835088E-04  0.1600440E+04  0.7818609E-02  0.8820278E-01
        2   -1    0    0  501    0  0.00000000000E+00  0.00000000000E+00  0.89750930007E+03  0.89750930008E+03  0.25500000920E-02 0.  1.
       -2   -1    0    0    0  501  0.00000000000E+00  0.00000000000E+00 -0.71347685113E+03  0.71347685114E+03  0.25500000920E-02 0. -1.
    10030    2    1    2    0    0  0.00000000000E+00  0.00000000000E+00  0.18403244894E+03  0.16109861512E+04  0.16004400761E+04 0.  0.
        5    1    3    3  502    0 -0.53361800550E+03  0.11670736653E+03  0.68064410269E+03  0.87273550960E+03  0.46999998093E+01 0.  1.
       -5    1    3    3    0  502  0.53361800550E+03 -0.11670736653E+03 -0.49661165376E+03  0.73825064161E+03  0.46999998093E+01 0. -1.
</event>
<event>
 5   0  0.9673017E-05  0.1600296E+04  0.7818609E-02  0.8820366E-01
        1   -1    0    0  501    0  0.00000000000E+00  0.00000000000E+00  0.35232530893E+03  0.35232530896E+03  0.50400001928E-02 0. -1.
       -1   -1    0    0    0  501  0.00000000000E+00  0.00000000000E+00 -0.18171755685E+04  0.18171755685E+04  0.50400001928E-02 0.  1.
    10030    2    1    2    0    0  0.00000000000E+00  0.00000000000E+00 -0.14648502596E+04  0.21695008775E+04  0.16002961521E+04 0.  0.
        1    1    3    3  502    0 -0.41374020986E+03 -0.39869700716E+03  0.22507203925E+02  0.57501899014E+03  0.50400001928E-02 0. -1.
       -1    1    3    3    0  502  0.41374020986E+03  0.39869700716E+03 -0.14873574635E+04  0.15944818873E+04  0.50400001928E-02 0.  1.
</event>
<event>
 5   0  0.1858913E-04  0.1598792E+04  0.7818609E-02  0.8821290E-01
        2   -1    0    0  501    0  0.00000000000E+00  0.00000000000E+00  0.12683073814E+04  0.12683073814E+04  0.25500000920E-02 0.  1.
       -2   -1    0    0    0  501  0.00000000000E+00  0.00000000000E+00 -0.50384810264E+03  0.50384810265E+03  0.25500000920E-02 0. -1.
    10030    2    1    2    0    0  0.00000000000E+00  0.00000000000E+00  0.76445927880E+03  0.17721554841E+04  0.15987923789E+04 0.  0.
        4    1    3    3  502    0  0.49051101499E+03  0.63088029891E+03  0.40499028035E+03  0.89589605840E+03  0.12699999809E+01 0.  1.
       -4    1    3    3    0  502 -0.49051101499E+03 -0.63088029891E+03  0.35946899844E+03  0.87625942569E+03  0.12699999809E+01 0. -1.
</event>
<event>
 5   0  0.9726935E-05  0.1611282E+04  0.7818609E-02  0.8813647E-01
       -1   -1    0    0    0  501  0.00000000000E+00  0.00000000000E+00  0.61136721767E+03  0.61136721769E+03  0.50400001928E-02 0. -1.
        1   -1    0    0  501    0  0.00000000000E+00  0.00000000000E+00 -0.10616491639E+04  0.10616491639E+04  0.50400001928E-02 0.  1.
    10030    2    1    2    0    0  0.00000000000E+00  0.00000000000E+00 -0.45028194621E+03  0.16730163816E+04  0.16112820926E+04 0.  0.
        2    1    3    3  502    0 -0.14724143972E+03  0.72994327433E+03 -0.54442924415E+03  0.92244264169E+03  0.25500000920E-02 0.  1.
       -2    1    3    3    0  502  0.14724143972E+03 -0.72994327433E+03  0.94147297933E+02  0.75057373990E+03  0.25500000920E-02 0. -1.
</event>
<event>
 5   0  0.9726935E-05  0.1605246E+04  0.7818609E-02  0.8817331E-01
       -1   -1    0    0    0  501  0.00000000000E+00  0.00000000000E+00  0.14039883474E+04  0.14039883474E+04  0.50400001928E-02 0. -1.
        1   -1    0    0  501    0  0.00000000000E+00  0.00000000000E+00 -0.45883860272E+03  0.45883860274E+03  0.50400001928E-02 0.  1.
    10030    2    1    2    0    0  0.00000000000E+00  0.00000000000E+00  0.94514974471E+03  0.18628269502E+04  0.16052464628E+04 0.  0.
        2    1    3    3  502    0  0.11072280105E+03  0.75649142243E+03  0.75603468081E+03  0.10752335790E+04  0.25500000920E-02 0.  1.
       -2    1    3    3    0  502 -0.11072280105E+03 -0.75649142243E+03  0.18911506390E+03  0.78759337115E+03  0.25500000920E-02 0. -1.
</event>
<event>
 5   0  0.1832646E-04  0.1601652E+04  0.7818609E-02  0.8819534E-01
        2   -1    0    0  501    0  0.00000000000E+00  0.00000000000E+00  0.10679818539E+04  0.10679818539E+04  0.25500000920E-02 0. -1.
       -2   -1    0    0    0  501  0.00000000000E+00  0.00000000000E+00 -0.60049892185E+03  0.60049892186E+03  0.25500000920E-02 0.  1.
    10030    2    1    2    0    0  0.00000000000E+00  0.00000000000E+00  0.46748293201E+03  0.16684807757E+04  0.16016515873E+04 0.  0.
        2    1    3    3  502    0 -0.32735832797E+03  0.48194734487E+03 -0.33862488487E+03  0.67387204333E+03  0.25500000920E-02 0.  1.
       -2    1    3    3    0  502  0.32735832797E+03 -0.48194734487E+03  0.80610781689E+03  0.99460873240E+03  0.25500000920E-02 0. -1.
</event>
<event>
 5   0  0.9616567E-05  0.1598254E+04  0.7818609E-02  0.8821621E-01
        1   -1    0    0  501    0  0.00000000000E+00  0.00000000000E+00  0.15425876133E+04  0.15425876133E+04  0.50400001928E-02 0.  1.
       -1   -1    0    0    0  501  0.00000000000E+00  0.00000000000E+00 -0.41398241353E+03  0.41398241356E+03  0.50400001928E-02 0. -1.
    10030    2    1    2    0    0  0.00000000000E+00  0.00000000000E+00  0.11286051997E+04  0.19565700268E+04  0.15982542267E+04 0.  0.
        5    1    3    3  502    0  0.55273341717E+03 -0.93045203218E+02 -0.13296089352E+03  0.57608361329E+03  0.46999998093E+01 0. -1.
       -5    1    3    3    0  502 -0.55273341717E+03  0.93045203218E+02  0.12615660933E+04  0.13804864135E+04  0.46999998093E+01 0.  1.
</event>
<event>
 5   0  0.9432152E-05  0.1573123E+04  0.7818609E-02  0.8837232E-01
       -1   -1    0    0    0  501  0.00000000000E+00  0.00000000000E+00  0.97947975250E+03  0.97947975251E+03  0.50400001928E-02 0. -1.
        1   -1    0    0  501    0  0.00000000000E+00  0.00000000000E+00 -0.63164031001E+03  0.63164031003E+03  0.50400001928E-02 0.  1.
    10030    2    1    2    0    0  0.00000000000E+00  0.00000000000E+00  0.34783944249E+03  0.16111200625E+04  0.15731228745E+04 0.  0.
        4    1    3    3  502    0 -0.72400054813E+03  0.18445788778E+03  0.42577785622E+03  0.85993598704E+03  0.12699999809E+01 0. -1.
       -4    1    3    3    0  502  0.72400054813E+03 -0.18445788778E+03 -0.77938413732E+02  0.75118407550E+03  0.12699999809E+01 0.  1.
</event>
<event>
 5   0  0.9616567E-05  0.1603946E+04  0.7818609E-02  0.8818127E-01
       -1   -1    0    0    0  501  0.00000000000E+00  0.00000000000E+00  0.66090199658E+03  0.66090199659E+03  0.50400001928E-02 0.  1.
        1   -1    0    0  501    0  0.00000000000E+00  0.00000000000E+00 -0.97315613202E+03  0.97315613204E+03  0.50400001928E-02 0. -1.
    10030    2    1    2    0    0  0.00000000000E+00  0.00000000000E+00 -0.31225413545E+03  0.16340581286E+04  0.16039461720E+04 0.  0.
        5    1    3    3  502    0 -0.29586181945E+03  0.38088270815E+03 -0.80888429507E+03  0.94176522890E+03  0.46999998093E+01 0. -1.
       -5    1    3    3    0  502  0.29586181945E+03 -0.38088270815E+03  0.49663015962E+03  0.69229289973E+03  0.46999998093E+01 0.  1.
</event>
<event>
 5   0  0.1832646E-04  0.1647621E+04  0.7818609E-02  0.8791815E-01
        2   -1    0    0  501    0  0.00000000000E+00  0.00000000000E+00  0.88902779699E+03  0.88902779700E+03  0.25500000920E-02 0.  1.
       -2   -1    0    0    0  501  0.00000000000E+00  0.00000000000E+00 -0.76337755811E+03  0.76337755811E+03  0.25500000920E-02 0. -1.
    10030    2    1    2    0    0  0.00000000000E+00  0.00000000000E+00  0.12565023888E+03  0.16524053551E+04  0.16476211564E+04 0.  0.
        2    1    3    3  502    0 -0.38216376591E+03 -0.47237845503E+03 -0.49509348135E+03  0.78377809617E+03  0.25500000920E-02 0. -1.
       -2    1    3    3    0  502  0.38216376591E+03  0.47237845503E+03  0.62074372024E+03  0.86862725894E+03  0.25500000920E-02 0.  1.
</event>
<event>
 5   0  0.1832646E-04  0.1600497E+04  0.7818609E-02  0.8820243E-01
       -2   -1    0    0    0  501  0.00000000000E+00  0.00000000000E+00  0.43453960817E+03  0.43453960818E+03  0.25500000920E-02 0. -1.
        2   -1    0    0  501    0  0.00000000000E+00  0.00000000000E+00 -0.14737381992E+04  0.14737381992E+04  0.25500000920E-02 0.  1.
    10030    2    1    2    0    0  0.00000000000E+00  0.00000000000E+00 -0.10391985911E+04  0.19082778074E+04  0.16004969474E+04 0.  0.
        2    1    3    3  502    0 -0.64833410453E+03  0.11186495247E+03 -0.10627804685E+04  0.12499412798E+04  0.25500000920E-02 0.  1.
       -2    1    3    3    0  502  0.64833410453E+03 -0.11186495247E+03  0.23581877404E+02  0.65833652765E+03  0.25500000920E-02 0. -1.
</event>
<event>
 5   0  0.9673017E-05  0.1603712E+04  0.7818609E-02  0.8818271E-01
       -1   -1    0    0    0  501  0.00000000000E+00  0.00000000000E+00  0.45227565468E+03  0.45227565471E+03  0.50400001928E-02 0.  1.
        1   -1    0    0  501    0  0.00000000000E+00  0.00000000000E+00 -0.14216397285E+04  0.14216397285E+04  0.50400001928E-02 0. -1.
    10030    2    1    2    0    0  0.00000000000E+00  0.00000000000E+00 -0.96936407381E+03  0.18739153832E+04  0.16037119928E+04 0.  0.
        1    1    3    3  502    0 -0.80011823264E+03  0.10374134112E+02 -0.54513050828E+03  0.96822728733E+03  0.50400001928E-02 0.  1.
       -1    1    3    3    0  502  0.80011823264E+03 -0.10374134112E+02 -0.42423356553E+03  0.90568809587E+03  0.50400001928E-02 0. -1.
</event>
<event>
 5   0  0.1914170E-04  0.1603227E+04  0.7818609E-02  0.8818568E-01
       -2   -1    0    0    0  501  0.00000000000E+00  0.00000000000E+00  0.31181425497E+03  0.31181425498E+03  0.25500000920E-02 0.  1.
        2   -1    0    0  501    0  0.00000000000E+00  0.00000000000E+00 -0.20607920551E+04  0.20607920551E+04  0.25500000920E-02 0. -1.
    10030    2    1    2    0    0  0.00000000000E+00  0.00000000000E+00 -0.17489778001E+04  0.23726063101E+04  0.16032271696E+04 0.  0.
        3    1    3    3  502    0  0.37361934085E+03 -0.56553098484E+03 -0.24112257202E+03  0.71941421422E+03  0.10100000352E+00 0.  1.
       -3    1    3    3    0  502 -0.37361934085E+03  0.56553098484E+03 -0.15078552281E+04  0.16531920958E+04  0.10100000352E+00 0. -1.
</event>
<event>
 5   0  0.1914170E-04  0.1594794E+04  0.7818609E-02  0.8823752E-01
        2   -1    0    0  501    0  0.00000000000E+00  0.00000000000E+00  0.15727950503E+04  0.15727950503E+04  0.25500000920E-02 0.  1.
       -2   -1    0    0    0  501  0.00000000000E+00  0.00000000000E+00 -0.40427534702E+03  0.40427534703E+03  0.25500000920E-02 0. -1.
    10030    2    1    2    0    0  0.00000000000E+00  0.00000000000E+00  0.11685197033E+04  0.19770703973E+04  0.15947943626E+04 0.  0.
        3    1    3    3  502    0 -0.29075465849E+03  0.27443031031E+03 -0.27103776715E+03  0.48302354816E+03  0.10100000352E+00 0. -1.
       -3    1    3    3    0  502  0.29075465849E+03 -0.27443031031E+03  0.14395574704E+04  0.14940468492E+04  0.10100000352E+00 0.  1.
</event>
<event>
 5   0  0.1858913E-04  0.1602190E+04  0.7818609E-02  0.8819204E-01
       -2   -1    0    0    0  501  0.00000000000E+00  0.00000000000E+00  0.41658269967E+03  0.41658269968E+03  0.25500000920E-02 0. -1.
        2   -1    0    0  501    0  0.00000000000E+00  0.00000000000E+00 -0.15405180389E+04  0.15405180389E+04  0.25500000920E-02 0.  1.
    10030    2    1    2    0    0  0.00000000000E+00  0.00000000000E+00 -0.11239353392E+04  0.19571007386E+04  0.16021899557E+04 0.  0.
        4    1    3    3  502    0  0.77785684033E+03  0.10909731421E+03 -0.75428590639E+03  0.10889960190E+04  0.12699999809E+01 0.  1.
       -4    1    3    3    0  502 -0.77785684033E+03 -0.10909731421E+03 -0.36964943285E+03  0.86810471956E+03  0.12699999809E+01 0. -1.
</event>
<event>
 5   0  0.9432152E-05  0.1596638E+04  0.7818609E-02  0.8822616E-01
       -1   -1    0    0    0  501  0.00000000000E+00  0.00000000000E+00  0.64684498617E+03  0.64684498619E+03  0.50400001928E-02 0. -1.
        1   -1    0    0  501    0  0.00000000000E+00  0.00000000000E+00 -0.98526440545E+03  0.98526440547E+03  0.50400001928E-02 0.  1.
    10030    2    1    2    0    0  0.00000000000E+00  0.00000000000E+00 -0.33841941928E+03  0.16321093917E+04  0.15966381440E+04 0.  0.
        4    1    3    3  502    0  0.36178811509E+03  0.41371434313E+03  0.42267159806E+03  0.69332754932E+03  0.12699999809E+01 0. -1.
       -4    1    3    3    0  502 -0.36178811509E+03 -0.41371434313E+03 -0.76109101734E+03  0.93878184234E+03  0.12699999809E+01 0.  1.
</event>
<event>
 5   0  0.9432152E-05  0.1594736E+04  0.7818609E-02  0.8823789E-01
        1   -1    0    0  501    0  0.00000000000E+00  0.00000000000E+00  0.84583295305E+03  0.84583295307E+03  0.50400001928E-02 0. -1.
       -1   -1    0    0    0  501  0.00000000000E+00  0.00000000000E+00 -0.75167987273E+03  0.75167987275E+03  0.50400001928E-02 0.  1.
    10030    2    1    2    0    0  0.00000000000E+00  0.00000000000E+00  0.94153080320E+02  0.15975128258E+04  0.15947358484E+04 0.  0.
        4    1    3    3  502    0 -0.60002193496E+03 -0.49952080453E+03 -0.11521370990E+03  0.78919146501E+03  0.12699999809E+01 0.  1.
       -4    1    3    3    0  502  0.60002193496E+03  0.49952080453E+03  0.20936679022E+03  0.80832136081E+03  0.12699999809E+01 0. -1.
</event>
<event>
 5   0  0.1835088E-04  0.1607622E+04  0.7818609E-02  0.8815879E-01
       -2   -1    0    0    0  501  0.00000000000E+00  0.00000000000E+00  0.10339759889E+04  0.10339759890E+04  0.25500000920E-02 0. -1.
        2   -1    0    0  501    0  0.00000000000E+00  0.00000000000E+00 -0.62488081288E+03  0.62488081289E+03  0.25500000920E-02 0.  1.
    10030    2    1    2    0    0  0.00000000000E+00  0.00000000000E+00  0.40909517607E+03  0.16588568018E+04  0.16076215431E+04 0.  0.
        5    1    3    3  502    0  0.30480274818E+03 -0.29432750866E+03 -0.50027058771E+03  0.65561127856E+03  0.46999998093E+01 0.  1.
       -5    1    3    3    0  502 -0.30480274818E+03  0.29432750866E+03  0.90936576378E+03  0.10032455233E+04  0.46999998093E+01 0. -1.
</event>
<event>
 5   0  0.9432152E-05  0.1600710E+04  0.7818609E-02  0.8820112E-01
       -1   -1    0    0    0  501  0.00000000000E+00  0.00000000000E+00  0.99558784158E+03  0.99558784159E+03  0.50400001928E-02 0.  1.
        1   -1    0    0  501    0  0.00000000000E+00  0.00000000000E+00 -0.64340724574E+03  0.64340724576E+03  0.50400001928E-02 0. -1.
    10030    2    1    2    0    0  0.00000000000E+00  0.00000000000E+00  0.35218059584E+03  0.16389950873E+04  0.16007103811E+04 0.  0.
        4    1    3    3  502    0 -0.21331357877E+03  0.46138626666E+03 -0.45690831649E+03  0.68348137687E+03  0.12699999809E+01 0. -1.
       -4    1    3    3    0  502  0.21331357877E+03 -0.46138626666E+03  0.80908891233E+03  0.95551371047E+03  0.12699999809E+01 0.  1.
</event>
<event>
 5   0  0.1914170E-04  0.1597723E+04  0.7818609E-02  0.8821948E-01
        2   -1    0    0  501    0  0.00000000000E+00  0.00000000000E+00  0.80080435582E+03  0.80080435582E+03  0.25500000920E-02 0.  1.
       -2   -1    0    0    0  501  0.00000000000E+00  0.00000000000E+00 -0.79692362376E+03  0.79692362376E+03  0.25500000920E-02 0. -1.
    10030    2    1    2    0    0  0.00000000000E+00  0.00000000000E+00  0.38807320604E+01  0.15977279796E+04  0.15977232666E+04 0.  0.
        3    1    3    3  502    0 -0.37769355496E+03 -0.60828875892E+03  0.35621851065E+03  0.79972449832E+03  0.10100000352E+00 0.  1.
       -3    1    3    3    0  502  0.37769355496E+03  0.60828875892E+03 -0.35233777858E+03  0.79800348126E+03  0.10100000352E+00 0. -1.
</event>
<event>
 5   0  0.1914170E-04  0.1598726E+04  0.7818609E-02  0.8821331E-01
        2   -1    0    0  501    0  0.00000000000E+00  0.00000000000E+00  0.90852099059E+03  0.90852099059E+03  0.25500000920E-02 0. -1.
       -2   -1    0    0    0  501  0.00000000000E+00  0.00000000000E+00 -0.70332031493E+03  0.70332031493E+03  0.25500000920E-02 0.  1.
    10030    2    1    2    0    0  0.00000000000E+00  0.00000000000E+00  0.20520067566E+03  0.16118413055E+04  0.15987260794E+04 0.  0.
        3    1    3    3  502    0 -0.16838263753E+03  0.67491000394E+03 -0.29448985839E+03  0.75536779977E+03  0.10100000352E+00 0.  1.
       -3    1    3    3    0  502  0.16838263753E+03 -0.67491000394E+03  0.49969053405E+03  0.85647350575E+03  0.10100000352E+00 0. -1.
</event>
<event>
 5   0  0.9432152E-05  0.1596198E+04  0.7818609E-02  0.8822887E-01
       -1   -1    0    0    0  501  0.00000000000E+00  0.00000000000E+00  0.83904686603E+03  0.83904686604E+03  0.50400001928E-02 0.  1.
        1   -1    0    0  501    0  0.00000000000E+00  0.00000000000E+00 -0.75914930774E+03  0.75914930775E+03  0.50400001928E-02 0. -1.
    10030    2    1    2    0    0  0.00000000000E+00  0.00000000000E+00  0.79897558289E+02  0.15981961738E+04  0.15961977917E+04 0.  0.
        4    1    3    3  502    0  0.46575164432E+03 -0.35413875748E+03  0.58341869864E+03  0.82626741710E+03  0.12699999809E+01 0.  1.
       -4    1    3    3    0  502 -0.46575164432E+03  0.35413875748E+03 -0.50352114035E+03  0.77192875670E+03  0.12699999809E+01 0. -1.
</event>
<event>
 5   0  0.9939872E-05  0.1597474E+04  0.7818609E-02  0.8822101E-01
       -1   -1    0    0    0  501  0.00000000000E+00  0.00000000000E+00  0.37733569697E+03  0.37733569701E+03  0.50400001928E-02 0. -1.
        1   -1    0    0  501    0  0.00000000000E+00  0.00000000000E+00 -0.16907512609E+04  0.16907512609E+04  0.50400001928E-02 0.  1.
    10030    2    1    2    0    0  0.00000000000E+00  0.00000000000E+00 -0.13134155639E+04  0.20680869579E+04  0.15974740129E+04 0.  0.
        3    1    3    3  502    0 -0.49580439804E+02  0.40994979673E+03 -0.15418416494E+04  0.15961806721E+04  0.10100000352E+00 0.  1.
       -3    1    3    3    0  502  0.49580439804E+02 -0.40994979673E+03  0.22842608551E+03  0.47190628582E+03  0.10100000352E+00 0. -1.
</event>
<event>
 5   0  0.9432152E-05  0.1599177E+04  0.7818609E-02  0.8821054E-01
       -1   -1    0    0    0  501  0.00000000000E+00  0.00000000000E+00  0.94724969708E+03  0.94724969709E+03  0.50400001928E-02 0.  1.
        1   -1    0    0  501    0  0.00000000000E+00  0.00000000000E+00 -0.67494537551E+03  0.67494537553E+03  0.50400001928E-02 0. -1.
    10030    2    1    2    0    0  0.00000000000E+00  0.00000000000E+00  0.27230432157E+03  0.16221950726E+04  0.15991770415E+04 0.  0.
        4    1    3    3  502    0 -0.54063854553E+03  0.27873635101E+03  0.66261778548E+03  0.89947091827E+03  0.12699999809E+01 0.  1.
       -4    1    3    3    0  502  0.54063854553E+03 -0.27873635101E+03 -0.39031346391E+03  0.72272415436E+03  0.12699999809E+01 0. -1.
</event>
<event>
 5   0  0.1835088E-04  0.1599315E+04  0.7818609E-02  0.8820969E-01
       -2   -1    0    0    0  501  0.00000000000E+00  0.00000000000E+00  0.12562645519E+04  0.12562645519E+04  0.25500000920E-02 0.  1.
        2   -1    0    0  501    0  0.00000000000E+00  0.00000000000E+00 -0.50901070805E+03  0.50901070805E+03  0.25500000920E-02 0. -1.
    10030    2    1    2    0    0  0.00000000000E+00  0.00000000000E+00  0.74725384385E+03  0.17652752600E+04  0.15993149897E+04 0.  0.
        5    1    3    3  502    0 -0.57863264835E+03 -0.23604422143E+03 -0.17703951800E+03  0.64953652487E+03  0.46999998093E+01 0. -1.
       -5    1    3    3    0  502  0.57863264835E+03  0.23604422143E+03  0.92429336185E+03  0.11157387351E+04  0.46999998093E+01 0.  1.
</event>
<event>
 5   0  0.9432152E-05  0.1610727E+04  0.7818609E-02  0.8813985E-01
       -1   -1    0    0    0  501  0.00000000000E+00  0.00000000000E+00  0.10613941792E+04  0.10613941792E+04  0.50400001928E-02 0.  1.
        1   -1    0    0  501    0  0.00000000000E+00  0.00000000000E+00 -0.61109259885E+03  0.61109259887E+03  0.50400001928E-02 0. -1.
    10030    2    1    2    0    0  0.00000000000E+00  0.00000000000E+00  0.45030158034E+03  0.16724867781E+04  0.16107267023E+04 0.  0.
        4    1    3    3  502    0 -0.32746531603E+02 -0.31756851005E+03  0.99288338237E+03  0.10429482815E+04  0.12699999809E+01 0.  1.
       -4    1    3    3    0  502  0.32746531603E+02  0.31756851005E+03 -0.54258180204E+03  0.62953849661E+03  0.12699999809E+01 0. -1.
</event>
<event>
 5   0  0.6838750E-05  0.1615873E+04  0.7818609E-02  0.8810855E-01
       -3   -1    0    0    0  501  0.00000000000E+00  0.00000000000E+00  0.34595750974E+03  0.34595752448E+03  0.10100000352E+00 0.  1.
        3   -1    0    0  501    0  0.00000000000E+00  0.00000000000E+00 -0.18868257184E+04  0.18868257212E+04  0.10100000352E+00 0. -1.
    10030    2    1    2    0    0  0.00000000000E+00  0.00000000000E+00 -0.15408682087E+04  0.22327832456E+04  0.16158731959E+04 0.  0.
        3    1    3    3  502    0  0.49817816996E+03 -0.28754253753E+02 -0.16484397287E+04  0.17223129348E+04  0.10100000352E+00 0. -1.
       -3    1    3    3    0  502 -0.49817816996E+03  0.28754253753E+02  0.10757151996E+03  0.51047031083E+03  0.10100000352E+00 0.  1.
</event>
<event>
 5   0  0.9726935E-05  0.1591146E+04  0.7818609E-02  0.8826006E-01
       -1   -1    0    0    0  501  0.00000000000E+00  0.00000000000E+00  0.55738959316E+03  0.55738959319E+03  0.50400001928E-02 0.  1.
        1   -1    0    0  501    0  0.00000000000E+00  0.00000000000E+00 -0.11355363509E+04  0.11355363509E+04  0.50400001928E-02 0. -1.
    10030    2    1    2    0    0  0.00000000000E+00  0.00000000000E+00 -0.57814675773E+03  0.16929259441E+04  0.15911456812E+04 0.  0.
        2    1    3    3  502    0  0.24041427735E+03  0.75576702768E+03 -0.35597074042E+03  0.86930891685E+03  0.25500000920E-02 0. -1.
       -2    1    3    3    0  502 -0.24041427735E+03 -0.75576702768E+03 -0.22217601731E+03  0.82361702723E+03  0.25500000920E-02 0.  1.
</event>
<event>
 5   0  0.9616567E-05  0.1607014E+04  0.7818609E-02  0.8816251E-01
       -1   -1    0    0    0  501  0.00000000000E+00  0.00000000000E+00  0.40854305715E+03  0.40854305718E+03  0.50400001928E-02 0.  1.
        1   -1    0    0  501    0  0.00000000000E+00  0.00000000000E+00 -0.15803062099E+04  0.15803062099E+04  0.50400001928E-02 0. -1.
    10030    2    1    2    0    0  0.00000000000E+00  0.00000000000E+00 -0.11717631528E+04  0.19888492671E+04  0.16070135410E+04 0.  0.
        5    1    3    3  502    0 -0.76553872956E+03  0.24143439471E+03 -0.62982837901E+03  0.10203166128E+04  0.46999998093E+01 0.  1.
       -5    1    3    3    0  502  0.76553872956E+03 -0.24143439471E+03 -0.54193477376E+03  0.96853265428E+03  0.46999998093E+01 0. -1.
</event>
<event>
 5   0  0.1832646E-04  0.1584278E+04  0.7818609E-02  0.8830265E-01
        2   -1    0    0  501    0  0.00000000000E+00  0.00000000000E+00  0.20852186308E+04  0.20852186308E+04  0.25500000920E-02 0.  1.
       -2   -1    0    0    0  501  0.00000000000E+00  0.00000000000E+00 -0.30092002233E+03  0.30092002234E+03  0.25500000920E-02 0. -1.
    10030    2    1    2    0    0  0.00000000000E+00  0.00000000000E+00  0.17842986084E+04  0.23861386531E+04  0.15842778001E+04 0.  0.
        2    1    3    3  502    0 -0.50529310719E+03 -0.23387259352E+03  0.17407693902E+04  0.18276475547E+04  0.25500000920E-02 0.  1.
       -2    1    3    3    0  502  0.50529310719E+03  0.23387259352E+03  0.43529218194E+02  0.55849109842E+03  0.25500000920E-02 0. -1.
</event>
<event>
 5   0  0.1858913E-04  0.1596085E+04  0.7818609E-02  0.8822957E-01
        2   -1    0    0  501    0  0.00000000000E+00  0.00000000000E+00  0.10603178422E+04  0.10603178422E+04  0.25500000920E-02 0. -1.
       -2   -1    0    0    0  501  0.00000000000E+00  0.00000000000E+00 -0.60064257525E+03  0.60064257526E+03  0.25500000920E-02 0.  1.
    10030    2    1    2    0    0  0.00000000000E+00  0.00000000000E+00  0.45967526692E+03  0.16609604174E+04  0.15960852600E+04 0.  0.
        4    1    3    3  502    0 -0.60710734861E+03  0.52653250385E+02 -0.30639195751E+03  0.68207722586E+03  0.12699999809E+01 0.  1.
       -4    1    3    3    0  502  0.60710734861E+03 -0.52653250385E+02  0.76606722443E+03  0.97888319158E+03  0.12699999809E+01 0. -1.
</event>
<event>
 5   0  0.1914170E-04  0.1599337E+04  0.7818609E-02  0.8820956E-01
       -2   -1    0    0    0  501  0.00000000000E+00  0.00000000000E+00  0.56124700599E+03  0.56124700600E+03  0.25500000920E-02 0.  1.
        2   -1    0    0  501    0  0.00000000000E+00  0.00000000000E+00 -0.11393726358E+04  0.11393726358E+04  0.25500000920E-02 0. -1.
    10030    2    1    2    0    0  0.00000000000E+00  0.00000000000E+00 -0.57812562983E+03  0.17006196418E+04  0.15993367132E+04 0.  0.
        3    1    3    3  502    0  0.26363945960E+02  0.75691454598E+03 -0.56193605327E+03  0.94307307549E+03  0.10100000352E+00 0. -1.
       -3    1    3    3    0  502 -0.26363945960E+02 -0.75691454598E+03 -0.16189576559E+02  0.75754656632E+03  0.10100000352E+00 0.  1.
</event>
<event>
 5   0  0.9432152E-05  0.1589343E+04  0.7818609E-02  0.8827122E-01
        1   -1    0    0  501    0  0.00000000000E+00  0.00000000000E+00  0.94716834859E+03  0.94716834860E+03  0.50400001928E-02 0.  1.
       -1   -1    0    0    0  501  0.00000000000E+00  0.00000000000E+00 -0.66672689942E+03  0.66672689944E+03  0.50400001928E-02 0. -1.
    10030    2    1    2    0    0  0.00000000000E+00  0.00000000000E+00  0.28044144917E+03  0.16138952480E+04  0.15893427778E+04 0.  0.
        4    1    3    3  502    0 -0.77811473508E+03  0.15916731486E+03  0.16716797885E+03  0.81163016277E+03  0.12699999809E+01 0.  1.
       -4    1    3    3    0  502  0.77811473508E+03 -0.15916731486E+03  0.11327347032E+03  0.80226508527E+03  0.12699999809E+01 0. -1.
</event>
<event>
 5   0  0.9939872E-05  0.1600794E+04  0.7818609E-02  0.8820060E-01
        1   -1    0    0  501    0  0.00000000000E+00  0.00000000000E+00  0.26671847857E+03  0.26671847862E+03  0.50400001928E-02 0. -1.
       -1   -1    0    0    0  501  0.00000000000E+00  0.00000000000E+00 -0.24019167093E+04  0.24019167093E+04  0.50400001928E-02 0.  1.
    10030    2    1    2    0    0  0.00000000000E+00  0.00000000000E+00 -0.21351982308E+04  0.26686351879E+04  0.16007942659E+04 0.  0.
        3    1    3    3  502    0  0.21662551452E+03 -0.31293471568E+03 -0.22414111147E+04  0.22734947867E+04  0.10100000352E+00 0.  1.
       -3    1    3    3    0  502 -0.21662551452E+03  0.31293471568E+03  0.10621288391E+03  0.39514040129E+03  0.10100000352E+00 0. -1.
</event>
<event>
 5   0  0.9616567E-05  0.1603153E+04  0.7818609E-02  0.8818613E-01
        1   -1    0    0  501    0  0.00000000000E+00  0.00000000000E+00  0.17578697277E+04  0.17578697277E+04  0.50400001928E-02 0.  1.
       -1   -1    0    0    0  501  0.00000000000E+00  0.00000000000E+00 -0.36551336546E+03  0.36551336550E+03  0.50400001928E-02 0. -1.
    10030    2    1    2    0    0  0.00000000000E+00  0.00000000000E+00  0.13923563622E+04  0.21233830932E+04  0.16031529936E+04 0.  0.
        5    1    3    3  502    0 -0.52682200031E+03  0.18700316829E+03  0.14570378332E+04  0.15606065943E+04  0.46999998093E+01 0.  1.
       -5    1    3    3    0  502  0.52682200031E+03 -0.18700316829E+03 -0.64681470973E+02  0.56277649884E+03  0.46999998093E+01 0. -1.
</event>
<event>
 5   0  0.9616567E-05  0.1596187E+04  0.7818609E-02  0.8822894E-01
        1   -1    0    0  501    0  0.00000000000E+00  0.00000000000E+00  0.17149217449E+04  0.17149217449E+04  0.50400001928E-02 0. -1.
       -1   -1    0    0    0  501  0.00000000000E+00  0.00000000000E+00 -0.37141823308E+03  0.37141823311E+03  0.50400001928E-02 0.  1.
    10030    2    1    2    0    0  0.00000000000E+00  0.00000000000E+00  0.13435035118E+04  0.20863399780E+04  0.15961869620E+04 0.  0.
        5    1    3    3  502    0 -0.89191023277E+02 -0.76720213988E+03  0.93439612142E+03  0.12123004429E+04  0.46999998093E+01 0. -1.
       -5    1    3    3    0  502  0.89191023277E+02  0.76720213988E+03  0.40910739037E+03  0.87403953510E+03  0.46999998093E+01 0.  1.
</event>
<event>
 5   0  0.1832646E-04  0.1575967E+04  0.7818609E-02  0.8835450E-01
        2   -1    0    0  501    0  0.00000000000E+00  0.00000000000E+00  0.81365140647E+03  0.81365140647E+03  0.25500000920E-02 0. -1.
       -2   -1    0    0    0  501  0.00000000000E+00  0.00000000000E+00 -0.76312512885E+03  0.76312512885E+03  0.25500000920E-02 0.  1.
    10030    2    1    2    0    0  0.00000000000E+00  0.00000000000E+00  0.50526277618E+02  0.15767765353E+04  0.15759667946E+04 0.  0.
        2    1    3    3  502    0 -0.57215944335E+03 -0.15040979075E+02  0.56713644178E+03  0.80575207308E+03  0.25500000920E-02 0. -1.
       -2    1    3    3    0  502  0.57215944335E+03  0.15040979075E+02 -0.51661016416E+03  0.77102446225E+03  0.25500000920E-02 0.  1.
</event>
<event>
 5   0  0.1832646E-04  0.1600355E+04  0.7818609E-02  0.8820330E-01
       -2   -1    0    0    0  501  0.00000000000E+00  0.00000000000E+00  0.85834991073E+03  0.85834991074E+03  0.25500000920E-02 0. -1.
        2   -1    0    0  501    0  0.00000000000E+00  0.00000000000E+00 -0.74594793283E+03  0.74594793283E+03  0.25500000920E-02 0.  1.
    10030    2    1    2    0    0  0.00000000000E+00  0.00000000000E+00  0.11240197790E+03  0.16042978436E+04  0.16003553875E+04 0.  0.
        2    1    3    3  502    0  0.48853671637E+03  0.62204558493E+03  0.17764193556E+03  0.81065744322E+03  0.25500000920E-02 0. -1.
       -2    1    3    3    0  502 -0.48853671637E+03 -0.62204558493E+03 -0.65239957662E+02  0.79364040035E+03  0.25500000920E-02 0.  1.
</event>
<event>
 5   0  0.9939872E-05  0.1599326E+04  0.7818609E-02  0.8820962E-01
       -1   -1    0    0    0  501  0.00000000000E+00  0.00000000000E+00  0.10470499428E+04  0.10470499428E+04  0.50400001928E-02 0. -1.
        1   -1    0    0  501    0  0.00000000000E+00  0.00000000000E+00 -0.61072636849E+03  0.61072636851E+03  0.50400001928E-02 0.  1.
    10030    2    1    2    0    0  0.00000000000E+00  0.00000000000E+00  0.43632357432E+03  0.16577763113E+04  0.15993261196E+04 0.  0.
        3    1    3    3  502    0 -0.15819910621E+03 -0.39945551624E+03 -0.48092682569E+03  0.64488936147E+03  0.10100000352E+00 0.  1.
       -3    1    3    3    0  502  0.15819910621E+03  0.39945551624E+03  0.91725040001E+03  0.10128869499E+04  0.10100000352E+00 0. -1.
</event>
<event>
 5   0  0.9673017E-05  0.1569461E+04  0.7818609E-02  0.8839532E-01
        1   -1    0    0  501    0  0.00000000000E+00  0.00000000000E+00  0.13794638909E+04  0.13794638909E+04  0.50400001928E-02 0.  1.
       -1   -1    0    0    0  501  0.00000000000E+00  0.00000000000E+00 -0.44640692117E+03  0.44640692120E+03  0.50400001928E-02 0. -1.
    10030    2    1    2    0    0  0.00000000000E+00  0.00000000000E+00  0.93305696972E+03  0.18258708121E+04  0.15694613451E+04 0.  0.
        1    1    3    3  502    0 -0.49316891434E+03 -0.60972990274E+03  0.43329391530E+03  0.89595186780E+03  0.50400001928E-02 0. -1.
       -1    1    3    3    0  502  0.49316891434E+03  0.60972990274E+03  0.49976305442E+03  0.92991894429E+03  0.50400001928E-02 0.  1.
</event>
<event>
 5   0  0.1774934E-04  0.1601313E+04  0.7818609E-02  0.8819742E-01
       -2   -1    0    0    0  501  0.00000000000E+00  0.00000000000E+00  0.13228507875E+04  0.13228507875E+04  0.25500000920E-02 0.  1.
        2   -1    0    0  501    0  0.00000000000E+00  0.00000000000E+00 -0.48459809608E+03  0.48459809609E+03  0.25500000920E-02 0. -1.
    10030    2    1    2    0    0  0.00000000000E+00  0.00000000000E+00  0.83825269140E+03  0.18074488836E+04  0.16013131774E+04 0.  0.
        1    1    3    3  502    0 -0.19230495444E+03  0.76773602017E+03  0.28250264006E+03  0.84036154948E+03  0.50400001928E-02 0. -1.
       -1    1    3    3    0  502  0.19230495444E+03 -0.76773602017E+03  0.55575005134E+03  0.96708733409E+03  0.50400001928E-02 0.  1.
</event>
<event>
 5   0  0.1835088E-04  0.1626094E+04  0.7818609E-02  0.8804676E-01
        2   -1    0    0  501    0  0.00000000000E+00  0.00000000000E+00  0.14702592300E+04  0.14702592300E+04  0.25500000920E-02 0.  1.
       -2   -1    0    0    0  501  0.00000000000E+00  0.00000000000E+00 -0.44961122144E+03  0.44961122145E+03  0.25500000920E-02 0. -1.
    10030    2    1    2    0    0  0.00000000000E+00  0.00000000000E+00  0.10206480085E+04  0.19198704514E+04  0.16260935376E+04 0.  0.
        5    1    3    3  502    0  0.60778700291E+03  0.15473877968E+03  0.11211666578E+04  0.12846734586E+04  0.46999998093E+01 0.  1.
       -5    1    3    3    0  502 -0.60778700291E+03 -0.15473877968E+03 -0.10051864920E+03  0.63519699281E+03  0.46999998093E+01 0. -1.
</event>
<event>
 5   0  0.9726935E-05  0.1604403E+04  0.7818609E-02  0.8817848E-01
       -1   -1    0    0    0  501  0.00000000000E+00  0.00000000000E+00  0.59272364825E+03  0.59272364827E+03  0.50400001928E-02 0.  1.
        1   -1    0    0  501    0  0.00000000000E+00  0.00000000000E+00 -0.10857118629E+04  0.10857118629E+04  0.50400001928E-02 0. -1.
    10030    2    1    2    0    0  0.00000000000E+00  0.00000000000E+00 -0.49298821467E+03  0.16784355112E+04  0.16044028127E+04 0.  0.
        2    1    3    3  502    0  0.55837900739E+03  0.32601936230E+03  0.25023278224E+03  0.69331968514E+03  0.25500000920E-02 0.  1.
       -2    1    3    3    0  502 -0.55837900739E+03 -0.32601936230E+03 -0.74322099691E+03  0.98511582605E+03  0.25500000920E-02 0. -1.
</event>
<event>
 5   0  0.9726935E-05  0.1635433E+04  0.7818609E-02  0.8799071E-01
        1   -1    0    0  501    0  0.00000000000E+00  0.00000000000E+00  0.54530584172E+03  0.54530584175E+03  0.50400001928E-02 0. -1.
       -1   -1    0    0    0  501  0.00000000000E+00  0.00000000000E+00 -0.12262119642E+04  0.12262119642E+04  0.50400001928E-02 0.  1.
    10030    2    1    2    0    0  0.00000000000E+00  0.00000000000E+00 -0.68090612246E+03  0.17715178059E+04  0.16354333338E+04 0.  0.
        2    1    3    3  502    0  0.21097553217E+03 -0.70351815928E+03 -0.72982461600E+03  0.10354189711E+04  0.25500000920E-02 0.  1.
       -2    1    3    3    0  502 -0.21097553217E+03  0.70351815928E+03  0.48918493546E+02  0.73609883483E+03  0.25500000920E-02 0. -1.
</event>
<event>
 5   0  0.9939872E-05  0.1599740E+04  0.7818609E-02  0.8820708E-01
       -1   -1    0    0    0  501  0.00000000000E+00  0.00000000000E+00  0.39482606248E+03  0.39482606251E+03  0.50400001928E-02 0.  1.
        1   -1    0    0  501    0  0.00000000000E+00  0.00000000000E+00 -0.16204393569E+04  0.16204393569E+04  0.50400001928E-02 0. -1.
    10030    2    1    2    0    0  0.00000000000E+00  0.00000000000E+00 -0.12256132944E+04  0.20152654194E+04  0.15997395923E+04 0.  0.
        3    1    3    3  502    0 -0.36938442042E+03  0.34691645225E+03 -0.13924212556E+04  0.14817667962E+04  0.10100000352E+00 0. -1.
       -3    1    3    3    0  502  0.36938442042E+03 -0.34691645225E+03  0.16680796121E+03  0.53349862325E+03  0.10100000352E+00 0.  1.
</event>
<event>
 5   0  0.1914170E-04  0.1604703E+04  0.7818609E-02  0.8817664E-01
        2   -1    0    0  501    0  0.00000000000E+00  0.00000000000E+00  0.95199925534E+03  0.95199925534E+03  0.25500000920E-02 0.  1.
       -2   -1    0    0    0  501  0.00000000000E+00  0.00000000000E+00 -0.67622764064E+03  0.67622764064E+03  0.25500000920E-02 0. -1.
    10030    2    1    2    0    0  0.00000000000E+00  0.00000000000E+00  0.27577161470E+03  0.16282268960E+04  0.16047033499E+04 0.  0.
        3    1    3    3  502    0  0.60128284828E+03  0.13639029333E+03  0.65885652908E+03  0.90234988328E+03  0.10100000352E+00 0.  1.
       -3    1    3    3    0  502 -0.60128284828E+03 -0.13639029333E+03 -0.38308491438E+03  0.72587701270E+03  0.10100000352E+00 0. -1.
</event>
<event>
 5   0  0.9616567E-05  0.1598677E+04  0.7818609E-02  0.8821361E-01
       -1   -1    0    0    0  501  0.00000000000E+00  0.00000000000E+00  0.63437365308E+03  0.63437365310E+03  0.50400001928E-02 0. -1.
        1   -1    0    0  501    0  0.00000000000E+00  0.00000000000E+00 -0.10072011657E+04  0.10072011658E+04  0.50400001928E-02 0.  1.
    10030    2    1    2    0    0  0.00000000000E+00  0.00000000000E+00 -0.37282751265E+03  0.16415748189E+04  0.15986768065E+04 0.  0.
        5    1    3    3  502    0  0.23863127813E+03  0.62961551866E+03 -0.62873852443E+03  0.92124633532E+03  0.46999998093E+01 0.  1.
       -5    1    3    3    0  502 -0.23863127813E+03 -0.62961551866E+03  0.25591101177E+03  0.72032848353E+03  0.46999998093E+01 0. -1.
</event>
<event>
 5   0  0.9726935E-05  0.1607589E+04  0.7818609E-02  0.8815899E-01
        1   -1    0    0  501    0  0.00000000000E+00  0.00000000000E+00  0.59531300979E+03  0.59531300981E+03  0.50400001928E-02 0.  1.
       -1   -1    0    0    0  501  0.00000000000E+00  0.00000000000E+00 -0.10852878477E+04  0.10852878477E+04  0.50400001928E-02 0. -1.
    10030    2    1    2    0    0  0.00000000000E+00  0.00000000000E+00 -0.48997483793E+03  0.16806008575E+04  0.16075894689E+04 0.  0.
        2    1    3    3  502    0 -0.12365734499E+03 -0.39530569136E+03 -0.96513326986E+03  0.10502570910E+04  0.25500000920E-02 0. -1.
       -2    1    3    3    0  502  0.12365734499E+03  0.39530569136E+03  0.47515843193E+03  0.63034376655E+03  0.25500000920E-02 0.  1.
</event>
<event>
 5   0  0.1914170E-04  0.1577965E+04  0.7818609E-02  0.8834200E-01
       -2   -1    0    0    0  501  0.00000000000E+00  0.00000000000E+00  0.54225223981E+03  0.54225223982E+03  0.25500000920E-02 0. -1.
        2   -1    0    0  501    0  0.00000000000E+00  0.00000000000E+00 -0.11479782382E+04  0.11479782382E+04  0.25500000920E-02 0.  1.
    10030    2    1    2    0    0  0.00000000000E+00  0.00000000000E+00 -0.60572599837E+03  0.16902304780E+04  0.15779654887E+04 0.  0.
        3    1    3    3  502    0  0.30537780799E+03  0.29883505424E+02 -0.10814502407E+04  0.11241366744E+04  0.10100000352E+00 0.  1.
       -3    1    3    3    0  502 -0.30537780799E+03 -0.29883505424E+02  0.47572424232E+03  0.56609380357E+03  0.10100000352E+00 0. -1.
</event>
<event>
 5   0  0.1835088E-04  0.1600666E+04  0.7818609E-02  0.8820139E-01
       -2   -1    0    0    0  501  0.00000000000E+00  0.00000000000E+00  0.56214428924E+03  0.56214428924E+03  0.25500000920E-02 0. -1.
        2   -1    0    0  501    0  0.00000000000E+00  0.00000000000E+00 -0.11394457579E+04  0.11394457579E+04  0.25500000920E-02 0.  1.
    10030    2    1    2    0    0  0.00000000000E+00  0.00000000000E+00 -0.57730146865E+03  0.17015900471E+04  0.16006660185E+04 0.  0.
        5    1    3    3  502    0  0.55852523147E+03  0.31213727549E+03 -0.79972386662E+03  0.10241877102E+04  0.46999998093E+01 0.  1.
       -5    1    3    3    0  502 -0.55852523147E+03 -0.31213727549E+03  0.22242239796E+03  0.67740233691E+03  0.46999998093E+01 0. -1.
</event>
<event>
 5   0  0.1835088E-04  0.1601594E+04  0.7818609E-02  0.8819569E-01
       -2   -1    0    0    0  501  0.00000000000E+00  0.00000000000E+00  0.50417489969E+03  0.50417489969E+03  0.25500000920E-02 0. -1.
        2   -1    0    0  501    0  0.00000000000E+00  0.00000000000E+00 -0.12719314108E+04  0.12719314108E+04  0.25500000920E-02 0.  1.
    10030    2    1    2    0    0  0.00000000000E+00  0.00000000000E+00 -0.76775651111E+03  0.17761063105E+04  0.16015940702E+04 0.  0.
        5    1    3    3  502    0  0.40338526211E+03  0.95692432576E+02  0.37588353628E+03  0.55963133774E+03  0.46999998093E+01 0. -1.
       -5    1    3    3    0  502 -0.40338526211E+03 -0.95692432576E+02 -0.11436400474E+04  0.12164749727E+04  0.46999998093E+01 0.  1.
</event>
<event>
 5   0  0.1835088E-04  0.1599226E+04  0.7818609E-02  0.8821024E-01
        2   -1    0    0  501    0  0.00000000000E+00  0.00000000000E+00  0.11876968315E+04  0.11876968315E+04  0.25500000920E-02 0. -1.
       -2   -1    0    0    0  501  0.00000000000E+00  0.00000000000E+00 -0.53833650283E+03  0.53833650283E+03  0.25500000920E-02 0.  1.
    10030    2    1    2    0    0  0.00000000000E+00  0.00000000000E+00  0.64936032864E+03  0.17260333343E+04  0.15992255109E+04 0.  0.
        5    1    3    3  502    0  0.44564717205E+03  0.62663470459E+03  0.88007086919E+02  0.77397660966E+03  0.46999998093E+01 0.  1.
       -5    1    3    3    0  502 -0.44564717205E+03 -0.62663470459E+03  0.56135324172E+03  0.95205672465E+03  0.46999998093E+01 0. -1.
</event>
<event>
 5   0  0.1832646E-04  0.1590548E+04  0.7818609E-02  0.8826376E-01
        2   -1    0    0  501    0  0.00000000000E+00  0.00000000000E+00  0.21931564396E+04  0.21931564396E+04  0.25500000920E-02 0.  1.
       -2   -1    0    0    0  501  0.00000000000E+00  0.00000000000E+00 -0.28837923818E+03  0.28837923819E+03  0.25500000920E-02 0. -1.
    10030    2    1    2    0    0  0.00000000000E+00  0.00000000000E+00  0.19047772014E+04  0.24815356778E+04  0.15905480606E+04 0.  0.
        2    1    3    3  502    0  0.36188119627E+03  0.66353054356E+03  0.56632766431E+03  0.94443517820E+03  0.25500000920E-02 0. -1.
       -2    1    3    3    0  502 -0.36188119627E+03 -0.66353054356E+03  0.13384495371E+04  0.15371004996E+04  0.25500000920E-02 0.  1.
</event>
<event>
 5   0  0.1858913E-04  0.1655294E+04  0.7818609E-02  0.8787281E-01
        2   -1    0    0  501    0  0.00000000000E+00  0.00000000000E+00  0.10643653389E+04  0.10643653389E+04  0.25500000920E-02 0.  1.
       -2   -1    0    0    0  501  0.00000000000E+00  0.00000000000E+00 -0.64357522473E+03  0.64357522474E+03  0.25500000920E-02 0. -1.
    10030    2    1    2    0    0  0.00000000000E+00  0.00000000000E+00  0.42079011415E+03  0.17079405636E+04  0.16552935234E+04 0.  0.
        4    1    3    3  502    0  0.16832196370E+02  0.24828230203E+03  0.10248483835E+04  0.10546294356E+04  0.12699999809E+01 0.  1.
       -4    1    3    3    0  502 -0.16832196370E+02 -0.24828230203E+03 -0.60405826936E+03  0.65331112804E+03  0.12699999809E+01 0. -1.
</event>
<event>
 5   0  0.1914170E-04  0.1599509E+04  0.7818609E-02  0.8820850E-01
        2   -1    0    0  501    0  0.00000000000E+00  0.00000000000E+00  0.98665103025E+03  0.98665103025E+03  0.25500000920E-02 0.  1.
       -2   -1    0    0    0  501  0.00000000000E+00  0.00000000000E+00 -0.64826103290E+03  0.64826103290E+03  0.25500000920E-02 0. -1.
    10030    2    1    2    0    0  0.00000000000E+00  0.00000000000E+00  0.33838999735E+03  0.16349120632E+04  0.15995091947E+04 0.  0.
        3    1    3    3  502    0  0.56451612759E+03  0.34399864292E+03 -0.29087172221E+03  0.72223257585E+03  0.10100000352E+00 0. -1.
       -3    1    3    3    0  502 -0.56451612759E+03 -0.34399864292E+03  0.62926171956E+03  0.91267948730E+03  0.10100000352E+00 0.  1.
</event>
<event>
 5   0  0.1835088E-04  0.1600640E+04  0.7818609E-02  0.8820155E-01
        2   -1    0    0  501    0  0.00000000000E+00  0.00000000000E+00  0.21227230881E+04  0.21227230881E+04  0.25500000920E-02 0.  1.
       -2   -1    0    0    0  501  0.00000000000E+00  0.00000000000E+00 -0.30174066988E+03  0.30174066989E+03  0.25500000920E-02 0. -1.
    10030    2    1    2    0    0  0.00000000000E+00  0.00000000000E+00  0.18209824182E+04  0.24244637580E+04  0.16006397304E+04 0.  0.
        5    1    3    3  502    0 -0.34281239037E+03 -0.55591807949E+03  0.16110626320E+04  0.17384217384E+04  0.46999998093E+01 0.  1.
       -5    1    3    3    0  502  0.34281239037E+03  0.55591807949E+03  0.20991978623E+03  0.68604201966E+03  0.46999998093E+01 0. -1.
</event>
<event>
 5   0  0.1774934E-04  0.1597468E+04  0.7818609E-02  0.8822105E-01
        2   -1    0    0  501    0  0.00000000000E+00  0.00000000000E+00  0.94108955603E+03  0.94108955603E+03  0.25500000920E-02 0. -1.
       -2   -1    0    0    0  501  0.00000000000E+00  0.00000000000E+00 -0.67791216644E+03  0.67791216644E+03  0.25500000920E-02 0.  1.
    10030    2    1    2    0    0  0.00000000000E+00  0.00000000000E+00  0.26317738959E+03  0.16190017225E+04  0.15974680713E+04 0.  0.
        1    1    3    3  502    0  0.41963702037E+03  0.65937213976E+03  0.29845689139E+03  0.83662617912E+03  0.50400001928E-02 0. -1.
       -1    1    3    3    0  502 -0.41963702037E+03 -0.65937213976E+03 -0.35279501797E+02  0.78237554335E+03  0.50400001928E-02 0.  1.
</event>
<event>
 5   0  0.6838750E-05  0.1599068E+04  0.7818609E-02  0.8821121E-01
        3   -1    0    0  501    0  0.00000000000E+00  0.00000000000E+00  0.54993928454E+03  0.54993929382E+03  0.10100000352E+00 0.  1.
       -3   -1    0    0    0  501  0.00000000000E+00  0.00000000000E+00 -0.11624091944E+04  0.11624091988E+04  0.10100000352E+00 0. -1.
    10030    2    1    2    0    0  0.00000000000E+00  0.00000000000E+00 -0.61246990990E+03  0.17123484927E+04  0.15990678440E+04 0.  0.
        4    1    3    3  502    0 -0.78917395169E+03  0.94572856689E+02 -0.39905493027E+03  0.88937393796E+03  0.12699999809E+01 0. -1.
       -4    1    3    3    0  502  0.78917395169E+03 -0.94572856689E+02 -0.21341497963E+03  0.82297455470E+03  0.12699999809E+01 0.  1.
</event>
<event>
 5   0  0.1774934E-04  0.1607228E+04  0.7818609E-02  0.8816120E-01
       -2   -1    0    0    0  501  0.00000000000E+00  0.00000000000E+00  0.94202947571E+03  0.94202947571E+03  0.25500000920E-02 0. -1.
        2   -1    0    0  501    0  0.00000000000E+00  0.00000000000E+00 -0.68553625859E+03  0.68553625859E+03  0.25500000920E-02 0.  1.
    10030    2    1    2    0    0  0.00000000000E+00  0.00000000000E+00  0.25649321712E+03  0.16275657343E+04  0.16072278771E+04 0.  0.
        1    1    3    3  502    0 -0.20793555101E+03  0.25974183293E+03 -0.61250985903E+03  0.69704471921E+03  0.50400001928E-02 0.  1.
       -1    1    3    3    0  502  0.20793555101E+03 -0.25974183293E+03  0.86900307615E+03  0.93052101509E+03  0.50400001928E-02 0. -1.
</event>
<event>
 5   0  0.9726935E-05  0.1583873E+04  0.7818609E-02  0.8830517E-01
       -1   -1    0    0    0  501  0.00000000000E+00  0.00000000000E+00  0.56010923681E+03  0.56010923684E+03  0.50400001928E-02 0.  1.
        1   -1    0    0  501    0  0.00000000000E+00  0.00000000000E+00 -0.11197155549E+04  0.11197155550E+04  0.50400001928E-02 0. -1.
    10030    2    1    2    0    0  0.00000000000E+00  0.00000000000E+00 -0.55960631813E+03  0.16798247918E+04  0.15838725011E+04 0.  0.
        2    1    3    3  502    0  0.57345778264E+03 -0.19374205695E+03  0.26179260107E+03  0.65948857388E+03  0.25500000920E-02 0.  1.
       -2    1    3    3    0  502 -0.57345778264E+03  0.19374205695E+03 -0.82139891920E+03  0.10203362179E+04  0.25500000920E-02 0. -1.
</event>
<event>
 5   0  0.1914170E-04  0.1599311E+04  0.7818609E-02  0.8820971E-01
       -2   -1    0    0    0  501  0.00000000000E+00  0.00000000000E+00  0.35024440177E+03  0.35024440178E+03  0.25500000920E-02 0. -1.
        2   -1    0    0  501    0  0.00000000000E+00  0.00000000000E+00 -0.18257223653E+04  0.18257223653E+04  0.25500000920E-02 0.  1.
    10030    2    1    2    0    0  0.00000000000E+00  0.00000000000E+00 -0.14754779635E+04  0.21759667670E+04  0.15993111487E+04 0.  0.
        3    1    3    3  502    0 -0.49081634261E+03  0.14743418381E+03 -0.15729214547E+04  0.16543033076E+04  0.10100000352E+00 0.  1.
       -3    1    3    3    0  502  0.49081634261E+03 -0.14743418381E+03  0.97443491198E+02  0.52166345943E+03  0.10100000352E+00 0. -1.
</event>
<event>
 5   0  0.9432152E-05  0.1589979E+04  0.7818609E-02  0.8826728E-01
        1   -1    0    0  501    0  0.00000000000E+00  0.00000000000E+00  0.52666582925E+03  0.52666582927E+03  0.50400001928E-02 0. -1.
       -1   -1    0    0    0  501  0.00000000000E+00  0.00000000000E+00 -0.12000181482E+04  0.12000181482E+04  0.50400001928E-02 0.  1.
    10030    2    1    2    0    0  0.00000000000E+00  0.00000000000E+00 -0.67335231893E+03  0.17266839775E+04  0.15899793120E+04 0.  0.
        4    1    3    3  502    0 -0.58841987701E+03  0.29728937746E+03 -0.81915889182E+03  0.10514950445E+04  0.12699999809E+01 0.  1.
       -4    1    3    3    0  502  0.58841987701E+03 -0.29728937746E+03  0.14580657289E+03  0.67518893298E+03  0.12699999809E+01 0. -1.
</event>
<event>
 5   0  0.9673017E-05  0.1643838E+04  0.7818609E-02  0.8794060E-01
        1   -1    0    0  501    0  0.00000000000E+00  0.00000000000E+00  0.14426385961E+04  0.14426385961E+04  0.50400001928E-02 0.  1.
       -1   -1    0    0    0  501  0.00000000000E+00  0.00000000000E+00 -0.46827438417E+03  0.46827438420E+03  0.50400001928E-02 0. -1.
    10030    2    1    2    0    0  0.00000000000E+00  0.00000000000E+00  0.97436421191E+03  0.19109129803E+04  0.16438378268E+04 0.  0.
        1    1    3    3  502    0 -0.31386939367E+03  0.64035377473E+03  0.12154289326E+02  0.71324237105E+03  0.50400001928E-02 0. -1.
       -1    1    3    3    0  502  0.31386939367E+03 -0.64035377473E+03  0.96220992258E+03  0.11976706092E+04  0.50400001928E-02 0.  1.
</event>
<event>
 5   0  0.9616567E-05  0.1599101E+04  0.7818609E-02  0.8821101E-01
       -1   -1    0    0    0  501  0.00000000000E+00  0.00000000000E+00  0.65857631528E+03  0.65857631530E+03  0.50400001928E-02 0. -1.
        1   -1    0    0  501    0  0.00000000000E+00  0.00000000000E+00 -0.97070103818E+03  0.97070103820E+03  0.50400001928E-02 0.  1.
    10030    2    1    2    0    0  0.00000000000E+00  0.00000000000E+00 -0.31212472290E+03  0.16292773535E+04  0.15991006385E+04 0.  0.
        5    1    3    3  502    0  0.59388480039E+03 -0.25561920758E+03  0.32315190351E+03  0.72283440577E+03  0.46999998093E+01 0. -1.
       -5    1    3    3    0  502 -0.59388480039E+03  0.25561920758E+03 -0.63527662641E+03  0.90644294773E+03  0.46999998093E+01 0.  1.
</event>
<event>
 5   0  0.1858913E-04  0.1601580E+04  0.7818609E-02  0.8819578E-01
       -2   -1    0    0    0  501  0.00000000000E+00  0.00000000000E+00  0.34606418555E+03  0.34606418556E+03  0.25500000920E-02 0. -1.
        2   -1    0    0  501    0  0.00000000000E+00  0.00000000000E+00 -0.18530232939E+04  0.18530232939E+04  0.25500000920E-02 0.  1.
    10030    2    1    2    0    0  0.00000000000E+00  0.00000000000E+00 -0.15069591083E+04  0.21990874794E+04  0.16015804657E+04 0.  0.
        4    1    3    3  502    0 -0.48229782303E+03  0.26572079241E+03  0.44847375063E+02  0.55247771862E+03  0.12699999809E+01 0.  1.
       -4    1    3    3    0  502  0.48229782303E+03 -0.26572079241E+03 -0.15518064834E+04  0.16466097608E+04  0.12699999809E+01 0. -1.
</event>
<event>
 5   0  0.9726935E-05  0.1608802E+04  0.7818609E-02  0.8815159E-01
        1   -1    0    0  501    0  0.00000000000E+00  0.00000000000E+00  0.53392373580E+03  0.53392373583E+03  0.50400001928E-02 0. -1.
       -1   -1    0    0    0  501  0.00000000000E+00  0.00000000000E+00 -0.12118983041E+04  0.12118983041E+04  0.50400001928E-02 0.  1.
    10030    2    1    2    0    0  0.00000000000E+00  0.00000000000E+00 -0.67797456825E+03  0.17458220399E+04  0.16088023744E+04 0.  0.
        2    1    3    3  502    0 -0.29831971789E+03 -0.45795203734E+03  0.30148896375E+03  0.62418772645E+03  0.25500000920E-02 0. -1.
       -2    1    3    3    0  502  0.29831971789E+03  0.45795203734E+03 -0.97946353199E+03  0.11216343134E+04  0.25500000920E-02 0.  1.
</event>
<event>
 5   0  0.1832646E-04  0.1607149E+04  0.7818609E-02  0.8816168E-01
        2   -1    0    0  501    0  0.00000000000E+00  0.00000000000E+00  0.12870470920E+04  0.12870470920E+04  0.25500000920E-02 0. -1.
       -2   -1    0    0    0  501  0.00000000000E+00  0.00000000000E+00 -0.50171583164E+03  0.50171583164E+03  0.25500000920E-02 0.  1.
    10030    2    1    2    0    0  0.00000000000E+00  0.00000000000E+00  0.78533126038E+03  0.17887629237E+04  0.16071489068E+04 0.  0.
        2    1    3    3  502    0 -0.29585442174E+03  0.31767165990E+03 -0.35998077266E+03  0.56394262036E+03  0.25500000920E-02 0.  1.
       -2    1    3    3    0  502  0.29585442174E+03 -0.31767165990E+03  0.11453120330E+04  0.12248203033E+04  0.25500000920E-02 0. -1.
</event>
<event>
 5   0  0.1774934E-04  0.1601159E+04  0.7818609E-02  0.8819836E-01
       -2   -1    0    0    0  501  0.00000000000E+00  0.00000000000E+00  0.52098622098E+03  0.52098622099E+03  0.25500000920E-02 0. -1.
        2   -1    0    0  501    0  0.00000000000E+00  0.00000000000E+00 -0.12302197215E+04  0.12302197215E+04  0.25500000920E-02 0.  1.
    10030    2    1    2    0    0  0.00000000000E+00  0.00000000000E+00 -0.70923350056E+03  0.17512059425E+04  0.16011589849E+04 0.  0.
        1    1    3    3  502    0 -0.44591084238E+02 -0.21926557534E+02  0.51929798683E+03  0.52166995109E+03  0.50400001928E-02 0. -1.
       -1    1    3    3    0  502  0.44591084238E+02  0.21926557534E+02 -0.12285314874E+04  0.12295359914E+04  0.50400001928E-02 0.  1.
</event>
<event>
 5   0  0.1835088E-04  0.1609298E+04  0.7818609E-02  0.8814856E-01
       -2   -1    0    0    0  501  0.00000000000E+00  0.00000000000E+00  0.32713410465E+03  0.32713410466E+03  0.25500000920E-02 0.  1.
        2   -1    0    0  501    0  0.00000000000E+00  0.00000000000E+00 -0.19791879890E+04  0.19791879890E+04  0.25500000920E-02 0. -1.
    10030    2    1    2    0    0  0.00000000000E+00  0.00000000000E+00 -0.16520538844E+04  0.23063220937E+04  0.16092978478E+04 0.  0.
        5    1    3    3  502    0 -0.68671418968E+02 -0.67263364809E+03 -0.14511808662E+04  0.16009683897E+04  0.46999998093E+01 0. -1.
       -5    1    3    3    0  502  0.68671418968E+02  0.67263364809E+03 -0.20087301817E+03  0.70535370401E+03  0.46999998093E+01 0.  1.
</event>
<event>
 5   0  0.9726935E-05  0.1604491E+04  0.7818609E-02  0.8817794E-01
        1   -1    0    0  501    0  0.00000000000E+00  0.00000000000E+00  0.10832187782E+04  0.10832187782E+04  0.50400001928E-02 0. -1.
       -1   -1    0    0    0  501  0.00000000000E+00  0.00000000000E+00 -0.59415341706E+03  0.59415341708E+03  0.50400001928E-02 0.  1.
    10030    2    1    2    0    0  0.00000000000E+00  0.00000000000E+00  0.48906536116E+03  0.16773721953E+04  0.16044913693E+04 0.  0.
        2    1    3    3  502    0 -0.40053230973E+03 -0.67655032869E+03  0.41131503949E+03  0.88731422850E+03  0.25500000920E-02 0. -1.
       -2    1    3    3    0  502  0.40053230973E+03  0.67655032869E+03  0.77750321674E+02  0.79005796681E+03  0.25500000920E-02 0.  1.
</event>
<event>
 5   0  0.9432152E-05  0.1604496E+04  0.7818609E-02  0.8817791E-01
        1   -1    0    0  501    0  0.00000000000E+00  0.00000000000E+00  0.97790745345E+03  0.97790745346E+03  0.50400001928E-02 0. -1.
       -1   -1    0    0    0  501  0.00000000000E+00  0.00000000000E+00 -0.65814204756E+03  0.65814204758E+03  0.50400001928E-02 0.  1.
    10030    2    1    2    0    0  0.00000000000E+00  0.00000000000E+00  0.31976540588E+03  0.16360495010E+04  0.16044961998E+04 0.  0.
        4    1    3    3  502    0  0.16528342531E+03 -0.76241662582E+03  0.35065196013E+03  0.85531054714E+03  0.12699999809E+01 0.  1.
       -4    1    3    3    0  502 -0.16528342531E+03  0.76241662582E+03 -0.30886554251E+02  0.78073895390E+03  0.12699999809E+01 0. -1.
</event>
<event>
 5   0  0.1858913E-04  0.1601565E+04  0.7818609E-02  0.8819587E-01
       -2   -1    0    0    0  501  0.00000000000E+00  0.00000000000E+00  0.11451745330E+04  0.11451745330E+04  0.25500000920E-02 0. -1.
        2   -1    0    0  501    0  0.00000000000E+00  0.00000000000E+00 -0.55996067235E+03  0.55996067235E+03  0.25500000920E-02 0.  1.
    10030    2    1    2    0    0  0.00000000000E+00  0.00000000000E+00  0.58521386065E+03  0.17051352054E+04  0.16015651113E+04 0.  0.
        4    1    3    3  502    0 -0.43919404995E+03 -0.62747480387E+03  0.43749921672E+02  0.76715820504E+03  0.12699999809E+01 0. -1.
       -4    1    3    3    0  502  0.43919404995E+03  0.62747480387E+03  0.54146393897E+03  0.93797700031E+03  0.12699999809E+01 0.  1.
</event>
<event>
 5   0  0.1914170E-04  0.1569991E+04  0.7818609E-02  0.8839199E-01
        2   -1    0    0  501    0  0.00000000000E+00  0.00000000000E+00  0.92533477104E+03  0.92533477104E+03  0.25500000920E-02 0. -1.
       -2   -1    0    0    0  501  0.00000000000E+00  0.00000000000E+00 -0.66594028289E+03  0.66594028290E+03  0.25500000920E-02 0.  1.
    10030    2    1    2    0    0  0.00000000000E+00  0.00000000000E+00  0.25939448815E+03  0.15912750539E+04  0.15699906996E+04 0.  0.
        3    1    3    3  502    0  0.69860125031E+02 -0.69835137510E+03 -0.22669829118E+03  0.73754132467E+03  0.10100000352E+00 0.  1.
       -3    1    3    3    0  502 -0.69860125031E+02  0.69835137510E+03  0.48609277933E+03  0.85373372927E+03  0.10100000352E+00 0. -1.
</event>
<event>
 5   0  0.9673017E-05  0.1605176E+04  0.7818609E-02  0.8817374E-01
        1   -1    0    0  501    0  0.00000000000E+00  0.00000000000E+00  0.20083689901E+04  0.20083689901E+04  0.50400001928E-02 0.  1.
       -1   -1    0    0    0  501  0.00000000000E+00  0.00000000000E+00 -0.32073166368E+03  0.32073166372E+03  0.50400001928E-02 0. -1.
    10030    2    1    2    0    0  0.00000000000E+00  0.00000000000E+00  0.16876373264E+04  0.23291006538E+04  0.16051760371E+04 0.  0.
        1    1    3    3  502    0  0.20244029604E+02  0.74516627556E+03  0.41224875524E+03  0.85184014650E+03  0.50400001928E-02 0.  1.
       -1    1    3    3    0  502 -0.20244029604E+02 -0.74516627556E+03  0.12753885711E+04  0.14772605073E+04  0.50400001928E-02 0. -1.
</event>
<event>
 5   0  0.9673017E-05  0.1601182E+04  0.7818609E-02  0.8819822E-01
        1   -1    0    0  501    0  0.00000000000E+00  0.00000000000E+00  0.14246001593E+04  0.14246001593E+04  0.50400001928E-02 0. -1.
       -1   -1    0    0    0  501  0.00000000000E+00  0.00000000000E+00 -0.44991306724E+03  0.44991306727E+03  0.50400001928E-02 0.  1.
    10030    2    1    2    0    0  0.00000000000E+00  0.00000000000E+00  0.97468709205E+03  0.18745132266E+04  0.16011823473E+04 0.  0.
        1    1    3    3  502    0 -0.54008879425E+03 -0.39459148184E+03  0.10023846967E+04  0.12050615849E+04  0.50400001928E-02 0. -1.
       -1    1    3    3    0  502  0.54008879425E+03  0.39459148184E+03 -0.27697604634E+02  0.66945164168E+03  0.50400001928E-02 0.  1.
</event>
<event>
 5   0  0.9726935E-05  0.1604490E+04  0.7818609E-02  0.8817794E-01
       -1   -1    0    0    0  501  0.00000000000E+00  0.00000000000E+00  0.47735313961E+03  0.47735313964E+03  0.50400001928E-02 0.  1.
        1   -1    0    0  501    0  0.00000000000E+00  0.00000000000E+00 -0.13482623719E+04  0.13482623720E+04  0.50400001928E-02 0. -1.
    10030    2    1    2    0    0  0.00000000000E+00  0.00000000000E+00 -0.87090923233E+03  0.18256155116E+04  0.16044902945E+04 0.  0.
        2    1    3    3  502    0 -0.38292169940E+02 -0.28265836707E+03  0.41770688893E+03  0.50580736237E+03  0.25500000920E-02 0.  1.
       -2    1    3    3    0  502  0.38292169940E+02  0.28265836707E+03 -0.12886161213E+04  0.13198081492E+04  0.25500000920E-02 0. -1.
</event>
<event>
 5   0  0.9726935E-05  0.1602355E+04  0.7818609E-02  0.8819103E-01
        1   -1    0    0  501    0  0.00000000000E+00  0.00000000000E+00  0.11036909655E+04  0.11036909655E+04  0.50400001928E-02 0.  1.
       -1   -1    0    0    0  501  0.00000000000E+00  0.00000000000E+00 -0.58158046883E+03  0.58158046886E+03  0.50400001928E-02 0. -1.
    10030    2    1    2    0    0  0.00000000000E+00  0.00000000000E+00  0.52211049665E+03  0.16852714344E+04  0.16023546539E+04 0.  0.
        2    1    3    3  502    0  0.47990833818E+03  0.23052271783E+03 -0.36861739728E+03  0.64755812254E+03  0.25500000920E-02 0. -1.
       -2    1    3    3    0  502 -0.47990833818E+03 -0.23052271783E+03  0.89072789393E+03  0.10377133118E+04  0.25500000920E-02 0.  1.
</event>
<event>
 5   0  0.1835088E-04  0.1605123E+04  0.7818609E-02  0.8817407E-01
        2   -1    0    0  501    0  0.00000000000E+00  0.00000000000E+00  0.20987649047E+04  0.20987649047E+04  0.25500000920E-02 0. -1.
       -2   -1    0    0    0  501  0.00000000000E+00  0.00000000000E+00 -0.30689725495E+03  0.30689725496E+03  0.25500000920E-02 0.  1.
    10030    2    1    2    0    0  0.00000000000E+00  0.00000000000E+00  0.17918676497E+04  0.24056621596E+04  0.16051232826E+04 0.  0.
        5    1    3    3  502    0 -0.19800078973E+03  0.39378029160E+03 -0.10924568749E+03  0.45411886222E+03  0.46999998093E+01 0.  1.
       -5    1    3    3    0  502  0.19800078973E+03 -0.39378029160E+03  0.19011133372E+04  0.19515432974E+04  0.46999998093E+01 0. -1.
</event>
<event>
 5   0  0.9616567E-05  0.1601435E+04  0.7818609E-02  0.8819667E-01
        1   -1    0    0  501    0  0.00000000000E+00  0.00000000000E+00  0.16863701980E+04  0.16863701980E+04  0.50400001928E-02 0. -1.
       -1   -1    0    0    0  501  0.00000000000E+00  0.00000000000E+00 -0.38019457161E+03  0.38019457164E+03  0.50400001928E-02 0.  1.
    10030    2    1    2    0    0  0.00000000000E+00  0.00000000000E+00  0.13061756264E+04  0.20665647697E+04  0.16014353500E+04 0.  0.
        5    1    3    3  502    0 -0.55525898290E+03 -0.28524706420E+03  0.13001767049E+04  0.14422759721E+04  0.46999998093E+01 0. -1.
       -5    1    3    3    0  502  0.55525898290E+03  0.28524706420E+03  0.59989215242E+01  0.62428879758E+03  0.46999998093E+01 0.  1.
</event>
<event>
 5   0  0.9939872E-05  0.1597690E+04  0.7818609E-02  0.8821968E-01
       -1   -1    0    0    0  501  0.00000000000E+00  0.00000000000E+00  0.74723712106E+03  0.74723712108E+03  0.50400001928E-02 0.  1.
        1   -1    0    0  501    0  0.00000000000E+00  0.00000000000E+00 -0.85401756787E+03  0.85401756788E+03  0.50400001928E-02 0. -1.
    10030    2    1    2    0    0  0.00000000000E+00  0.00000000000E+00 -0.10678044681E+03  0.16012546890E+04  0.15976903690E+04 0.  0.
        3    1    3    3  502    0 -0.23439412236E+02 -0.74709210994E+03  0.22912086377E+03  0.78178795539E+03  0.10100000352E+00 0.  1.
       -3    1    3    3    0  502  0.23439412236E+02  0.74709210994E+03 -0.33590131057E+03  0.81946673357E+03  0.10100000352E+00 0. -1.
</event>
<event>
 5   0  0.9616567E-05  0.1626494E+04  0.7818609E-02  0.8804435E-01
        1   -1    0    0  501    0  0.00000000000E+00  0.00000000000E+00  0.56027278224E+03  0.56027278226E+03  0.50400001928E-02 0.  1.
       -1   -1    0    0    0  501  0.00000000000E+00  0.00000000000E+00 -0.11804436773E+04  0.11804436773E+04  0.50400001928E-02 0. -1.
    10030    2    1    2    0    0  0.00000000000E+00  0.00000000000E+00 -0.62017089506E+03  0.17407164596E+04  0.16264937299E+04 0.  0.
        5    1    3    3  502    0  0.10367555032E+03  0.98754225680E+02 -0.11668331354E+04  0.11755946039E+04  0.46999998093E+01 0. -1.
       -5    1    3    3    0  502 -0.10367555032E+03 -0.98754225680E+02  0.54666224031E+03  0.56512185571E+03  0.46999998093E+01 0.  1.
</event>
<event>
 5   0  0.9432152E-05  0.1597368E+04  0.7818609E-02  0.8822166E-01
        1   -1    0    0  501    0  0.00000000000E+00  0.00000000000E+00  0.10343924369E+04  0.10343924369E+04  0.50400001928E-02 0. -1.
       -1   -1    0    0    0  501  0.00000000000E+00  0.00000000000E+00 -0.61668702166E+03  0.61668702168E+03  0.50400001928E-02 0.  1.
    10030    2    1    2    0    0  0.00000000000E+00  0.00000000000E+00  0.41770541521E+03  0.16510794586E+04  0.15973683246E+04 0.  0.
        4    1    3    3  502    0  0.12815095860E+03  0.57282128430E+03 -0.35097499800E+03  0.68390931712E+03  0.12699999809E+01 0.  1.
       -4    1    3    3    0  502 -0.12815095860E+03 -0.57282128430E+03  0.76868041320E+03  0.96717014143E+03  0.12699999809E+01 0. -1.
</event>
<event>
 5   0  0.1832646E-04  0.1594413E+04  0.7818609E-02  0.8823988E-01
       -2   -1    0    0    0  501  0.00000000000E+00  0.00000000000E+00  0.56386541049E+03  0.56386541050E+03  0.25500000920E-02 0. -1.
        2   -1    0    0  501    0  0.00000000000E+00  0.00000000000E+00 -0.11271095240E+04  0.11271095240E+04  0.25500000920E-02 0.  1.
    10030    2    1    2    0    0  0.00000000000E+00  0.00000000000E+00 -0.56324411350E+03  0.16909749345E+04  0.15944128379E+04 0.  0.
        2    1    3    3  502    0  0.49286638655E+03  0.60513040880E+03 -0.45406704863E+03  0.90292689145E+03  0.25500000920E-02 0. -1.
       -2    1    3    3    0  502 -0.49286638655E+03 -0.60513040880E+03 -0.10917706487E+03  0.78804804304E+03  0.25500000920E-02 0.  1.
</event>
<event>
 5   0  0.1774934E-04  0.1604290E+04  0.7818609E-02  0.8817917E-01
       -2   -1    0    0    0  501  0.00000000000E+00  0.00000000000E+00  0.73245956404E+03  0.73245956404E+03  0.25500000920E-02 0.  1.
        2   -1    0    0  501    0  0.00000000000E+00  0.00000000000E+00 -0.87846037727E+03  0.87846037727E+03  0.25500000920E-02 0. -1.
    10030    2    1    2    0    0  0.00000000000E+00  0.00000000000E+00 -0.14600081323E+03  0.16109199413E+04  0.16042901296E+04 0.  0.
        1    1    3    3  502    0  0.31236939581E+03  0.45961308420E+03 -0.65385257734E+03  0.85810373471E+03  0.50400001928E-02 0. -1.
       -1    1    3    3    0  502 -0.31236939581E+03 -0.45961308420E+03  0.50785176410E+03  0.75281620661E+03  0.50400001928E-02 0.  1.
</event>
<event>
 5   0  0.9616567E-05  0.1597124E+04  0.7818609E-02  0.8822317E-01
       -1   -1    0    0    0  501  0.00000000000E+00  0.00000000000E+00  0.10250595722E+04  0.10250595722E+04  0.50400001928E-02 0. -1.
        1   -1    0    0  501    0  0.00000000000E+00  0.00000000000E+00 -0.62211123445E+03  0.62211123447E+03  0.50400001928E-02 0.  1.
    10030    2    1    2    0    0  0.00000000000E+00  0.00000000000E+00  0.40294833771E+03  0.16471708066E+04  0.15971237596E+04 0.  0.
        5    1    3    3  502    0  0.66265855749E+03  0.15012373887E+03 -0.23122677338E+03  0.71773352402E+03  0.46999998093E+01 0. -1.
       -5    1    3    3    0  502 -0.66265855749E+03 -0.15012373887E+03  0.63417511109E+03  0.92943728261E+03  0.46999998093E+01 0.  1.
</event>
<event>
 5   0  0.9726935E-05  0.1602726E+04  0.7818609E-02  0.8818875E-01
        1   -1    0    0  501    0  0.00000000000E+00  0.00000000000E+00  0.92579000994E+03  0.92579000995E+03  0.50400001928E-02 0. -1.
       -1   -1    0    0    0  501  0.00000000000E+00  0.00000000000E+00 -0.69365870857E+03  0.69365870859E+03  0.50400001928E-02 0.  1.
    10030    2    1    2    0    0  0.00000000000E+00  0.00000000000E+00  0.23213130137E+03  0.16194487185E+04  0.16027255570E+04 0.  0.
        2    1    3    3  502    0 -0.82977094760E+02 -0.32104882541E+03  0.85321514818E+03  0.91538715069E+03  0.25500000920E-02 0. -1.
       -2    1    3    3    0  502  0.82977094760E+02  0.32104882541E+03 -0.62108384682E+03  0.70406156786E+03  0.25500000920E-02 0.  1.
</event>
<event>
 5   0  0.9939872E-05  0.1596307E+04  0.7818609E-02  0.8822820E-01
       -1   -1    0    0    0  501  0.00000000000E+00  0.00000000000E+00  0.24977332544E+03  0.24977332549E+03  0.50400001928E-02 0. -1.
        1   -1    0    0  501    0  0.00000000000E+00  0.00000000000E+00 -0.25505100945E+04  0.25505100945E+04  0.50400001928E-02 0.  1.
    10030    2    1    2    0    0  0.00000000000E+00  0.00000000000E+00 -0.23007367691E+04  0.28002834200E+04  0.15963074741E+04 0.  0.
        3    1    3    3  502    0 -0.17461387555E+03  0.54382212540E+03 -0.21283658561E+04  0.22036727836E+04  0.10100000352E+00 0.  1.
       -3    1    3    3    0  502  0.17461387555E+03 -0.54382212540E+03 -0.17237091295E+03  0.59661063638E+03  0.10100000352E+00 0. -1.
</event>
<event>
 5   0  0.1832646E-04  0.1607129E+04  0.7818609E-02  0.8816180E-01
        2   -1    0    0  501    0  0.00000000000E+00  0.00000000000E+00  0.11806196030E+04  0.11806196030E+04  0.25500000920E-02 0. -1.
       -2   -1    0    0    0  501  0.00000000000E+00  0.00000000000E+00 -0.54692982865E+03  0.54692982866E+03  0.25500000920E-02 0.  1.
    10030    2    1    2    0    0  0.00000000000E+00  0.00000000000E+00  0.63368977438E+03  0.17275494317E+04  0.16071292135E+04 0.  0.
        2    1    3    3  502    0  0.53226101153E+03 -0.48602529511E+03  0.69869993294E+03  0.10038445936E+04  0.25500000920E-02 0. -1.
       -2    1    3    3    0  502 -0.53226101153E+03  0.48602529511E+03 -0.65010158568E+02  0.72370483804E+03  0.25500000920E-02 0.  1.
</event>
<event>
 5   0  0.1774934E-04  0.1596596E+04  0.7818609E-02  0.8822642E-01
        2   -1    0    0  501    0  0.00000000000E+00  0.00000000000E+00  0.86007243482E+03  0.86007243482E+03  0.25500000920E-02 0. -1.
       -2   -1    0    0    0  501  0.00000000000E+00  0.00000000000E+00 -0.74096077916E+03  0.74096077917E+03  0.25500000920E-02 0.  1.
    10030    2    1    2    0    0  0.00000000000E+00  0.00000000000E+00  0.11911165565E+03  0.16010332140E+04  0.15965963065E+04 0.  0.
        1    1    3    3  502    0 -0.30291363652E+03  0.68041907606E+03  0.34767492758E+03  0.82195172945E+03  0.50400001928E-02 0.  1.
       -1    1    3    3    0  502  0.30291363652E+03 -0.68041907606E+03 -0.22856327193E+03  0.77908148454E+03  0.50400001928E-02 0. -1.
</event>
<event>
 5   0  0.9673017E-05  0.1599529E+04  0.7818609E-02  0.8820837E-01
        1   -1    0    0  501    0  0.00000000000E+00  0.00000000000E+00  0.17971789594E+04  0.17971789594E+04  0.50400001928E-02 0. -1.
       -1   -1    0    0    0  501  0.00000000000E+00  0.00000000000E+00 -0.35590410958E+03  0.35590410961E+03  0.50400001928E-02 0.  1.
    10030    2    1    2    0    0  0.00000000000E+00  0.00000000000E+00  0.14412748498E+04  0.21530830690E+04  0.15995291524E+04 0.  0.
        1    1    3    3  502    0  0.48191482715E+03 -0.47932360349E+03  0.15331856188E+03  0.69677801266E+03  0.50400001928E-02 0. -1.
       -1    1    3    3    0  502 -0.48191482715E+03  0.47932360349E+03  0.12879562879E+04  0.14563050564E+04  0.50400001928E-02 0.  1.
</event>
<event>
 5   0  0.1832646E-04  0.1606633E+04  0.7818609E-02  0.8816483E-01
        2   -1    0    0  501    0  0.00000000000E+00  0.00000000000E+00  0.22850407235E+04  0.22850407235E+04  0.25500000920E-02 0. -1.
       -2   -1    0    0    0  501  0.00000000000E+00  0.00000000000E+00 -0.28240956230E+03  0.28240956231E+03  0.25500000920E-02 0.  1.
    10030    2    1    2    0    0  0.00000000000E+00  0.00000000000E+00  0.20026311612E+04  0.25674502858E+04  0.16066329395E+04 0.  0.
        2    1    3    3  502    0 -0.36891426203E+03 -0.61425407653E+03  0.15817147518E+04  0.17364410037E+04  0.25500000920E-02 0. -1.
       -2    1    3    3    0  502  0.36891426203E+03  0.61425407653E+03  0.42091640943E+03  0.83100928214E+03  0.25500000920E-02 0.  1.
</event>
<event>
 5   0  0.9432152E-05  0.1598122E+04  0.7818609E-02  0.8821703E-01
        1   -1    0    0  501    0  0.00000000000E+00  0.00000000000E+00  0.52654131528E+03  0.52654131530E+03  0.50400001928E-02 0. -1.
       -1   -1    0    0    0  501  0.00000000000E+00  0.00000000000E+00 -0.12126274526E+04  0.12126274526E+04  0.50400001928E-02 0.  1.
    10030    2    1    2    0    0  0.00000000000E+00  0.00000000000E+00 -0.68608613728E+03  0.17391687679E+04  0.15981219651E+04 0.  0.
        4    1    3    3  502    0  0.63892442474E+03  0.36209916946E+03 -0.68572613670E+03  0.10047697132E+04  0.12699999809E+01 0.  1.
       -4    1    3    3    0  502 -0.63892442474E+03 -0.36209916946E+03 -0.36000058416E+00  0.73439905470E+03  0.12699999809E+01 0. -1.
</event>
<event>
 5   0  0.6838750E-05  0.1630515E+04  0.7818609E-02  0.8802018E-01
        3   -1    0    0  501    0  0.00000000000E+00  0.00000000000E+00  0.16022727450E+04  0.16022727482E+04  0.10100000352E+00 0. -1.
       -3   -1    0    0    0  501  0.00000000000E+00  0.00000000000E+00 -0.41481359455E+03  0.41481360685E+03  0.10100000352E+00 0.  1.
    10030    2    1    2    0    0  0.00000000000E+00  0.00000000000E+00  0.11874591504E+04  0.20170863550E+04  0.16305146824E+04 0.  0.
        5    1    3    3  502    0 -0.66519994208E+03  0.37622708195E+03  0.94490650100E+03  0.12152811057E+04  0.46999998093E+01 0. -1.
       -5    1    3    3    0  502  0.66519994208E+03 -0.37622708195E+03  0.24255264941E+03  0.80180524934E+03  0.46999998093E+01 0.  1.
</event>
<event>
 5   0  0.9939872E-05  0.1606540E+04  0.7818609E-02  0.8816540E-01
       -1   -1    0    0    0  501  0.00000000000E+00  0.00000000000E+00  0.57494430526E+03  0.57494430528E+03  0.50400001928E-02 0.  1.
        1   -1    0    0  501    0  0.00000000000E+00  0.00000000000E+00 -0.11222701767E+04  0.11222701767E+04  0.50400001928E-02 0. -1.
    10030    2    1    2    0    0  0.00000000000E+00  0.00000000000E+00 -0.54732587143E+03  0.16972144820E+04  0.16065401919E+04 0.  0.
        3    1    3    3  502    0 -0.67787668802E+03  0.15172529468E+03 -0.69979695617E+03  0.98602898501E+03  0.10100000352E+00 0. -1.
       -3    1    3    3    0  502  0.67787668802E+03 -0.15172529468E+03  0.15247108474E+03  0.71118549697E+03  0.10100000352E+00 0.  1.
</event>
<event>
 5   0  0.1835088E-04  0.1598612E+04  0.7818609E-02  0.8821401E-01
        2   -1    0    0  501    0  0.00000000000E+00  0.00000000000E+00  0.10088494195E+04  0.10088494195E+04  0.25500000920E-02 0.  1.
       -2   -1    0    0    0  501  0.00000000000E+00  0.00000000000E+00 -0.63328596525E+03  0.63328596525E+03  0.25500000920E-02 0. -1.
    10030    2    1    2    0    0  0.00000000000E+00  0.00000000000E+00  0.37556345422E+03  0.16421353847E+04  0.15986121211E+04 0.  0.
        5    1    3    3  502    0  0.39008103644E+03 -0.88227360182E+02 -0.52310058809E+03  0.65848583685E+03  0.46999998093E+01 0. -1.
       -5    1    3    3    0  502 -0.39008103644E+03  0.88227360182E+02  0.89866404231E+03  0.98364954787E+03  0.46999998093E+01 0.  1.
</event>
<event>
 5   0  0.1832646E-04  0.1578879E+04  0.7818609E-02  0.8833629E-01
       -2   -1    0    0    0  501  0.00000000000E+00  0.00000000000E+00  0.39713274405E+03  0.39713274406E+03  0.25500000920E-02 0.  1.
        2   -1    0    0  501    0  0.00000000000E+00  0.00000000000E+00 -0.15692858207E+04  0.15692858207E+04  0.25500000920E-02 0. -1.
    10030    2    1    2    0    0  0.00000000000E+00  0.00000000000E+00 -0.11721530767E+04  0.19664185648E+04  0.15788790760E+04 0.  0.
        2    1    3    3  502    0  0.63686594966E+03 -0.46512638611E+03 -0.63053048533E+03  0.10097076239E+04  0.25500000920E-02 0. -1.
       -2    1    3    3    0  502 -0.63686594966E+03  0.46512638611E+03 -0.54162259134E+03  0.95671094085E+03  0.25500000920E-02 0.  1.
</event>
<event>
 5   0  0.6838750E-05  0.1601140E+04  0.7818609E-02  0.8819848E-01
       -3   -1    0    0    0  501  0.00000000000E+00  0.00000000000E+00  0.97220459059E+03  0.97220459584E+03  0.10100000352E+00 0.  1.
        3   -1    0    0  501    0  0.00000000000E+00  0.00000000000E+00 -0.65923566291E+03  0.65923567064E+03  0.10100000352E+00 0. -1.
    10030    2    1    2    0    0  0.00000000000E+00  0.00000000000E+00  0.31296892769E+03  0.16314402665E+04  0.16011395297E+04 0.  0.
        2    1    3    3  502    0  0.40211565341E+03  0.35024485505E+03  0.76489713979E+03  0.93243556971E+03  0.25500000920E-02 0.  1.
       -2    1    3    3    0  502 -0.40211565341E+03 -0.35024485505E+03 -0.45192821210E+03  0.69900469677E+03  0.25500000920E-02 0. -1.
</event>
<event>
 5   0  0.9616567E-05  0.1597799E+04  0.7818609E-02  0.8821901E-01
        1   -1    0    0  501    0  0.00000000000E+00  0.00000000000E+00  0.83633530585E+03  0.83633530586E+03  0.50400001928E-02 0. -1.
       -1   -1    0    0    0  501  0.00000000000E+00  0.00000000000E+00 -0.76313908779E+03  0.76313908780E+03  0.50400001928E-02 0.  1.
    10030    2    1    2    0    0  0.00000000000E+00  0.00000000000E+00  0.73196218061E+02  0.15994743937E+04  0.15977986887E+04 0.  0.
        5    1    3    3  502    0 -0.35786553245E+02 -0.78920584107E+03 -0.82234160070E+02  0.79429911497E+03  0.46999998093E+01 0.  1.
       -5    1    3    3    0  502  0.35786553245E+02  0.78920584107E+03  0.15543037813E+03  0.80517527869E+03  0.46999998093E+01 0. -1.
</event>
<event>
 5   0  0.9726935E-05  0.1600889E+04  0.7818609E-02  0.8820002E-01
       -1   -1    0    0    0  501  0.00000000000E+00  0.00000000000E+00  0.77227955465E+03  0.77227955466E+03  0.50400001928E-02 0.  1.
        1   -1    0    0  501    0  0.00000000000E+00  0.00000000000E+00 -0.82963646680E+03  0.82963646682E+03  0.50400001928E-02 0. -1.
    10030    2    1    2    0    0  0.00000000000E+00  0.00000000000E+00 -0.57356912153E+02  0.16019160215E+04  0.16008888545E+04 0.  0.
        2    1    3    3  502    0 -0.62009007713E+03 -0.16373440282E+02 -0.53489976755E+03  0.81908336245E+03  0.25500000920E-02 0. -1.
       -2    1    3    3    0  502  0.62009007713E+03  0.16373440282E+02  0.47754285539E+03  0.78283265903E+03  0.25500000920E-02 0.  1.
</event>
<event>
 5   0  0.9673017E-05  0.1667132E+04  0.7818609E-02  0.8780336E-01
        1   -1    0    0  501    0  0.00000000000E+00  0.00000000000E+00  0.11484941110E+04  0.11484941110E+04  0.50400001928E-02 0. -1.
       -1   -1    0    0    0  501  0.00000000000E+00  0.00000000000E+00 -0.60499399999E+03  0.60499400001E+03  0.50400001928E-02 0.  1.
    10030    2    1    2    0    0  0.00000000000E+00  0.00000000000E+00  0.54350011099E+03  0.17534881110E+04  0.16671317239E+04 0.  0.
        1    1    3    3  502    0 -0.18225571907E+01  0.69315392425E+03  0.75873017105E+03  0.10276853394E+04  0.50400001928E-02 0. -1.
       -1    1    3    3    0  502  0.18225571907E+01 -0.69315392425E+03 -0.21523006006E+03  0.72580277156E+03  0.50400001928E-02 0.  1.
</event>
<event>
 5   0  0.1832646E-04  0.1597977E+04  0.7818609E-02  0.8821792E-01
       -2   -1    0    0    0  501  0.00000000000E+00  0.00000000000E+00  0.29660408002E+03  0.29660408003E+03  0.25500000920E-02 0. -1.
        2   -1    0    0  501    0  0.00000000000E+00  0.00000000000E+00 -0.21523053698E+04  0.21523053698E+04  0.25500000920E-02 0.  1.
    10030    2    1    2    0    0  0.00000000000E+00  0.00000000000E+00 -0.18557012898E+04  0.24489094498E+04  0.15979769136E+04 0.  0.
        2    1    3    3  502    0  0.29592468636E+03 -0.68113362048E+03 -0.47616899138E+03  0.88218554585E+03  0.25500000920E-02 0. -1.
       -2    1    3    3    0  502 -0.29592468636E+03  0.68113362048E+03 -0.13795322984E+04  0.15667239040E+04  0.25500000920E-02 0.  1.
</event>
<event>
 5   0  0.9673017E-05  0.1597011E+04  0.7818609E-02  0.8822386E-01
       -1   -1    0    0    0  501  0.00000000000E+00  0.00000000000E+00  0.74501445661E+03  0.74501445663E+03  0.50400001928E-02 0. -1.
        1   -1    0    0  501    0  0.00000000000E+00  0.00000000000E+00 -0.85583710534E+03  0.85583710535E+03  0.50400001928E-02 0.  1.
    10030    2    1    2    0    0  0.00000000000E+00  0.00000000000E+00 -0.11082264873E+03  0.16008515620E+04  0.15970109781E+04 0.  0.
        1    1    3    3  502    0  0.15817517594E+03  0.50874758480E+03  0.54080264027E+03  0.75915149152E+03  0.50400001928E-02 0. -1.
       -1    1    3    3    0  502 -0.15817517594E+03 -0.50874758480E+03 -0.65162528900E+03  0.84170007046E+03  0.50400001928E-02 0.  1.
</event>
<event>
 5   0  0.1835088E-04  0.1595567E+04  0.7818609E-02  0.8823276E-01
       -2   -1    0    0    0  501  0.00000000000E+00  0.00000000000E+00  0.26627482672E+03  0.26627482673E+03  0.25500000920E-02 0. -1.
        2   -1    0    0  501    0  0.00000000000E+00  0.00000000000E+00 -0.23902320492E+04  0.23902320492E+04  0.25500000920E-02 0.  1.
    10030    2    1    2    0    0  0.00000000000E+00  0.00000000000E+00 -0.21239572225E+04  0.26565068759E+04  0.15955671402E+04 0.  0.
        5    1    3    3  502    0  0.28137228951E+03 -0.26706734141E+03  0.98635171343E+02  0.40030777806E+03  0.46999998093E+01 0. -1.
       -5    1    3    3    0  502 -0.28137228951E+03  0.26706734141E+03 -0.22225923938E+04  0.22561990979E+04  0.46999998093E+01 0.  1.
</event>
<event>
 5   0  0.9939872E-05  0.1630767E+04  0.7818609E-02  0.8801866E-01
       -1   -1    0    0    0  501  0.00000000000E+00  0.00000000000E+00  0.69759381408E+03  0.69759381409E+03  0.50400001928E-02 0.  1.
        1   -1    0    0  501    0  0.00000000000E+00  0.00000000000E+00 -0.95306226181E+03  0.95306226182E+03  0.50400001928E-02 0. -1.
    10030    2    1    2    0    0  0.00000000000E+00  0.00000000000E+00 -0.25546844773E+03  0.16506560759E+04  0.16307671057E+04 0.  0.
        3    1    3    3  502    0 -0.18255638136E+03  0.33932780952E+03 -0.85509422517E+03  0.93789996205E+03  0.10100000352E+00 0. -1.
       -3    1    3    3    0  502  0.18255638136E+03 -0.33932780952E+03  0.59962577744E+03  0.71275611387E+03  0.10100000352E+00 0.  1.
</event>
<event>
 5   0  0.9616567E-05  0.1600581E+04  0.7818609E-02  0.8820191E-01
        1   -1    0    0  501    0  0.00000000000E+00  0.00000000000E+00  0.92306204663E+03  0.92306204665E+03  0.50400001928E-02 0.  1.
       -1   -1    0    0    0  501  0.00000000000E+00  0.00000000000E+00 -0.69384840004E+03  0.69384840006E+03  0.50400001928E-02 0. -1.
    10030    2    1    2    0    0  0.00000000000E+00  0.00000000000E+00  0.22921364659E+03  0.16169104467E+04  0.16005812997E+04 0.  0.
        5    1    3    3  502    0 -0.40308572728E+02 -0.96010148805E+02 -0.68696177117E+03  0.69482465036E+03  0.46999998093E+01 0. -1.
       -5    1    3    3    0  502  0.40308572728E+02  0.96010148805E+02  0.91617541776E+03  0.92208579634E+03  0.46999998093E+01 0.  1.
</event>
<event>
 5   0  0.9616567E-05  0.1598407E+04  0.7818609E-02  0.8821527E-01
        1   -1    0    0  501    0  0.00000000000E+00  0.00000000000E+00  0.12169225657E+04  0.12169225657E+04  0.50400001928E-02 0. -1.
       -1   -1    0    0    0  501  0.00000000000E+00  0.00000000000E+00 -0.52487033581E+03  0.52487033584E+03  0.50400001928E-02 0.  1.
    10030    2    1    2    0    0  0.00000000000E+00  0.00000000000E+00  0.69205222988E+03  0.17417929015E+04  0.15984074021E+04 0.  0.
        5    1    3    3  502    0 -0.56047947143E+03  0.35356834018E+03 -0.14076444081E+03  0.67748396798E+03  0.46999998093E+01 0.  1.
       -5    1    3    3    0  502  0.56047947143E+03 -0.35356834018E+03  0.83281667069E+03  0.10643089336E+04  0.46999998093E+01 0. -1.
</event>
<event>
 5   0  0.1832646E-04  0.1606400E+04  0.7818609E-02  0.8816626E-01
        2   -1    0    0  501    0  0.00000000000E+00  0.00000000000E+00  0.12224927295E+04  0.12224927295E+04  0.25500000920E-02 0.  1.
       -2   -1    0    0    0  501  0.00000000000E+00  0.00000000000E+00 -0.52771706752E+03  0.52771706752E+03  0.25500000920E-02 0. -1.
    10030    2    1    2    0    0  0.00000000000E+00  0.00000000000E+00  0.69477566195E+03  0.17502097970E+04  0.16064000476E+04 0.  0.
        2    1    3    3  502    0 -0.46617286591E+03 -0.49271407860E+03 -0.12129195469E+03  0.68905445535E+03  0.25500000920E-02 0. -1.
       -2    1    3    3    0  502  0.46617286591E+03  0.49271407860E+03  0.81606761664E+03  0.10611553416E+04  0.25500000920E-02 0.  1.
</event>
<event>
 5   0  0.6838750E-05  0.1596711E+04  0.7818609E-02  0.8822571E-01
        3   -1    0    0  501    0  0.00000000000E+00  0.00000000000E+00  0.68008037466E+03  0.68008038216E+03  0.10100000352E+00 0.  1.
       -3   -1    0    0    0  501  0.00000000000E+00  0.00000000000E+00 -0.93720069210E+03  0.93720069754E+03  0.10100000352E+00 0. -1.
    10030    2    1    2    0    0  0.00000000000E+00  0.00000000000E+00 -0.25712031743E+03  0.16172810797E+04  0.15967113807E+04 0.  0.
        2    1    3    3  502    0 -0.35734394700E+03  0.32926498385E+03 -0.77017282638E+03  0.91064609402E+03  0.25500000920E-02 0. -1.
       -2    1    3    3    0  502  0.35734394700E+03 -0.32926498385E+03  0.51305250895E+03  0.70663498568E+03  0.25500000920E-02 0.  1.
</event>
<event>
 5   0  0.9673017E-05  0.1599035E+04  0.7818609E-02  0.8821141E-01
       -1   -1    0    0    0  501  0.00000000000E+00  0.00000000000E+00  0.46062098179E+03  0.46062098181E+03  0.50400001928E-02 0. -1.
        1   -1    0    0  501    0  0.00000000000E+00  0.00000000000E+00 -0.13877532312E+04  0.13877532312E+04  0.50400001928E-02 0.  1.
    10030    2    1    2    0    0  0.00000000000E+00  0.00000000000E+00 -0.92713224942E+03  0.18483742130E+04  0.15990350288E+04 0.  0.
        1    1    3    3  502    0  0.46111454179E+03  0.91904451697E+02  0.28391577024E+03  0.54925514427E+03  0.50400001928E-02 0. -1.
       -1    1    3    3    0  502 -0.46111454179E+03 -0.91904451697E+02 -0.12110480197E+04  0.12991190688E+04  0.50400001928E-02 0.  1.
</event>
<event>
 5   0  0.1832646E-04  0.1497622E+04  0.7818609E-02  0.8886036E-01
        2   -1    0    0  501    0  0.00000000000E+00  0.00000000000E+00  0.91762467362E+03  0.91762467362E+03  0.25500000920E-02 0.  1.
       -2   -1    0    0    0  501  0.00000000000E+00  0.00000000000E+00 -0.61105376934E+03  0.61105376934E+03  0.25500000920E-02 0. -1.
    10030    2    1    2    0    0  0.00000000000E+00  0.00000000000E+00  0.30657090428E+03  0.15286784430E+04  0.14976221361E+04 0.  0.
        2    1    3    3  502    0 -0.19769254623E+02 -0.74330828237E+03  0.63020952727E+02  0.74623700428E+03  0.25500000920E-02 0. -1.
       -2    1    3    3    0  502  0.19769254623E+02  0.74330828237E+03  0.24354995155E+03  0.78244143868E+03  0.25500000920E-02 0.  1.
</event>
<event>
 5   0  0.9726935E-05  0.1600175E+04  0.7818609E-02  0.8820441E-01
       -1   -1    0    0    0  501  0.00000000000E+00  0.00000000000E+00  0.79205678799E+03  0.79205678801E+03  0.50400001928E-02 0. -1.
        1   -1    0    0  501    0  0.00000000000E+00  0.00000000000E+00 -0.80819927945E+03  0.80819927946E+03  0.50400001928E-02 0.  1.
    10030    2    1    2    0    0  0.00000000000E+00  0.00000000000E+00 -0.16142491453E+02  0.16002560675E+04  0.16001746472E+04 0.  0.
        2    1    3    3  502    0 -0.51172659919E+03 -0.59220777646E+03  0.15796600251E+03  0.79845314250E+03  0.25500000920E-02 0. -1.
       -2    1    3    3    0  502  0.51172659919E+03  0.59220777646E+03 -0.17410849396E+03  0.80180292497E+03  0.25500000920E-02 0.  1.
</event>
<event>
 5   0  0.9726935E-05  0.1599781E+04  0.7818609E-02  0.8820682E-01
       -1   -1    0    0    0  501  0.00000000000E+00  0.00000000000E+00  0.42450145227E+03  0.42450145230E+03  0.50400001928E-02 0.  1.
        1   -1    0    0  501    0  0.00000000000E+00  0.00000000000E+00 -0.15072391418E+04  0.15072391418E+04  0.50400001928E-02 0. -1.
    10030    2    1    2    0    0  0.00000000000E+00  0.00000000000E+00 -0.10827376895E+04  0.19317405941E+04  0.15997814909E+04 0.  0.
        2    1    3    3  502    0 -0.38934364398E+02  0.15621561188E+03 -0.14874732799E+04  0.14961604060E+04  0.25500000920E-02 0. -1.
       -2    1    3    3    0  502  0.38934364398E+02 -0.15621561188E+03  0.40473559037E+03  0.43558018808E+03  0.25500000920E-02 0.  1.
</event>
<event>
 5   0  0.9432152E-05  0.1606622E+04  0.7818609E-02  0.8816490E-01
       -1   -1    0    0    0  501  0.00000000000E+00  0.00000000000E+00  0.37788397871E+03  0.37788397875E+03  0.50400001928E-02 0.  1.
        1   -1    0    0  501    0  0.00000000000E+00  0.00000000000E+00 -0.17076896046E+04  0.17076896046E+04  0.50400001928E-02 0. -1.
    10030    2    1    2    0    0  0.00000000000E+00  0.00000000000E+00 -0.13298056259E+04  0.20855735833E+04  0.16066219745E+04 0.  0.
        4    1    3    3  502    0  0.15796666980E+03  0.23801411948E+03 -0.16395263318E+04  0.16642272668E+04  0.12699999809E+01 0. -1.
       -4    1    3    3    0  502 -0.15796666980E+03 -0.23801411948E+03  0.30972070598E+03  0.42134631653E+03  0.12699999809E+01 0.  1.
</event>
<event>
 5   0  0.9432152E-05  0.1600287E+04  0.7818609E-02  0.8820372E-01
        1   -1    0    0  501    0  0.00000000000E+00  0.00000000000E+00  0.13928032682E+04  0.13928032682E+04  0.50400001928E-02 0.  1.
       -1   -1    0    0    0  501  0.00000000000E+00  0.00000000000E+00 -0.45966967859E+03  0.45966967862E+03  0.50400001928E-02 0. -1.
    10030    2    1    2    0    0  0.00000000000E+00  0.00000000000E+00  0.93313358961E+03  0.18524729468E+04  0.16002867626E+04 0.  0.
        4    1    3    3  502    0  0.40219705861E+03  0.66798324123E+03  0.25863956351E+03  0.82149870434E+03  0.12699999809E+01 0.  1.
       -4    1    3    3    0  502 -0.40219705861E+03 -0.66798324123E+03  0.67449402610E+03  0.10309742425E+04  0.12699999809E+01 0. -1.
</event>
<event>
 5   0  0.9616567E-05  0.1591920E+04  0.7818609E-02  0.8825527E-01
        1   -1    0    0  501    0  0.00000000000E+00  0.00000000000E+00  0.58681269783E+03  0.58681269785E+03  0.50400001928E-02 0.  1.
       -1   -1    0    0    0  501  0.00000000000E+00  0.00000000000E+00 -0.10796499952E+04  0.10796499952E+04  0.50400001928E-02 0. -1.
    10030    2    1    2    0    0  0.00000000000E+00  0.00000000000E+00 -0.49283729735E+03  0.16664626930E+04  0.15919200060E+04 0.  0.
        5    1    3    3  502    0  0.50292001742E+03  0.21867285632E+03  0.35746808879E+03  0.65463874505E+03  0.46999998093E+01 0.  1.
       -5    1    3    3    0  502 -0.50292001742E+03 -0.21867285632E+03 -0.85030538614E+03  0.10118239480E+04  0.46999998093E+01 0. -1.
</event>
<event>
 5   0  0.9939872E-05  0.1600261E+04  0.7818609E-02  0.8820388E-01
        1   -1    0    0  501    0  0.00000000000E+00  0.00000000000E+00  0.19215660547E+04  0.19215660547E+04  0.50400001928E-02 0.  1.
       -1   -1    0    0    0  501  0.00000000000E+00  0.00000000000E+00 -0.33317032416E+03  0.33317032420E+03  0.50400001928E-02 0. -1.
    10030    2    1    2    0    0  0.00000000000E+00  0.00000000000E+00  0.15883957305E+04  0.22547363789E+04  0.16002609605E+04 0.  0.
        3    1    3    3  502    0  0.25332737168E+03 -0.35682520949E+03 -0.14961899887E+03  0.46247685607E+03  0.10100000352E+00 0. -1.
       -3    1    3    3    0  502 -0.25332737168E+03  0.35682520949E+03  0.17380147294E+04  0.17922595228E+04  0.10100000352E+00 0.  1.
</event>
<event>
 5   0  0.1835088E-04  0.1602728E+04  0.7818609E-02  0.8818874E-01
       -2   -1    0    0    0  501  0.00000000000E+00  0.00000000000E+00  0.16976737249E+04  0.16976737249E+04  0.25500000920E-02 0. -1.
        2   -1    0    0  501    0  0.00000000000E+00  0.00000000000E+00 -0.37827292171E+03  0.37827292172E+03  0.25500000920E-02 0.  1.
    10030    2    1    2    0    0  0.00000000000E+00  0.00000000000E+00  0.13194008032E+04  0.20759466466E+04  0.16027276750E+04 0.  0.
        5    1    3    3  502    0 -0.53470094649E+03  0.37714833198E+03  0.60489762711E+02  0.65713550192E+03  0.46999998093E+01 0.  1.
       -5    1    3    3    0  502  0.53470094649E+03 -0.37714833198E+03  0.12589110404E+04  0.14188111447E+04  0.46999998093E+01 0. -1.
</event>
<event>
 5   0  0.9616567E-05  0.1599539E+04  0.7818609E-02  0.8820831E-01
        1   -1    0    0  501    0  0.00000000000E+00  0.00000000000E+00  0.79526306641E+03  0.79526306643E+03  0.50400001928E-02 0.  1.
       -1   -1    0    0    0  501  0.00000000000E+00  0.00000000000E+00 -0.80430180760E+03  0.80430180761E+03  0.50400001928E-02 0. -1.
    10030    2    1    2    0    0  0.00000000000E+00  0.00000000000E+00 -0.90387411830E+01  0.15995648740E+04  0.15995393360E+04 0.  0.
        5    1    3    3  502    0  0.61434739985E+02 -0.18300337605E+03  0.77160188476E+03  0.79539676985E+03  0.46999998093E+01 0.  1.
       -5    1    3    3    0  502 -0.61434739985E+02  0.18300337605E+03 -0.78064062595E+03  0.80416810419E+03  0.46999998093E+01 0. -1.
</event>
<event>
 5   0  0.1774934E-04  0.1600534E+04  0.7818609E-02  0.8820220E-01
       -2   -1    0    0    0  501  0.00000000000E+00  0.00000000000E+00  0.12849819102E+04  0.12849819102E+04  0.25500000920E-02 0.  1.
        2   -1    0    0  501    0  0.00000000000E+00  0.00000000000E+00 -0.49839424658E+03  0.49839424658E+03  0.25500000920E-02 0. -1.
    10030    2    1    2    0    0  0.00000000000E+00  0.00000000000E+00  0.78658766363E+03  0.17833761568E+04  0.16005343995E+04 0.  0.
        1    1    3    3  502    0  0.13951710760E+03  0.48148879787E+03  0.10883596271E+04  0.11982583877E+04  0.50400001928E-02 0.  1.
       -1    1    3    3    0  502 -0.13951710760E+03 -0.48148879787E+03 -0.30177196344E+03  0.58511776911E+03  0.50400001928E-02 0. -1.
</event>
<event>
 5   0  0.9939872E-05  0.1599632E+04  0.7818609E-02  0.8820774E-01
       -1   -1    0    0    0  501  0.00000000000E+00  0.00000000000E+00  0.51035539357E+03  0.51035539359E+03  0.50400001928E-02 0. -1.
        1   -1    0    0  501    0  0.00000000000E+00  0.00000000000E+00 -0.12534508886E+04  0.12534508887E+04  0.50400001928E-02 0.  1.
    10030    2    1    2    0    0  0.00000000000E+00  0.00000000000E+00 -0.74309549508E+03  0.17638062822E+04  0.15996317346E+04 0.  0.
        3    1    3    3  502    0  0.39902330366E+03  0.64604176290E+03 -0.94534774040E+02  0.76519696156E+03  0.10100000352E+00 0. -1.
       -3    1    3    3    0  502 -0.39902330366E+03 -0.64604176290E+03 -0.64856072104E+03  0.99860932068E+03  0.10100000352E+00 0.  1.
</event>
<event>
 5   0  0.9726935E-05  0.1600547E+04  0.7818609E-02  0.8820212E-01
       -1   -1    0    0    0  501  0.00000000000E+00  0.00000000000E+00  0.11021643573E+04  0.11021643573E+04  0.50400001928E-02 0.  1.
        1   -1    0    0  501    0  0.00000000000E+00  0.00000000000E+00 -0.58107294509E+03  0.58107294511E+03  0.50400001928E-02 0. -1.
    10030    2    1    2    0    0  0.00000000000E+00  0.00000000000E+00  0.52109141224E+03  0.16832373025E+04  0.16005472678E+04 0.  0.
        2    1    3    3  502    0 -0.41762995179E+02  0.28102311273E+03 -0.52625032220E+03  0.59804476361E+03  0.25500000920E-02 0. -1.
       -2    1    3    3    0  502  0.41762995179E+02 -0.28102311273E+03  0.10473417344E+04  0.10851925388E+04  0.25500000920E-02 0.  1.
</event>
<event>
 5   0  0.6838750E-05  0.1607740E+04  0.7818609E-02  0.8815807E-01
        3   -1    0    0  501    0  0.00000000000E+00  0.00000000000E+00  0.53877862494E+03  0.53877863441E+03  0.10100000352E+00 0. -1.
       -3   -1    0    0    0  501  0.00000000000E+00  0.00000000000E+00 -0.11993928061E+04  0.11993928103E+04  0.10100000352E+00 0.  1.
    10030    2    1    2    0    0  0.00000000000E+00  0.00000000000E+00 -0.66061418112E+03  0.17381714447E+04  0.16077403008E+04 0.  0.
        5    1    3    3  502    0  0.74664600544E+03  0.24457096458E+03 -0.51406660792E+03  0.93892586583E+03  0.46999998093E+01 0.  1.
       -5    1    3    3    0  502 -0.74664600544E+03 -0.24457096458E+03 -0.14654757320E+03  0.79924557889E+03  0.46999998093E+01 0. -1.
</event>
<event>
 5   0  0.1774934E-04  0.1594224E+04  0.7818609E-02  0.8824104E-01
       -2   -1    0    0    0  501  0.00000000000E+00  0.00000000000E+00  0.54124414618E+03  0.54124414619E+03  0.25500000920E-02 0.  1.
        2   -1    0    0  501    0  0.00000000000E+00  0.00000000000E+00 -0.11739390720E+04  0.11739390720E+04  0.25500000920E-02 0. -1.
    10030    2    1    2    0    0  0.00000000000E+00  0.00000000000E+00 -0.63269492583E+03  0.17151832182E+04  0.15942241382E+04 0.  0.
        1    1    3    3  502    0 -0.92301017340E+02 -0.69298714371E+02  0.53220621904E+03  0.54457804695E+03  0.50400001928E-02 0.  1.
       -1    1    3    3    0  502  0.92301017340E+02  0.69298714371E+02 -0.11649011449E+04  0.11706051712E+04  0.50400001928E-02 0. -1.
</event>
<event>
 5   0  0.1914170E-04  0.1590849E+04  0.7818609E-02  0.8826190E-01
       -2   -1    0    0    0  501  0.00000000000E+00  0.00000000000E+00  0.29747380693E+03  0.29747380694E+03  0.25500000920E-02 0.  1.
        2   -1    0    0  501    0  0.00000000000E+00  0.00000000000E+00 -0.21269091986E+04  0.21269091986E+04  0.25500000920E-02 0. -1.
    10030    2    1    2    0    0  0.00000000000E+00  0.00000000000E+00 -0.18294353917E+04  0.24243830055E+04  0.15908485488E+04 0.  0.
        3    1    3    3  502    0 -0.56188570012E+03 -0.55804130735E+03 -0.80093904951E+03  0.11263343251E+04  0.10100000352E+00 0.  1.
       -3    1    3    3    0  502  0.56188570012E+03  0.55804130735E+03 -0.10284963422E+04  0.12980486804E+04  0.10100000352E+00 0. -1.
</event>
<event>
 5   0  0.1774934E-04  0.1595238E+04  0.7818609E-02  0.8823479E-01
        2   -1    0    0  501    0  0.00000000000E+00  0.00000000000E+00  0.17827994376E+04  0.17827994376E+04  0.25500000920E-02 0. -1.
       -2   -1    0    0    0  501  0.00000000000E+00  0.00000000000E+00 -0.35685242868E+03  0.35685242869E+03  0.25500000920E-02 0.  1.
    10030    2    1    2    0    0  0.00000000000E+00  0.00000000000E+00  0.14259470089E+04  0.21396518663E+04  0.15952383009E+04 0.  0.
        1    1    3    3  502    0 -0.38966815760E+02 -0.79579679059E+03  0.66305063100E+03  0.10365553936E+04  0.50400001928E-02 0. -1.
       -1    1    3    3    0  502  0.38966815760E+02  0.79579679059E+03  0.76289637792E+03  0.11030964727E+04  0.50400001928E-02 0.  1.
</event>
<event>
 5   0  0.1914170E-04  0.1649617E+04  0.7818609E-02  0.8790633E-01
       -2   -1    0    0    0  501  0.00000000000E+00  0.00000000000E+00  0.36434795124E+03  0.36434795125E+03  0.25500000920E-02 0. -1.
        2   -1    0    0  501    0  0.00000000000E+00  0.00000000000E+00 -0.18671968959E+04  0.18671968959E+04  0.25500000920E-02 0.  1.
    10030    2    1    2    0    0  0.00000000000E+00  0.00000000000E+00 -0.15028489447E+04  0.22315448472E+04  0.16496173661E+04 0.  0.
        3    1    3    3  502    0 -0.68755385919E+03 -0.29367363667E+03 -0.28021375578E+03  0.79843238492E+03  0.10100000352E+00 0. -1.
       -3    1    3    3    0  502  0.68755385919E+03  0.29367363667E+03 -0.12226351889E+04  0.14331124623E+04  0.10100000352E+00 0.  1.
</event>
<event>
 5   0  0.1832646E-04  0.1595524E+04  0.7818609E-02  0.8823302E-01
        2   -1    0    0  501    0  0.00000000000E+00  0.00000000000E+00  0.16033946000E+04  0.16033946000E+04  0.25500000920E-02 0.  1.
       -2   -1    0    0    0  501  0.00000000000E+00  0.00000000000E+00 -0.39692320139E+03  0.39692320140E+03  0.25500000920E-02 0. -1.
    10030    2    1    2    0    0  0.00000000000E+00  0.00000000000E+00  0.12064713986E+04  0.20003178014E+04  0.15955243874E+04 0.  0.
        2    1    3    3  502    0 -0.11719172759E+03  0.59293653426E+03 -0.49554814307E+02  0.60643492173E+03  0.25500000920E-02 0. -1.
       -2    1    3    3    0  502  0.11719172759E+03 -0.59293653426E+03  0.12560262129E+04  0.13938828796E+04  0.25500000920E-02 0.  1.
</event>
<event>
 5   0  0.1774934E-04  0.1603572E+04  0.7818609E-02  0.8818357E-01
       -2   -1    0    0    0  501  0.00000000000E+00  0.00000000000E+00  0.36745381616E+03  0.36745381617E+03  0.25500000920E-02 0. -1.
        2   -1    0    0  501    0  0.00000000000E+00  0.00000000000E+00 -0.17495008517E+04  0.17495008517E+04  0.25500000920E-02 0.  1.
    10030    2    1    2    0    0  0.00000000000E+00  0.00000000000E+00 -0.13820470356E+04  0.21169546679E+04  0.16035719683E+04 0.  0.
        1    1    3    3  502    0 -0.66784277284E+03  0.38207078661E+03 -0.39327578666E+03  0.86409368683E+03  0.50400001928E-02 0. -1.
       -1    1    3    3    0  502  0.66784277284E+03 -0.38207078661E+03 -0.98877124892E+03  0.12528609811E+04  0.50400001928E-02 0.  1.
</event>
<event>
 5   0  0.9616567E-05  0.1655733E+04  0.7818609E-02  0.8787022E-01
        1   -1    0    0  501    0  0.00000000000E+00  0.00000000000E+00  0.10640832070E+04  0.10640832070E+04  0.50400001928E-02 0. -1.
       -1   -1    0    0    0  501  0.00000000000E+00  0.00000000000E+00 -0.64408754713E+03  0.64408754715E+03  0.50400001928E-02 0.  1.
    10030    2    1    2    0    0  0.00000000000E+00  0.00000000000E+00  0.41999565987E+03  0.17081707542E+04  0.16557327596E+04 0.  0.
        5    1    3    3  502    0  0.62657203840E+03  0.15943152086E+03  0.74341214319E+03  0.98523836395E+03  0.46999998093E+01 0. -1.
       -5    1    3    3    0  502 -0.62657203840E+03 -0.15943152086E+03 -0.32341648332E+03  0.72293239022E+03  0.46999998093E+01 0.  1.
</event>
<event>
 5   0  0.9616567E-05  0.1567273E+04  0.7818609E-02  0.8840909E-01
        1   -1    0    0  501    0  0.00000000000E+00  0.00000000000E+00  0.98839694447E+03  0.98839694449E+03  0.50400001928E-02 0.  1.
       -1   -1    0    0    0  501  0.00000000000E+00  0.00000000000E+00 -0.62129537475E+03  0.62129537477E+03  0.50400001928E-02 0. -1.
    10030    2    1    2    0    0  0.00000000000E+00  0.00000000000E+00  0.36710156972E+03  0.16096923193E+04  0.15672733649E+04 0.  0.
        5    1    3    3  502    0 -0.22946642315E+03 -0.15093906819E+03 -0.57022493780E+03  0.63294234441E+03  0.46999998093E+01 0. -1.
       -5    1    3    3    0  502  0.22946642315E+03  0.15093906819E+03  0.93732650753E+03  0.97674997485E+03  0.46999998093E+01 0.  1.
</event>
<event>
 5   0  0.1832646E-04  0.1605188E+04  0.7818609E-02  0.8817367E-01
       -2   -1    0    0    0  501  0.00000000000E+00  0.00000000000E+00  0.67141401328E+03  0.67141401328E+03  0.25500000920E-02 0.  1.
        2   -1    0    0  501    0  0.00000000000E+00  0.00000000000E+00 -0.95940407053E+03  0.95940407053E+03  0.25500000920E-02 0. -1.
    10030    2    1    2    0    0  0.00000000000E+00  0.00000000000E+00 -0.28799005725E+03  0.16308180838E+04  0.16051882598E+04 0.  0.
        2    1    3    3  502    0  0.17498340863E+03  0.69050553630E+03 -0.51968337711E+03  0.88175274392E+03  0.25500000920E-02 0. -1.
       -2    1    3    3    0  502 -0.17498340863E+03 -0.69050553630E+03  0.23169331986E+03  0.74906533989E+03  0.25500000920E-02 0.  1.
</event>
<event>
 5   0  0.9939872E-05  0.1594151E+04  0.7818609E-02  0.8824149E-01
       -1   -1    0    0    0  501  0.00000000000E+00  0.00000000000E+00  0.33543844780E+03  0.33543844783E+03  0.50400001928E-02 0. -1.
        1   -1    0    0  501    0  0.00000000000E+00  0.00000000000E+00 -0.18940272521E+04  0.18940272521E+04  0.50400001928E-02 0.  1.
    10030    2    1    2    0    0  0.00000000000E+00  0.00000000000E+00 -0.15585888043E+04  0.22294657000E+04  0.15941512621E+04 0.  0.
        3    1    3    3  502    0 -0.14371220371E+03  0.62335972728E+03 -0.11429601386E+03  0.64984162384E+03  0.10100000352E+00 0. -1.
       -3    1    3    3    0  502  0.14371220371E+03 -0.62335972728E+03 -0.14442927905E+04  0.15796240761E+04  0.10100000352E+00 0.  1.
</event>
<event>
 5   0  0.9616567E-05  0.1600036E+04  0.7818609E-02  0.8820526E-01
        1   -1    0    0  501    0  0.00000000000E+00  0.00000000000E+00  0.47140667203E+03  0.47140667205E+03  0.50400001928E-02 0. -1.
       -1   -1    0    0    0  501  0.00000000000E+00  0.00000000000E+00 -0.13576993351E+04  0.13576993351E+04  0.50400001928E-02 0.  1.
    10030    2    1    2    0    0  0.00000000000E+00  0.00000000000E+00 -0.88629266312E+03  0.18291060072E+04  0.16000356561E+04 0.  0.
        5    1    3    3  502    0 -0.37351218996E+03 -0.11569149350E+03  0.35470685968E+03  0.52795352448E+03  0.46999998093E+01 0. -1.
       -5    1    3    3    0  502  0.37351218996E+03  0.11569149350E+03 -0.12409995228E+04  0.13011524827E+04  0.46999998093E+01 0.  1.
</event>
<event>
 5   0  0.1835088E-04  0.1592724E+04  0.7818609E-02  0.8825031E-01
        2   -1    0    0  501    0  0.00000000000E+00  0.00000000000E+00  0.14547157074E+04  0.14547157074E+04  0.25500000920E-02 0.  1.
       -2   -1    0    0    0  501  0.00000000000E+00  0.00000000000E+00 -0.43595620533E+03  0.43595620533E+03  0.25500000920E-02 0. -1.
    10030    2    1    2    0    0  0.00000000000E+00  0.00000000000E+00  0.10187595020E+04  0.18906719127E+04  0.15927238802E+04 0.  0.
        5    1    3    3  502    0 -0.67811110483E+03 -0.27700320110E+03  0.13851865155E+03  0.74550315274E+03  0.46999998093E+01 0. -1.
       -5    1    3    3    0  502  0.67811110483E+03  0.27700320110E+03  0.88024085048E+03  0.11451687600E+04  0.46999998093E+01 0.  1.
</event>
<event>
 5   0  0.1914170E-04  0.1598781E+04  0.7818609E-02  0.8821297E-01
        2   -1    0    0  501    0  0.00000000000E+00  0.00000000000E+00  0.14660644287E+04  0.14660644287E+04  0.25500000920E-02 0.  1.
       -2   -1    0    0    0  501  0.00000000000E+00  0.00000000000E+00 -0.43587805007E+03  0.43587805007E+03  0.25500000920E-02 0. -1.
    10030    2    1    2    0    0  0.00000000000E+00  0.00000000000E+00  0.10301863786E+04  0.19019424787E+04  0.15987811663E+04 0.  0.
        3    1    3    3  502    0 -0.26797768599E+02  0.25915957379E+03  0.14141372365E+04  0.14379380859E+04  0.10100000352E+00 0.  1.
       -3    1    3    3    0  502  0.26797768599E+02 -0.25915957379E+03 -0.38395085789E+03  0.46400439283E+03  0.10100000352E+00 0. -1.
</event>
<event>
 5   0  0.9616567E-05  0.1596537E+04  0.7818609E-02  0.8822678E-01
        1   -1    0    0  501    0  0.00000000000E+00  0.00000000000E+00  0.83009264569E+03  0.83009264571E+03  0.50400001928E-02 0.  1.
       -1   -1    0    0    0  501  0.00000000000E+00  0.00000000000E+00 -0.76766447847E+03  0.76766447849E+03  0.50400001928E-02 0. -1.
    10030    2    1    2    0    0  0.00000000000E+00  0.00000000000E+00  0.62428167220E+02  0.15977571242E+04  0.15965370500E+04 0.  0.
        5    1    3    3  502    0 -0.12384013294E+03 -0.29737641099E+03  0.76214298814E+03  0.82743769114E+03  0.46999998093E+01 0.  1.
       -5    1    3    3    0  502  0.12384013294E+03  0.29737641099E+03 -0.69971482092E+03  0.77031943306E+03  0.46999998093E+01 0. -1.
</event>
<event>
 5   0  0.1832646E-04  0.1599901E+04  0.7818609E-02  0.8820609E-01
        2   -1    0    0  501    0  0.00000000000E+00  0.00000000000E+00  0.12232505444E+04  0.12232505444E+04  0.25500000920E-02 0.  1.
       -2   -1    0    0    0  501  0.00000000000E+00  0.00000000000E+00 -0.52313114959E+03  0.52313114960E+03  0.25500000920E-02 0. -1.
    10030    2    1    2    0    0  0.00000000000E+00  0.00000000000E+00  0.70011939477E+03  0.17463816940E+04  0.15999005763E+04 0.  0.
        2    1    3    3  502    0 -0.22363167832E+03  0.53397529683E+03  0.95267368371E+03  0.11147770597E+04  0.25500000920E-02 0.  1.
       -2    1    3    3    0  502  0.22363167832E+03 -0.53397529683E+03 -0.25255428894E+03  0.63160463428E+03  0.25500000920E-02 0. -1.
</event>
<event>
 5   0  0.9673017E-05  0.1586446E+04  0.7818609E-02  0.8828918E-01
        1   -1    0    0  501    0  0.00000000000E+00  0.00000000000E+00  0.18735470858E+04  0.18735470858E+04  0.50400001928E-02 0.  1.
       -1   -1    0    0    0  501  0.00000000000E+00  0.00000000000E+00 -0.33583521346E+03  0.33583521350E+03  0.50400001928E-02 0. -1.
    10030    2    1    2    0    0  0.00000000000E+00  0.00000000000E+00  0.15377118724E+04  0.22093822993E+04  0.15864464511E+04 0.  0.
        1    1    3    3  502    0  0.75707963480E+03 -0.23050931379E+03  0.69387218048E+03  0.10525030737E+04  0.50400001928E-02 0. -1.
       -1    1    3    3    0  502 -0.75707963480E+03  0.23050931379E+03  0.84383969189E+03  0.11568792257E+04  0.50400001928E-02 0.  1.
</event>
<event>
 5   0  0.6838750E-05  0.1595180E+04  0.7818609E-02  0.8823515E-01
        3   -1    0    0  501    0  0.00000000000E+00  0.00000000000E+00  0.11452116910E+04  0.11452116955E+04  0.10100000352E+00 0. -1.
       -3   -1    0    0    0  501  0.00000000000E+00  0.00000000000E+00 -0.55548657663E+03  0.55548658581E+03  0.10100000352E+00 0.  1.
    10030    2    1    2    0    0  0.00000000000E+00  0.00000000000E+00  0.58972511438E+03  0.17006982813E+04  0.15951799063E+04 0.  0.
        3    1    3    3  502    0 -0.26159278890E+03 -0.55307407813E+02 -0.50628243906E+03  0.57254835155E+03  0.10100000352E+00 0.  1.
       -3    1    3    3    0  502  0.26159278890E+03  0.55307407813E+02  0.10960075534E+04  0.11281499297E+04  0.10100000352E+00 0. -1.
</event>
<event>
 5   0  0.1774934E-04  0.1587225E+04  0.7818609E-02  0.8828435E-01
       -2   -1    0    0    0  501  0.00000000000E+00  0.00000000000E+00  0.78299862492E+03  0.78299862492E+03  0.25500000920E-02 0. -1.
        2   -1    0    0  501    0  0.00000000000E+00  0.00000000000E+00 -0.80436985235E+03  0.80436985236E+03  0.25500000920E-02 0.  1.
    10030    2    1    2    0    0  0.00000000000E+00  0.00000000000E+00 -0.21371227436E+02  0.15873684773E+04  0.15872246071E+04 0.  0.
        1    1    3    3  502    0 -0.33081795752E+03  0.45815029280E+03  0.54657066859E+03  0.78618172683E+03  0.50400001928E-02 0. -1.
       -1    1    3    3    0  502  0.33081795752E+03 -0.45815029280E+03 -0.56794189603E+03  0.80118675045E+03  0.50400001928E-02 0.  1.
</event>
<event>
 5   0  0.9726935E-05  0.1605951E+04  0.7818609E-02  0.8816900E-01
        1   -1    0    0  501    0  0.00000000000E+00  0.00000000000E+00  0.92413964672E+03  0.92413964673E+03  0.50400001928E-02 0.  1.
       -1   -1    0    0    0  501  0.00000000000E+00  0.00000000000E+00 -0.69769762062E+03  0.69769762064E+03  0.50400001928E-02 0. -1.
    10030    2    1    2    0    0  0.00000000000E+00  0.00000000000E+00  0.22644202610E+03  0.16218372674E+04  0.16059514721E+04 0.  0.
        2    1    3    3  502    0  0.42671293331E+03 -0.82049523214E+02  0.79514405248E+03  0.90612919383E+03  0.25500000920E-02 0.  1.
       -2    1    3    3    0  502 -0.42671293331E+03  0.82049523214E+02 -0.56870202638E+03  0.71570807354E+03  0.25500000920E-02 0. -1.
</event>
<event>
 5   0  0.9939872E-05  0.1598786E+04  0.7818609E-02  0.8821294E-01
        1   -1    0    0  501    0  0.00000000000E+00  0.00000000000E+00  0.14515013065E+04  0.14515013065E+04  0.50400001928E-02 0.  1.
       -1   -1    0    0    0  501  0.00000000000E+00  0.00000000000E+00 -0.44025380103E+03  0.44025380106E+03  0.50400001928E-02 0. -1.
    10030    2    1    2    0    0  0.00000000000E+00  0.00000000000E+00  0.10112475055E+04  0.18917551076E+04  0.15987857485E+04 0.  0.
        3    1    3    3  502    0 -0.76098926776E+02 -0.58550153589E+03 -0.13204082179E+03  0.60501064784E+03  0.10100000352E+00 0. -1.
       -3    1    3    3    0  502  0.76098926776E+02  0.58550153589E+03  0.11432883273E+04  0.12867444597E+04  0.10100000352E+00 0.  1.
</event>
<event>
 5   0  0.9616567E-05  0.1683783E+04  0.7818609E-02  0.8770668E-01
        1   -1    0    0  501    0  0.00000000000E+00  0.00000000000E+00  0.97580576999E+03  0.97580577000E+03  0.50400001928E-02 0. -1.
       -1   -1    0    0    0  501  0.00000000000E+00  0.00000000000E+00 -0.72635479286E+03  0.72635479288E+03  0.50400001928E-02 0.  1.
    10030    2    1    2    0    0  0.00000000000E+00  0.00000000000E+00  0.24945097713E+03  0.17021605629E+04  0.16837828814E+04 0.  0.
        5    1    3    3  502    0  0.20596871598E+03  0.26703750076E+03 -0.65507366505E+03  0.73680101480E+03  0.46999998093E+01 0.  1.
       -5    1    3    3    0  502 -0.20596871598E+03 -0.26703750076E+03  0.90452464217E+03  0.96535954808E+03  0.46999998093E+01 0. -1.
</event>
<event>
 5   0  0.9726935E-05  0.1556745E+04  0.7818609E-02  0.8847571E-01
       -1   -1    0    0    0  501  0.00000000000E+00  0.00000000000E+00  0.65405150646E+03  0.65405150648E+03  0.50400001928E-02 0.  1.
        1   -1    0    0  501    0  0.00000000000E+00  0.00000000000E+00 -0.92632402165E+03  0.92632402167E+03  0.50400001928E-02 0. -1.
    10030    2    1    2    0    0  0.00000000000E+00  0.00000000000E+00 -0.27227251519E+03  0.15803755281E+04  0.15567448370E+04 0.  0.
        2    1    3    3  502    0 -0.51850515784E+03 -0.19656353004E+03 -0.69066855398E+03  0.88572448962E+03  0.25500000920E-02 0. -1.
       -2    1    3    3    0  502  0.51850515784E+03  0.19656353004E+03  0.41839603879E+03  0.69465103853E+03  0.25500000920E-02 0.  1.
</event>
<event>
 5   0  0.1858913E-04  0.1597627E+04  0.7818609E-02  0.8822007E-01
        2   -1    0    0  501    0  0.00000000000E+00  0.00000000000E+00  0.61251507193E+03  0.61251507194E+03  0.25500000920E-02 0. -1.
       -2   -1    0    0    0  501  0.00000000000E+00  0.00000000000E+00 -0.10417751854E+04  0.10417751855E+04  0.25500000920E-02 0.  1.
    10030    2    1    2    0    0  0.00000000000E+00  0.00000000000E+00 -0.42926011352E+03  0.16542902574E+04  0.15976269936E+04 0.  0.
        4    1    3    3  502    0 -0.24793200059E+03 -0.35592879198E+03 -0.90920070602E+03  0.10073743686E+04  0.12699999809E+01 0.  1.
       -4    1    3    3    0  502  0.24793200059E+03  0.35592879198E+03  0.47994059251E+03  0.64691588875E+03  0.12699999809E+01 0. -1.
</event>
<event>
 5   0  0.9432152E-05  0.1593186E+04  0.7818609E-02  0.8824745E-01
        1   -1    0    0  501    0  0.00000000000E+00  0.00000000000E+00  0.60444982790E+03  0.60444982792E+03  0.50400001928E-02 0. -1.
       -1   -1    0    0    0  501  0.00000000000E+00  0.00000000000E+00 -0.10498151880E+04  0.10498151881E+04  0.50400001928E-02 0.  1.
    10030    2    1    2    0    0  0.00000000000E+00  0.00000000000E+00 -0.44536536014E+03  0.16542650160E+04  0.15931862537E+04 0.  0.
        4    1    3    3  502    0  0.21430107793E+01 -0.40064513912E+03 -0.93758228498E+03  0.10195995655E+04  0.12699999809E+01 0.  1.
       -4    1    3    3    0  502 -0.21430107793E+01  0.40064513912E+03  0.49221692484E+03  0.63466545045E+03  0.12699999809E+01 0. -1.
</event>
<event>
 5   0  0.9939872E-05  0.1614515E+04  0.7818609E-02  0.8811680E-01
       -1   -1    0    0    0  501  0.00000000000E+00  0.00000000000E+00  0.48283063085E+03  0.48283063088E+03  0.50400001928E-02 0.  1.
        1   -1    0    0  501    0  0.00000000000E+00  0.00000000000E+00 -0.13496753519E+04  0.13496753519E+04  0.50400001928E-02 0. -1.
    10030    2    1    2    0    0  0.00000000000E+00  0.00000000000E+00 -0.86684472106E+03  0.18325059828E+04  0.16145149137E+04 0.  0.
        3    1    3    3  502    0  0.17723620261E+03 -0.32942609344E+03 -0.12453623575E+04  0.13003313556E+04  0.10100000352E+00 0. -1.
       -3    1    3    3    0  502 -0.17723620261E+03  0.32942609344E+03  0.37851763646E+03  0.53217462723E+03  0.10100000352E+00 0.  1.
</event>
<event>
 5   0  0.6838750E-05  0.1600576E+04  0.7818609E-02  0.8820194E-01
       -4   -1    0    0    0  501  0.00000000000E+00  0.00000000000E+00  0.67736575914E+03  0.67736694970E+03  0.12699999809E+01 0. -1.
        4   -1    0    0  501    0  0.00000000000E+00  0.00000000000E+00 -0.94551422410E+03  0.94551507702E+03  0.12699999809E+01 0.  1.
    10030    2    1    2    0    0  0.00000000000E+00  0.00000000000E+00 -0.26814846497E+03  0.16228820267E+04  0.16005756694E+04 0.  0.
        3    1    3    3  502    0 -0.12881002162E+03 -0.62843556670E+03 -0.61921641952E+03  0.89160095759E+03  0.10100000352E+00 0.  1.
       -3    1    3    3    0  502  0.12881002162E+03  0.62843556670E+03  0.35106795456E+03  0.73128106914E+03  0.10100000352E+00 0. -1.
</event>
<event>
 5   0  0.1774934E-04  0.1666431E+04  0.7818609E-02  0.8780745E-01
        2   -1    0    0  501    0  0.00000000000E+00  0.00000000000E+00  0.71420374230E+03  0.71420374230E+03  0.25500000920E-02 0.  1.
       -2   -1    0    0    0  501  0.00000000000E+00  0.00000000000E+00 -0.97205938694E+03  0.97205938694E+03  0.25500000920E-02 0. -1.
    10030    2    1    2    0    0  0.00000000000E+00  0.00000000000E+00 -0.25785564464E+03  0.16862631292E+04  0.16664314590E+04 0.  0.
        1    1    3    3  502    0 -0.17846366290E+03  0.57594471485E+03  0.45296949705E+03  0.75415048818E+03  0.50400001928E-02 0.  1.
       -1    1    3    3    0  502  0.17846366290E+03 -0.57594471485E+03 -0.71082514170E+03  0.93211264106E+03  0.50400001928E-02 0. -1.
</event>
<event>
 5   0  0.1914170E-04  0.1607780E+04  0.7818609E-02  0.8815783E-01
       -2   -1    0    0    0  501  0.00000000000E+00  0.00000000000E+00  0.67662522735E+03  0.67662522736E+03  0.25500000920E-02 0.  1.
        2   -1    0    0  501    0  0.00000000000E+00  0.00000000000E+00 -0.95509153833E+03  0.95509153834E+03  0.25500000920E-02 0. -1.
    10030    2    1    2    0    0  0.00000000000E+00  0.00000000000E+00 -0.27846631098E+03  0.16317167657E+04  0.16077798721E+04 0.  0.
        3    1    3    3  502    0 -0.30262507798E+03  0.74336037589E+03 -0.93031406283E+02  0.80797366233E+03  0.10100000352E+00 0.  1.
       -3    1    3    3    0  502  0.30262507798E+03 -0.74336037589E+03 -0.18543490470E+03  0.82374310337E+03  0.10100000352E+00 0. -1.
</event>
<event>
 5   0  0.1914170E-04  0.1507299E+04  0.7818609E-02  0.8879614E-01
       -2   -1    0    0    0  501  0.00000000000E+00  0.00000000000E+00  0.12463275463E+04  0.12463275463E+04  0.25500000920E-02 0. -1.
        2   -1    0    0  501    0  0.00000000000E+00  0.00000000000E+00 -0.45572906193E+03  0.45572906194E+03  0.25500000920E-02 0.  1.
    10030    2    1    2    0    0  0.00000000000E+00  0.00000000000E+00  0.79059848436E+03  0.17020566082E+04  0.15072991522E+04 0.  0.
        3    1    3    3  502    0 -0.36994532451E+03  0.49168497955E+03  0.88669876927E+03  0.10792814183E+04  0.10100000352E+00 0. -1.
       -3    1    3    3    0  502  0.36994532451E+03 -0.49168497955E+03 -0.96100284907E+02  0.62277518994E+03  0.10100000352E+00 0.  1.
</event>
<event>
 5   0  0.9432152E-05  0.1600606E+04  0.7818609E-02  0.8820176E-01
        1   -1    0    0  501    0  0.00000000000E+00  0.00000000000E+00  0.11284135954E+04  0.11284135954E+04  0.50400001928E-02 0.  1.
       -1   -1    0    0    0  501  0.00000000000E+00  0.00000000000E+00 -0.56759772179E+03  0.56759772181E+03  0.50400001928E-02 0. -1.
    10030    2    1    2    0    0  0.00000000000E+00  0.00000000000E+00  0.56081587357E+03  0.16960113172E+04  0.16006061177E+04 0.  0.
        4    1    3    3  502    0 -0.77630288281E+02 -0.54070944294E+03  0.90015516928E+03  0.10529359454E+04  0.12699999809E+01 0.  1.
       -4    1    3    3    0  502  0.77630288281E+02  0.54070944294E+03 -0.33933929571E+03  0.64307537183E+03  0.12699999809E+01 0. -1.
</event>
<event>
 5   0  0.1774934E-04  0.1615806E+04  0.7818609E-02  0.8810896E-01
        2   -1    0    0  501    0  0.00000000000E+00  0.00000000000E+00  0.16042868313E+04  0.16042868313E+04  0.25500000920E-02 0. -1.
       -2   -1    0    0    0  501  0.00000000000E+00  0.00000000000E+00 -0.40685190372E+03  0.40685190373E+03  0.25500000920E-02 0.  1.
    10030    2    1    2    0    0  0.00000000000E+00  0.00000000000E+00  0.11974349276E+04  0.20111387350E+04  0.16158058688E+04 0.  0.
        1    1    3    3  502    0  0.63284860666E+03  0.15422195298E+03  0.11935915204E+04  0.13597582459E+04  0.50400001928E-02 0. -1.
       -1    1    3    3    0  502 -0.63284860666E+03 -0.15422195298E+03  0.38434071207E+01  0.65138048907E+03  0.50400001928E-02 0.  1.
</event>
<event>
 5   0  0.9726935E-05  0.1612242E+04  0.7818609E-02  0.8813063E-01
       -1   -1    0    0    0  501  0.00000000000E+00  0.00000000000E+00  0.40182543675E+03  0.40182543678E+03  0.50400001928E-02 0.  1.
        1   -1    0    0  501    0  0.00000000000E+00  0.00000000000E+00 -0.16171970015E+04  0.16171970015E+04  0.50400001928E-02 0. -1.
    10030    2    1    2    0    0  0.00000000000E+00  0.00000000000E+00 -0.12153715648E+04  0.20190224383E+04  0.16122417827E+04 0.  0.
        2    1    3    3  502    0 -0.19210015703E+03  0.72954662009E+03 -0.96341639107E+03  0.12236469604E+04  0.25500000920E-02 0. -1.
       -2    1    3    3    0  502  0.19210015703E+03 -0.72954662009E+03 -0.25195517370E+03  0.79537547785E+03  0.25500000920E-02 0.  1.
</event>
<event>
 5   0  0.9673017E-05  0.1595915E+04  0.7818609E-02  0.8823061E-01
       -1   -1    0    0    0  501  0.00000000000E+00  0.00000000000E+00  0.28334057009E+03  0.28334057014E+03  0.50400001928E-02 0.  1.
        1   -1    0    0  501    0  0.00000000000E+00  0.00000000000E+00 -0.22472473664E+04  0.22472473664E+04  0.50400001928E-02 0. -1.
    10030    2    1    2    0    0  0.00000000000E+00  0.00000000000E+00 -0.19639067963E+04  0.25305879365E+04  0.15959152233E+04 0.  0.
        1    1    3    3  502    0 -0.31617424175E+03 -0.41519068623E+03 -0.24774778260E+02  0.52245884694E+03  0.50400001928E-02 0.  1.
       -1    1    3    3    0  502  0.31617424175E+03  0.41519068623E+03 -0.19391320180E+04  0.20081290896E+04  0.50400001928E-02 0. -1.
</event>
<event>
 5   0  0.9616567E-05  0.1598866E+04  0.7818609E-02  0.8821245E-01
        1   -1    0    0  501    0  0.00000000000E+00  0.00000000000E+00  0.12227769871E+04  0.12227769871E+04  0.50400001928E-02 0. -1.
       -1   -1    0    0    0  501  0.00000000000E+00  0.00000000000E+00 -0.52265721181E+03  0.52265721184E+03  0.50400001928E-02 0.  1.
    10030    2    1    2    0    0  0.00000000000E+00  0.00000000000E+00  0.70011977528E+03  0.17454341989E+04  0.15988661117E+04 0.  0.
        5    1    3    3  502    0 -0.57828302943E+03 -0.16464688457E+03  0.92518586801E+03  0.11034087362E+04  0.46999998093E+01 0. -1.
       -5    1    3    3    0  502  0.57828302943E+03  0.16464688457E+03 -0.22506609273E+03  0.64202546276E+03  0.46999998093E+01 0.  1.
</event>
<event>
 5   0  0.1832646E-04  0.1605632E+04  0.7818609E-02  0.8817095E-01
        2   -1    0    0  501    0  0.00000000000E+00  0.00000000000E+00  0.15605763638E+04  0.15605763638E+04  0.25500000920E-02 0.  1.
       -2   -1    0    0    0  501  0.00000000000E+00  0.00000000000E+00 -0.41299734179E+03  0.41299734179E+03  0.25500000920E-02 0. -1.
    10030    2    1    2    0    0  0.00000000000E+00  0.00000000000E+00  0.11475790220E+04  0.19735737056E+04  0.16056324485E+04 0.  0.
        2    1    3    3  502    0 -0.88440499261E+02 -0.55813429914E+03  0.12747087383E+04  0.13943521741E+04  0.25500000920E-02 0.  1.
       -2    1    3    3    0  502  0.88440499261E+02  0.55813429914E+03 -0.12712971632E+03  0.57922153151E+03  0.25500000920E-02 0. -1.
</event>
<event>
 5   0  0.1774934E-04  0.1600864E+04  0.7818609E-02  0.8820017E-01
        2   -1    0    0  501    0  0.00000000000E+00  0.00000000000E+00  0.23108402776E+04  0.23108402776E+04  0.25500000920E-02 0. -1.
       -2   -1    0    0    0  501  0.00000000000E+00  0.00000000000E+00 -0.27725470499E+03  0.27725470501E+03  0.25500000920E-02 0.  1.
    10030    2    1    2    0    0  0.00000000000E+00  0.00000000000E+00  0.20335855726E+04  0.25880949826E+04  0.16008639411E+04 0.  0.
        1    1    3    3  502    0  0.48884475141E+03 -0.55672782390E+03  0.15065614674E+04  0.16788813287E+04  0.50400001928E-02 0. -1.
       -1    1    3    3    0  502 -0.48884475141E+03  0.55672782390E+03  0.52702410520E+03  0.90921365387E+03  0.50400001928E-02 0.  1.
</event>
<event>
 5   0  0.1835088E-04  0.1599767E+04  0.7818609E-02  0.8820691E-01
        2   -1    0    0  501    0  0.00000000000E+00  0.00000000000E+00  0.20722354754E+04  0.20722354754E+04  0.25500000920E-02 0. -1.
       -2   -1    0    0    0  501  0.00000000000E+00  0.00000000000E+00 -0.30875512057E+03  0.30875512059E+03  0.25500000920E-02 0.  1.
    10030    2    1    2    0    0  0.00000000000E+00  0.00000000000E+00  0.17634803548E+04  0.23809905960E+04  0.15997666256E+04 0.  0.
        5    1    3    3  502    0 -0.47857430200E+03  0.19762794026E+03  0.17891384474E+04  0.18625597008E+04  0.46999998093E+01 0. -1.
       -5    1    3    3    0  502  0.47857430200E+03 -0.19762794026E+03 -0.25658092576E+02  0.51843089512E+03  0.46999998093E+01 0.  1.
</event>
<event>
 5   0  0.6838750E-05  0.1598262E+04  0.7818609E-02  0.8821617E-01
       -3   -1    0    0    0  501  0.00000000000E+00  0.00000000000E+00  0.13831232176E+04  0.13831232213E+04  0.10100000352E+00 0.  1.
        3   -1    0    0  501    0  0.00000000000E+00  0.00000000000E+00 -0.46171606418E+03  0.46171607523E+03  0.10100000352E+00 0. -1.
    10030    2    1    2    0    0  0.00000000000E+00  0.00000000000E+00  0.92140715339E+03  0.18448392965E+04  0.15982618332E+04 0.  0.
        4    1    3    3  502    0  0.43173195520E+03 -0.63854385756E+03  0.21726881061E+03  0.80083586841E+03  0.12699999809E+01 0. -1.
       -4    1    3    3    0  502 -0.43173195520E+03  0.63854385756E+03  0.70413834279E+03  0.10440034281E+04  0.12699999809E+01 0.  1.
</event>
<event>
 5   0  0.6838750E-05  0.1603428E+04  0.7818609E-02  0.8818445E-01
       -4   -1    0    0    0  501  0.00000000000E+00  0.00000000000E+00  0.74956774467E+03  0.74956882056E+03  0.12699999809E+01 0.  1.
        4   -1    0    0  501    0  0.00000000000E+00  0.00000000000E+00 -0.85748585697E+03  0.85748679745E+03  0.12699999809E+01 0. -1.
    10030    2    1    2    0    0  0.00000000000E+00  0.00000000000E+00 -0.10791811230E+03  0.16070556180E+04  0.16034280278E+04 0.  0.
        1    1    3    3  502    0  0.47029721447E+03 -0.56996528158E+03  0.25771952053E+03  0.78259775328E+03  0.50400001928E-02 0.  1.
       -1    1    3    3    0  502 -0.47029721447E+03  0.56996528158E+03 -0.36563763283E+03  0.82445786473E+03  0.50400001928E-02 0. -1.
</event>
<event>
 5   0  0.1858913E-04  0.1602783E+04  0.7818609E-02  0.8818840E-01
        2   -1    0    0  501    0  0.00000000000E+00  0.00000000000E+00  0.14342170778E+04  0.14342170778E+04  0.25500000920E-02 0.  1.
       -2   -1    0    0    0  501  0.00000000000E+00  0.00000000000E+00 -0.44779043932E+03  0.44779043933E+03  0.25500000920E-02 0. -1.
    10030    2    1    2    0    0  0.00000000000E+00  0.00000000000E+00  0.98642663844E+03  0.18820075171E+04  0.16027834481E+04 0.  0.
        4    1    3    3  502    0  0.37639695973E+03  0.43063810510E+03 -0.16591949776E+03  0.59552895941E+03  0.12699999809E+01 0. -1.
       -4    1    3    3    0  502 -0.37639695973E+03 -0.43063810510E+03  0.11523461362E+04  0.12864785577E+04  0.12699999809E+01 0.  1.
</event>
<event>
 5   0  0.1774934E-04  0.1602222E+04  0.7818609E-02  0.8819184E-01
       -2   -1    0    0    0  501  0.00000000000E+00  0.00000000000E+00  0.51165877638E+03  0.51165877639E+03  0.25500000920E-02 0. -1.
        2   -1    0    0  501    0  0.00000000000E+00  0.00000000000E+00 -0.12543098094E+04  0.12543098095E+04  0.25500000920E-02 0.  1.
    10030    2    1    2    0    0  0.00000000000E+00  0.00000000000E+00 -0.74265103307E+03  0.17659685858E+04  0.16022217354E+04 0.  0.
        1    1    3    3  502    0 -0.71983021755E+03  0.34966649094E+03 -0.33073184844E+03  0.86591324772E+03  0.50400001928E-02 0. -1.
       -1    1    3    3    0  502  0.71983021755E+03 -0.34966649094E+03 -0.41191918463E+03  0.90005533812E+03  0.50400001928E-02 0.  1.
</event>
<event>
 5   0  0.9673017E-05  0.1547482E+04  0.7818609E-02  0.8853478E-01
       -1   -1    0    0    0  501  0.00000000000E+00  0.00000000000E+00  0.53306663123E+03  0.53306663125E+03  0.50400001928E-02 0. -1.
        1   -1    0    0  501    0  0.00000000000E+00  0.00000000000E+00 -0.11230771489E+04  0.11230771489E+04  0.50400001928E-02 0.  1.
    10030    2    1    2    0    0  0.00000000000E+00  0.00000000000E+00 -0.59001051764E+03  0.16561437801E+04  0.15474817639E+04 0.  0.
        1    1    3    3  502    0 -0.37497097933E+03  0.14315288384E+03 -0.10029522142E+04  0.10802819666E+04  0.50400001928E-02 0.  1.
       -1    1    3    3    0  502  0.37497097933E+03 -0.14315288384E+03  0.41294169653E+03  0.57586181350E+03  0.50400001928E-02 0. -1.
</event>
<event>
 5   0  0.9616567E-05  0.1599111E+04  0.7818609E-02  0.8821094E-01
       -1   -1    0    0    0  501  0.00000000000E+00  0.00000000000E+00  0.79371732931E+03  0.79371732932E+03  0.50400001928E-02 0. -1.
        1   -1    0    0  501    0  0.00000000000E+00  0.00000000000E+00 -0.80543649854E+03  0.80543649856E+03  0.50400001928E-02 0.  1.
    10030    2    1    2    0    0  0.00000000000E+00  0.00000000000E+00 -0.11719169232E+02  0.15991538279E+04  0.15991108862E+04 0.  0.
        5    1    3    3  502    0  0.59118381993E+02  0.12037946032E+03 -0.79409431271E+03  0.80535337898E+03  0.46999998093E+01 0.  1.
       -5    1    3    3    0  502 -0.59118381993E+02 -0.12037946032E+03  0.78237514347E+03  0.79380044890E+03  0.46999998093E+01 0. -1.
</event>
<event>
 5   0  0.1835088E-04  0.1603268E+04  0.7818609E-02  0.8818543E-01
        2   -1    0    0  501    0  0.00000000000E+00  0.00000000000E+00  0.13626570073E+04  0.13626570073E+04  0.25500000920E-02 0.  1.
       -2   -1    0    0    0  501  0.00000000000E+00  0.00000000000E+00 -0.47159127609E+03  0.47159127610E+03  0.25500000920E-02 0. -1.
    10030    2    1    2    0    0  0.00000000000E+00  0.00000000000E+00  0.89106573116E+03  0.18342482834E+04  0.16032681085E+04 0.  0.
        5    1    3    3  502    0 -0.31032681105E+03 -0.46642707839E+03 -0.21042659428E+03  0.59846335785E+03  0.46999998093E+01 0. -1.
       -5    1    3    3    0  502  0.31032681105E+03  0.46642707839E+03  0.11014923254E+04  0.12357849255E+04  0.46999998093E+01 0.  1.
</event>
<event>
 5   0  0.1835088E-04  0.1597495E+04  0.7818609E-02  0.8822088E-01
        2   -1    0    0  501    0  0.00000000000E+00  0.00000000000E+00  0.80972593129E+03  0.80972593129E+03  0.25500000920E-02 0.  1.
       -2   -1    0    0    0  501  0.00000000000E+00  0.00000000000E+00 -0.78791839172E+03  0.78791839172E+03  0.25500000920E-02 0. -1.
    10030    2    1    2    0    0  0.00000000000E+00  0.00000000000E+00  0.21807539571E+02  0.15976443230E+04  0.15974954817E+04 0.  0.
        5    1    3    3  502    0  0.43256181619E+03 -0.64429213098E+03  0.20000810988E+03  0.80140339960E+03  0.46999998093E+01 0.  1.
       -5    1    3    3    0  502 -0.43256181619E+03  0.64429213098E+03 -0.17820057031E+03  0.79624092342E+03  0.46999998093E+01 0. -1.
</event>
<event>
 5   0  0.1835088E-04  0.1599719E+04  0.7818609E-02  0.8820720E-01
       -2   -1    0    0    0  501  0.00000000000E+00  0.00000000000E+00  0.34365353997E+03  0.34365353998E+03  0.25500000920E-02 0. -1.
        2   -1    0    0  501    0  0.00000000000E+00  0.00000000000E+00 -0.18616876311E+04  0.18616876311E+04  0.25500000920E-02 0.  1.
    10030    2    1    2    0    0  0.00000000000E+00  0.00000000000E+00 -0.15180340912E+04  0.22053411711E+04  0.15997194064E+04 0.  0.
        5    1    3    3  502    0  0.36888969509E+03 -0.14135243639E+03 -0.17177927584E+04  0.17626384113E+04  0.46999998093E+01 0.  1.
       -5    1    3    3    0  502 -0.36888969509E+03  0.14135243639E+03  0.19975866719E+03  0.44270275980E+03  0.46999998093E+01 0. -1.
</event>
<event>
 5   0  0.1858913E-04  0.1598369E+04  0.7818609E-02  0.8821551E-01
       -2   -1    0    0    0  501  0.00000000000E+00  0.00000000000E+00  0.17586706230E+04  0.17586706230E+04  0.25500000920E-02 0. -1.
        2   -1    0    0  501    0  0.00000000000E+00  0.00000000000E+00 -0.36316951902E+03  0.36316951903E+03  0.25500000920E-02 0.  1.
    10030    2    1    2    0    0  0.00000000000E+00  0.00000000000E+00  0.13955011040E+04  0.21218401420E+04  0.15983686237E+04 0.  0.
        4    1    3    3  502    0  0.18574632672E+03  0.73966506583E+03  0.10149318237E+04  0.12695252369E+04  0.12699999809E+01 0.  1.
       -4    1    3    3    0  502 -0.18574632672E+03 -0.73966506583E+03  0.38056928028E+03  0.85231490512E+03  0.12699999809E+01 0. -1.
</event>
<event>
 5   0  0.1858913E-04  0.1598904E+04  0.7818609E-02  0.8821222E-01
        2   -1    0    0  501    0  0.00000000000E+00  0.00000000000E+00  0.20079809745E+04  0.20079809745E+04  0.25500000920E-02 0.  1.
       -2   -1    0    0    0  501  0.00000000000E+00  0.00000000000E+00 -0.31829163256E+03  0.31829163257E+03  0.25500000920E-02 0. -1.
    10030    2    1    2    0    0  0.00000000000E+00  0.00000000000E+00  0.16896893420E+04  0.23262726071E+04  0.15989040529E+04 0.  0.
        4    1    3    3  502    0  0.35174755190E+03 -0.39802399566E+03  0.17141164423E+04  0.17945323157E+04  0.12699999809E+01 0.  1.
       -4    1    3    3    0  502 -0.35174755190E+03  0.39802399566E+03 -0.24427100336E+02  0.53174029142E+03  0.12699999809E+01 0. -1.
</event>
<event>
 5   0  0.9616567E-05  0.1602686E+04  0.7818609E-02  0.8818900E-01
        1   -1    0    0  501    0  0.00000000000E+00  0.00000000000E+00  0.54263226475E+03  0.54263226477E+03  0.50400001928E-02 0. -1.
       -1   -1    0    0    0  501  0.00000000000E+00  0.00000000000E+00 -0.11833988322E+04  0.11833988322E+04  0.50400001928E-02 0.  1.
    10030    2    1    2    0    0  0.00000000000E+00  0.00000000000E+00 -0.64076656746E+03  0.17260310970E+04  0.16026857315E+04 0.  0.
        5    1    3    3  502    0 -0.71436738711E+02  0.64149522808E+03 -0.83180851418E+03  0.10528755053E+04  0.46999998093E+01 0.  1.
       -5    1    3    3    0  502  0.71436738711E+02 -0.64149522808E+03  0.19104194672E+03  0.67315559174E+03  0.46999998093E+01 0. -1.
</event>
<event>
 5   0  0.1914170E-04  0.1603406E+04  0.7818609E-02  0.8818458E-01
       -2   -1    0    0    0  501  0.00000000000E+00  0.00000000000E+00  0.82916243709E+03  0.82916243709E+03  0.25500000920E-02 0. -1.
        2   -1    0    0  501    0  0.00000000000E+00  0.00000000000E+00 -0.77515309939E+03  0.77515309940E+03  0.25500000920E-02 0.  1.
    10030    2    1    2    0    0  0.00000000000E+00  0.00000000000E+00  0.54009337695E+02  0.16043155365E+04  0.16034061657E+04 0.  0.
        3    1    3    3  502    0  0.74385030964E+03  0.63138353539E+02 -0.26544193557E+03  0.79231254325E+03  0.10100000352E+00 0.  1.
       -3    1    3    3    0  502 -0.74385030964E+03 -0.63138353539E+02  0.31945127326E+03  0.81200299324E+03  0.10100000352E+00 0. -1.
</event>
<event>
 5   0  0.1832646E-04  0.1601586E+04  0.7818609E-02  0.8819574E-01
       -2   -1    0    0    0  501  0.00000000000E+00  0.00000000000E+00  0.65270071821E+03  0.65270071821E+03  0.25500000920E-02 0. -1.
        2   -1    0    0  501    0  0.00000000000E+00  0.00000000000E+00 -0.98248590502E+03  0.98248590502E+03  0.25500000920E-02 0.  1.
    10030    2    1    2    0    0  0.00000000000E+00  0.00000000000E+00 -0.32978518681E+03  0.16351866232E+04  0.16015857840E+04 0.  0.
        2    1    3    3  502    0 -0.15075687150E+03  0.42113523266E+03 -0.84304661989E+03  0.95436372615E+03  0.25500000920E-02 0.  1.
       -2    1    3    3    0  502  0.15075687150E+03 -0.42113523266E+03  0.51326143308E+03  0.68082289708E+03  0.25500000920E-02 0. -1.
</event>
<event>
 5   0  0.9673017E-05  0.1600628E+04  0.7818609E-02  0.8820162E-01
       -1   -1    0    0    0  501  0.00000000000E+00  0.00000000000E+00  0.47320112027E+03  0.47320112029E+03  0.50400001928E-02 0. -1.
        1   -1    0    0  501    0  0.00000000000E+00  0.00000000000E+00 -0.13535527425E+04  0.13535527425E+04  0.50400001928E-02 0.  1.
    10030    2    1    2    0    0  0.00000000000E+00  0.00000000000E+00 -0.88035162220E+03  0.18267538628E+04  0.16006282193E+04 0.  0.
        1    1    3    3  502    0  0.55453793803E+03 -0.44724679342E+03 -0.85632699860E+03  0.11139290586E+04  0.50400001928E-02 0.  1.
       -1    1    3    3    0  502 -0.55453793803E+03  0.44724679342E+03 -0.24024623604E+02  0.71282480422E+03  0.50400001928E-02 0. -1.
</event>
<event>
 5   0  0.1835088E-04  0.1600120E+04  0.7818609E-02  0.8820474E-01
        2   -1    0    0  501    0  0.00000000000E+00  0.00000000000E+00  0.93443349196E+03  0.93443349196E+03  0.25500000920E-02 0. -1.
       -2   -1    0    0    0  501  0.00000000000E+00  0.00000000000E+00 -0.68501004855E+03  0.68501004855E+03  0.25500000920E-02 0.  1.
    10030    2    1    2    0    0  0.00000000000E+00  0.00000000000E+00  0.24942344341E+03  0.16194435405E+04  0.16001204101E+04 0.  0.
        5    1    3    3  502    0 -0.40466502111E+03  0.10467733404E+03  0.81512498700E+03  0.91605783551E+03  0.46999998093E+01 0. -1.
       -5    1    3    3    0  502  0.40466502111E+03 -0.10467733404E+03 -0.56570154360E+03  0.70338570500E+03  0.46999998093E+01 0.  1.
</event>
<event>
 5   0  0.1832646E-04  0.1586784E+04  0.7818609E-02  0.8828708E-01
       -2   -1    0    0    0  501  0.00000000000E+00  0.00000000000E+00  0.48289912088E+03  0.48289912088E+03  0.25500000920E-02 0.  1.
        2   -1    0    0  501    0  0.00000000000E+00  0.00000000000E+00 -0.13035246363E+04  0.13035246363E+04  0.25500000920E-02 0. -1.
    10030    2    1    2    0    0  0.00000000000E+00  0.00000000000E+00 -0.82062551539E+03  0.17864237572E+04  0.15867840444E+04 0.  0.
        2    1    3    3  502    0  0.33609710220E+02 -0.48447326622E+03  0.29601954659E+03  0.56874557604E+03  0.25500000920E-02 0.  1.
       -2    1    3    3    0  502 -0.33609710220E+02  0.48447326622E+03 -0.11166450620E+04  0.12176781811E+04  0.25500000920E-02 0. -1.
</event>
<event>
 5   0  0.9673017E-05  0.1603610E+04  0.7818609E-02  0.8818333E-01
        1   -1    0    0  501    0  0.00000000000E+00  0.00000000000E+00  0.73427156324E+03  0.73427156325E+03  0.50400001928E-02 0. -1.
       -1   -1    0    0    0  501  0.00000000000E+00  0.00000000000E+00 -0.87554955323E+03  0.87554955325E+03  0.50400001928E-02 0.  1.
    10030    2    1    2    0    0  0.00000000000E+00  0.00000000000E+00 -0.14127799000E+03  0.16098211165E+04  0.16036098518E+04 0.  0.
        1    1    3    3  502    0 -0.62902344191E+02 -0.71092935508E+03 -0.43744980247E+03  0.83710189495E+03  0.50400001928E-02 0.  1.
       -1    1    3    3    0  502  0.62902344191E+02  0.71092935508E+03  0.29617181247E+03  0.77271922155E+03  0.50400001928E-02 0. -1.
</event>
<event>
 5   0  0.1835088E-04  0.1602405E+04  0.7818609E-02  0.8819072E-01
       -2   -1    0    0    0  501  0.00000000000E+00  0.00000000000E+00  0.45377318663E+03  0.45377318664E+03  0.25500000920E-02 0.  1.
        2   -1    0    0  501    0  0.00000000000E+00  0.00000000000E+00 -0.14146400527E+04  0.14146400527E+04  0.25500000920E-02 0. -1.
    10030    2    1    2    0    0  0.00000000000E+00  0.00000000000E+00 -0.96086686605E+03  0.18684132393E+04  0.16024053478E+04 0.  0.
        5    1    3    3  502    0 -0.38785515458E+03  0.13571498296E+03  0.32153202083E+03  0.52178070868E+03  0.46999998093E+01 0.  1.
       -5    1    3    3    0  502  0.38785515458E+03 -0.13571498296E+03 -0.12823988869E+04  0.13466325306E+04  0.46999998093E+01 0. -1.
</event>
<event>
 5   0  0.1835088E-04  0.1582170E+04  0.7818609E-02  0.8831577E-01
        2   -1    0    0  501    0  0.00000000000E+00  0.00000000000E+00  0.14903936976E+04  0.14903936976E+04  0.25500000920E-02 0. -1.
       -2   -1    0    0    0  501  0.00000000000E+00  0.00000000000E+00 -0.41989960401E+03  0.41989960402E+03  0.25500000920E-02 0.  1.
    10030    2    1    2    0    0  0.00000000000E+00  0.00000000000E+00  0.10704940936E+04  0.19102933016E+04  0.15821703112E+04 0.  0.
        5    1    3    3  502    0 -0.16982042652E+03  0.28008032372E+02  0.14674961110E+04  0.14775623009E+04  0.46999998093E+01 0. -1.
       -5    1    3    3    0  502  0.16982042652E+03 -0.28008032372E+02 -0.39700201744E+03  0.43273100072E+03  0.46999998093E+01 0.  1.
</event>
<event>
 5   0  0.1914170E-04  0.1598803E+04  0.7818609E-02  0.8821284E-01
        2   -1    0    0  501    0  0.00000000000E+00  0.00000000000E+00  0.35428084158E+03  0.35428084159E+03  0.25500000920E-02 0.  1.
       -2   -1    0    0    0  501  0.00000000000E+00  0.00000000000E+00 -0.18037734657E+04  0.18037734657E+04  0.25500000920E-02 0. -1.
    10030    2    1    2    0    0  0.00000000000E+00  0.00000000000E+00 -0.14494926241E+04  0.21580543073E+04  0.15988025287E+04 0.  0.
        3    1    3    3  502    0  0.54638752218E+02 -0.79444996082E+03 -0.63020059980E+03  0.10155239730E+04  0.10100000352E+00 0. -1.
       -3    1    3    3    0  502 -0.54638752218E+02  0.79444996082E+03 -0.81929202429E+03  0.11425303343E+04  0.10100000352E+00 0.  1.
</event>
<event>
 5   0  0.9726935E-05  0.1599954E+04  0.7818609E-02  0.8820577E-01
        1   -1    0    0  501    0  0.00000000000E+00  0.00000000000E+00  0.75817455405E+03  0.75817455406E+03  0.50400001928E-02 0.  1.
       -1   -1    0    0    0  501  0.00000000000E+00  0.00000000000E+00 -0.84408381326E+03  0.84408381328E+03  0.50400001928E-02 0. -1.
    10030    2    1    2    0    0  0.00000000000E+00  0.00000000000E+00 -0.85909259216E+02  0.16022583673E+04  0.15999535852E+04 0.  0.
        2    1    3    3  502    0  0.52428462124E+03  0.35003610410E+03  0.45026192866E+03  0.77468409216E+03  0.25500000920E-02 0.  1.
       -2    1    3    3    0  502 -0.52428462124E+03 -0.35003610410E+03 -0.53617118787E+03  0.82757427519E+03  0.25500000920E-02 0. -1.
</event>
<event>
 5   0  0.9616567E-05  0.1598793E+04  0.7818609E-02  0.8821290E-01
       -1   -1    0    0    0  501  0.00000000000E+00  0.00000000000E+00  0.63802303757E+03  0.63802303759E+03  0.50400001928E-02 0. -1.
        1   -1    0    0  501    0  0.00000000000E+00  0.00000000000E+00 -0.10015852881E+04  0.10015852881E+04  0.50400001928E-02 0.  1.
    10030    2    1    2    0    0  0.00000000000E+00  0.00000000000E+00 -0.36356225052E+03  0.16396083257E+04  0.15987926544E+04 0.  0.
        5    1    3    3  502    0  0.63558678007E+03  0.42385727524E+03  0.59571104909E+02  0.76628738168E+03  0.46999998093E+01 0. -1.
       -5    1    3    3    0  502 -0.63558678007E+03 -0.42385727524E+03 -0.42313335543E+03  0.87332094402E+03  0.46999998093E+01 0.  1.
</event>
<event>
 5   0  0.1832646E-04  0.1605536E+04  0.7818609E-02  0.8817154E-01
        2   -1    0    0  501    0  0.00000000000E+00  0.00000000000E+00  0.15403376127E+04  0.15403376127E+04  0.25500000920E-02 0.  1.
       -2   -1    0    0    0  501  0.00000000000E+00  0.00000000000E+00 -0.41837347559E+03  0.41837347560E+03  0.25500000920E-02 0. -1.
    10030    2    1    2    0    0  0.00000000000E+00  0.00000000000E+00  0.11219641371E+04  0.19587110883E+04  0.16055359238E+04 0.  0.
        2    1    3    3  502    0 -0.31143465821E+03  0.66951720361E+03  0.94520893869E+03  0.11994435252E+04  0.25500000920E-02 0.  1.
       -2    1    3    3    0  502  0.31143465821E+03 -0.66951720361E+03  0.17675519841E+03  0.75926756314E+03  0.25500000920E-02 0. -1.
</event>
<event>
 5   0  0.1774934E-04  0.1599958E+04  0.7818609E-02  0.8820574E-01
       -2   -1    0    0    0  501  0.00000000000E+00  0.00000000000E+00  0.53542151660E+03  0.53542151661E+03  0.25500000920E-02 0. -1.
        2   -1    0    0  501    0  0.00000000000E+00  0.00000000000E+00 -0.11952570055E+04  0.11952570055E+04  0.25500000920E-02 0.  1.
    10030    2    1    2    0    0  0.00000000000E+00  0.00000000000E+00 -0.65983548887E+03  0.17306785221E+04  0.15999578977E+04 0.  0.
        1    1    3    3  502    0 -0.54510722016E+03 -0.14473734181E+03 -0.94361168665E+03  0.10993151481E+04  0.50400001928E-02 0.  1.
       -1    1    3    3    0  502  0.54510722016E+03  0.14473734181E+03  0.28377619779E+03  0.63136337401E+03  0.50400001928E-02 0. -1.
</event>
<event>
 5   0  0.9726935E-05  0.1604316E+04  0.7818609E-02  0.8817901E-01
        1   -1    0    0  501    0  0.00000000000E+00  0.00000000000E+00  0.13844835869E+04  0.13844835869E+04  0.50400001928E-02 0. -1.
       -1   -1    0    0    0  501  0.00000000000E+00  0.00000000000E+00 -0.46476368411E+03  0.46476368413E+03  0.50400001928E-02 0.  1.
    10030    2    1    2    0    0  0.00000000000E+00  0.00000000000E+00  0.91971990282E+03  0.18492472711E+04  0.16043162936E+04 0.  0.
        2    1    3    3  502    0  0.38399555103E+02  0.12008608060E+03  0.13729917871E+04  0.13787681603E+04  0.25500000920E-02 0. -1.
       -2    1    3    3    0  502 -0.38399555103E+02 -0.12008608060E+03 -0.45327188425E+03  0.47047911074E+03  0.25500000920E-02 0.  1.
</event>
<event>
 5   0  0.9939872E-05  0.1577463E+04  0.7818609E-02  0.8834514E-01
        1   -1    0    0  501    0  0.00000000000E+00  0.00000000000E+00  0.11962535089E+04  0.11962535089E+04  0.50400001928E-02 0. -1.
       -1   -1    0    0    0  501  0.00000000000E+00  0.00000000000E+00 -0.52003838245E+03  0.52003838248E+03  0.50400001928E-02 0.  1.
    10030    2    1    2    0    0  0.00000000000E+00  0.00000000000E+00  0.67621512643E+03  0.17162918914E+04  0.15774634573E+04 0.  0.
        3    1    3    3  502    0  0.70507258706E+03  0.14445211724E+02 -0.46194314822E+02  0.70673187425E+03  0.10100000352E+00 0.  1.
       -3    1    3    3    0  502 -0.70507258706E+03 -0.14445211724E+02  0.72240944125E+03  0.10095600171E+04  0.10100000352E+00 0. -1.
</event>
<event>
 5   0  0.1832646E-04  0.1605434E+04  0.7818609E-02  0.8817217E-01
        2   -1    0    0  501    0  0.00000000000E+00  0.00000000000E+00  0.13639197495E+04  0.13639197495E+04  0.25500000920E-02 0. -1.
       -2   -1    0    0    0  501  0.00000000000E+00  0.00000000000E+00 -0.47242841175E+03  0.47242841176E+03  0.25500000920E-02 0.  1.
    10030    2    1    2    0    0  0.00000000000E+00  0.00000000000E+00  0.89149133775E+03  0.18363481613E+04  0.16054338243E+04 0.  0.
        2    1    3    3  502    0 -0.50349815972E+03 -0.32682104141E+03  0.10553475391E+04  0.12141173000E+04  0.25500000920E-02 0. -1.
       -2    1    3    3    0  502  0.50349815972E+03  0.32682104141E+03 -0.16385620134E+03  0.62223086124E+03  0.25500000920E-02 0.  1.
</event>
<event>
 5   0  0.9673017E-05  0.1595373E+04  0.7818609E-02  0.8823396E-01
       -1   -1    0    0    0  501  0.00000000000E+00  0.00000000000E+00  0.92844209159E+03  0.92844209161E+03  0.50400001928E-02 0.  1.
        1   -1    0    0  501    0  0.00000000000E+00  0.00000000000E+00 -0.68534538114E+03  0.68534538116E+03  0.50400001928E-02 0. -1.
    10030    2    1    2    0    0  0.00000000000E+00  0.00000000000E+00  0.24309671046E+03  0.16137874728E+04  0.15953726827E+04 0.  0.
        1    1    3    3  502    0  0.22528347904E+03 -0.57672428862E+01 -0.65247517348E+03  0.69029686299E+03  0.50400001928E-02 0. -1.
       -1    1    3    3    0  502 -0.22528347904E+03  0.57672428862E+01  0.89557188394E+03  0.92349060978E+03  0.50400001928E-02 0.  1.
</event>
<event>
 5   0  0.9673017E-05  0.1601551E+04  0.7818609E-02  0.8819596E-01
       -1   -1    0    0    0  501  0.00000000000E+00  0.00000000000E+00  0.59540881695E+03  0.59540881697E+03  0.50400001928E-02 0. -1.
        1   -1    0    0  501    0  0.00000000000E+00  0.00000000000E+00 -0.10769770980E+04  0.10769770980E+04  0.50400001928E-02 0.  1.
    10030    2    1    2    0    0  0.00000000000E+00  0.00000000000E+00 -0.48156828107E+03  0.16723859150E+04  0.16015513227E+04 0.  0.
        1    1    3    3  502    0  0.13343286596E+03 -0.34226321025E+03  0.50222934931E+03  0.62224010972E+03  0.50400001928E-02 0. -1.
       -1    1    3    3    0  502 -0.13343286596E+03  0.34226321025E+03 -0.98379763038E+03  0.10501458053E+04  0.50400001928E-02 0.  1.
</event>
<event>
 5   0  0.9726935E-05  0.1600684E+04  0.7818609E-02  0.8820128E-01
        1   -1    0    0  501    0  0.00000000000E+00  0.00000000000E+00  0.20190591768E+04  0.20190591768E+04  0.50400001928E-02 0. -1.
       -1   -1    0    0    0  501  0.00000000000E+00  0.00000000000E+00 -0.31725051624E+03  0.31725051628E+03  0.50400001928E-02 0.  1.
    10030    2    1    2    0    0  0.00000000000E+00  0.00000000000E+00  0.17018086605E+04  0.23363096931E+04  0.16006843114E+04 0.  0.
        2    1    3    3  502    0 -0.26838441465E+03 -0.26578214987E+03 -0.17897383545E+03  0.41797365826E+03  0.25500000920E-02 0.  1.
       -2    1    3    3    0  502  0.26838441465E+03  0.26578214987E+03  0.18807824960E+04  0.19183360348E+04  0.25500000920E-02 0. -1.
</event>
<event>
 5   0  0.1858913E-04  0.1602251E+04  0.7818609E-02  0.8819167E-01
        2   -1    0    0  501    0  0.00000000000E+00  0.00000000000E+00  0.15548114197E+04  0.15548114197E+04  0.25500000920E-02 0.  1.
       -2   -1    0    0    0  501  0.00000000000E+00  0.00000000000E+00 -0.41278427447E+03  0.41278427448E+03  0.25500000920E-02 0. -1.
    10030    2    1    2    0    0  0.00000000000E+00  0.00000000000E+00  0.11420271452E+04  0.19675956942E+04  0.16022505470E+04 0.  0.
        4    1    3    3  502    0 -0.29632711055E+03  0.74035073431E+03  0.66510847300E+03  0.10384121821E+04  0.12699999809E+01 0.  1.
       -4    1    3    3    0  502  0.29632711055E+03 -0.74035073431E+03  0.47691867223E+03  0.92918351205E+03  0.12699999809E+01 0. -1.
</event>
<event>
 5   0  0.6838750E-05  0.1703031E+04  0.7818609E-02  0.8759638E-01
       -4   -1    0    0    0  501  0.00000000000E+00  0.00000000000E+00  0.63249454007E+03  0.63249581510E+03  0.12699999809E+01 0. -1.
        4   -1    0    0  501    0  0.00000000000E+00  0.00000000000E+00 -0.11463759578E+04  0.11463766613E+04  0.12699999809E+01 0.  1.
    10030    2    1    2    0    0  0.00000000000E+00  0.00000000000E+00 -0.51388141772E+03  0.17788724764E+04  0.17030305857E+04 0.  0.
        2    1    3    3  502    0  0.47635910352E+03  0.60323908550E+03 -0.63967765401E+03  0.10000014454E+04  0.25500000920E-02 0.  1.
       -2    1    3    3    0  502 -0.47635910352E+03 -0.60323908550E+03  0.12579623629E+03  0.77887103095E+03  0.25500000920E-02 0. -1.
</event>
<event>
 5   0  0.1858913E-04  0.1603691E+04  0.7818609E-02  0.8818284E-01
        2   -1    0    0  501    0  0.00000000000E+00  0.00000000000E+00  0.81499150169E+03  0.81499150170E+03  0.25500000920E-02 0. -1.
       -2   -1    0    0    0  501  0.00000000000E+00  0.00000000000E+00 -0.78891149244E+03  0.78891149244E+03  0.25500000920E-02 0.  1.
    10030    2    1    2    0    0  0.00000000000E+00  0.00000000000E+00  0.26080009254E+02  0.16039029941E+04  0.16036909452E+04 0.  0.
        4    1    3    3  502    0  0.34701916467E+03  0.70800123556E+03  0.15888966403E+03  0.80432306223E+03  0.12699999809E+01 0. -1.
       -4    1    3    3    0  502 -0.34701916467E+03 -0.70800123556E+03 -0.13280965478E+03  0.79957993190E+03  0.12699999809E+01 0.  1.
</event>
<event>
 5   0  0.1774934E-04  0.1612480E+04  0.7818609E-02  0.8812917E-01
       -2   -1    0    0    0  501  0.00000000000E+00  0.00000000000E+00  0.62798821022E+03  0.62798821023E+03  0.25500000920E-02 0.  1.
        2   -1    0    0  501    0  0.00000000000E+00  0.00000000000E+00 -0.10350881902E+04  0.10350881902E+04  0.25500000920E-02 0. -1.
    10030    2    1    2    0    0  0.00000000000E+00  0.00000000000E+00 -0.40709997996E+03  0.16630764004E+04  0.16124803006E+04 0.  0.
        1    1    3    3  502    0  0.35257460086E+03 -0.58080756314E+03 -0.65119279891E+03  0.94111547429E+03  0.50400001928E-02 0. -1.
       -1    1    3    3    0  502 -0.35257460086E+03  0.58080756314E+03  0.24409281894E+03  0.72196092613E+03  0.50400001928E-02 0.  1.
</event>
<event>
 5   0  0.1835088E-04  0.1599604E+04  0.7818609E-02  0.8820791E-01
       -2   -1    0    0    0  501  0.00000000000E+00  0.00000000000E+00  0.81134218683E+03  0.81134218684E+03  0.25500000920E-02 0.  1.
        2   -1    0    0  501    0  0.00000000000E+00  0.00000000000E+00 -0.78842582743E+03  0.78842582743E+03  0.25500000920E-02 0. -1.
    10030    2    1    2    0    0  0.00000000000E+00  0.00000000000E+00  0.22916359404E+02  0.15997680143E+04  0.15996038697E+04 0.  0.
        5    1    3    3  502    0  0.76541017016E+03 -0.12189024941E+03  0.20883872056E+03  0.80271144422E+03  0.46999998093E+01 0.  1.
       -5    1    3    3    0  502 -0.76541017016E+03  0.12189024941E+03 -0.18592236116E+03  0.79705657005E+03  0.46999998093E+01 0. -1.
</event>
<event>
 5   0  0.1914170E-04  0.1599362E+04  0.7818609E-02  0.8820940E-01
       -2   -1    0    0    0  501  0.00000000000E+00  0.00000000000E+00  0.71932086971E+03  0.71932086971E+03  0.25500000920E-02 0.  1.
        2   -1    0    0  501    0  0.00000000000E+00  0.00000000000E+00 -0.88901923222E+03  0.88901923222E+03  0.25500000920E-02 0. -1.
    10030    2    1    2    0    0  0.00000000000E+00  0.00000000000E+00 -0.16969836251E+03  0.16083401019E+04  0.15993624821E+04 0.  0.
        3    1    3    3  502    0 -0.52558215202E+02 -0.32677419803E+03  0.64721124925E+03  0.72692926330E+03  0.10100000352E+00 0.  1.
       -3    1    3    3    0  502  0.52558215202E+02  0.32677419803E+03 -0.81690961176E+03  0.88141083863E+03  0.10100000352E+00 0. -1.
</event>
<event>
 5   0  0.1858913E-04  0.1600103E+04  0.7818609E-02  0.8820485E-01
       -2   -1    0    0    0  501  0.00000000000E+00  0.00000000000E+00  0.40953402926E+03  0.40953402927E+03  0.25500000920E-02 0.  1.
        2   -1    0    0  501    0  0.00000000000E+00  0.00000000000E+00 -0.15629533132E+04  0.15629533133E+04  0.25500000920E-02 0. -1.
    10030    2    1    2    0    0  0.00000000000E+00  0.00000000000E+00 -0.11534192840E+04  0.19724873425E+04  0.16001032066E+04 0.  0.
        4    1    3    3  502    0 -0.49060137517E+03 -0.16641300725E+03 -0.13282655901E+04  0.14257187974E+04  0.12699999809E+01 0. -1.
       -4    1    3    3    0  502  0.49060137517E+03  0.16641300725E+03  0.17484630616E+03  0.54676854516E+03  0.12699999809E+01 0.  1.
</event>
<event>
 5   0  0.9939872E-05  0.1605791E+04  0.7818609E-02  0.8816998E-01
       -1   -1    0    0    0  501  0.00000000000E+00  0.00000000000E+00  0.49702730330E+03  0.49702730332E+03  0.50400001928E-02 0.  1.
        1   -1    0    0  501    0  0.00000000000E+00  0.00000000000E+00 -0.12969932638E+04  0.12969932638E+04  0.50400001928E-02 0. -1.
    10030    2    1    2    0    0  0.00000000000E+00  0.00000000000E+00 -0.79996596046E+03  0.17940205671E+04  0.16057908510E+04 0.  0.
        3    1    3    3  502    0  0.62959022218E+02  0.25874335453E+03 -0.12462197161E+04  0.12743529939E+04  0.10100000352E+00 0. -1.
       -3    1    3    3    0  502 -0.62959022218E+02 -0.25874335453E+03  0.44625375566E+03  0.51966757320E+03  0.10100000352E+00 0.  1.
</event>
<event>
 5   0  0.9726935E-05  0.1600679E+04  0.7818609E-02  0.8820131E-01
       -1   -1    0    0    0  501  0.00000000000E+00  0.00000000000E+00  0.98873341705E+03  0.98873341706E+03  0.50400001928E-02 0. -1.
        1   -1    0    0  501    0  0.00000000000E+00  0.00000000000E+00 -0.64784195472E+03  0.64784195474E+03  0.50400001928E-02 0.  1.
    10030    2    1    2    0    0  0.00000000000E+00  0.00000000000E+00  0.34089146232E+03  0.16365753718E+04  0.16006785931E+04 0.  0.
        2    1    3    3  502    0  0.16420032662E+01  0.77778191047E+03 -0.22453275751E+02  0.77810766995E+03  0.25500000920E-02 0.  1.
       -2    1    3    3    0  502 -0.16420032662E+01 -0.77778191047E+03  0.36334473807E+03  0.85846770185E+03  0.25500000920E-02 0. -1.
</event>
<event>
 5   0  0.9616567E-05  0.1598786E+04  0.7818609E-02  0.8821294E-01
        1   -1    0    0  501    0  0.00000000000E+00  0.00000000000E+00  0.26419340302E+04  0.26419340302E+04  0.50400001928E-02 0.  1.
       -1   -1    0    0    0  501  0.00000000000E+00  0.00000000000E+00 -0.24187924039E+03  0.24187924044E+03  0.50400001928E-02 0. -1.
    10030    2    1    2    0    0  0.00000000000E+00  0.00000000000E+00  0.24000547898E+04  0.28838132706E+04  0.15987857849E+04 0.  0.
        5    1    3    3  502    0  0.61293514143E+03 -0.41732869148E+03  0.66145050017E+03  0.99367579145E+03  0.46999998093E+01 0. -1.
       -5    1    3    3    0  502 -0.61293514143E+03  0.41732869148E+03  0.17386042896E+04  0.18901374792E+04  0.46999998093E+01 0.  1.
</event>
<event>
 5   0  0.1858913E-04  0.1544371E+04  0.7818609E-02  0.8855471E-01
       -2   -1    0    0    0  501  0.00000000000E+00  0.00000000000E+00  0.59890865294E+03  0.59890865295E+03  0.25500000920E-02 0. -1.
        2   -1    0    0  501    0  0.00000000000E+00  0.00000000000E+00 -0.99559537363E+03  0.99559537363E+03  0.25500000920E-02 0.  1.
    10030    2    1    2    0    0  0.00000000000E+00  0.00000000000E+00 -0.39668672068E+03  0.15945040266E+04  0.15443713078E+04 0.  0.
        4    1    3    3  502    0  0.35705147540E+03  0.34641088099E+03 -0.80809283683E+03  0.94894778592E+03  0.12699999809E+01 0.  1.
       -4    1    3    3    0  502 -0.35705147540E+03 -0.34641088099E+03  0.41140611615E+03  0.64555624066E+03  0.12699999809E+01 0. -1.
</event>
<event>
 5   0  0.9673017E-05  0.1602379E+04  0.7818609E-02  0.8819088E-01
       -1   -1    0    0    0  501  0.00000000000E+00  0.00000000000E+00  0.63154435667E+03  0.63154435669E+03  0.50400001928E-02 0.  1.
        1   -1    0    0  501    0  0.00000000000E+00  0.00000000000E+00 -0.10164044682E+04  0.10164044682E+04  0.50400001928E-02 0. -1.
    10030    2    1    2    0    0  0.00000000000E+00  0.00000000000E+00 -0.38486011152E+03  0.16479488249E+04  0.16023788641E+04 0.  0.
        1    1    3    3  502    0 -0.74477283112E+03 -0.42381196593E+02 -0.49301193596E+03  0.89417196602E+03  0.50400001928E-02 0. -1.
       -1    1    3    3    0  502  0.74477283112E+03  0.42381196593E+02  0.10815182444E+03  0.75377685886E+03  0.50400001928E-02 0.  1.
</event>
<event>
 5   0  0.9616567E-05  0.1599511E+04  0.7818609E-02  0.8820848E-01
       -1   -1    0    0    0  501  0.00000000000E+00  0.00000000000E+00  0.10410814669E+04  0.10410814669E+04  0.50400001928E-02 0.  1.
        1   -1    0    0  501    0  0.00000000000E+00  0.00000000000E+00 -0.61436982126E+03  0.61436982128E+03  0.50400001928E-02 0. -1.
    10030    2    1    2    0    0  0.00000000000E+00  0.00000000000E+00  0.42671164564E+03  0.16554512882E+04  0.15995112188E+04 0.  0.
        5    1    3    3  502    0  0.15805311693E+03 -0.35582565583E+03 -0.50964113895E+03  0.64136484596E+03  0.46999998093E+01 0. -1.
       -5    1    3    3    0  502 -0.15805311693E+03  0.35582565583E+03  0.93635278460E+03  0.10140864422E+04  0.46999998093E+01 0.  1.
</event>
<event>
 5   0  0.9673017E-05  0.1596267E+04  0.7818609E-02  0.8822845E-01
        1   -1    0    0  501    0  0.00000000000E+00  0.00000000000E+00  0.86100510496E+03  0.86100510497E+03  0.50400001928E-02 0. -1.
       -1   -1    0    0    0  501  0.00000000000E+00  0.00000000000E+00 -0.73985294659E+03  0.73985294660E+03  0.50400001928E-02 0.  1.
    10030    2    1    2    0    0  0.00000000000E+00  0.00000000000E+00  0.12115215837E+03  0.16008580516E+04  0.15962671004E+04 0.  0.
        1    1    3    3  502    0  0.75381370341E+03 -0.15118654995E+03  0.27549288938E+03  0.81669382541E+03  0.50400001928E-02 0. -1.
       -1    1    3    3    0  502 -0.75381370341E+03  0.15118654995E+03 -0.15434073101E+03  0.78416422617E+03  0.50400001928E-02 0.  1.
</event>
<event>
 5   0  0.9726935E-05  0.1599494E+04  0.7818609E-02  0.8820859E-01
        1   -1    0    0  501    0  0.00000000000E+00  0.00000000000E+00  0.61592549992E+03  0.61592549994E+03  0.50400001928E-02 0.  1.
       -1   -1    0    0    0  501  0.00000000000E+00  0.00000000000E+00 -0.10384301409E+04  0.10384301409E+04  0.50400001928E-02 0. -1.
    10030    2    1    2    0    0  0.00000000000E+00  0.00000000000E+00 -0.42250464093E+03  0.16543556408E+04  0.15994944247E+04 0.  0.
        2    1    3    3  502    0  0.53232600767E+03 -0.20894424733E+03 -0.78950500449E+03  0.97485733780E+03  0.25500000920E-02 0. -1.
       -2    1    3    3    0  502 -0.53232600767E+03  0.20894424733E+03  0.36700036356E+03  0.67949830301E+03  0.25500000920E-02 0.  1.
</event>
<event>
 5   0  0.1835088E-04  0.1596740E+04  0.7818609E-02  0.8822553E-01
       -2   -1    0    0    0  501  0.00000000000E+00  0.00000000000E+00  0.61166002317E+03  0.61166002318E+03  0.25500000920E-02 0. -1.
        2   -1    0    0  501    0  0.00000000000E+00  0.00000000000E+00 -0.10420737380E+04  0.10420737380E+04  0.25500000920E-02 0.  1.
    10030    2    1    2    0    0  0.00000000000E+00  0.00000000000E+00 -0.43041371480E+03  0.16537337611E+04  0.15967402378E+04 0.  0.
        5    1    3    3  502    0 -0.25691249780E+03 -0.17300281685E+03 -0.97729637925E+03  0.10252142747E+04  0.46999998093E+01 0.  1.
       -5    1    3    3    0  502  0.25691249780E+03  0.17300281685E+03  0.54688266445E+03  0.62851948644E+03  0.46999998093E+01 0. -1.
</event>
<event>
 5   0  0.1858913E-04  0.1612362E+04  0.7818609E-02  0.8812990E-01
       -2   -1    0    0    0  501  0.00000000000E+00  0.00000000000E+00  0.77149376037E+03  0.77149376038E+03  0.25500000920E-02 0. -1.
        2   -1    0    0  501    0  0.00000000000E+00  0.00000000000E+00 -0.84242751400E+03  0.84242751400E+03  0.25500000920E-02 0.  1.
    10030    2    1    2    0    0  0.00000000000E+00  0.00000000000E+00 -0.70933753624E+02  0.16139212744E+04  0.16123617096E+04 0.  0.
        4    1    3    3  502    0 -0.62017173498E+03 -0.32173450929E+03  0.36716575627E+03  0.78926445556E+03  0.12699999809E+01 0. -1.
       -4    1    3    3    0  502  0.62017173498E+03  0.32173450929E+03 -0.43809950990E+03  0.82465681881E+03  0.12699999809E+01 0.  1.
</event>
<event>
 5   0  0.9939872E-05  0.1601980E+04  0.7818609E-02  0.8819333E-01
       -1   -1    0    0    0  501  0.00000000000E+00  0.00000000000E+00  0.22707479193E+03  0.22707479198E+03  0.50400001928E-02 0. -1.
        1   -1    0    0  501    0  0.00000000000E+00  0.00000000000E+00 -0.28254329611E+04  0.28254329611E+04  0.50400001928E-02 0.  1.
    10030    2    1    2    0    0  0.00000000000E+00  0.00000000000E+00 -0.25983581692E+04  0.30525077531E+04  0.16019795278E+04 0.  0.
        3    1    3    3  502    0 -0.19045927843E+03  0.53407920525E+03 -0.22117155318E+03  0.60863141585E+03  0.10100000352E+00 0. -1.
       -3    1    3    3    0  502  0.19045927843E+03 -0.53407920525E+03 -0.23771866160E+04  0.24438763373E+04  0.10100000352E+00 0.  1.
</event>
<event>
 5   0  0.9726935E-05  0.1604014E+04  0.7818609E-02  0.8818086E-01
       -1   -1    0    0    0  501  0.00000000000E+00  0.00000000000E+00  0.47466169657E+03  0.47466169660E+03  0.50400001928E-02 0.  1.
        1   -1    0    0  501    0  0.00000000000E+00  0.00000000000E+00 -0.13551029776E+04  0.13551029776E+04  0.50400001928E-02 0. -1.
    10030    2    1    2    0    0  0.00000000000E+00  0.00000000000E+00 -0.88044128099E+03  0.18297646742E+04  0.16040143121E+04 0.  0.
        2    1    3    3  502    0  0.29061634601E+03  0.60938227237E+02 -0.12900872463E+04  0.13238188816E+04  0.25500000920E-02 0. -1.
       -2    1    3    3    0  502 -0.29061634601E+03 -0.60938227237E+02  0.40964596534E+03  0.50594579258E+03  0.25500000920E-02 0.  1.
</event>
<event>
 5   0  0.1858913E-04  0.1602585E+04  0.7818609E-02  0.8818961E-01
        2   -1    0    0  501    0  0.00000000000E+00  0.00000000000E+00  0.16319266963E+04  0.16319266963E+04  0.25500000920E-02 0.  1.
       -2   -1    0    0    0  501  0.00000000000E+00  0.00000000000E+00 -0.39344283273E+03  0.39344283274E+03  0.25500000920E-02 0. -1.
    10030    2    1    2    0    0  0.00000000000E+00  0.00000000000E+00  0.12384838636E+04  0.20253695291E+04  0.16025852392E+04 0.  0.
        4    1    3    3  502    0 -0.64346209321E+03 -0.88484831087E+02  0.12122861494E+04  0.13753226355E+04  0.12699999809E+01 0.  1.
       -4    1    3    3    0  502  0.64346209321E+03  0.88484831087E+02  0.26197714184E+02  0.65004689358E+03  0.12699999809E+01 0. -1.
</event>
<event>
 5   0  0.9673017E-05  0.1599317E+04  0.7818609E-02  0.8820968E-01
        1   -1    0    0  501    0  0.00000000000E+00  0.00000000000E+00  0.85289464447E+03  0.85289464449E+03  0.50400001928E-02 0.  1.
       -1   -1    0    0    0  501  0.00000000000E+00  0.00000000000E+00 -0.74974539163E+03  0.74974539165E+03  0.50400001928E-02 0. -1.
    10030    2    1    2    0    0  0.00000000000E+00  0.00000000000E+00  0.10314925284E+03  0.16026400361E+04  0.15993171409E+04 0.  0.
        1    1    3    3  502    0 -0.66245261367E+02  0.54114784684E+02 -0.74514771593E+03  0.75004130764E+03  0.50400001928E-02 0. -1.
       -1    1    3    3    0  502  0.66245261367E+02 -0.54114784684E+02  0.84829696878E+03  0.85259872850E+03  0.50400001928E-02 0.  1.
</event>
<event>
 5   0  0.1774934E-04  0.1601710E+04  0.7818609E-02  0.8819498E-01
       -2   -1    0    0    0  501  0.00000000000E+00  0.00000000000E+00  0.60075243527E+03  0.60075243528E+03  0.25500000920E-02 0. -1.
        2   -1    0    0  501    0  0.00000000000E+00  0.00000000000E+00 -0.10676084429E+04  0.10676084429E+04  0.25500000920E-02 0.  1.
    10030    2    1    2    0    0  0.00000000000E+00  0.00000000000E+00 -0.46685600767E+03  0.16683608782E+04  0.16017095517E+04 0.  0.
        1    1    3    3  502    0  0.61458154564E+03 -0.18364080526E+03 -0.73289613419E+03  0.97394618185E+03  0.50400001928E-02 0.  1.
       -1    1    3    3    0  502 -0.61458154564E+03  0.18364080526E+03  0.26604012652E+03  0.69441469638E+03  0.50400001928E-02 0. -1.
</event>
<event>
 5   0  0.9673017E-05  0.1602255E+04  0.7818609E-02  0.8819164E-01
        1   -1    0    0  501    0  0.00000000000E+00  0.00000000000E+00  0.76229659958E+03  0.76229659960E+03  0.50400001928E-02 0. -1.
       -1   -1    0    0    0  501  0.00000000000E+00  0.00000000000E+00 -0.84193647970E+03  0.84193647971E+03  0.50400001928E-02 0.  1.
    10030    2    1    2    0    0  0.00000000000E+00  0.00000000000E+00 -0.79639880113E+02  0.16042330793E+04  0.16022550553E+04 0.  0.
        1    1    3    3  502    0 -0.64013377076E+03 -0.40804093618E+03 -0.29613727983E+03  0.81484105112E+03  0.50400001928E-02 0. -1.
       -1    1    3    3    0  502  0.64013377076E+03  0.40804093618E+03  0.21649739971E+03  0.78939202819E+03  0.50400001928E-02 0.  1.
</event>
<event>
 5   0  0.9673017E-05  0.1552258E+04  0.7818609E-02  0.8850427E-01
        1   -1    0    0  501    0  0.00000000000E+00  0.00000000000E+00  0.17123402086E+04  0.17123402086E+04  0.50400001928E-02 0. -1.
       -1   -1    0    0    0  501  0.00000000000E+00  0.00000000000E+00 -0.35178522289E+03  0.35178522292E+03  0.50400001928E-02 0.  1.
    10030    2    1    2    0    0  0.00000000000E+00  0.00000000000E+00  0.13605549857E+04  0.20641254315E+04  0.15522576873E+04 0.  0.
        1    1    3    3  502    0  0.53337701381E+03 -0.32457137010E+03  0.12933204916E+04  0.14361460605E+04  0.50400001928E-02 0. -1.
       -1    1    3    3    0  502 -0.53337701381E+03  0.32457137010E+03  0.67234494091E+02  0.62797937098E+03  0.50400001928E-02 0.  1.
</event>
<event>
 5   0  0.1914170E-04  0.1599555E+04  0.7818609E-02  0.8820822E-01
        2   -1    0    0  501    0  0.00000000000E+00  0.00000000000E+00  0.89773983151E+03  0.89773983151E+03  0.25500000920E-02 0.  1.
       -2   -1    0    0    0  501  0.00000000000E+00  0.00000000000E+00 -0.71250477852E+03  0.71250477852E+03  0.25500000920E-02 0. -1.
    10030    2    1    2    0    0  0.00000000000E+00  0.00000000000E+00  0.18523505299E+03  0.16102446100E+04  0.15995548378E+04 0.  0.
        3    1    3    3  502    0 -0.64117836620E+03 -0.36722823345E+03 -0.21549594261E+03  0.76967836413E+03  0.10100000352E+00 0. -1.
       -3    1    3    3    0  502  0.64117836620E+03  0.36722823345E+03  0.40073099559E+03  0.84056624591E+03  0.10100000352E+00 0.  1.
</event>
<event>
 5   0  0.9616567E-05  0.1601053E+04  0.7818609E-02  0.8819902E-01
       -1   -1    0    0    0  501  0.00000000000E+00  0.00000000000E+00  0.62380851058E+03  0.62380851060E+03  0.50400001928E-02 0. -1.
        1   -1    0    0  501    0  0.00000000000E+00  0.00000000000E+00 -0.10273062809E+04  0.10273062809E+04  0.50400001928E-02 0.  1.
    10030    2    1    2    0    0  0.00000000000E+00  0.00000000000E+00 -0.40349777033E+03  0.16511147915E+04  0.16010526550E+04 0.  0.
        5    1    3    3  502    0 -0.53751457558E+03  0.59065992876E+03 -0.14508315145E+03  0.81170948081E+03  0.46999998093E+01 0. -1.
       -5    1    3    3    0  502  0.53751457558E+03 -0.59065992876E+03 -0.25841461889E+03  0.83940531072E+03  0.46999998093E+01 0.  1.
</event>
<event>
 5   0  0.1914170E-04  0.1607649E+04  0.7818609E-02  0.8815863E-01
        2   -1    0    0  501    0  0.00000000000E+00  0.00000000000E+00  0.18924191456E+04  0.18924191456E+04  0.25500000920E-02 0.  1.
       -2   -1    0    0    0  501  0.00000000000E+00  0.00000000000E+00 -0.34143262173E+03  0.34143262174E+03  0.25500000920E-02 0. -1.
    10030    2    1    2    0    0  0.00000000000E+00  0.00000000000E+00  0.15509865239E+04  0.22338517674E+04  0.16076487556E+04 0.  0.
        3    1    3    3  502    0 -0.59690144921E+03 -0.49026586519E+02  0.30528410345E+02  0.59968903633E+03  0.10100000352E+00 0. -1.
       -3    1    3    3    0  502  0.59690144921E+03  0.49026586519E+02  0.15204581136E+04  0.16341627310E+04  0.10100000352E+00 0.  1.
</event>
<event>
 5   0  0.1858913E-04  0.1593681E+04  0.7818609E-02  0.8824440E-01
       -2   -1    0    0    0  501  0.00000000000E+00  0.00000000000E+00  0.73278192776E+03  0.73278192776E+03  0.25500000920E-02 0.  1.
        2   -1    0    0  501    0  0.00000000000E+00  0.00000000000E+00 -0.86649867404E+03  0.86649867405E+03  0.25500000920E-02 0. -1.
    10030    2    1    2    0    0  0.00000000000E+00  0.00000000000E+00 -0.13371674629E+03  0.15992806018E+04  0.15936807319E+04 0.  0.
        4    1    3    3  502    0 -0.40642345954E+02  0.43084651356E+03  0.60457593074E+03  0.74350130293E+03  0.12699999809E+01 0.  1.
       -4    1    3    3    0  502  0.40642345954E+02 -0.43084651356E+03 -0.73829267703E+03  0.85577929887E+03  0.12699999809E+01 0. -1.
</event>
<event>
 5   0  0.1914170E-04  0.1597618E+04  0.7818609E-02  0.8822012E-01
       -2   -1    0    0    0  501  0.00000000000E+00  0.00000000000E+00  0.36651532582E+03  0.36651532583E+03  0.25500000920E-02 0. -1.
        2   -1    0    0  501    0  0.00000000000E+00  0.00000000000E+00 -0.17409807578E+04  0.17409807578E+04  0.25500000920E-02 0.  1.
    10030    2    1    2    0    0  0.00000000000E+00  0.00000000000E+00 -0.13744654320E+04  0.21074960836E+04  0.15976183896E+04 0.  0.
        3    1    3    3  502    0 -0.73240678760E+03  0.77616393576E+02 -0.27925071079E+03  0.78767060168E+03  0.10100000352E+00 0. -1.
       -3    1    3    3    0  502  0.73240678760E+03 -0.77616393576E+02 -0.10952147212E+04  0.13198254820E+04  0.10100000352E+00 0.  1.
</event>
<event>
 5   0  0.1774934E-04  0.1602699E+04  0.7818609E-02  0.8818891E-01
        2   -1    0    0  501    0  0.00000000000E+00  0.00000000000E+00  0.19511919922E+04  0.19511919922E+04  0.25500000920E-02 0. -1.
       -2   -1    0    0    0  501  0.00000000000E+00  0.00000000000E+00 -0.32911231377E+03  0.32911231378E+03  0.25500000920E-02 0.  1.
    10030    2    1    2    0    0  0.00000000000E+00  0.00000000000E+00  0.16220796785E+04  0.22803043060E+04  0.16026993619E+04 0.  0.
        1    1    3    3  502    0  0.35633094997E+03  0.70624493300E+03  0.99328838244E+03  0.12697934722E+04  0.50400001928E-02 0.  1.
       -1    1    3    3    0  502 -0.35633094997E+03 -0.70624493300E+03  0.62879129603E+03  0.10105108338E+04  0.50400001928E-02 0. -1.
</event>
<event>
 5   0  0.9726935E-05  0.1597789E+04  0.7818609E-02  0.8821907E-01
       -1   -1    0    0    0  501  0.00000000000E+00  0.00000000000E+00  0.99063329108E+03  0.99063329109E+03  0.50400001928E-02 0. -1.
        1   -1    0    0  501    0  0.00000000000E+00  0.00000000000E+00 -0.64426730135E+03  0.64426730137E+03  0.50400001928E-02 0.  1.
    10030    2    1    2    0    0  0.00000000000E+00  0.00000000000E+00  0.34636598973E+03  0.16349005925E+04  0.15977892691E+04 0.  0.
        2    1    3    3  502    0 -0.73947789798E+02  0.55736043317E+03 -0.40754993832E+03  0.69441765553E+03  0.25500000920E-02 0.  1.
       -2    1    3    3    0  502  0.73947789798E+02 -0.55736043317E+03  0.75391592805E+03  0.94048293693E+03  0.25500000920E-02 0. -1.
</event>
<event>
 5   0  0.9432152E-05  0.1612377E+04  0.7818609E-02  0.8812980E-01
        1   -1    0    0  501    0  0.00000000000E+00  0.00000000000E+00  0.11155104939E+04  0.11155104939E+04  0.50400001928E-02 0. -1.
       -1   -1    0    0    0  501  0.00000000000E+00  0.00000000000E+00 -0.58263893344E+03  0.58263893346E+03  0.50400001928E-02 0.  1.
    10030    2    1    2    0    0  0.00000000000E+00  0.00000000000E+00  0.53287156043E+03  0.16981494273E+04  0.16123769341E+04 0.  0.
        4    1    3    3  502    0 -0.75087818960E+03 -0.26296106628E+03  0.40364124352E+03  0.89212916350E+03  0.12699999809E+01 0.  1.
       -4    1    3    3    0  502  0.75087818960E+03  0.26296106628E+03  0.12923031690E+03  0.80602026383E+03  0.12699999809E+01 0. -1.
</event>
<event>
 5   0  0.1835088E-04  0.1615995E+04  0.7818609E-02  0.8810781E-01
        2   -1    0    0  501    0  0.00000000000E+00  0.00000000000E+00  0.59523897498E+03  0.59523897498E+03  0.25500000920E-02 0. -1.
       -2   -1    0    0    0  501  0.00000000000E+00  0.00000000000E+00 -0.10968036301E+04  0.10968036301E+04  0.25500000920E-02 0.  1.
    10030    2    1    2    0    0  0.00000000000E+00  0.00000000000E+00 -0.50156465509E+03  0.16920426050E+04  0.16159953818E+04 0.  0.
        5    1    3    3  502    0  0.49341883856E+03 -0.46278317338E+02 -0.91896218307E+03  0.10440868818E+04  0.46999998093E+01 0.  1.
       -5    1    3    3    0  502 -0.49341883856E+03  0.46278317338E+02  0.41739752798E+03  0.64795572322E+03  0.46999998093E+01 0. -1.
</event>
<event>
 5   0  0.9673017E-05  0.1607709E+04  0.7818609E-02  0.8815826E-01
        1   -1    0    0  501    0  0.00000000000E+00  0.00000000000E+00  0.44889693657E+03  0.44889693659E+03  0.50400001928E-02 0.  1.
       -1   -1    0    0    0  501  0.00000000000E+00  0.00000000000E+00 -0.14394895610E+04  0.14394895610E+04  0.50400001928E-02 0. -1.
    10030    2    1    2    0    0  0.00000000000E+00  0.00000000000E+00 -0.99059262439E+03  0.18883864976E+04  0.16077094939E+04 0.  0.
        1    1    3    3  502    0  0.17446404254E+03 -0.21371870857E+03 -0.13821399353E+04  0.14094056156E+04  0.50400001928E-02 0. -1.
       -1    1    3    3    0  502 -0.17446404254E+03  0.21371870857E+03  0.39154731093E+03  0.47898088193E+03  0.50400001928E-02 0.  1.
</event>
<event>
 5   0  0.9432152E-05  0.1601756E+04  0.7818609E-02  0.8819470E-01
       -1   -1    0    0    0  501  0.00000000000E+00  0.00000000000E+00  0.42409188041E+03  0.42409188044E+03  0.50400001928E-02 0.  1.
        1   -1    0    0  501    0  0.00000000000E+00  0.00000000000E+00 -0.15124216695E+04  0.15124216695E+04  0.50400001928E-02 0. -1.
    10030    2    1    2    0    0  0.00000000000E+00  0.00000000000E+00 -0.10883297890E+04  0.19365135499E+04  0.16017562234E+04 0.  0.
        4    1    3    3  502    0  0.70875341754E+03 -0.23919821669E+03 -0.19826384377E+03  0.77385874576E+03  0.12699999809E+01 0.  1.
       -4    1    3    3    0  502 -0.70875341754E+03  0.23919821669E+03 -0.89006594528E+03  0.11626548041E+04  0.12699999809E+01 0. -1.
</event>
<event>
 5   0  0.9616567E-05  0.1605774E+04  0.7818609E-02  0.8817009E-01
       -1   -1    0    0    0  501  0.00000000000E+00  0.00000000000E+00  0.44425881587E+03  0.44425881590E+03  0.50400001928E-02 0.  1.
        1   -1    0    0  501    0  0.00000000000E+00  0.00000000000E+00 -0.14510174249E+04  0.14510174249E+04  0.50400001928E-02 0. -1.
    10030    2    1    2    0    0  0.00000000000E+00  0.00000000000E+00 -0.10067586090E+04  0.18952762408E+04  0.16057736865E+04 0.  0.
        5    1    3    3  502    0 -0.14101269969E+03 -0.70093777961E+03 -0.93447851860E+03  0.11766352638E+04  0.46999998093E+01 0.  1.
       -5    1    3    3    0  502  0.14101269969E+03  0.70093777961E+03 -0.72280090446E+02  0.71864097700E+03  0.46999998093E+01 0. -1.
</event>
<event>
 5   0  0.1858913E-04  0.1603856E+04  0.7818609E-02  0.8818182E-01
        2   -1    0    0  501    0  0.00000000000E+00  0.00000000000E+00  0.10853204554E+04  0.10853204554E+04  0.25500000920E-02 0.  1.
       -2   -1    0    0    0  501  0.00000000000E+00  0.00000000000E+00 -0.59253345418E+03  0.59253345418E+03  0.25500000920E-02 0. -1.
    10030    2    1    2    0    0  0.00000000000E+00  0.00000000000E+00  0.49278700118E+03  0.16778539096E+04  0.16038562009E+04 0.  0.
        4    1    3    3  502    0  0.47863775020E+03  0.50197884147E+03 -0.17468194031E+03  0.71525676954E+03  0.12699999809E+01 0. -1.
       -4    1    3    3    0  502 -0.47863775020E+03 -0.50197884147E+03  0.66746894150E+03  0.96259714001E+03  0.12699999809E+01 0.  1.
</event>
<event>
 5   0  0.9673017E-05  0.1598527E+04  0.7818609E-02  0.8821454E-01
        1   -1    0    0  501    0  0.00000000000E+00  0.00000000000E+00  0.54022931054E+03  0.54022931057E+03  0.50400001928E-02 0.  1.
       -1   -1    0    0    0  501  0.00000000000E+00  0.00000000000E+00 -0.11825015267E+04  0.11825015267E+04  0.50400001928E-02 0. -1.
    10030    2    1    2    0    0  0.00000000000E+00  0.00000000000E+00 -0.64227221617E+03  0.17227308373E+04  0.15985268024E+04 0.  0.
        1    1    3    3  502    0 -0.44562828598E+03 -0.36330487309E+03 -0.91947457397E+03  0.10844392525E+04  0.50400001928E-02 0. -1.
       -1    1    3    3    0  502  0.44562828598E+03  0.36330487309E+03  0.27720235780E+03  0.63829158483E+03  0.50400001928E-02 0.  1.
</event>
<event>
 5   0  0.1832646E-04  0.1600566E+04  0.7818609E-02  0.8820200E-01
       -2   -1    0    0    0  501  0.00000000000E+00  0.00000000000E+00  0.74695629550E+03  0.74695629550E+03  0.25500000920E-02 0. -1.
        2   -1    0    0  501    0  0.00000000000E+00  0.00000000000E+00 -0.85741669316E+03  0.85741669316E+03  0.25500000920E-02 0.  1.
    10030    2    1    2    0    0  0.00000000000E+00  0.00000000000E+00 -0.11046039766E+03  0.16043729887E+04  0.16005658960E+04 0.  0.
        2    1    3    3  502    0  0.50090407770E+03  0.12347077781E+03  0.55802799627E+03  0.75996392852E+03  0.25500000920E-02 0. -1.
       -2    1    3    3    0  502 -0.50090407770E+03 -0.12347077781E+03 -0.66848839393E+03  0.84440906014E+03  0.25500000920E-02 0.  1.
</event>
<event>
 5   0  0.1835088E-04  0.1616389E+04  0.7818609E-02  0.8810542E-01
       -2   -1    0    0    0  501  0.00000000000E+00  0.00000000000E+00  0.11108618490E+04  0.11108618490E+04  0.25500000920E-02 0. -1.
        2   -1    0    0  501    0  0.00000000000E+00  0.00000000000E+00 -0.58799255900E+03  0.58799255901E+03  0.25500000920E-02 0.  1.
    10030    2    1    2    0    0  0.00000000000E+00  0.00000000000E+00  0.52286928995E+03  0.16988544080E+04  0.16163891874E+04 0.  0.
        5    1    3    3  502    0 -0.69356606276E+03 -0.89909045261E+02 -0.16424573893E+03  0.71841232770E+03  0.46999998093E+01 0.  1.
       -5    1    3    3    0  502  0.69356606276E+03  0.89909045261E+02  0.68711502888E+03  0.98044208027E+03  0.46999998093E+01 0. -1.
</event>
<event>
 5   0  0.9939872E-05  0.1583409E+04  0.7818609E-02  0.8830806E-01
        1   -1    0    0  501    0  0.00000000000E+00  0.00000000000E+00  0.71760076044E+03  0.71760076046E+03  0.50400001928E-02 0. -1.
       -1   -1    0    0    0  501  0.00000000000E+00  0.00000000000E+00 -0.87346063022E+03  0.87346063023E+03  0.50400001928E-02 0.  1.
    10030    2    1    2    0    0  0.00000000000E+00  0.00000000000E+00 -0.15585986978E+03  0.15910613907E+04  0.15834089964E+04 0.  0.
        3    1    3    3  502    0  0.26839906621E+03  0.69246765763E+02  0.66724887661E+03  0.72253321505E+03  0.10100000352E+00 0. -1.
       -3    1    3    3    0  502 -0.26839906621E+03 -0.69246765763E+02 -0.82310874638E+03  0.86852817564E+03  0.10100000352E+00 0.  1.
</event>
<event>
 5   0  0.9616567E-05  0.1604122E+04  0.7818609E-02  0.8818020E-01
        1   -1    0    0  501    0  0.00000000000E+00  0.00000000000E+00  0.18479650611E+04  0.18479650611E+04  0.50400001928E-02 0. -1.
       -1   -1    0    0    0  501  0.00000000000E+00  0.00000000000E+00 -0.34811367576E+03  0.34811367579E+03  0.50400001928E-02 0.  1.
    10030    2    1    2    0    0  0.00000000000E+00  0.00000000000E+00  0.14998513853E+04  0.21960787369E+04  0.16041220778E+04 0.  0.
        5    1    3    3  502    0  0.40287478344E+02  0.17191070593E+03 -0.32115675888E+03  0.36652438595E+03  0.46999998093E+01 0.  1.
       -5    1    3    3    0  502 -0.40287478344E+02 -0.17191070593E+03  0.18210081442E+04  0.18295543509E+04  0.46999998093E+01 0. -1.
</event>
<event>
 5   0  0.1832646E-04  0.1603434E+04  0.7818609E-02  0.8818441E-01
       -2   -1    0    0    0  501  0.00000000000E+00  0.00000000000E+00  0.21903791187E+03  0.21903791188E+03  0.25500000920E-02 0.  1.
        2   -1    0    0  501    0  0.00000000000E+00  0.00000000000E+00 -0.29344251128E+04  0.29344251128E+04  0.25500000920E-02 0. -1.
    10030    2    1    2    0    0  0.00000000000E+00  0.00000000000E+00 -0.27153872009E+04  0.31534630246E+04  0.16034342509E+04 0.  0.
        2    1    3    3  502    0  0.22157658467E+03 -0.17516191487E+03 -0.28333327396E+04  0.28473763876E+04  0.25500000920E-02 0. -1.
       -2    1    3    3    0  502 -0.22157658467E+03  0.17516191487E+03  0.11794553869E+03  0.30608663708E+03  0.25500000920E-02 0.  1.
</event>
<event>
 5   0  0.9432152E-05  0.1600090E+04  0.7818609E-02  0.8820492E-01
       -1   -1    0    0    0  501  0.00000000000E+00  0.00000000000E+00  0.11263952599E+04  0.11263952599E+04  0.50400001928E-02 0. -1.
        1   -1    0    0  501    0  0.00000000000E+00  0.00000000000E+00 -0.56824841047E+03  0.56824841049E+03  0.50400001928E-02 0.  1.
    10030    2    1    2    0    0  0.00000000000E+00  0.00000000000E+00  0.55814684943E+03  0.16946436704E+04  0.16000903925E+04 0.  0.
        4    1    3    3  502    0 -0.27533345146E+02 -0.76821857137E+03  0.44267957568E+02  0.76998644369E+03  0.12699999809E+01 0.  1.
       -4    1    3    3    0  502  0.27533345146E+02  0.76821857137E+03  0.51387889186E+03  0.92465722671E+03  0.12699999809E+01 0. -1.
</event>
<event>
 5   0  0.1914170E-04  0.1601548E+04  0.7818609E-02  0.8819598E-01
       -2   -1    0    0    0  501  0.00000000000E+00  0.00000000000E+00  0.47833550194E+03  0.47833550195E+03  0.25500000920E-02 0. -1.
        2   -1    0    0  501    0  0.00000000000E+00  0.00000000000E+00 -0.13405630640E+04  0.13405630640E+04  0.25500000920E-02 0.  1.
    10030    2    1    2    0    0  0.00000000000E+00  0.00000000000E+00 -0.86222756205E+03  0.18188985659E+04  0.16015478839E+04 0.  0.
        3    1    3    3  502    0  0.26788042132E+03 -0.70029642907E+03 -0.11177060959E+03  0.75806839274E+03  0.10100000352E+00 0.  1.
       -3    1    3    3    0  502 -0.26788042132E+03  0.70029642907E+03 -0.75045695246E+03  0.10608301732E+04  0.10100000352E+00 0. -1.
</event>
<event>
 5   0  0.1835088E-04  0.1588344E+04  0.7818609E-02  0.8827741E-01
        2   -1    0    0  501    0  0.00000000000E+00  0.00000000000E+00  0.68469602725E+03  0.68469602726E+03  0.25500000920E-02 0. -1.
       -2   -1    0    0    0  501  0.00000000000E+00  0.00000000000E+00 -0.92115253624E+03  0.92115253624E+03  0.25500000920E-02 0.  1.
    10030    2    1    2    0    0  0.00000000000E+00  0.00000000000E+00 -0.23645650898E+03  0.16058485635E+04  0.15883443985E+04 0.  0.
        5    1    3    3  502    0  0.12192909783E+03 -0.32097811459E+03  0.60575957897E+03  0.69631918863E+03  0.46999998093E+01 0. -1.
       -5    1    3    3    0  502 -0.12192909783E+03  0.32097811459E+03 -0.84221608795E+03  0.90952937487E+03  0.46999998093E+01 0.  1.
</event>
<event>
 5   0  0.1774934E-04  0.1588021E+04  0.7818609E-02  0.8827941E-01
        2   -1    0    0  501    0  0.00000000000E+00  0.00000000000E+00  0.14907761037E+04  0.14907761037E+04  0.25500000920E-02 0. -1.
       -2   -1    0    0    0  501  0.00000000000E+00  0.00000000000E+00 -0.42290248026E+03  0.42290248026E+03  0.25500000920E-02 0.  1.
    10030    2    1    2    0    0  0.00000000000E+00  0.00000000000E+00  0.10678736235E+04  0.19136785840E+04  0.15880212993E+04 0.  0.
        1    1    3    3  502    0  0.34746455307E+03  0.12533919452E+03 -0.31305878265E+03  0.48419761538E+03  0.50400001928E-02 0.  1.
       -1    1    3    3    0  502 -0.34746455307E+03 -0.12533919452E+03  0.13809324061E+04  0.14294809686E+04  0.50400001928E-02 0. -1.
</event>
<event>
 5   0  0.9432152E-05  0.1594666E+04  0.7818609E-02  0.8823831E-01
       -1   -1    0    0    0  501  0.00000000000E+00  0.00000000000E+00  0.78384319807E+03  0.78384319809E+03  0.50400001928E-02 0. -1.
        1   -1    0    0  501    0  0.00000000000E+00  0.00000000000E+00 -0.81105511945E+03  0.81105511947E+03  0.50400001928E-02 0.  1.
    10030    2    1    2    0    0  0.00000000000E+00  0.00000000000E+00 -0.27211921381E+02  0.15948983176E+04  0.15946661578E+04 0.  0.
        4    1    3    3  502    0 -0.30312130716E+02  0.10286563876E+03  0.77659656639E+03  0.78396683906E+03  0.12699999809E+01 0. -1.
       -4    1    3    3    0  502  0.30312130716E+02 -0.10286563876E+03 -0.80380848777E+03  0.81093147850E+03  0.12699999809E+01 0.  1.
</event>
<event>
 5   0  0.1774934E-04  0.1597500E+04  0.7818609E-02  0.8822085E-01
        2   -1    0    0  501    0  0.00000000000E+00  0.00000000000E+00  0.98836987986E+03  0.98836987986E+03  0.25500000920E-02 0.  1.
       -2   -1    0    0    0  501  0.00000000000E+00  0.00000000000E+00 -0.64550875681E+03  0.64550875682E+03  0.25500000920E-02 0. -1.
    10030    2    1    2    0    0  0.00000000000E+00  0.00000000000E+00  0.34286112304E+03  0.16338786367E+04  0.15974998121E+04 0.  0.
        1    1    3    3  502    0 -0.16226542874E+03 -0.56350267643E+03 -0.38326300164E+03  0.70053969493E+03  0.50400001928E-02 0. -1.
       -1    1    3    3    0  502  0.16226542874E+03  0.56350267643E+03  0.72612412469E+03  0.93333894175E+03  0.50400001928E-02 0.  1.
</event>
<event>
 5   0  0.9432152E-05  0.1602943E+04  0.7818609E-02  0.8818742E-01
       -1   -1    0    0    0  501  0.00000000000E+00  0.00000000000E+00  0.38527143664E+03  0.38527143667E+03  0.50400001928E-02 0.  1.
        1   -1    0    0  501    0  0.00000000000E+00  0.00000000000E+00 -0.16672827268E+04  0.16672827268E+04  0.50400001928E-02 0. -1.
    10030    2    1    2    0    0  0.00000000000E+00  0.00000000000E+00 -0.12820112901E+04  0.20525541635E+04  0.16029428081E+04 0.  0.
        4    1    3    3  502    0  0.58690516909E+02  0.37769171361E+02  0.38137153012E+03  0.38770729161E+03  0.12699999809E+01 0.  1.
       -4    1    3    3    0  502 -0.58690516909E+02 -0.37769171361E+02 -0.16633828203E+04  0.16648468719E+04  0.12699999809E+01 0. -1.
</event>
<event>
 5   0  0.1858913E-04  0.1600641E+04  0.7818609E-02  0.8820154E-01
        2   -1    0    0  501    0  0.00000000000E+00  0.00000000000E+00  0.10213550110E+04  0.10213550111E+04  0.25500000920E-02 0. -1.
       -2   -1    0    0    0  501  0.00000000000E+00  0.00000000000E+00 -0.62712070618E+03  0.62712070618E+03  0.25500000920E-02 0.  1.
    10030    2    1    2    0    0  0.00000000000E+00  0.00000000000E+00  0.39423430487E+03  0.16484757172E+04  0.16006409664E+04 0.  0.
        4    1    3    3  502    0 -0.47075500101E+03 -0.22974512564E+03 -0.42604241508E+03  0.67520874259E+03  0.12699999809E+01 0.  1.
       -4    1    3    3    0  502  0.47075500101E+03  0.22974512564E+03  0.82027671995E+03  0.97326697464E+03  0.12699999809E+01 0. -1.
</event>
<event>
 5   0  0.9673017E-05  0.1605594E+04  0.7818609E-02  0.8817119E-01
       -1   -1    0    0    0  501  0.00000000000E+00  0.00000000000E+00  0.38061838789E+03  0.38061838793E+03  0.50400001928E-02 0. -1.
        1   -1    0    0  501    0  0.00000000000E+00  0.00000000000E+00 -0.16932522899E+04  0.16932522899E+04  0.50400001928E-02 0.  1.
    10030    2    1    2    0    0  0.00000000000E+00  0.00000000000E+00 -0.13126339020E+04  0.20738706778E+04  0.16055939174E+04 0.  0.
        1    1    3    3  502    0 -0.64982876319E+03 -0.73096488226E+02 -0.12578204053E+04  0.14176504118E+04  0.50400001928E-02 0. -1.
       -1    1    3    3    0  502  0.64982876319E+03  0.73096488226E+02 -0.54813496655E+02  0.65622026599E+03  0.50400001928E-02 0.  1.
</event>
<event>
 5   0  0.1835088E-04  0.1601219E+04  0.7818609E-02  0.8819799E-01
        2   -1    0    0  501    0  0.00000000000E+00  0.00000000000E+00  0.54933278174E+03  0.54933278174E+03  0.25500000920E-02 0. -1.
       -2   -1    0    0    0  501  0.00000000000E+00  0.00000000000E+00 -0.11668262870E+04  0.11668262870E+04  0.25500000920E-02 0.  1.
    10030    2    1    2    0    0  0.00000000000E+00  0.00000000000E+00 -0.61749350523E+03  0.17161590687E+04  0.16012194478E+04 0.  0.
        5    1    3    3  502    0 -0.43379940322E+03  0.56239129810E+03 -0.70470904675E+03  0.10005512606E+04  0.46999998093E+01 0.  1.
       -5    1    3    3    0  502  0.43379940322E+03 -0.56239129810E+03  0.87215541529E+02  0.71560780816E+03  0.46999998093E+01 0. -1.
</event>
<event>
 5   0  0.1835088E-04  0.1599866E+04  0.7818609E-02  0.8820630E-01
        2   -1    0    0  501    0  0.00000000000E+00  0.00000000000E+00  0.12366120003E+04  0.12366120003E+04  0.25500000920E-02 0. -1.
       -2   -1    0    0    0  501  0.00000000000E+00  0.00000000000E+00 -0.51745653698E+03  0.51745653699E+03  0.25500000920E-02 0.  1.
    10030    2    1    2    0    0  0.00000000000E+00  0.00000000000E+00  0.71915546332E+03  0.17540685373E+04  0.15998661985E+04 0.  0.
        5    1    3    3  502    0 -0.21732261186E+03 -0.24727433656E+03 -0.43972881346E+03  0.54932434365E+03  0.46999998093E+01 0.  1.
       -5    1    3    3    0  502  0.21732261186E+03  0.24727433656E+03  0.11588842768E+04  0.12047441936E+04  0.46999998093E+01 0. -1.
</event>
<event>
 5   0  0.1832646E-04  0.1602102E+04  0.7818609E-02  0.8819257E-01
       -2   -1    0    0    0  501  0.00000000000E+00  0.00000000000E+00  0.91804053040E+03  0.91804053041E+03  0.25500000920E-02 0. -1.
        2   -1    0    0  501    0  0.00000000000E+00  0.00000000000E+00 -0.69897029301E+03  0.69897029302E+03  0.25500000920E-02 0.  1.
    10030    2    1    2    0    0  0.00000000000E+00  0.00000000000E+00  0.21907023739E+03  0.16170108234E+04  0.16021024418E+04 0.  0.
        2    1    3    3  502    0 -0.35045905814E+02  0.22934542173E+03 -0.66431694484E+03  0.70366507743E+03  0.25500000920E-02 0.  1.
       -2    1    3    3    0  502  0.35045905814E+02 -0.22934542173E+03  0.88338718224E+03  0.91334574600E+03  0.25500000920E-02 0. -1.
</event>
<event>
 5   0  0.1832646E-04  0.1595825E+04  0.7818609E-02  0.8823117E-01
        2   -1    0    0  501    0  0.00000000000E+00  0.00000000000E+00  0.84509580802E+03  0.84509580802E+03  0.25500000920E-02 0.  1.
       -2   -1    0    0    0  501  0.00000000000E+00  0.00000000000E+00 -0.75336308195E+03  0.75336308195E+03  0.25500000920E-02 0. -1.
    10030    2    1    2    0    0  0.00000000000E+00  0.00000000000E+00  0.91732726072E+02  0.15984588900E+04  0.15958245298E+04 0.  0.
        2    1    3    3  502    0 -0.55247140654E+03 -0.52173159264E+03  0.28965152239E+03  0.81321984373E+03  0.25500000920E-02 0.  1.
       -2    1    3    3    0  502  0.55247140654E+03  0.52173159264E+03 -0.19791879631E+03  0.78523904624E+03  0.25500000920E-02 0. -1.
</event>
<event>
 5   0  0.1774934E-04  0.1592926E+04  0.7818609E-02  0.8824906E-01
        2   -1    0    0  501    0  0.00000000000E+00  0.00000000000E+00  0.67433905927E+03  0.67433905927E+03  0.25500000920E-02 0.  1.
       -2   -1    0    0    0  501  0.00000000000E+00  0.00000000000E+00 -0.94070394936E+03  0.94070394936E+03  0.25500000920E-02 0. -1.
    10030    2    1    2    0    0  0.00000000000E+00  0.00000000000E+00 -0.26636489009E+03  0.16150430086E+04  0.15929261330E+04 0.  0.
        1    1    3    3  502    0 -0.13151712318E+03  0.12069747275E+03 -0.92016107168E+03  0.93731586537E+03  0.50400001928E-02 0. -1.
       -1    1    3    3    0  502  0.13151712318E+03 -0.12069747275E+03  0.65379618159E+03  0.67772714326E+03  0.50400001928E-02 0.  1.
</event>
<event>
 5   0  0.9939872E-05  0.1591753E+04  0.7818609E-02  0.8825631E-01
        1   -1    0    0  501    0  0.00000000000E+00  0.00000000000E+00  0.16247199190E+04  0.16247199190E+04  0.50400001928E-02 0. -1.
       -1   -1    0    0    0  501  0.00000000000E+00  0.00000000000E+00 -0.38986373295E+03  0.38986373298E+03  0.50400001928E-02 0.  1.
    10030    2    1    2    0    0  0.00000000000E+00  0.00000000000E+00  0.12348561861E+04  0.20145836520E+04  0.15917529616E+04 0.  0.
        3    1    3    3  502    0  0.77824086086E+03  0.72020677940E+02  0.80758387736E+03  0.11238494315E+04  0.10100000352E+00 0. -1.
       -3    1    3    3    0  502 -0.77824086086E+03 -0.72020677940E+02  0.42727230873E+03  0.89073422050E+03  0.10100000352E+00 0.  1.
</event>
<event>
 5   0  0.9939872E-05  0.1599271E+04  0.7818609E-02  0.8820996E-01
       -1   -1    0    0    0  501  0.00000000000E+00  0.00000000000E+00  0.10173074413E+04  0.10173074413E+04  0.50400001928E-02 0.  1.
        1   -1    0    0  501    0  0.00000000000E+00  0.00000000000E+00 -0.62853841654E+03  0.62853841656E+03  0.50400001928E-02 0. -1.
    10030    2    1    2    0    0  0.00000000000E+00  0.00000000000E+00  0.38876902475E+03  0.16458458579E+04  0.15992708442E+04 0.  0.
        3    1    3    3  502    0 -0.74095293839E+03  0.10186864804E+03 -0.96746847064E+02  0.75415412283E+03  0.10100000352E+00 0.  1.
       -3    1    3    3    0  502  0.74095293839E+03 -0.10186864804E+03  0.48551587181E+03  0.89169173504E+03  0.10100000352E+00 0. -1.
</event>
<event>
 5   0  0.6838750E-05  0.1598383E+04  0.7818609E-02  0.8821542E-01
       -3   -1    0    0    0  501  0.00000000000E+00  0.00000000000E+00  0.10906915699E+04  0.10906915746E+04  0.10100000352E+00 0. -1.
        3   -1    0    0  501    0  0.00000000000E+00  0.00000000000E+00 -0.58559801737E+03  0.58559802608E+03  0.10100000352E+00 0.  1.
    10030    2    1    2    0    0  0.00000000000E+00  0.00000000000E+00  0.50509355254E+03  0.16762896007E+04  0.15983827228E+04 0.  0.
        3    1    3    3  502    0  0.79217297244E+03 -0.33759026236E+02  0.35757353040E+03  0.86979108408E+03  0.10100000352E+00 0.  1.
       -3    1    3    3    0  502 -0.79217297244E+03  0.33759026236E+02  0.14752002215E+03  0.80649851658E+03  0.10100000352E+00 0. -1.
</event>
<event>
 5   0  0.1914170E-04  0.1615184E+04  0.7818609E-02  0.8811274E-01
        2   -1    0    0  501    0  0.00000000000E+00  0.00000000000E+00  0.57782508447E+03  0.57782508448E+03  0.25500000920E-02 0.  1.
       -2   -1    0    0    0  501  0.00000000000E+00  0.00000000000E+00 -0.11287233840E+04  0.11287233840E+04  0.25500000920E-02 0. -1.
    10030    2    1    2    0    0  0.00000000000E+00  0.00000000000E+00 -0.55089829955E+03  0.17065484685E+04  0.16151838096E+04 0.  0.
        3    1    3    3  502    0  0.33087408170E+03 -0.66349249695E+03  0.62824845720E+02  0.74407454122E+03  0.10100000352E+00 0.  1.
       -3    1    3    3    0  502 -0.33087408170E+03  0.66349249695E+03 -0.61372314527E+03  0.96247392728E+03  0.10100000352E+00 0. -1.
</event>
<event>
 5   0  0.9673017E-05  0.1604243E+04  0.7818609E-02  0.8817946E-01
       -1   -1    0    0    0  501  0.00000000000E+00  0.00000000000E+00  0.15008561664E+04  0.15008561664E+04  0.50400001928E-02 0.  1.
        1   -1    0    0  501    0  0.00000000000E+00  0.00000000000E+00 -0.42868796351E+03  0.42868796354E+03  0.50400001928E-02 0. -1.
    10030    2    1    2    0    0  0.00000000000E+00  0.00000000000E+00  0.10721682029E+04  0.19295441300E+04  0.16042430907E+04 0.  0.
        1    1    3    3  502    0 -0.54267531399E+03  0.58656114297E+03  0.61983478429E+03  0.10113088701E+04  0.50400001928E-02 0. -1.
       -1    1    3    3    0  502  0.54267531399E+03 -0.58656114297E+03  0.45233341861E+03  0.91823525988E+03  0.50400001928E-02 0.  1.
</event>
<event>
 5   0  0.1832646E-04  0.1602950E+04  0.7818609E-02  0.8818738E-01
        2   -1    0    0  501    0  0.00000000000E+00  0.00000000000E+00  0.17309532088E+04  0.17309532088E+04  0.25500000920E-02 0. -1.
       -2   -1    0    0    0  501  0.00000000000E+00  0.00000000000E+00 -0.37110332196E+03  0.37110332197E+03  0.25500000920E-02 0.  1.
    10030    2    1    2    0    0  0.00000000000E+00  0.00000000000E+00  0.13598498868E+04  0.21020565307E+04  0.16029503872E+04 0.  0.
        2    1    3    3  502    0 -0.27634951100E+03 -0.71296592020E+03  0.36499736314E+03  0.84729719148E+03  0.25500000920E-02 0. -1.
       -2    1    3    3    0  502  0.27634951100E+03  0.71296592020E+03  0.99485252367E+03  0.12547593393E+04  0.25500000920E-02 0.  1.
</event>
<event>
 5   0  0.9432152E-05  0.1609622E+04  0.7818609E-02  0.8814659E-01
       -1   -1    0    0    0  501  0.00000000000E+00  0.00000000000E+00  0.70611915178E+03  0.70611915180E+03  0.50400001928E-02 0. -1.
        1   -1    0    0  501    0  0.00000000000E+00  0.00000000000E+00 -0.91729614302E+03  0.91729614303E+03  0.50400001928E-02 0.  1.
    10030    2    1    2    0    0  0.00000000000E+00  0.00000000000E+00 -0.21117699124E+03  0.16234152948E+04  0.16096215387E+04 0.  0.
        4    1    3    3  502    0 -0.19037560687E+03 -0.17904241571E+03 -0.87330784784E+03  0.91157406079E+03  0.12699999809E+01 0.  1.
       -4    1    3    3    0  502  0.19037560687E+03  0.17904241571E+03  0.66213085660E+03  0.71184123404E+03  0.12699999809E+01 0. -1.
</event>
<event>
 5   0  0.9673017E-05  0.1604057E+04  0.7818609E-02  0.8818060E-01
       -1   -1    0    0    0  501  0.00000000000E+00  0.00000000000E+00  0.26037784185E+03  0.26037784189E+03  0.50400001928E-02 0. -1.
        1   -1    0    0  501    0  0.00000000000E+00  0.00000000000E+00 -0.24704461606E+04  0.24704461606E+04  0.50400001928E-02 0.  1.
    10030    2    1    2    0    0  0.00000000000E+00  0.00000000000E+00 -0.22100683187E+04  0.27308240025E+04  0.16040566570E+04 0.  0.
        1    1    3    3  502    0 -0.57866404385E+03  0.45007192059E+03 -0.16588735013E+04  0.18136367064E+04  0.50400001928E-02 0.  1.
       -1    1    3    3    0  502  0.57866404385E+03 -0.45007192059E+03 -0.55119481743E+03  0.91718729610E+03  0.50400001928E-02 0. -1.
</event>
<event>
 5   0  0.9726935E-05  0.1596637E+04  0.7818609E-02  0.8822616E-01
       -1   -1    0    0    0  501  0.00000000000E+00  0.00000000000E+00  0.58054239173E+03  0.58054239176E+03  0.50400001928E-02 0.  1.
        1   -1    0    0  501    0  0.00000000000E+00  0.00000000000E+00 -0.10977883837E+04  0.10977883837E+04  0.50400001928E-02 0. -1.
    10030    2    1    2    0    0  0.00000000000E+00  0.00000000000E+00 -0.51724599199E+03  0.16783307755E+04  0.15966373338E+04 0.  0.
        2    1    3    3  502    0 -0.33136175102E+03  0.72595009499E+03 -0.23491824927E+03  0.83185980448E+03  0.25500000920E-02 0.  1.
       -2    1    3    3    0  502  0.33136175102E+03 -0.72595009499E+03 -0.28232774272E+03  0.84647097102E+03  0.25500000920E-02 0. -1.
</event>
<event>
 5   0  0.9939872E-05  0.1619851E+04  0.7818609E-02  0.8808445E-01
       -1   -1    0    0    0  501  0.00000000000E+00  0.00000000000E+00  0.50558994632E+03  0.50558994635E+03  0.50400001928E-02 0.  1.
        1   -1    0    0  501    0  0.00000000000E+00  0.00000000000E+00 -0.12974538961E+04  0.12974538961E+04  0.50400001928E-02 0. -1.
    10030    2    1    2    0    0  0.00000000000E+00  0.00000000000E+00 -0.79186394974E+03  0.18030438424E+04  0.16198514076E+04 0.  0.
        3    1    3    3  502    0 -0.80097255192E+03  0.11861130166E+03 -0.41687366301E+03  0.91071912845E+03  0.10100000352E+00 0.  1.
       -3    1    3    3    0  502  0.80097255192E+03 -0.11861130166E+03 -0.37499028673E+03  0.89232471397E+03  0.10100000352E+00 0. -1.
</event>
<event>
 5   0  0.1858913E-04  0.1589240E+04  0.7818609E-02  0.8827186E-01
       -2   -1    0    0    0  501  0.00000000000E+00  0.00000000000E+00  0.89186278899E+03  0.89186278900E+03  0.25500000920E-02 0.  1.
        2   -1    0    0  501    0  0.00000000000E+00  0.00000000000E+00 -0.70797956670E+03  0.70797956671E+03  0.25500000920E-02 0. -1.
    10030    2    1    2    0    0  0.00000000000E+00  0.00000000000E+00  0.18388322229E+03  0.15998423557E+04  0.15892396055E+04 0.  0.
        4    1    3    3  502    0  0.35581681917E+03  0.22179866019E+03  0.77144028191E+03  0.87802162611E+03  0.12699999809E+01 0.  1.
       -4    1    3    3    0  502 -0.35581681917E+03 -0.22179866019E+03 -0.58755705962E+03  0.72182072959E+03  0.12699999809E+01 0. -1.
</event>
<event>
 5   0  0.1858913E-04  0.1586500E+04  0.7818609E-02  0.8828884E-01
        2   -1    0    0  501    0  0.00000000000E+00  0.00000000000E+00  0.19988995781E+04  0.19988995781E+04  0.25500000920E-02 0.  1.
       -2   -1    0    0    0  501  0.00000000000E+00  0.00000000000E+00 -0.31479615273E+03  0.31479615274E+03  0.25500000920E-02 0. -1.
    10030    2    1    2    0    0  0.00000000000E+00  0.00000000000E+00  0.16841034254E+04  0.23136957308E+04  0.15865004215E+04 0.  0.
        4    1    3    3  502    0 -0.22307075885E+03 -0.42847911123E+02  0.19504544933E+04  0.19636371483E+04  0.12699999809E+01 0.  1.
       -4    1    3    3    0  502  0.22307075885E+03  0.42847911123E+02 -0.26635106790E+03  0.35005858254E+03  0.12699999809E+01 0. -1.
</event>
<event>
 5   0  0.9726935E-05  0.1601476E+04  0.7818609E-02  0.8819642E-01
        1   -1    0    0  501    0  0.00000000000E+00  0.00000000000E+00  0.17515590082E+04  0.17515590082E+04  0.50400001928E-02 0.  1.
       -1   -1    0    0    0  501  0.00000000000E+00  0.00000000000E+00 -0.36606309563E+03  0.36606309567E+03  0.50400001928E-02 0. -1.
    10030    2    1    2    0    0  0.00000000000E+00  0.00000000000E+00  0.13854959126E+04  0.21176221039E+04  0.16014757104E+04 0.  0.
        2    1    3    3  502    0 -0.42935436236E+03  0.10375215720E+03 -0.19039358096E+03  0.48099833085E+03  0.25500000920E-02 0. -1.
       -2    1    3    3    0  502  0.42935436236E+03 -0.10375215720E+03  0.15758894935E+04  0.16366237730E+04  0.25500000920E-02 0.  1.
</event>
<event>
 5   0  0.1858913E-04  0.1614557E+04  0.7818609E-02  0.8811655E-01
       -2   -1    0    0    0  501  0.00000000000E+00  0.00000000000E+00  0.65488537591E+03  0.65488537591E+03  0.25500000920E-02 0. -1.
        2   -1    0    0  501    0  0.00000000000E+00  0.00000000000E+00 -0.99513362706E+03  0.99513362706E+03  0.25500000920E-02 0.  1.
    10030    2    1    2    0    0  0.00000000000E+00  0.00000000000E+00 -0.34024825115E+03  0.16500190030E+04  0.16145568549E+04 0.  0.
        4    1    3    3  502    0  0.10474236353E+03  0.31320490090E+03  0.58268856687E+03  0.66977298507E+03  0.12699999809E+01 0. -1.
       -4    1    3    3    0  502 -0.10474236353E+03 -0.31320490090E+03 -0.92293681802E+03  0.98024601791E+03  0.12699999809E+01 0.  1.
</event>
<event>
 5   0  0.1774934E-04  0.1597711E+04  0.7818609E-02  0.8821955E-01
       -2   -1    0    0    0  501  0.00000000000E+00  0.00000000000E+00  0.10225843545E+04  0.10225843545E+04  0.25500000920E-02 0.  1.
        2   -1    0    0  501    0  0.00000000000E+00  0.00000000000E+00 -0.62407589202E+03  0.62407589203E+03  0.25500000920E-02 0. -1.
    10030    2    1    2    0    0  0.00000000000E+00  0.00000000000E+00  0.39850846250E+03  0.16466602466E+04  0.15977111669E+04 0.  0.
        1    1    3    3  502    0  0.70992867860E+03  0.10614527037E+03 -0.16206407766E+03  0.73588743189E+03  0.50400001928E-02 0. -1.
       -1    1    3    3    0  502 -0.70992867860E+03 -0.10614527037E+03  0.56057254016E+03  0.91077281466E+03  0.50400001928E-02 0.  1.
</event>
<event>
 5   0  0.1858913E-04  0.1596876E+04  0.7818609E-02  0.8822469E-01
       -2   -1    0    0    0  501  0.00000000000E+00  0.00000000000E+00  0.47092663465E+03  0.47092663466E+03  0.25500000920E-02 0.  1.
        2   -1    0    0  501    0  0.00000000000E+00  0.00000000000E+00 -0.13537212469E+04  0.13537212469E+04  0.25500000920E-02 0. -1.
    10030    2    1    2    0    0  0.00000000000E+00  0.00000000000E+00 -0.88279461223E+03  0.18246478816E+04  0.15968761894E+04 0.  0.
        4    1    3    3  502    0 -0.51625745553E+03  0.10598316499E+03 -0.11267383890E+04  0.12439032124E+04  0.12699999809E+01 0. -1.
       -4    1    3    3    0  502  0.51625745553E+03 -0.10598316499E+03  0.24394377676E+03  0.58074466917E+03  0.12699999809E+01 0.  1.
</event>
<event>
 5   0  0.9939872E-05  0.1615614E+04  0.7818609E-02  0.8811013E-01
        1   -1    0    0  501    0  0.00000000000E+00  0.00000000000E+00  0.52891680706E+03  0.52891680709E+03  0.50400001928E-02 0.  1.
       -1   -1    0    0    0  501  0.00000000000E+00  0.00000000000E+00 -0.12337512099E+04  0.12337512099E+04  0.50400001928E-02 0. -1.
    10030    2    1    2    0    0  0.00000000000E+00  0.00000000000E+00 -0.70483440283E+03  0.17626680170E+04  0.16156135066E+04 0.  0.
        3    1    3    3  502    0 -0.46910754201E+03 -0.41391812436E+02 -0.10684931507E+04  0.11676698126E+04  0.10100000352E+00 0. -1.
       -3    1    3    3    0  502  0.46910754201E+03  0.41391812436E+02  0.36365874784E+03  0.59499820436E+03  0.10100000352E+00 0.  1.
</event>
<event>
 5   0  0.1835088E-04  0.1605216E+04  0.7818609E-02  0.8817350E-01
       -2   -1    0    0    0  501  0.00000000000E+00  0.00000000000E+00  0.10690433551E+04  0.10690433551E+04  0.25500000920E-02 0.  1.
        2   -1    0    0  501    0  0.00000000000E+00  0.00000000000E+00 -0.60257556080E+03  0.60257556081E+03  0.25500000920E-02 0. -1.
    10030    2    1    2    0    0  0.00000000000E+00  0.00000000000E+00  0.46646779431E+03  0.16716189159E+04  0.16052157478E+04 0.  0.
        5    1    3    3  502    0  0.42266737746E+03  0.91407609011E+01 -0.47720904795E+03  0.63755927640E+03  0.46999998093E+01 0. -1.
       -5    1    3    3    0  502 -0.42266737746E+03 -0.91407609011E+01  0.94367684227E+03  0.10340596395E+04  0.46999998093E+01 0.  1.
</event>
<event>
 5   0  0.9939872E-05  0.1605972E+04  0.7818609E-02  0.8816888E-01
       -1   -1    0    0    0  501  0.00000000000E+00  0.00000000000E+00  0.93815058699E+03  0.93815058700E+03  0.50400001928E-02 0.  1.
        1   -1    0    0  501    0  0.00000000000E+00  0.00000000000E+00 -0.68729520972E+03  0.68729520974E+03  0.50400001928E-02 0. -1.
    10030    2    1    2    0    0  0.00000000000E+00  0.00000000000E+00  0.25085537727E+03  0.16254457967E+04  0.16059718608E+04 0.  0.
        3    1    3    3  502    0  0.65142077464E+03  0.39402107841E+03 -0.13298128457E+03  0.77284258948E+03  0.10100000352E+00 0. -1.
       -3    1    3    3    0  502 -0.65142077464E+03 -0.39402107841E+03  0.38383666184E+03  0.85260320726E+03  0.10100000352E+00 0.  1.
</event>
<event>
 5   0  0.9939872E-05  0.1607407E+04  0.7818609E-02  0.8816011E-01
        1   -1    0    0  501    0  0.00000000000E+00  0.00000000000E+00  0.98332254952E+03  0.98332254953E+03  0.50400001928E-02 0. -1.
       -1   -1    0    0    0  501  0.00000000000E+00  0.00000000000E+00 -0.65689424823E+03  0.65689424825E+03  0.50400001928E-02 0.  1.
    10030    2    1    2    0    0  0.00000000000E+00  0.00000000000E+00  0.32642830129E+03  0.16402167978E+04  0.16074065161E+04 0.  0.
        3    1    3    3  502    0 -0.66194850128E+03 -0.15219638471E+03 -0.27520611914E+03  0.73285604048E+03  0.10100000352E+00 0.  1.
       -3    1    3    3    0  502  0.66194850128E+03  0.15219638471E+03  0.60163442042E+03  0.90736075731E+03  0.10100000352E+00 0. -1.
</event>
<event>
 5   0  0.1914170E-04  0.1591836E+04  0.7818609E-02  0.8825579E-01
       -2   -1    0    0    0  501  0.00000000000E+00  0.00000000000E+00  0.31800140542E+03  0.31800140543E+03  0.25500000920E-02 0. -1.
        2   -1    0    0  501    0  0.00000000000E+00  0.00000000000E+00 -0.19920846583E+04  0.19920846583E+04  0.25500000920E-02 0.  1.
    10030    2    1    2    0    0  0.00000000000E+00  0.00000000000E+00 -0.16740832529E+04  0.23100860637E+04  0.15918363246E+04 0.  0.
        3    1    3    3  502    0 -0.59441009955E+02  0.50544713864E+03  0.51016823506E+02  0.51148095772E+03  0.10100000352E+00 0. -1.
       -3    1    3    3    0  502  0.59441009955E+02 -0.50544713864E+03 -0.17251000764E+04  0.17986051060E+04  0.10100000352E+00 0.  1.
</event>
<event>
 5   0  0.9673017E-05  0.1618089E+04  0.7818609E-02  0.8809512E-01
        1   -1    0    0  501    0  0.00000000000E+00  0.00000000000E+00  0.79730765083E+03  0.79730765085E+03  0.50400001928E-02 0.  1.
       -1   -1    0    0    0  501  0.00000000000E+00  0.00000000000E+00 -0.82095434607E+03  0.82095434608E+03  0.50400001928E-02 0. -1.
    10030    2    1    2    0    0  0.00000000000E+00  0.00000000000E+00 -0.23646695238E+02  0.16182619969E+04  0.16180892202E+04 0.  0.
        1    1    3    3  502    0 -0.51341311911E+03 -0.60212112275E+03 -0.18039490896E+03  0.81159423393E+03  0.50400001928E-02 0. -1.
       -1    1    3    3    0  502  0.51341311911E+03  0.60212112275E+03  0.15674821373E+03  0.80666776300E+03  0.50400001928E-02 0.  1.
</event>
<event>
 5   0  0.9432152E-05  0.1614349E+04  0.7818609E-02  0.8811781E-01
        1   -1    0    0  501    0  0.00000000000E+00  0.00000000000E+00  0.17926493880E+04  0.17926493880E+04  0.50400001928E-02 0. -1.
       -1   -1    0    0    0  501  0.00000000000E+00  0.00000000000E+00 -0.36344586352E+03  0.36344586355E+03  0.50400001928E-02 0.  1.
    10030    2    1    2    0    0  0.00000000000E+00  0.00000000000E+00  0.14292035245E+04  0.21560952515E+04  0.16143494106E+04 0.  0.
        4    1    3    3  502    0 -0.25776006822E+03  0.53632533914E+03 -0.13803722032E+02  0.59521196041E+03  0.12699999809E+01 0.  1.
       -4    1    3    3    0  502  0.25776006822E+03 -0.53632533914E+03  0.14430072465E+04  0.15608832911E+04  0.12699999809E+01 0. -1.
</event>
<event>
 5   0  0.9616567E-05  0.1598391E+04  0.7818609E-02  0.8821537E-01
        1   -1    0    0  501    0  0.00000000000E+00  0.00000000000E+00  0.10552867161E+04  0.10552867161E+04  0.50400001928E-02 0. -1.
       -1   -1    0    0    0  501  0.00000000000E+00  0.00000000000E+00 -0.60525098503E+03  0.60525098505E+03  0.50400001928E-02 0.  1.
    10030    2    1    2    0    0  0.00000000000E+00  0.00000000000E+00  0.45003573106E+03  0.16605377012E+04  0.15983908464E+04 0.  0.
        5    1    3    3  502    0  0.66732566800E+03  0.10083252504E+03 -0.21964316591E+03  0.70975767386E+03  0.46999998093E+01 0.  1.
       -5    1    3    3    0  502 -0.66732566800E+03 -0.10083252504E+03  0.66967889696E+03  0.95078002730E+03  0.46999998093E+01 0. -1.
</event>
<event>
 5   0  0.9432152E-05  0.1600826E+04  0.7818609E-02  0.8820041E-01
        1   -1    0    0  501    0  0.00000000000E+00  0.00000000000E+00  0.51894926179E+03  0.51894926181E+03  0.50400001928E-02 0.  1.
       -1   -1    0    0    0  501  0.00000000000E+00  0.00000000000E+00 -0.12345348165E+04  0.12345348166E+04  0.50400001928E-02 0. -1.
    10030    2    1    2    0    0  0.00000000000E+00  0.00000000000E+00 -0.71558555475E+03  0.17534840784E+04  0.16008259515E+04 0.  0.
        4    1    3    3  502    0  0.36284933167E+03  0.57845698391E+03 -0.81521263234E+03  0.10634121349E+04  0.12699999809E+01 0. -1.
       -4    1    3    3    0  502 -0.36284933167E+03 -0.57845698391E+03  0.99627077589E+02  0.69007194351E+03  0.12699999809E+01 0.  1.
</event>
<event>
 5   0  0.9673017E-05  0.1605623E+04  0.7818609E-02  0.8817101E-01
       -1   -1    0    0    0  501  0.00000000000E+00  0.00000000000E+00  0.36558091189E+03  0.36558091192E+03  0.50400001928E-02 0. -1.
        1   -1    0    0  501    0  0.00000000000E+00  0.00000000000E+00 -0.17629654866E+04  0.17629654866E+04  0.50400001928E-02 0.  1.
    10030    2    1    2    0    0  0.00000000000E+00  0.00000000000E+00 -0.13973845747E+04  0.21285463985E+04  0.16056232812E+04 0.  0.
        1    1    3    3  502    0 -0.37711466967E+03 -0.12386689795E+03  0.22639088126E+03  0.45695876579E+03  0.50400001928E-02 0. -1.
       -1    1    3    3    0  502  0.37711466967E+03  0.12386689795E+03 -0.16237754560E+04  0.16715876327E+04  0.50400001928E-02 0.  1.
</event>
<event>
 5   0  0.1858913E-04  0.1607306E+04  0.7818609E-02  0.8816072E-01
       -2   -1    0    0    0  501  0.00000000000E+00  0.00000000000E+00  0.45340908212E+03  0.45340908213E+03  0.25500000920E-02 0.  1.
        2   -1    0    0  501    0  0.00000000000E+00  0.00000000000E+00 -0.14244482971E+04  0.14244482971E+04  0.25500000920E-02 0. -1.
    10030    2    1    2    0    0  0.00000000000E+00  0.00000000000E+00 -0.97103921495E+03  0.18778573792E+04  0.16073055651E+04 0.  0.
        4    1    3    3  502    0  0.59444166911E+03  0.19326493396E+03  0.10462275850E+03  0.63376633483E+03  0.12699999809E+01 0.  1.
       -4    1    3    3    0  502 -0.59444166911E+03 -0.19326493396E+03 -0.10756619734E+04  0.12440910444E+04  0.12699999809E+01 0. -1.
</event>
<event>
 5   0  0.9432152E-05  0.1602339E+04  0.7818609E-02  0.8819113E-01
       -1   -1    0    0    0  501  0.00000000000E+00  0.00000000000E+00  0.10153595387E+04  0.10153595387E+04  0.50400001928E-02 0. -1.
        1   -1    0    0  501    0  0.00000000000E+00  0.00000000000E+00 -0.63216247209E+03  0.63216247211E+03  0.50400001928E-02 0.  1.
    10030    2    1    2    0    0  0.00000000000E+00  0.00000000000E+00  0.38319706660E+03  0.16475220108E+04  0.16023385361E+04 0.  0.
        4    1    3    3  502    0  0.66585247784E+03 -0.41540830505E+03  0.25975577023E+02  0.78523876984E+03  0.12699999809E+01 0.  1.
       -4    1    3    3    0  502 -0.66585247784E+03  0.41540830505E+03  0.35722148958E+03  0.86228324098E+03  0.12699999809E+01 0. -1.
</event>
<event>
 5   0  0.9432152E-05  0.1601027E+04  0.7818609E-02  0.8819918E-01
        1   -1    0    0  501    0  0.00000000000E+00  0.00000000000E+00  0.12609957848E+04  0.12609957848E+04  0.50400001928E-02 0.  1.
       -1   -1    0    0    0  501  0.00000000000E+00  0.00000000000E+00 -0.50818694971E+03  0.50818694973E+03  0.50400001928E-02 0. -1.
    10030    2    1    2    0    0  0.00000000000E+00  0.00000000000E+00  0.75280883509E+03  0.17691827345E+04  0.16010266725E+04 0.  0.
        4    1    3    3  502    0 -0.42599938548E+03 -0.34082347910E+03 -0.27094320578E+03  0.60913705682E+03  0.12699999809E+01 0. -1.
       -4    1    3    3    0  502  0.42599938548E+03  0.34082347910E+03  0.10237520409E+04  0.11600456777E+04  0.12699999809E+01 0.  1.
</event>
<event>
 5   0  0.9939872E-05  0.1610033E+04  0.7818609E-02  0.8814408E-01
       -1   -1    0    0    0  501  0.00000000000E+00  0.00000000000E+00  0.61635596923E+03  0.61635596925E+03  0.50400001928E-02 0.  1.
        1   -1    0    0  501    0  0.00000000000E+00  0.00000000000E+00 -0.10514245745E+04  0.10514245745E+04  0.50400001928E-02 0. -1.
    10030    2    1    2    0    0  0.00000000000E+00  0.00000000000E+00 -0.43506860526E+03  0.16677805438E+04  0.16100333074E+04 0.  0.
        3    1    3    3  502    0 -0.76008998891E+03  0.22676013999E+03 -0.35992308263E+03  0.87103477998E+03  0.10100000352E+00 0. -1.
       -3    1    3    3    0  502  0.76008998891E+03 -0.22676013999E+03 -0.75145522632E+02  0.79674576378E+03  0.10100000352E+00 0.  1.
</event>
<event>
 5   0  0.9939872E-05  0.1600168E+04  0.7818609E-02  0.8820445E-01
       -1   -1    0    0    0  501  0.00000000000E+00  0.00000000000E+00  0.89469398117E+03  0.89469398119E+03  0.50400001928E-02 0. -1.
        1   -1    0    0  501    0  0.00000000000E+00  0.00000000000E+00 -0.71547844145E+03  0.71547844147E+03  0.50400001928E-02 0.  1.
    10030    2    1    2    0    0  0.00000000000E+00  0.00000000000E+00  0.17921553973E+03  0.16101724227E+04  0.16001678103E+04 0.  0.
        3    1    3    3  502    0 -0.31737878845E+02 -0.82726007240E+02 -0.71052624028E+03  0.71602963176E+03  0.10100000352E+00 0.  1.
       -3    1    3    3    0  502  0.31737878845E+02  0.82726007240E+02  0.88974178001E+03  0.89414279090E+03  0.10100000352E+00 0. -1.
</event>
<event>
 5   0  0.1858913E-04  0.1602493E+04  0.7818609E-02  0.8819018E-01
        2   -1    0    0  501    0  0.00000000000E+00  0.00000000000E+00  0.25195669903E+04  0.25195669903E+04  0.25500000920E-02 0. -1.
       -2   -1    0    0    0  501  0.00000000000E+00  0.00000000000E+00 -0.25480409979E+03  0.25480409980E+03  0.25500000920E-02 0.  1.
    10030    2    1    2    0    0  0.00000000000E+00  0.00000000000E+00  0.22647628905E+04  0.27743710901E+04  0.16024930562E+04 0.  0.
        4    1    3    3  502    0 -0.34739613699E+03 -0.13465572537E+03  0.23604688551E+04  0.23896926725E+04  0.12699999809E+01 0. -1.
       -4    1    3    3    0  502  0.34739613699E+03  0.13465572537E+03 -0.95705964604E+02  0.38467841755E+03  0.12699999809E+01 0.  1.
</event>
<event>
 5   0  0.9726935E-05  0.1595282E+04  0.7818609E-02  0.8823452E-01
        1   -1    0    0  501    0  0.00000000000E+00  0.00000000000E+00  0.48784801791E+03  0.48784801794E+03  0.50400001928E-02 0. -1.
       -1   -1    0    0    0  501  0.00000000000E+00  0.00000000000E+00 -0.13041582608E+04  0.13041582608E+04  0.50400001928E-02 0.  1.
    10030    2    1    2    0    0  0.00000000000E+00  0.00000000000E+00 -0.81631024286E+03  0.17920062787E+04  0.15952818216E+04 0.  0.
        2    1    3    3  502    0  0.31569127503E+03 -0.72150642256E+03 -0.26607213901E+03  0.83128026687E+03  0.25500000920E-02 0. -1.
       -2    1    3    3    0  502 -0.31569127503E+03  0.72150642256E+03 -0.55023810385E+03  0.96072601186E+03  0.25500000920E-02 0.  1.
</event>
<event>
 5   0  0.9432152E-05  0.1604939E+04  0.7818609E-02  0.8817520E-01
        1   -1    0    0  501    0  0.00000000000E+00  0.00000000000E+00  0.63005854025E+03  0.63005854027E+03  0.50400001928E-02 0.  1.
       -1   -1    0    0    0  501  0.00000000000E+00  0.00000000000E+00 -0.10220590177E+04  0.10220590178E+04  0.50400001928E-02 0. -1.
    10030    2    1    2    0    0  0.00000000000E+00  0.00000000000E+00 -0.39200047749E+03  0.16521175580E+04  0.16049386441E+04 0.  0.
        4    1    3    3  502    0 -0.59727600028E+03 -0.12593282907E+03  0.34023282512E+03  0.69882593407E+03  0.12699999809E+01 0.  1.
       -4    1    3    3    0  502  0.59727600028E+03  0.12593282907E+03 -0.73223330261E+03  0.95329162395E+03  0.12699999809E+01 0. -1.
</event>
<event>
 5   0  0.1858913E-04  0.1601966E+04  0.7818609E-02  0.8819341E-01
        2   -1    0    0  501    0  0.00000000000E+00  0.00000000000E+00  0.91083147850E+03  0.91083147851E+03  0.25500000920E-02 0. -1.
       -2   -1    0    0    0  501  0.00000000000E+00  0.00000000000E+00 -0.70438254319E+03  0.70438254319E+03  0.25500000920E-02 0.  1.
    10030    2    1    2    0    0  0.00000000000E+00  0.00000000000E+00  0.20644893531E+03  0.16152140217E+04  0.16019660337E+04 0.  0.
        4    1    3    3  502    0  0.72355989619E+03 -0.33235103578E+03  0.15464172794E+02  0.79638990947E+03  0.12699999809E+01 0.  1.
       -4    1    3    3    0  502 -0.72355989619E+03  0.33235103578E+03  0.19098476252E+03  0.81882411223E+03  0.12699999809E+01 0. -1.
</event>
<event>
 5   0  0.1835088E-04  0.1615587E+04  0.7818609E-02  0.8811029E-01
        2   -1    0    0  501    0  0.00000000000E+00  0.00000000000E+00  0.12189908325E+04  0.12189908325E+04  0.25500000920E-02 0. -1.
       -2   -1    0    0    0  501  0.00000000000E+00  0.00000000000E+00 -0.53530364666E+03  0.53530364667E+03  0.25500000920E-02 0.  1.
    10030    2    1    2    0    0  0.00000000000E+00  0.00000000000E+00  0.68368718582E+03  0.17542944791E+04  0.16155868753E+04 0.  0.
        5    1    3    3  502    0  0.71717282237E+03 -0.12954926082E+03 -0.36477502679E+02  0.72970717848E+03  0.46999998093E+01 0.  1.
       -5    1    3    3    0  502 -0.71717282237E+03  0.12954926082E+03  0.72016468849E+03  0.10245873007E+04  0.46999998093E+01 0. -1.
</event>
<event>
 5   0  0.9432152E-05  0.1603978E+04  0.7818609E-02  0.8818108E-01
       -1   -1    0    0    0  501  0.00000000000E+00  0.00000000000E+00  0.91507147981E+03  0.91507147982E+03  0.50400001928E-02 0. -1.
        1   -1    0    0  501    0  0.00000000000E+00  0.00000000000E+00 -0.70288117428E+03  0.70288117430E+03  0.50400001928E-02 0.  1.
    10030    2    1    2    0    0  0.00000000000E+00  0.00000000000E+00  0.21219030553E+03  0.16179526541E+04  0.16039781997E+04 0.  0.
        4    1    3    3  502    0 -0.12084519455E+03  0.59473406142E+03 -0.42275566727E+03  0.73961890996E+03  0.12699999809E+01 0.  1.
       -4    1    3    3    0  502  0.12084519455E+03 -0.59473406142E+03  0.63494597280E+03  0.87833374416E+03  0.12699999809E+01 0. -1.
</event>
<event>
 5   0  0.1858913E-04  0.1587359E+04  0.7818609E-02  0.8828351E-01
        2   -1    0    0  501    0  0.00000000000E+00  0.00000000000E+00  0.11575297867E+04  0.11575297867E+04  0.25500000920E-02 0. -1.
       -2   -1    0    0    0  501  0.00000000000E+00  0.00000000000E+00 -0.54419975753E+03  0.54419975754E+03  0.25500000920E-02 0.  1.
    10030    2    1    2    0    0  0.00000000000E+00  0.00000000000E+00  0.61333002917E+03  0.17017295442E+04  0.15873593535E+04 0.  0.
        4    1    3    3  502    0 -0.58954050481E+03  0.49100997509E+03  0.88859225187E+02  0.77236414809E+03  0.12699999809E+01 0. -1.
       -4    1    3    3    0  502  0.58954050481E+03 -0.49100997509E+03  0.52447080398E+03  0.92936539616E+03  0.12699999809E+01 0.  1.
</event>
<event>
 5   0  0.1914170E-04  0.1599554E+04  0.7818609E-02  0.8820822E-01
       -2   -1    0    0    0  501  0.00000000000E+00  0.00000000000E+00  0.18326887884E+04  0.18326887884E+04  0.25500000920E-02 0. -1.
        2   -1    0    0  501    0  0.00000000000E+00  0.00000000000E+00 -0.34901917911E+03  0.34901917912E+03  0.25500000920E-02 0.  1.
    10030    2    1    2    0    0  0.00000000000E+00  0.00000000000E+00  0.14836696093E+04  0.21817079675E+04  0.15995543586E+04 0.  0.
        3    1    3    3  502    0  0.20789657437E+03 -0.42638839950E+03 -0.13641966172E+03  0.49359739380E+03  0.10100000352E+00 0.  1.
       -3    1    3    3    0  502 -0.20789657437E+03  0.42638839950E+03  0.16200892710E+04  0.16881105737E+04  0.10100000352E+00 0. -1.
</event>
<event>
 5   0  0.9616567E-05  0.1590667E+04  0.7818609E-02  0.8826302E-01
        1   -1    0    0  501    0  0.00000000000E+00  0.00000000000E+00  0.13067123616E+04  0.13067123616E+04  0.50400001928E-02 0. -1.
       -1   -1    0    0    0  501  0.00000000000E+00  0.00000000000E+00 -0.48408173448E+03  0.48408173451E+03  0.50400001928E-02 0.  1.
    10030    2    1    2    0    0  0.00000000000E+00  0.00000000000E+00  0.82263062710E+03  0.17907940961E+04  0.15906672644E+04 0.  0.
        5    1    3    3  502    0  0.73990635249E+02  0.32114597475E+03  0.12262081823E+04  0.12697314470E+04  0.46999998093E+01 0. -1.
       -5    1    3    3    0  502 -0.73990635249E+02 -0.32114597475E+03 -0.40357755520E+03  0.52106264908E+03  0.46999998093E+01 0.  1.
</event>
<event>
 5   0  0.1832646E-04  0.1603125E+04  0.7818609E-02  0.8818631E-01
       -2   -1    0    0    0  501  0.00000000000E+00  0.00000000000E+00  0.21898071506E+04  0.21898071506E+04  0.25500000920E-02 0. -1.
        2   -1    0    0  501    0  0.00000000000E+00  0.00000000000E+00 -0.29340586141E+03  0.29340586142E+03  0.25500000920E-02 0.  1.
    10030    2    1    2    0    0  0.00000000000E+00  0.00000000000E+00  0.18964012891E+04  0.24832130120E+04  0.16031247654E+04 0.  0.
        2    1    3    3  502    0 -0.16411030998E+03  0.15452964064E+03  0.21397005307E+04  0.21515412998E+04  0.25500000920E-02 0. -1.
       -2    1    3    3    0  502  0.16411030998E+03 -0.15452964064E+03 -0.24329924159E+03  0.33167171215E+03  0.25500000920E-02 0.  1.
</event>
<event>
 5   0  0.9616567E-05  0.1597932E+04  0.7818609E-02  0.8821819E-01
       -1   -1    0    0    0  501  0.00000000000E+00  0.00000000000E+00  0.95970640408E+03  0.95970640410E+03  0.50400001928E-02 0.  1.
        1   -1    0    0  501    0  0.00000000000E+00  0.00000000000E+00 -0.66514782252E+03  0.66514782254E+03  0.50400001928E-02 0. -1.
    10030    2    1    2    0    0  0.00000000000E+00  0.00000000000E+00  0.29455858157E+03  0.16248542266E+04  0.15979319447E+04 0.  0.
        5    1    3    3  502    0  0.79635604391E+03 -0.62498445803E+02  0.13167371651E+03  0.80959808672E+03  0.46999998093E+01 0.  1.
       -5    1    3    3    0  502 -0.79635604391E+03  0.62498445803E+02  0.16288486506E+03  0.81525613991E+03  0.46999998093E+01 0. -1.
</event>
<event>
 5   0  0.1832646E-04  0.1603939E+04  0.7818609E-02  0.8818132E-01
       -2   -1    0    0    0  501  0.00000000000E+00  0.00000000000E+00  0.15361627175E+04  0.15361627175E+04  0.25500000920E-02 0. -1.
        2   -1    0    0  501    0  0.00000000000E+00  0.00000000000E+00 -0.41867617687E+03  0.41867617688E+03  0.25500000920E-02 0.  1.
    10030    2    1    2    0    0  0.00000000000E+00  0.00000000000E+00  0.11174865406E+04  0.19548388944E+04  0.16039385694E+04 0.  0.
        2    1    3    3  502    0  0.43521319815E+03 -0.65451712883E+03  0.75279850420E+03  0.10883514082E+04  0.25500000920E-02 0. -1.
       -2    1    3    3    0  502 -0.43521319815E+03  0.65451712883E+03  0.36468803642E+03  0.86648748617E+03  0.25500000920E-02 0.  1.
</event>
<event>
 5   0  0.9939872E-05  0.1591414E+04  0.7818609E-02  0.8825840E-01
        1   -1    0    0  501    0  0.00000000000E+00  0.00000000000E+00  0.20625442770E+04  0.20625442770E+04  0.50400001928E-02 0. -1.
       -1   -1    0    0    0  501  0.00000000000E+00  0.00000000000E+00 -0.30697501163E+03  0.30697501167E+03  0.50400001928E-02 0.  1.
    10030    2    1    2    0    0  0.00000000000E+00  0.00000000000E+00  0.17555692654E+04  0.23695192887E+04  0.15914139040E+04 0.  0.
        3    1    3    3  502    0 -0.16109662797E+03  0.52491155678E+03  0.20298503441E+02  0.54945091266E+03  0.10100000352E+00 0.  1.
       -3    1    3    3    0  502  0.16109662797E+03 -0.52491155678E+03  0.17352707619E+04  0.18200683760E+04  0.10100000352E+00 0. -1.
</event>
<event>
 5   0  0.1914170E-04  0.1588857E+04  0.7818609E-02  0.8827423E-01
        2   -1    0    0  501    0  0.00000000000E+00  0.00000000000E+00  0.78357788015E+03  0.78357788015E+03  0.25500000920E-02 0. -1.
       -2   -1    0    0    0  501  0.00000000000E+00  0.00000000000E+00 -0.80542896138E+03  0.80542896139E+03  0.25500000920E-02 0.  1.
    10030    2    1    2    0    0  0.00000000000E+00  0.00000000000E+00 -0.21851081236E+02  0.15890068415E+04  0.15888565929E+04 0.  0.
        3    1    3    3  502    0 -0.64008577318E+03  0.32378569044E+03 -0.35238034756E+03  0.79919890510E+03  0.10100000352E+00 0. -1.
       -3    1    3    3    0  502  0.64008577318E+03 -0.32378569044E+03  0.33052926633E+03  0.78980793644E+03  0.10100000352E+00 0.  1.
</event>
<event>
 5   0  0.9726935E-05  0.1614480E+04  0.7818609E-02  0.8811701E-01
        1   -1    0    0  501    0  0.00000000000E+00  0.00000000000E+00  0.93560940545E+03  0.93560940546E+03  0.50400001928E-02 0. -1.
       -1   -1    0    0    0  501  0.00000000000E+00  0.00000000000E+00 -0.69648345396E+03  0.69648345398E+03  0.50400001928E-02 0.  1.
    10030    2    1    2    0    0  0.00000000000E+00  0.00000000000E+00  0.23912595149E+03  0.16320928594E+04  0.16144800653E+04 0.  0.
        2    1    3    3  502    0 -0.24117981766E+03  0.63299975974E+03  0.56342015063E+03  0.88107812731E+03  0.25500000920E-02 0. -1.
       -2    1    3    3    0  502  0.24117981766E+03 -0.63299975974E+03 -0.32429419914E+03  0.75101473213E+03  0.25500000920E-02 0.  1.
</event>
<event>
 5   0  0.9673017E-05  0.1604424E+04  0.7818609E-02  0.8817835E-01
        1   -1    0    0  501    0  0.00000000000E+00  0.00000000000E+00  0.12452058210E+04  0.12452058210E+04  0.50400001928E-02 0.  1.
       -1   -1    0    0    0  501  0.00000000000E+00  0.00000000000E+00 -0.51681751531E+03  0.51681751534E+03  0.50400001928E-02 0. -1.
    10030    2    1    2    0    0  0.00000000000E+00  0.00000000000E+00  0.72838830565E+03  0.17620233363E+04  0.16044241066E+04 0.  0.
        1    1    3    3  502    0 -0.62538134869E+03  0.29340112404E+03 -0.83740322275E+02  0.69584372705E+03  0.50400001928E-02 0. -1.
       -1    1    3    3    0  502  0.62538134869E+03 -0.29340112404E+03  0.81212862792E+03  0.10661796093E+04  0.50400001928E-02 0.  1.
</event>
<event>
 5   0  0.1832646E-04  0.1599731E+04  0.7818609E-02  0.8820713E-01
        2   -1    0    0  501    0  0.00000000000E+00  0.00000000000E+00  0.83866524834E+03  0.83866524834E+03  0.25500000920E-02 0.  1.
       -2   -1    0    0    0  501  0.00000000000E+00  0.00000000000E+00 -0.76286079337E+03  0.76286079338E+03  0.25500000920E-02 0. -1.
    10030    2    1    2    0    0  0.00000000000E+00  0.00000000000E+00  0.75804454969E+02  0.16015260417E+04  0.15997310233E+04 0.  0.
        2    1    3    3  502    0 -0.14132271488E+03 -0.75299687647E+03  0.26796093206E+03  0.81165230661E+03  0.25500000920E-02 0. -1.
       -2    1    3    3    0  502  0.14132271488E+03  0.75299687647E+03 -0.19215647709E+03  0.78987373511E+03  0.25500000920E-02 0.  1.
</event>
<event>
 5   0  0.9939872E-05  0.1597030E+04  0.7818609E-02  0.8822375E-01
       -1   -1    0    0    0  501  0.00000000000E+00  0.00000000000E+00  0.61764694934E+03  0.61764694936E+03  0.50400001928E-02 0. -1.
        1   -1    0    0  501    0  0.00000000000E+00  0.00000000000E+00 -0.10323471318E+04  0.10323471319E+04  0.50400001928E-02 0.  1.
    10030    2    1    2    0    0  0.00000000000E+00  0.00000000000E+00 -0.41470018251E+03  0.16499940812E+04  0.15970298140E+04 0.  0.
        3    1    3    3  502    0  0.12536188156E+02  0.17683225087E+03  0.59705916307E+03  0.62282136714E+03  0.10100000352E+00 0. -1.
       -3    1    3    3    0  502 -0.12536188156E+02 -0.17683225087E+03 -0.10117593456E+04  0.10271727141E+04  0.10100000352E+00 0.  1.
</event>
<event>
 5   0  0.1858913E-04  0.1590728E+04  0.7818609E-02  0.8826265E-01
       -2   -1    0    0    0  501  0.00000000000E+00  0.00000000000E+00  0.67257387079E+03  0.67257387079E+03  0.25500000920E-02 0.  1.
        2   -1    0    0  501    0  0.00000000000E+00  0.00000000000E+00 -0.94057128855E+03  0.94057128855E+03  0.25500000920E-02 0. -1.
    10030    2    1    2    0    0  0.00000000000E+00  0.00000000000E+00 -0.26799741776E+03  0.16131451593E+04  0.15907277231E+04 0.  0.
        4    1    3    3  502    0 -0.63314560343E+02  0.53159877053E+03 -0.73050246688E+03  0.90567182434E+03  0.12699999809E+01 0. -1.
       -4    1    3    3    0  502  0.63314560343E+02 -0.53159877053E+03  0.46250504912E+03  0.70747333501E+03  0.12699999809E+01 0.  1.
</event>
<event>
 5   0  0.1914170E-04  0.1601801E+04  0.7818609E-02  0.8819442E-01
       -2   -1    0    0    0  501  0.00000000000E+00  0.00000000000E+00  0.10983451350E+04  0.10983451350E+04  0.25500000920E-02 0. -1.
        2   -1    0    0  501    0  0.00000000000E+00  0.00000000000E+00 -0.58400763422E+03  0.58400763423E+03  0.25500000920E-02 0.  1.
    10030    2    1    2    0    0  0.00000000000E+00  0.00000000000E+00  0.51433750075E+03  0.16823527692E+04  0.16018014157E+04 0.  0.
        3    1    3    3  502    0 -0.15275867287E+02  0.54043044890E+03 -0.36342926427E+03  0.65144398266E+03  0.10100000352E+00 0.  1.
       -3    1    3    3    0  502  0.15275867287E+02 -0.54043044890E+03  0.87776676501E+03  0.10309087865E+04  0.10100000352E+00 0. -1.
</event>
<event>
 5   0  0.1835088E-04  0.1548205E+04  0.7818609E-02  0.8853015E-01
       -2   -1    0    0    0  501  0.00000000000E+00  0.00000000000E+00  0.40558127977E+03  0.40558127978E+03  0.25500000920E-02 0. -1.
        2   -1    0    0  501    0  0.00000000000E+00  0.00000000000E+00 -0.14774711893E+04  0.14774711893E+04  0.25500000920E-02 0.  1.
    10030    2    1    2    0    0  0.00000000000E+00  0.00000000000E+00 -0.10718899095E+04  0.18830524691E+04  0.15482049681E+04 0.  0.
        5    1    3    3  502    0 -0.11594700372E+03 -0.34853151772E+03  0.29281889522E+03  0.46976900910E+03  0.46999998093E+01 0. -1.
       -5    1    3    3    0  502  0.11594700372E+03  0.34853151772E+03 -0.13647088048E+04  0.14132834600E+04  0.46999998093E+01 0.  1.
</event>
<event>
 5   0  0.9432152E-05  0.1598228E+04  0.7818609E-02  0.8821637E-01
       -1   -1    0    0    0  501  0.00000000000E+00  0.00000000000E+00  0.12225800282E+04  0.12225800282E+04  0.50400001928E-02 0.  1.
        1   -1    0    0  501    0  0.00000000000E+00  0.00000000000E+00 -0.52232443961E+03  0.52232443964E+03  0.50400001928E-02 0. -1.
    10030    2    1    2    0    0  0.00000000000E+00  0.00000000000E+00  0.70025558855E+03  0.17449044678E+04  0.15982283042E+04 0.  0.
        4    1    3    3  502    0 -0.16055945141E+03 -0.58276152106E+03 -0.22051773391E+03  0.64344386836E+03  0.12699999809E+01 0.  1.
       -4    1    3    3    0  502  0.16055945141E+03  0.58276152106E+03  0.92077332246E+03  0.11014605994E+04  0.12699999809E+01 0. -1.
</event>
<event>
 5   0  0.9939872E-05  0.1603187E+04  0.7818609E-02  0.8818593E-01
        1   -1    0    0  501    0  0.00000000000E+00  0.00000000000E+00  0.33347315212E+03  0.33347315216E+03  0.50400001928E-02 0.  1.
       -1   -1    0    0    0  501  0.00000000000E+00  0.00000000000E+00 -0.19268474167E+04  0.19268474167E+04  0.50400001928E-02 0. -1.
    10030    2    1    2    0    0  0.00000000000E+00  0.00000000000E+00 -0.15933742646E+04  0.22603205689E+04  0.16031866788E+04 0.  0.
        3    1    3    3  502    0  0.15956206190E+03 -0.47975282600E+02  0.30878909273E+03  0.35087375697E+03  0.10100000352E+00 0.  1.
       -3    1    3    3    0  502 -0.15956206190E+03  0.47975282600E+02 -0.19021633573E+04  0.19094468119E+04  0.10100000352E+00 0. -1.
</event>
<event>
 5   0  0.9616567E-05  0.1602026E+04  0.7818609E-02  0.8819304E-01
       -1   -1    0    0    0  501  0.00000000000E+00  0.00000000000E+00  0.34088044150E+03  0.34088044154E+03  0.50400001928E-02 0. -1.
        1   -1    0    0  501    0  0.00000000000E+00  0.00000000000E+00 -0.18822488507E+04  0.18822488507E+04  0.50400001928E-02 0.  1.
    10030    2    1    2    0    0  0.00000000000E+00  0.00000000000E+00 -0.15413684092E+04  0.22231292922E+04  0.16020259914E+04 0.  0.
        5    1    3    3  502    0 -0.77586769864E+03  0.16974945913E+03 -0.62637579138E+03  0.10115108930E+04  0.46999998093E+01 0. -1.
       -5    1    3    3    0  502  0.77586769864E+03 -0.16974945913E+03 -0.91499261778E+03  0.12116183992E+04  0.46999998093E+01 0.  1.
</event>
<event>
 5   0  0.1858913E-04  0.1599055E+04  0.7818609E-02  0.8821129E-01
       -2   -1    0    0    0  501  0.00000000000E+00  0.00000000000E+00  0.10887566258E+04  0.10887566258E+04  0.25500000920E-02 0. -1.
        2   -1    0    0  501    0  0.00000000000E+00  0.00000000000E+00 -0.58713198665E+03  0.58713198665E+03  0.25500000920E-02 0.  1.
    10030    2    1    2    0    0  0.00000000000E+00  0.00000000000E+00  0.50162463911E+03  0.16758886124E+04  0.15990545215E+04 0.  0.
        4    1    3    3  502    0  0.77850545993E+03 -0.86074602781E+02  0.82592541600E+02  0.78759299719E+03  0.12699999809E+01 0.  1.
       -4    1    3    3    0  502 -0.77850545993E+03  0.86074602781E+02  0.41903209751E+03  0.88829561523E+03  0.12699999809E+01 0. -1.
</event>
<event>
 5   0  0.1774934E-04  0.1598745E+04  0.7818609E-02  0.8821320E-01
       -2   -1    0    0    0  501  0.00000000000E+00  0.00000000000E+00  0.60631812458E+03  0.60631812458E+03  0.25500000920E-02 0.  1.
        2   -1    0    0  501    0  0.00000000000E+00  0.00000000000E+00 -0.10538959073E+04  0.10538959074E+04  0.25500000920E-02 0. -1.
    10030    2    1    2    0    0  0.00000000000E+00  0.00000000000E+00 -0.44757778277E+03  0.16602140319E+04  0.15987447452E+04 0.  0.
        1    1    3    3  502    0 -0.15797636009E+03  0.55935910220E+03 -0.79366633900E+03  0.98374051114E+03  0.50400001928E-02 0. -1.
       -1    1    3    3    0  502  0.15797636009E+03 -0.55935910220E+03  0.34608855623E+03  0.67647352080E+03  0.50400001928E-02 0.  1.
</event>
<event>
 5   0  0.1835088E-04  0.1627380E+04  0.7818609E-02  0.8803902E-01
        2   -1    0    0  501    0  0.00000000000E+00  0.00000000000E+00  0.21194130364E+04  0.21194130364E+04  0.25500000920E-02 0. -1.
       -2   -1    0    0    0  501  0.00000000000E+00  0.00000000000E+00 -0.31239393896E+03  0.31239393897E+03  0.25500000920E-02 0.  1.
    10030    2    1    2    0    0  0.00000000000E+00  0.00000000000E+00  0.18070190975E+04  0.24318069754E+04  0.16273804555E+04 0.  0.
        5    1    3    3  502    0  0.57679191851E+01 -0.42823200756E+03  0.19373434001E+04  0.19841213323E+04  0.46999998093E+01 0. -1.
       -5    1    3    3    0  502 -0.57679191851E+01  0.42823200756E+03 -0.13032430266E+03  0.44768564312E+03  0.46999998093E+01 0.  1.
</event>
<event>
 5   0  0.1858913E-04  0.1600129E+04  0.7818609E-02  0.8820469E-01
        2   -1    0    0  501    0  0.00000000000E+00  0.00000000000E+00  0.11762861991E+04  0.11762861991E+04  0.25500000920E-02 0. -1.
       -2   -1    0    0    0  501  0.00000000000E+00  0.00000000000E+00 -0.54417277073E+03  0.54417277074E+03  0.25500000920E-02 0.  1.
    10030    2    1    2    0    0  0.00000000000E+00  0.00000000000E+00  0.63211342839E+03  0.17204589699E+04  0.16001286450E+04 0.  0.
        4    1    3    3  502    0 -0.61523524626E+03  0.14747065195E+02  0.86574541467E+03  0.10621904820E+04  0.12699999809E+01 0. -1.
       -4    1    3    3    0  502  0.61523524626E+03 -0.14747065195E+02 -0.23363198628E+03  0.65826848784E+03  0.12699999809E+01 0.  1.
</event>
<event>
 5   0  0.1832646E-04  0.1599702E+04  0.7818609E-02  0.8820731E-01
       -2   -1    0    0    0  501  0.00000000000E+00  0.00000000000E+00  0.39029174601E+03  0.39029174602E+03  0.25500000920E-02 0.  1.
        2   -1    0    0  501    0  0.00000000000E+00  0.00000000000E+00 -0.16391872488E+04  0.16391872488E+04  0.25500000920E-02 0. -1.
    10030    2    1    2    0    0  0.00000000000E+00  0.00000000000E+00 -0.12488955028E+04  0.20294789948E+04  0.15997015389E+04 0.  0.
        2    1    3    3  502    0  0.10794863734E+03 -0.76795029804E+03 -0.87292622692E+03  0.11676475351E+04  0.25500000920E-02 0. -1.
       -2    1    3    3    0  502 -0.10794863734E+03  0.76795029804E+03 -0.37596927586E+03  0.86183145972E+03  0.25500000920E-02 0.  1.
</event>
<event>
 5   0  0.1835088E-04  0.1587727E+04  0.7818609E-02  0.8828123E-01
        2   -1    0    0  501    0  0.00000000000E+00  0.00000000000E+00  0.10614155539E+04  0.10614155539E+04  0.25500000920E-02 0.  1.
       -2   -1    0    0    0  501  0.00000000000E+00  0.00000000000E+00 -0.59375367282E+03  0.59375367282E+03  0.25500000920E-02 0. -1.
    10030    2    1    2    0    0  0.00000000000E+00  0.00000000000E+00  0.46766188105E+03  0.16551692267E+04  0.15877271598E+04 0.  0.
        5    1    3    3  502    0  0.30356473375E+02 -0.20750024146E+03  0.10320032058E+04  0.10531052048E+04  0.46999998093E+01 0.  1.
       -5    1    3    3    0  502 -0.30356473375E+02  0.20750024146E+03 -0.56434132471E+03  0.60206402189E+03  0.46999998093E+01 0. -1.
</event>
<event>
 5   0  0.1835088E-04  0.1600296E+04  0.7818609E-02  0.8820366E-01
       -2   -1    0    0    0  501  0.00000000000E+00  0.00000000000E+00  0.93949529372E+03  0.93949529373E+03  0.25500000920E-02 0.  1.
        2   -1    0    0  501    0  0.00000000000E+00  0.00000000000E+00 -0.68146869374E+03  0.68146869374E+03  0.25500000920E-02 0. -1.
    10030    2    1    2    0    0  0.00000000000E+00  0.00000000000E+00  0.25802659999E+03  0.16209639875E+04  0.16002957609E+04 0.  0.
        5    1    3    3  502    0 -0.12217633161E+02 -0.15441841123E+03 -0.66612209342E+03  0.68391158028E+03  0.46999998093E+01 0. -1.
       -5    1    3    3    0  502  0.12217633161E+02  0.15441841123E+03  0.92414869341E+03  0.93705240719E+03  0.46999998093E+01 0.  1.
</event>
<event>
 5   0  0.9726935E-05  0.1606994E+04  0.7818609E-02  0.8816263E-01
       -1   -1    0    0    0  501  0.00000000000E+00  0.00000000000E+00  0.11121034723E+04  0.11121034723E+04  0.50400001928E-02 0. -1.
        1   -1    0    0  501    0  0.00000000000E+00  0.00000000000E+00 -0.58052807556E+03  0.58052807558E+03  0.50400001928E-02 0.  1.
    10030    2    1    2    0    0  0.00000000000E+00  0.00000000000E+00  0.53157539677E+03  0.16926315479E+04  0.16069938253E+04 0.  0.
        2    1    3    3  502    0 -0.62888378563E+03 -0.42573451505E+03  0.54218889375E+03  0.93312029752E+03  0.25500000920E-02 0. -1.
       -2    1    3    3    0  502  0.62888378563E+03  0.42573451505E+03 -0.10613496982E+02  0.75951125039E+03  0.25500000920E-02 0.  1.
</event>
<event>
 5   0  0.9726935E-05  0.1605745E+04  0.7818609E-02  0.8817026E-01
        1   -1    0    0  501    0  0.00000000000E+00  0.00000000000E+00  0.45809485144E+03  0.45809485147E+03  0.50400001928E-02 0.  1.
       -1   -1    0    0    0  501  0.00000000000E+00  0.00000000000E+00 -0.14071416407E+04  0.14071416407E+04  0.50400001928E-02 0. -1.
    10030    2    1    2    0    0  0.00000000000E+00  0.00000000000E+00 -0.94904678923E+03  0.18652364922E+04  0.16057451116E+04 0.  0.
        2    1    3    3  502    0  0.11000890141E+03 -0.63602615459E+03  0.80101181686E+02  0.65042096140E+03  0.25500000920E-02 0.  1.
       -2    1    3    3    0  502 -0.11000890141E+03  0.63602615459E+03 -0.10291479709E+04  0.12148155308E+04  0.25500000920E-02 0. -1.
</event>
<event>
 5   0  0.6838750E-05  0.1601934E+04  0.7818609E-02  0.8819361E-01
        4   -1    0    0  501    0  0.00000000000E+00  0.00000000000E+00  0.10651449342E+04  0.10651456913E+04  0.12699999809E+01 0.  1.
       -4   -1    0    0    0  501  0.00000000000E+00  0.00000000000E+00 -0.60230928965E+03  0.60231062858E+03  0.12699999809E+01 0. -1.
    10030    2    1    2    0    0  0.00000000000E+00  0.00000000000E+00  0.46283564454E+03  0.16674563199E+04  0.16019343760E+04 0.  0.
        3    1    3    3  502    0  0.56901377970E+03 -0.55981390179E+03  0.16252821067E+03  0.81460647897E+03  0.10100000352E+00 0.  1.
       -3    1    3    3    0  502 -0.56901377970E+03  0.55981390179E+03  0.30030743387E+03  0.85284984092E+03  0.10100000352E+00 0. -1.
</event>
<event>
 5   0  0.9616567E-05  0.1600137E+04  0.7818609E-02  0.8820464E-01
        1   -1    0    0  501    0  0.00000000000E+00  0.00000000000E+00  0.91928839860E+03  0.91928839862E+03  0.50400001928E-02 0.  1.
       -1   -1    0    0    0  501  0.00000000000E+00  0.00000000000E+00 -0.69630983171E+03  0.69630983173E+03  0.50400001928E-02 0. -1.
    10030    2    1    2    0    0  0.00000000000E+00  0.00000000000E+00  0.22297856689E+03  0.16155982304E+04  0.16001369318E+04 0.  0.
        5    1    3    3  502    0  0.67692633165E+03 -0.29737261500E+03  0.42010221298E+03  0.85039266811E+03  0.46999998093E+01 0. -1.
       -5    1    3    3    0  502 -0.67692633165E+03  0.29737261500E+03 -0.19712364609E+03  0.76520556224E+03  0.46999998093E+01 0.  1.
</event>
<event>
 5   0  0.1914170E-04  0.1602461E+04  0.7818609E-02  0.8819038E-01
       -2   -1    0    0    0  501  0.00000000000E+00  0.00000000000E+00  0.52682075220E+03  0.52682075221E+03  0.25500000920E-02 0. -1.
        2   -1    0    0  501    0  0.00000000000E+00  0.00000000000E+00 -0.12185738241E+04  0.12185738241E+04  0.25500000920E-02 0.  1.
    10030    2    1    2    0    0  0.00000000000E+00  0.00000000000E+00 -0.69175307191E+03  0.17453945763E+04  0.16024605813E+04 0.  0.
        3    1    3    3  502    0 -0.67490634437E+03 -0.10420119223E+03 -0.80231814112E+03  0.10535990091E+04  0.10100000352E+00 0.  1.
       -3    1    3    3    0  502  0.67490634437E+03  0.10420119223E+03  0.11056506921E+03  0.69179556725E+03  0.10100000352E+00 0. -1.
</event>
<event>
 5   0  0.9673017E-05  0.1627788E+04  0.7818609E-02  0.8803656E-01
        1   -1    0    0  501    0  0.00000000000E+00  0.00000000000E+00  0.16816461911E+04  0.16816461911E+04  0.50400001928E-02 0. -1.
       -1   -1    0    0    0  501  0.00000000000E+00  0.00000000000E+00 -0.39391356944E+03  0.39391356947E+03  0.50400001928E-02 0.  1.
    10030    2    1    2    0    0  0.00000000000E+00  0.00000000000E+00  0.12877326216E+04  0.20755597605E+04  0.16277877671E+04 0.  0.
        1    1    3    3  502    0 -0.74411761495E+03  0.17914371888E+03  0.99681197118E+03  0.12567567795E+04  0.50400001928E-02 0. -1.
       -1    1    3    3    0  502  0.74411761495E+03 -0.17914371888E+03  0.29092065044E+03  0.81880298105E+03  0.50400001928E-02 0.  1.
</event>
<event>
 5   0  0.9726935E-05  0.1599352E+04  0.7818609E-02  0.8820946E-01
       -1   -1    0    0    0  501  0.00000000000E+00  0.00000000000E+00  0.41501487209E+03  0.41501487212E+03  0.50400001928E-02 0. -1.
        1   -1    0    0  501    0  0.00000000000E+00  0.00000000000E+00 -0.15408649969E+04  0.15408649969E+04  0.50400001928E-02 0.  1.
    10030    2    1    2    0    0  0.00000000000E+00  0.00000000000E+00 -0.11258501248E+04  0.19558798690E+04  0.15993522309E+04 0.  0.
        2    1    3    3  502    0 -0.31792333406E+03 -0.68833981938E+03 -0.25211340908E+03  0.79902948902E+03  0.25500000920E-02 0. -1.
       -2    1    3    3    0  502  0.31792333406E+03  0.68833981938E+03 -0.87373671572E+03  0.11568503800E+04  0.25500000920E-02 0.  1.
</event>
<event>
 5   0  0.9616567E-05  0.1592801E+04  0.7818609E-02  0.8824983E-01
        1   -1    0    0  501    0  0.00000000000E+00  0.00000000000E+00  0.10143926492E+04  0.10143926492E+04  0.50400001928E-02 0.  1.
       -1   -1    0    0    0  501  0.00000000000E+00  0.00000000000E+00 -0.62525487015E+03  0.62525487017E+03  0.50400001928E-02 0. -1.
    10030    2    1    2    0    0  0.00000000000E+00  0.00000000000E+00  0.38913777904E+03  0.16396475194E+04  0.15928012358E+04 0.  0.
        5    1    3    3  502    0 -0.64475525966E+03  0.33590360770E+02  0.67453755531E+03  0.93373479143E+03  0.46999998093E+01 0.  1.
       -5    1    3    3    0  502  0.64475525966E+03 -0.33590360770E+02 -0.28539977627E+03  0.70591272796E+03  0.46999998093E+01 0. -1.
</event>
<event>
 5   0  0.1832646E-04  0.1615236E+04  0.7818609E-02  0.8811242E-01
        2   -1    0    0  501    0  0.00000000000E+00  0.00000000000E+00  0.87485084215E+03  0.87485084215E+03  0.25500000920E-02 0. -1.
       -2   -1    0    0    0  501  0.00000000000E+00  0.00000000000E+00 -0.74555167548E+03  0.74555167548E+03  0.25500000920E-02 0.  1.
    10030    2    1    2    0    0  0.00000000000E+00  0.00000000000E+00  0.12929916667E+03  0.16204025176E+04  0.16152356004E+04 0.  0.
        2    1    3    3  502    0 -0.95065156340E+02 -0.69319435062E+03 -0.33999005247E+03  0.77791325189E+03  0.25500000920E-02 0.  1.
       -2    1    3    3    0  502  0.95065156340E+02  0.69319435062E+03  0.46928921914E+03  0.84248926574E+03  0.25500000920E-02 0. -1.
</event>
<event>
 5   0  0.1858913E-04  0.1609046E+04  0.7818609E-02  0.8815010E-01
       -2   -1    0    0    0  501  0.00000000000E+00  0.00000000000E+00  0.17466111277E+04  0.17466111277E+04  0.25500000920E-02 0.  1.
        2   -1    0    0  501    0  0.00000000000E+00  0.00000000000E+00 -0.37057879445E+03  0.37057879446E+03  0.25500000920E-02 0. -1.
    10030    2    1    2    0    0  0.00000000000E+00  0.00000000000E+00  0.13760323332E+04  0.21171899222E+04  0.16090457372E+04 0.  0.
        4    1    3    3  502    0 -0.14345872840E+03  0.93113568098E+02 -0.34638114860E+03  0.38630565143E+03  0.12699999809E+01 0. -1.
       -4    1    3    3    0  502  0.14345872840E+03 -0.93113568098E+02  0.17224134819E+04  0.17308842707E+04  0.12699999809E+01 0.  1.
</event>
<event>
 5   0  0.9939872E-05  0.1603505E+04  0.7818609E-02  0.8818398E-01
        1   -1    0    0  501    0  0.00000000000E+00  0.00000000000E+00  0.18990631780E+04  0.18990631780E+04  0.50400001928E-02 0.  1.
       -1   -1    0    0    0  501  0.00000000000E+00  0.00000000000E+00 -0.33848643416E+03  0.33848643420E+03  0.50400001928E-02 0. -1.
    10030    2    1    2    0    0  0.00000000000E+00  0.00000000000E+00  0.15605767438E+04  0.22375496122E+04  0.16035050650E+04 0.  0.
        3    1    3    3  502    0 -0.47472069819E+03 -0.11697292198E+03 -0.10639081630E+03  0.50036129123E+03  0.10100000352E+00 0. -1.
       -3    1    3    3    0  502  0.47472069819E+03  0.11697292198E+03  0.16669675601E+04  0.17371883210E+04  0.10100000352E+00 0.  1.
</event>
<event>
 5   0  0.1832646E-04  0.1603132E+04  0.7818609E-02  0.8818626E-01
       -2   -1    0    0    0  501  0.00000000000E+00  0.00000000000E+00  0.87390154914E+03  0.87390154914E+03  0.25500000920E-02 0.  1.
        2   -1    0    0  501    0  0.00000000000E+00  0.00000000000E+00 -0.73521825306E+03  0.73521825307E+03  0.25500000920E-02 0. -1.
    10030    2    1    2    0    0  0.00000000000E+00  0.00000000000E+00  0.13868329607E+03  0.16091198022E+04  0.16031323967E+04 0.  0.
        2    1    3    3  502    0  0.49442214771E+03  0.52122470172E+03  0.42616891016E+03  0.83531334828E+03  0.25500000920E-02 0.  1.
       -2    1    3    3    0  502 -0.49442214771E+03 -0.52122470172E+03 -0.28748561408E+03  0.77380645393E+03  0.25500000920E-02 0. -1.
</event>
<event>
 5   0  0.9616567E-05  0.1577241E+04  0.7818609E-02  0.8834653E-01
        1   -1    0    0  501    0  0.00000000000E+00  0.00000000000E+00  0.49796265227E+03  0.49796265230E+03  0.50400001928E-02 0.  1.
       -1   -1    0    0    0  501  0.00000000000E+00  0.00000000000E+00 -0.12489335177E+04  0.12489335177E+04  0.50400001928E-02 0. -1.
    10030    2    1    2    0    0  0.00000000000E+00  0.00000000000E+00 -0.75097086542E+03  0.17468961700E+04  0.15772409417E+04 0.  0.
        5    1    3    3  502    0  0.39280608684E+03 -0.53903348470E+02  0.37952757814E+03  0.54887654841E+03  0.46999998093E+01 0.  1.
       -5    1    3    3    0  502 -0.39280608684E+03  0.53903348470E+02 -0.11304984436E+04  0.11980196216E+04  0.46999998093E+01 0. -1.
</event>
<event>
 5   0  0.6838750E-05  0.1620338E+04  0.7818609E-02  0.8808150E-01
        3   -1    0    0  501    0  0.00000000000E+00  0.00000000000E+00  0.58680465406E+03  0.58680466275E+03  0.10100000352E+00 0.  1.
       -3   -1    0    0    0  501  0.00000000000E+00  0.00000000000E+00 -0.11185553368E+04  0.11185553414E+04  0.10100000352E+00 0. -1.
    10030    2    1    2    0    0  0.00000000000E+00  0.00000000000E+00 -0.53175068274E+03  0.17053600041E+04  0.16203376053E+04 0.  0.
        3    1    3    3  502    0 -0.36560854863E+03  0.54033227628E+03 -0.77143989433E+03  0.10103207908E+04  0.10100000352E+00 0. -1.
       -3    1    3    3    0  502  0.36560854863E+03 -0.54033227628E+03  0.23968921160E+03  0.69503921327E+03  0.10100000352E+00 0.  1.
</event>
<event>
 5   0  0.9432152E-05  0.1601983E+04  0.7818609E-02  0.8819330E-01
       -1   -1    0    0    0  501  0.00000000000E+00  0.00000000000E+00  0.80965852483E+03  0.80965852484E+03  0.50400001928E-02 0.  1.
        1   -1    0    0  501    0  0.00000000000E+00  0.00000000000E+00 -0.79241767241E+03  0.79241767243E+03  0.50400001928E-02 0. -1.
    10030    2    1    2    0    0  0.00000000000E+00  0.00000000000E+00  0.17240852411E+02  0.16020761973E+04  0.16019834253E+04 0.  0.
        4    1    3    3  502    0 -0.15058574719E+03 -0.70847492594E+03  0.35065386212E+03  0.80471891482E+03  0.12699999809E+01 0.  1.
       -4    1    3    3    0  502  0.15058574719E+03  0.70847492594E+03 -0.33341300971E+03  0.79735728246E+03  0.12699999809E+01 0. -1.
</event>
<event>
 5   0  0.9726935E-05  0.1601779E+04  0.7818609E-02  0.8819456E-01
       -1   -1    0    0    0  501  0.00000000000E+00  0.00000000000E+00  0.75085974063E+03  0.75085974065E+03  0.50400001928E-02 0.  1.
        1   -1    0    0  501    0  0.00000000000E+00  0.00000000000E+00 -0.85425248038E+03  0.85425248039E+03  0.50400001928E-02 0. -1.
    10030    2    1    2    0    0  0.00000000000E+00  0.00000000000E+00 -0.10339273975E+03  0.16051122210E+04  0.16017787561E+04 0.  0.
        2    1    3    3  502    0 -0.14143355857E+03 -0.45597384604E+02 -0.84031651274E+03  0.85335479993E+03  0.25500000920E-02 0. -1.
       -2    1    3    3    0  502  0.14143355857E+03  0.45597384604E+02  0.73692377300E+03  0.75175742111E+03  0.25500000920E-02 0.  1.
</event>
<event>
 5   0  0.9616567E-05  0.1601340E+04  0.7818609E-02  0.8819725E-01
       -1   -1    0    0    0  501  0.00000000000E+00  0.00000000000E+00  0.40908389014E+03  0.40908389017E+03  0.50400001928E-02 0. -1.
        1   -1    0    0  501    0  0.00000000000E+00  0.00000000000E+00 -0.15670929560E+04  0.15670929560E+04  0.50400001928E-02 0.  1.
    10030    2    1    2    0    0  0.00000000000E+00  0.00000000000E+00 -0.11580090659E+04  0.19761768462E+04  0.16013400422E+04 0.  0.
        5    1    3    3  502    0 -0.38051271899E+03  0.13004474585E+03  0.27540891994E+03  0.48741535513E+03  0.46999998093E+01 0. -1.
       -5    1    3    3    0  502  0.38051271899E+03 -0.13004474585E+03 -0.14334179858E+04  0.14887614911E+04  0.46999998093E+01 0.  1.
</event>
<event>
 5   0  0.9673017E-05  0.1598911E+04  0.7818609E-02  0.8821217E-01
        1   -1    0    0  501    0  0.00000000000E+00  0.00000000000E+00  0.85780365046E+03  0.85780365048E+03  0.50400001928E-02 0. -1.
       -1   -1    0    0    0  501  0.00000000000E+00  0.00000000000E+00 -0.74507646403E+03  0.74507646404E+03  0.50400001928E-02 0.  1.
    10030    2    1    2    0    0  0.00000000000E+00  0.00000000000E+00  0.11272718644E+03  0.16028801145E+04  0.15989112680E+04 0.  0.
        1    1    3    3  502    0  0.33915871912E+03  0.26306526969E+03  0.73249852759E+03  0.84899120480E+03  0.50400001928E-02 0.  1.
       -1    1    3    3    0  502 -0.33915871912E+03 -0.26306526969E+03 -0.61977134115E+03  0.75388890973E+03  0.50400001928E-02 0. -1.
</event>
<event>
 5   0  0.1914170E-04  0.1615642E+04  0.7818609E-02  0.8810996E-01
       -2   -1    0    0    0  501  0.00000000000E+00  0.00000000000E+00  0.14147547234E+04  0.14147547234E+04  0.25500000920E-02 0.  1.
        2   -1    0    0  501    0  0.00000000000E+00  0.00000000000E+00 -0.46126336674E+03  0.46126336675E+03  0.25500000920E-02 0. -1.
    10030    2    1    2    0    0  0.00000000000E+00  0.00000000000E+00  0.95349135666E+03  0.18760180901E+04  0.16156417014E+04 0.  0.
        3    1    3    3  502    0 -0.50886295515E+03 -0.48639158359E+03  0.16574344041E+02  0.70412569814E+03  0.10100000352E+00 0. -1.
       -3    1    3    3    0  502  0.50886295515E+03  0.48639158359E+03  0.93691701262E+03  0.11718923920E+04  0.10100000352E+00 0.  1.
</event>
<event>
 5   0  0.1914170E-04  0.1603310E+04  0.7818609E-02  0.8818517E-01
        2   -1    0    0  501    0  0.00000000000E+00  0.00000000000E+00  0.71824735779E+03  0.71824735780E+03  0.25500000920E-02 0.  1.
       -2   -1    0    0    0  501  0.00000000000E+00  0.00000000000E+00 -0.89474900434E+03  0.89474900435E+03  0.25500000920E-02 0. -1.
    10030    2    1    2    0    0  0.00000000000E+00  0.00000000000E+00 -0.17650164655E+03  0.16129963621E+04  0.16033104606E+04 0.  0.
        3    1    3    3  502    0  0.93293348279E+02 -0.93963751358E+02  0.70716981520E+03  0.71945951459E+03  0.10100000352E+00 0.  1.
       -3    1    3    3    0  502 -0.93293348279E+02  0.93963751358E+02 -0.88367146176E+03  0.89353684755E+03  0.10100000352E+00 0. -1.
</event>
<event>
 5   0  0.9616567E-05  0.1605074E+04  0.7818609E-02  0.8817437E-01
        1   -1    0    0  501    0  0.00000000000E+00  0.00000000000E+00  0.72758192161E+03  0.72758192163E+03  0.50400001928E-02 0.  1.
       -1   -1    0    0    0  501  0.00000000000E+00  0.00000000000E+00 -0.88521405466E+03  0.88521405468E+03  0.50400001928E-02 0. -1.
    10030    2    1    2    0    0  0.00000000000E+00  0.00000000000E+00 -0.15763213305E+03  0.16127959763E+04  0.16050741328E+04 0.  0.
        5    1    3    3  502    0 -0.30083012535E+03  0.73530597168E+03  0.35175806542E+02  0.79525660241E+03  0.46999998093E+01 0. -1.
       -5    1    3    3    0  502  0.30083012535E+03 -0.73530597168E+03 -0.19280793959E+03  0.81753937390E+03  0.46999998093E+01 0.  1.
</event>
<event>
 5   0  0.9939872E-05  0.1521191E+04  0.7818609E-02  0.8870482E-01
        1   -1    0    0  501    0  0.00000000000E+00  0.00000000000E+00  0.14251668389E+04  0.14251668389E+04  0.50400001928E-02 0.  1.
       -1   -1    0    0    0  501  0.00000000000E+00  0.00000000000E+00 -0.40592141278E+03  0.40592141281E+03  0.50400001928E-02 0. -1.
    10030    2    1    2    0    0  0.00000000000E+00  0.00000000000E+00  0.10192454261E+04  0.18310882517E+04  0.15211912920E+04 0.  0.
        3    1    3    3  502    0 -0.16465775374E+03  0.28884346288E+03  0.13330612837E+04  0.13738977830E+04  0.10100000352E+00 0.  1.
       -3    1    3    3    0  502  0.16465775374E+03 -0.28884346288E+03 -0.31381585763E+03  0.45719046864E+03  0.10100000352E+00 0. -1.
</event>
<event>
 5   0  0.9939872E-05  0.1577771E+04  0.7818609E-02  0.8834321E-01
        1   -1    0    0  501    0  0.00000000000E+00  0.00000000000E+00  0.11062834982E+04  0.11062834982E+04  0.50400001928E-02 0. -1.
       -1   -1    0    0    0  501  0.00000000000E+00  0.00000000000E+00 -0.56255075010E+03  0.56255075012E+03  0.50400001928E-02 0.  1.
    10030    2    1    2    0    0  0.00000000000E+00  0.00000000000E+00  0.54373274811E+03  0.16688342483E+04  0.15777713545E+04 0.  0.
        3    1    3    3  502    0 -0.76929867628E+03 -0.16790035736E+03  0.22081452040E+03  0.81778361805E+03  0.10100000352E+00 0.  1.
       -3    1    3    3    0  502  0.76929867628E+03  0.16790035736E+03  0.32291822770E+03  0.85105063029E+03  0.10100000352E+00 0. -1.
</event>
<event>
 5   0  0.1832646E-04  0.1600782E+04  0.7818609E-02  0.8820068E-01
        2   -1    0    0  501    0  0.00000000000E+00  0.00000000000E+00  0.89798745885E+03  0.89798745886E+03  0.25500000920E-02 0.  1.
       -2   -1    0    0    0  501  0.00000000000E+00  0.00000000000E+00 -0.71340141220E+03  0.71340141220E+03  0.25500000920E-02 0. -1.
    10030    2    1    2    0    0  0.00000000000E+00  0.00000000000E+00  0.18458604666E+03  0.16113888711E+04  0.16007817106E+04 0.  0.
        2    1    3    3  502    0 -0.16713609410E+03 -0.73751472453E+03  0.35625775327E+03  0.83593183311E+03  0.25500000920E-02 0.  1.
       -2    1    3    3    0  502  0.16713609410E+03  0.73751472453E+03 -0.17167170661E+03  0.77545703795E+03  0.25500000920E-02 0. -1.
</event>
<event>
 5   0  0.1832646E-04  0.1595490E+04  0.7818609E-02  0.8823324E-01
        2   -1    0    0  501    0  0.00000000000E+00  0.00000000000E+00  0.28409020989E+04  0.28409020989E+04  0.25500000920E-02 0.  1.
       -2   -1    0    0    0  501  0.00000000000E+00  0.00000000000E+00 -0.22401230143E+03  0.22401230144E+03  0.25500000920E-02 0. -1.
    10030    2    1    2    0    0  0.00000000000E+00  0.00000000000E+00  0.26168897974E+04  0.30649144003E+04  0.15954899151E+04 0.  0.
        2    1    3    3  502    0 -0.64754933419E+03  0.39984361312E+03  0.84900389783E+03  0.11401765976E+04  0.25500000920E-02 0. -1.
       -2    1    3    3    0  502  0.64754933419E+03 -0.39984361312E+03  0.17678858996E+04  0.19247378027E+04  0.25500000920E-02 0.  1.
</event>
<event>
 5   0  0.9432152E-05  0.1529154E+04  0.7818609E-02  0.8865294E-01
        1   -1    0    0  501    0  0.00000000000E+00  0.00000000000E+00  0.87938116048E+03  0.87938116049E+03  0.50400001928E-02 0. -1.
       -1   -1    0    0    0  501  0.00000000000E+00  0.00000000000E+00 -0.66476048875E+03  0.66476048876E+03  0.50400001928E-02 0.  1.
    10030    2    1    2    0    0  0.00000000000E+00  0.00000000000E+00  0.21462067173E+03  0.15441416493E+04  0.15291538184E+04 0.  0.
        4    1    3    3  502    0 -0.28888168138E+03 -0.65842400875E+03  0.36986148555E+03  0.80856288100E+03  0.12699999809E+01 0. -1.
       -4    1    3    3    0  502  0.28888168138E+03  0.65842400875E+03 -0.15524081382E+03  0.73557876826E+03  0.12699999809E+01 0.  1.
</event>
<event>
 5   0  0.1774934E-04  0.1595418E+04  0.7818609E-02  0.8823368E-01
        2   -1    0    0  501    0  0.00000000000E+00  0.00000000000E+00  0.14905380686E+04  0.14905380686E+04  0.25500000920E-02 0.  1.
       -2   -1    0    0    0  501  0.00000000000E+00  0.00000000000E+00 -0.42691965097E+03  0.42691965098E+03  0.25500000920E-02 0. -1.
    10030    2    1    2    0    0  0.00000000000E+00  0.00000000000E+00  0.10636184176E+04  0.19174577195E+04  0.15954184304E+04 0.  0.
        1    1    3    3  502    0 -0.21153658900E+03 -0.62878834555E+03 -0.56871544137E+00  0.66341754231E+03  0.50400001928E-02 0. -1.
       -1    1    3    3    0  502  0.21153658900E+03  0.62878834555E+03  0.10641871330E+04  0.12540401772E+04  0.50400001928E-02 0.  1.
</event>
<event>
 5   0  0.6838750E-05  0.1603079E+04  0.7818609E-02  0.8818658E-01
        3   -1    0    0  501    0  0.00000000000E+00  0.00000000000E+00  0.18524772374E+04  0.18524772402E+04  0.10100000352E+00 0.  1.
       -3   -1    0    0    0  501  0.00000000000E+00  0.00000000000E+00 -0.34681447651E+03  0.34681449121E+03  0.10100000352E+00 0. -1.
    10030    2    1    2    0    0  0.00000000000E+00  0.00000000000E+00  0.15056627609E+04  0.21992917314E+04  0.16030794647E+04 0.  0.
        1    1    3    3  502    0  0.23868349627E+03 -0.45412300680E+03  0.15977232582E+04  0.16780694641E+04  0.50400001928E-02 0.  1.
       -1    1    3    3    0  502 -0.23868349627E+03  0.45412300680E+03 -0.92060497276E+02  0.52122226725E+03  0.50400001928E-02 0. -1.
</event>
<event>
 5   0  0.1835088E-04  0.1613569E+04  0.7818609E-02  0.8812255E-01
       -2   -1    0    0    0  501  0.00000000000E+00  0.00000000000E+00  0.30225958984E+03  0.30225958985E+03  0.25500000920E-02 0. -1.
        2   -1    0    0  501    0  0.00000000000E+00  0.00000000000E+00 -0.21534497916E+04  0.21534497916E+04  0.25500000920E-02 0.  1.
    10030    2    1    2    0    0  0.00000000000E+00  0.00000000000E+00 -0.18511902017E+04  0.24557093814E+04  0.16135685306E+04 0.  0.
        5    1    3    3  502    0  0.54520462169E+03  0.55499085833E+03 -0.60054722128E+03  0.98282347719E+03  0.46999998093E+01 0.  1.
       -5    1    3    3    0  502 -0.54520462169E+03 -0.55499085833E+03 -0.12506429805E+04  0.14728859043E+04  0.46999998093E+01 0. -1.
</event>
<event>
 5   0  0.1835088E-04  0.1597073E+04  0.7818609E-02  0.8822348E-01
        2   -1    0    0  501    0  0.00000000000E+00  0.00000000000E+00  0.10978117644E+04  0.10978117644E+04  0.25500000920E-02 0.  1.
       -2   -1    0    0    0  501  0.00000000000E+00  0.00000000000E+00 -0.58084691374E+03  0.58084691375E+03  0.25500000920E-02 0. -1.
    10030    2    1    2    0    0  0.00000000000E+00  0.00000000000E+00  0.51696485070E+03  0.16786586782E+04  0.15970730419E+04 0.  0.
        5    1    3    3  502    0  0.76643589021E+02 -0.72041277187E+03 -0.94484329483E+02  0.73062861983E+03  0.46999998093E+01 0. -1.
       -5    1    3    3    0  502 -0.76643589021E+02  0.72041277187E+03  0.61144918018E+03  0.94803005836E+03  0.46999998093E+01 0.  1.
</event>
<event>
 5   0  0.1832646E-04  0.1594087E+04  0.7818609E-02  0.8824189E-01
       -2   -1    0    0    0  501  0.00000000000E+00  0.00000000000E+00  0.99620580382E+03  0.99620580383E+03  0.25500000920E-02 0. -1.
        2   -1    0    0  501    0  0.00000000000E+00  0.00000000000E+00 -0.63769809009E+03  0.63769809010E+03  0.25500000920E-02 0.  1.
    10030    2    1    2    0    0  0.00000000000E+00  0.00000000000E+00  0.35850771373E+03  0.16339038939E+04  0.15940872479E+04 0.  0.
        2    1    3    3  502    0 -0.71102540147E+01 -0.20047859832E+03 -0.61139956653E+03  0.64346845614E+03  0.25500000920E-02 0.  1.
       -2    1    3    3    0  502  0.71102540147E+01  0.20047859832E+03  0.96990728026E+03  0.99043543778E+03  0.25500000920E-02 0. -1.
</event>
<event>
 5   0  0.9616567E-05  0.1601029E+04  0.7818609E-02  0.8819916E-01
       -1   -1    0    0    0  501  0.00000000000E+00  0.00000000000E+00  0.65294817285E+03  0.65294817287E+03  0.50400001928E-02 0.  1.
        1   -1    0    0  501    0  0.00000000000E+00  0.00000000000E+00 -0.98143094528E+03  0.98143094529E+03  0.50400001928E-02 0. -1.
    10030    2    1    2    0    0  0.00000000000E+00  0.00000000000E+00 -0.32848277242E+03  0.16343791182E+04  0.16010290972E+04 0.  0.
        5    1    3    3  502    0 -0.68963952695E+03  0.40621676986E+03 -0.17819025088E+03  0.81999304677E+03  0.46999998093E+01 0.  1.
       -5    1    3    3    0  502  0.68963952695E+03 -0.40621676986E+03 -0.15029252155E+03  0.81438607139E+03  0.46999998093E+01 0. -1.
</event>
<event>
 5   0  0.1914170E-04  0.1595843E+04  0.7818609E-02  0.8823106E-01
        2   -1    0    0  501    0  0.00000000000E+00  0.00000000000E+00  0.62243992480E+03  0.62243992480E+03  0.25500000920E-02 0. -1.
       -2   -1    0    0    0  501  0.00000000000E+00  0.00000000000E+00 -0.10228754139E+04  0.10228754139E+04  0.25500000920E-02 0.  1.
    10030    2    1    2    0    0  0.00000000000E+00  0.00000000000E+00 -0.40043548909E+03  0.16453153387E+04  0.15958427187E+04 0.  0.
        3    1    3    3  502    0 -0.43000525133E+03  0.49480235055E+03 -0.66923207517E+03  0.93680599001E+03  0.10100000352E+00 0.  1.
       -3    1    3    3    0  502  0.43000525133E+03 -0.49480235055E+03  0.26879658608E+03  0.70850934868E+03  0.10100000352E+00 0. -1.
</event>
<event>
 5   0  0.9939872E-05  0.1600476E+04  0.7818609E-02  0.8820256E-01
        1   -1    0    0  501    0  0.00000000000E+00  0.00000000000E+00  0.81484596576E+03  0.81484596577E+03  0.50400001928E-02 0.  1.
       -1   -1    0    0    0  501  0.00000000000E+00  0.00000000000E+00 -0.78589200642E+03  0.78589200644E+03  0.50400001928E-02 0. -1.
    10030    2    1    2    0    0  0.00000000000E+00  0.00000000000E+00  0.28953959334E+02  0.16007379722E+04  0.16004760929E+04 0.  0.
        3    1    3    3  502    0 -0.86223323674E+02  0.78508742326E+03  0.14327769677E+03  0.80269871826E+03  0.10100000352E+00 0.  1.
       -3    1    3    3    0  502  0.86223323674E+02 -0.78508742326E+03 -0.11432373743E+03  0.79803925395E+03  0.10100000352E+00 0. -1.
</event>
<event>
 5   0  0.1858913E-04  0.1614083E+04  0.7818609E-02  0.8811943E-01
        2   -1    0    0  501    0  0.00000000000E+00  0.00000000000E+00  0.90768768122E+03  0.90768768122E+03  0.25500000920E-02 0. -1.
       -2   -1    0    0    0  501  0.00000000000E+00  0.00000000000E+00 -0.71755495805E+03  0.71755495806E+03  0.25500000920E-02 0.  1.
    10030    2    1    2    0    0  0.00000000000E+00  0.00000000000E+00  0.19013272317E+03  0.16252426393E+04  0.16140827687E+04 0.  0.
        4    1    3    3  502    0  0.36548264605E+03  0.27397157496E+03 -0.57487299317E+03  0.73424693369E+03  0.12699999809E+01 0.  1.
       -4    1    3    3    0  502 -0.36548264605E+03 -0.27397157496E+03  0.76500571634E+03  0.89099570559E+03  0.12699999809E+01 0. -1.
</event>
<event>
 5   0  0.9726935E-05  0.1601706E+04  0.7818609E-02  0.8819500E-01
        1   -1    0    0  501    0  0.00000000000E+00  0.00000000000E+00  0.12042747989E+04  0.12042747989E+04  0.50400001928E-02 0.  1.
       -1   -1    0    0    0  501  0.00000000000E+00  0.00000000000E+00 -0.53257426481E+03  0.53257426483E+03  0.50400001928E-02 0. -1.
    10030    2    1    2    0    0  0.00000000000E+00  0.00000000000E+00  0.67170053409E+03  0.17368490637E+04  0.16017062973E+04 0.  0.
        2    1    3    3  502    0 -0.36419576123E+03 -0.67401625970E+03  0.58883572023E+03  0.96626289190E+03  0.25500000920E-02 0.  1.
       -2    1    3    3    0  502  0.36419576123E+03  0.67401625970E+03  0.82864813862E+02  0.77058617184E+03  0.25500000920E-02 0. -1.
</event>
<event>
 5   0  0.9673017E-05  0.1604180E+04  0.7818609E-02  0.8817984E-01
        1   -1    0    0  501    0  0.00000000000E+00  0.00000000000E+00  0.81358624644E+03  0.81358624646E+03  0.50400001928E-02 0.  1.
       -1   -1    0    0    0  501  0.00000000000E+00  0.00000000000E+00 -0.79075637706E+03  0.79075637708E+03  0.50400001928E-02 0. -1.
    10030    2    1    2    0    0  0.00000000000E+00  0.00000000000E+00  0.22829869382E+02  0.16043426235E+04  0.16041801803E+04 0.  0.
        1    1    3    3  502    0  0.54142548335E+03 -0.51119990505E+03  0.30957532337E+03  0.80641414782E+03  0.50400001928E-02 0.  1.
       -1    1    3    3    0  502 -0.54142548335E+03  0.51119990505E+03 -0.28674545399E+03  0.79792847571E+03  0.50400001928E-02 0. -1.
</event>
<event>
 5   0  0.1835088E-04  0.1599871E+04  0.7818609E-02  0.8820627E-01
       -2   -1    0    0    0  501  0.00000000000E+00  0.00000000000E+00  0.51031691074E+03  0.51031691075E+03  0.25500000920E-02 0. -1.
        2   -1    0    0  501    0  0.00000000000E+00  0.00000000000E+00 -0.12539210210E+04  0.12539210210E+04  0.25500000920E-02 0.  1.
    10030    2    1    2    0    0  0.00000000000E+00  0.00000000000E+00 -0.74360411023E+03  0.17642379317E+04  0.15998713720E+04 0.  0.
        5    1    3    3  502    0  0.34058389543E+03  0.37076160146E+03 -0.10572874550E+04  0.11710424448E+04  0.46999998093E+01 0.  1.
       -5    1    3    3    0  502 -0.34058389543E+03 -0.37076160146E+03  0.31368334479E+03  0.59319548695E+03  0.46999998093E+01 0. -1.
</event>
<event>
 5   0  0.9616567E-05  0.1543895E+04  0.7818609E-02  0.8855777E-01
       -1   -1    0    0    0  501  0.00000000000E+00  0.00000000000E+00  0.13230127614E+04  0.13230127614E+04  0.50400001928E-02 0. -1.
        1   -1    0    0  501    0  0.00000000000E+00  0.00000000000E+00 -0.45041380271E+03  0.45041380273E+03  0.50400001928E-02 0.  1.
    10030    2    1    2    0    0  0.00000000000E+00  0.00000000000E+00  0.87259895869E+03  0.17734265641E+04  0.15438953448E+04 0.  0.
        5    1    3    3  502    0 -0.30815198377E+02 -0.46049370601E+03  0.11470628554E+04  0.12364381561E+04  0.46999998093E+01 0. -1.
       -5    1    3    3    0  502  0.30815198377E+02  0.46049370601E+03 -0.27446389671E+03  0.53698840800E+03  0.46999998093E+01 0.  1.
</event>
<event>
 5   0  0.1914170E-04  0.1602061E+04  0.7818609E-02  0.8819283E-01
       -2   -1    0    0    0  501  0.00000000000E+00  0.00000000000E+00  0.29317504145E+03  0.29317504146E+03  0.25500000920E-02 0.  1.
        2   -1    0    0  501    0  0.00000000000E+00  0.00000000000E+00 -0.21886230995E+04  0.21886230995E+04  0.25500000920E-02 0. -1.
    10030    2    1    2    0    0  0.00000000000E+00  0.00000000000E+00 -0.18954480580E+04  0.24817981410E+04  0.16020607578E+04 0.  0.
        3    1    3    3  502    0 -0.48941920007E+03  0.56424825094E+03 -0.13960152299E+04  0.15832769102E+04  0.10100000352E+00 0. -1.
       -3    1    3    3    0  502  0.48941920007E+03 -0.56424825094E+03 -0.49943282817E+03  0.89852123077E+03  0.10100000352E+00 0.  1.
</event>
<event>
 5   0  0.1774934E-04  0.1602875E+04  0.7818609E-02  0.8818784E-01
       -2   -1    0    0    0  501  0.00000000000E+00  0.00000000000E+00  0.31482917126E+03  0.31482917127E+03  0.25500000920E-02 0.  1.
        2   -1    0    0  501    0  0.00000000000E+00  0.00000000000E+00 -0.20401605471E+04  0.20401605471E+04  0.25500000920E-02 0. -1.
    10030    2    1    2    0    0  0.00000000000E+00  0.00000000000E+00 -0.17253313759E+04  0.23549897184E+04  0.16028749849E+04 0.  0.
        1    1    3    3  502    0 -0.75367102288E+03  0.41870273663E+01 -0.12630527459E+04  0.14708296234E+04  0.50400001928E-02 0. -1.
       -1    1    3    3    0  502  0.75367102288E+03 -0.41870273663E+01 -0.46227862993E+03  0.88416009503E+03  0.50400001928E-02 0.  1.
</event>
<event>
 5   0  0.9726935E-05  0.1601807E+04  0.7818609E-02  0.8819438E-01
       -1   -1    0    0    0  501  0.00000000000E+00  0.00000000000E+00  0.43709580731E+03  0.43709580734E+03  0.50400001928E-02 0. -1.
        1   -1    0    0  501    0  0.00000000000E+00  0.00000000000E+00 -0.14675197133E+04  0.14675197133E+04  0.50400001928E-02 0.  1.
    10030    2    1    2    0    0  0.00000000000E+00  0.00000000000E+00 -0.10304239060E+04  0.19046155206E+04  0.16018073715E+04 0.  0.
        2    1    3    3  502    0  0.15303558942E+03  0.62422088114E+03  0.53014462885E+02  0.64488924115E+03  0.25500000920E-02 0. -1.
       -2    1    3    3    0  502 -0.15303558942E+03 -0.62422088114E+03 -0.10834383689E+04  0.12597262795E+04  0.25500000920E-02 0.  1.
</event>
<event>
 5   0  0.9726935E-05  0.1600800E+04  0.7818609E-02  0.8820057E-01
        1   -1    0    0  501    0  0.00000000000E+00  0.00000000000E+00  0.89989059435E+03  0.89989059436E+03  0.50400001928E-02 0. -1.
       -1   -1    0    0    0  501  0.00000000000E+00  0.00000000000E+00 -0.71190874841E+03  0.71190874843E+03  0.50400001928E-02 0.  1.
    10030    2    1    2    0    0  0.00000000000E+00  0.00000000000E+00  0.18798184594E+03  0.16117993428E+04  0.16007997836E+04 0.  0.
        2    1    3    3  502    0 -0.74297017982E+03 -0.20676333315E+03  0.30966882334E+03  0.83105387562E+03  0.25500000920E-02 0. -1.
       -2    1    3    3    0  502  0.74297017982E+03  0.20676333315E+03 -0.12168697740E+03  0.78074546717E+03  0.25500000920E-02 0.  1.
</event>
<event>
 5   0  0.1914170E-04  0.1614802E+04  0.7818609E-02  0.8811506E-01
       -2   -1    0    0    0  501  0.00000000000E+00  0.00000000000E+00  0.46850144319E+03  0.46850144320E+03  0.25500000920E-02 0. -1.
        2   -1    0    0  501    0  0.00000000000E+00  0.00000000000E+00 -0.13914501961E+04  0.13914501961E+04  0.25500000920E-02 0.  1.
    10030    2    1    2    0    0  0.00000000000E+00  0.00000000000E+00 -0.92294875290E+03  0.18599516393E+04  0.16148020622E+04 0.  0.
        3    1    3    3  502    0  0.14208658447E+03 -0.29794059752E+03 -0.13101817265E+04  0.13511230010E+04  0.10100000352E+00 0.  1.
       -3    1    3    3    0  502 -0.14208658447E+03  0.29794059752E+03  0.38723297359E+03  0.50882863832E+03  0.10100000352E+00 0. -1.
</event>
<event>
 5   0  0.1914170E-04  0.1598703E+04  0.7818609E-02  0.8821345E-01
       -2   -1    0    0    0  501  0.00000000000E+00  0.00000000000E+00  0.25931357043E+03  0.25931357045E+03  0.25500000920E-02 0.  1.
        2   -1    0    0  501    0  0.00000000000E+00  0.00000000000E+00 -0.24640561559E+04  0.24640561559E+04  0.25500000920E-02 0. -1.
    10030    2    1    2    0    0  0.00000000000E+00  0.00000000000E+00 -0.22047425855E+04  0.27233697264E+04  0.15987034741E+04 0.  0.
        3    1    3    3  502    0 -0.27360270371E+03 -0.27446556780E+03  0.88575800980E+02  0.39753675315E+03  0.10100000352E+00 0. -1.
       -3    1    3    3    0  502  0.27360270371E+03  0.27446556780E+03 -0.22933183865E+04  0.23258329732E+04  0.10100000352E+00 0.  1.
</event>
<event>
 5   0  0.9432152E-05  0.1591733E+04  0.7818609E-02  0.8825643E-01
       -1   -1    0    0    0  501  0.00000000000E+00  0.00000000000E+00  0.66354214858E+03  0.66354214860E+03  0.50400001928E-02 0.  1.
        1   -1    0    0  501    0  0.00000000000E+00  0.00000000000E+00 -0.95457872135E+03  0.95457872136E+03  0.50400001928E-02 0. -1.
    10030    2    1    2    0    0  0.00000000000E+00  0.00000000000E+00 -0.29103657277E+03  0.16181208700E+04  0.15917326607E+04 0.  0.
        4    1    3    3  502    0  0.78117124058E+03 -0.63329458866E+02 -0.28624178926E+03  0.83437108188E+03  0.12699999809E+01 0. -1.
       -4    1    3    3    0  502 -0.78117124058E+03  0.63329458866E+02 -0.47947835137E+01  0.78374978808E+03  0.12699999809E+01 0.  1.
</event>
<event>
 5   0  0.9432152E-05  0.1599660E+04  0.7818609E-02  0.8820757E-01
       -1   -1    0    0    0  501  0.00000000000E+00  0.00000000000E+00  0.69027476158E+03  0.69027476160E+03  0.50400001928E-02 0. -1.
        1   -1    0    0  501    0  0.00000000000E+00  0.00000000000E+00 -0.92677318679E+03  0.92677318680E+03  0.50400001928E-02 0.  1.
    10030    2    1    2    0    0  0.00000000000E+00  0.00000000000E+00 -0.23649842521E+03  0.16170479484E+04  0.15996601396E+04 0.  0.
        4    1    3    3  502    0 -0.23237423791E+03 -0.18321117347E+03  0.63290410922E+03  0.69866540267E+03  0.12699999809E+01 0. -1.
       -4    1    3    3    0  502  0.23237423791E+03  0.18321117347E+03 -0.86940253443E+03  0.91838254573E+03  0.12699999809E+01 0.  1.
</event>
<event>
 5   0  0.9673017E-05  0.1596845E+04  0.7818609E-02  0.8822489E-01
       -1   -1    0    0    0  501  0.00000000000E+00  0.00000000000E+00  0.59604151236E+03  0.59604151238E+03  0.50400001928E-02 0. -1.
        1   -1    0    0  501    0  0.00000000000E+00  0.00000000000E+00 -0.10695199676E+04  0.10695199676E+04  0.50400001928E-02 0.  1.
    10030    2    1    2    0    0  0.00000000000E+00  0.00000000000E+00 -0.47347845528E+03  0.16655614800E+04  0.15968447627E+04 0.  0.
        1    1    3    3  502    0 -0.47222267680E+03 -0.20573106345E+03  0.39956103137E+03  0.65189611501E+03  0.50400001928E-02 0. -1.
       -1    1    3    3    0  502  0.47222267680E+03  0.20573106345E+03 -0.87303948665E+03  0.10136653650E+04  0.50400001928E-02 0.  1.
</event>
<event>
 5   0  0.9673017E-05  0.1593371E+04  0.7818609E-02  0.8824631E-01
       -1   -1    0    0    0  501  0.00000000000E+00  0.00000000000E+00  0.34404803610E+03  0.34404803614E+03  0.50400001928E-02 0.  1.
        1   -1    0    0  501    0  0.00000000000E+00  0.00000000000E+00 -0.18448221771E+04  0.18448221771E+04  0.50400001928E-02 0. -1.
    10030    2    1    2    0    0  0.00000000000E+00  0.00000000000E+00 -0.15007741410E+04  0.21888702133E+04  0.15933705747E+04 0.  0.
        1    1    3    3  502    0  0.47011438120E+03  0.13308843590E+03 -0.16148450619E+04  0.16871409654E+04  0.50400001928E-02 0. -1.
       -1    1    3    3    0  502 -0.47011438120E+03 -0.13308843590E+03  0.11407092085E+03  0.50172924789E+03  0.50400001928E-02 0.  1.
</event>
<event>
 5   0  0.9726935E-05  0.1597442E+04  0.7818609E-02  0.8822121E-01
        1   -1    0    0  501    0  0.00000000000E+00  0.00000000000E+00  0.10185414952E+04  0.10185414952E+04  0.50400001928E-02 0.  1.
       -1   -1    0    0    0  501  0.00000000000E+00  0.00000000000E+00 -0.62634187088E+03  0.62634187090E+03  0.50400001928E-02 0. -1.
    10030    2    1    2    0    0  0.00000000000E+00  0.00000000000E+00  0.39219962434E+03  0.16448833661E+04  0.15974419372E+04 0.  0.
        2    1    3    3  502    0  0.76049849405E+03 -0.30272167181E+02 -0.53335606956E+02  0.76296726701E+03  0.25500000920E-02 0. -1.
       -2    1    3    3    0  502 -0.76049849405E+03  0.30272167181E+02  0.44553523130E+03  0.88191609912E+03  0.25500000920E-02 0.  1.
</event>
<event>
 5   0  0.9616567E-05  0.1597833E+04  0.7818609E-02  0.8821880E-01
       -1   -1    0    0    0  501  0.00000000000E+00  0.00000000000E+00  0.31503834528E+03  0.31503834532E+03  0.50400001928E-02 0.  1.
        1   -1    0    0  501    0  0.00000000000E+00  0.00000000000E+00 -0.20259992717E+04  0.20259992717E+04  0.50400001928E-02 0. -1.
    10030    2    1    2    0    0  0.00000000000E+00  0.00000000000E+00 -0.17109609264E+04  0.23410376170E+04  0.15978328550E+04 0.  0.
        5    1    3    3  502    0  0.17958004809E+03 -0.58786617079E+03 -0.16031430638E+04  0.17169523585E+04  0.46999998093E+01 0. -1.
       -5    1    3    3    0  502 -0.17958004809E+03  0.58786617079E+03 -0.10781786266E+03  0.62408525855E+03  0.46999998093E+01 0.  1.
</event>
<event>
 5   0  0.9726935E-05  0.1600960E+04  0.7818609E-02  0.8819958E-01
        1   -1    0    0  501    0  0.00000000000E+00  0.00000000000E+00  0.38078855570E+03  0.38078855573E+03  0.50400001928E-02 0.  1.
       -1   -1    0    0    0  501  0.00000000000E+00  0.00000000000E+00 -0.16827407288E+04  0.16827407288E+04  0.50400001928E-02 0. -1.
    10030    2    1    2    0    0  0.00000000000E+00  0.00000000000E+00 -0.13019521731E+04  0.20635292845E+04  0.16009602266E+04 0.  0.
        2    1    3    3  502    0  0.63087640803E+03  0.25640514948E+03 -0.10867437069E+03  0.68960768683E+03  0.25500000920E-02 0.  1.
       -2    1    3    3    0  502 -0.63087640803E+03 -0.25640514948E+03 -0.11932778024E+04  0.13739215977E+04  0.25500000920E-02 0. -1.
</event>
<event>
 5   0  0.1774934E-04  0.1588164E+04  0.7818609E-02  0.8827852E-01
       -2   -1    0    0    0  501  0.00000000000E+00  0.00000000000E+00  0.38331222242E+03  0.38331222242E+03  0.25500000920E-02 0. -1.
        2   -1    0    0  501    0  0.00000000000E+00  0.00000000000E+00 -0.16450464078E+04  0.16450464078E+04  0.25500000920E-02 0.  1.
    10030    2    1    2    0    0  0.00000000000E+00  0.00000000000E+00 -0.12617341853E+04  0.20283586302E+04  0.15881642164E+04 0.  0.
        1    1    3    3  502    0  0.53803777790E+03  0.28216876360E+03  0.22194389645E+02  0.60794444858E+03  0.50400001928E-02 0. -1.
       -1    1    3    3    0  502 -0.53803777790E+03 -0.28216876360E+03 -0.12839285750E+04  0.14204141816E+04  0.50400001928E-02 0.  1.
</event>
<event>
 5   0  0.1774934E-04  0.1600535E+04  0.7818609E-02  0.8820219E-01
        2   -1    0    0  501    0  0.00000000000E+00  0.00000000000E+00  0.12059079370E+04  0.12059079370E+04  0.25500000920E-02 0.  1.
       -2   -1    0    0    0  501  0.00000000000E+00  0.00000000000E+00 -0.53107545308E+03  0.53107545309E+03  0.25500000920E-02 0. -1.
    10030    2    1    2    0    0  0.00000000000E+00  0.00000000000E+00  0.67483248396E+03  0.17369833901E+04  0.16005350406E+04 0.  0.
        1    1    3    3  502    0  0.59968301275E+03 -0.10968857188E+03  0.90005075987E+03  0.10870798816E+04  0.50400001928E-02 0.  1.
       -1    1    3    3    0  502 -0.59968301275E+03  0.10968857188E+03 -0.22521827591E+03  0.64990350854E+03  0.50400001928E-02 0. -1.
</event>
<event>
 5   0  0.1832646E-04  0.1609321E+04  0.7818609E-02  0.8814842E-01
       -2   -1    0    0    0  501  0.00000000000E+00  0.00000000000E+00  0.35205637383E+03  0.35205637384E+03  0.25500000920E-02 0. -1.
        2   -1    0    0  501    0  0.00000000000E+00  0.00000000000E+00 -0.18391322523E+04  0.18391322523E+04  0.25500000920E-02 0.  1.
    10030    2    1    2    0    0  0.00000000000E+00  0.00000000000E+00 -0.14870758784E+04  0.21911886261E+04  0.16093206414E+04 0.  0.
        2    1    3    3  502    0 -0.60219180352E+03  0.23095279393E+03 -0.88424514708E+02  0.65099389863E+03  0.25500000920E-02 0. -1.
       -2    1    3    3    0  502  0.60219180352E+03 -0.23095279393E+03 -0.13986513637E+04  0.15401947275E+04  0.25500000920E-02 0.  1.
</event>
<event>
 5   0  0.9432152E-05  0.1610911E+04  0.7818609E-02  0.8813873E-01
       -1   -1    0    0    0  501  0.00000000000E+00  0.00000000000E+00  0.63402694918E+03  0.63402694920E+03  0.50400001928E-02 0. -1.
        1   -1    0    0  501    0  0.00000000000E+00  0.00000000000E+00 -0.10232346108E+04  0.10232346108E+04  0.50400001928E-02 0.  1.
    10030    2    1    2    0    0  0.00000000000E+00  0.00000000000E+00 -0.38920766161E+03  0.16572615600E+04  0.16109106972E+04 0.  0.
        4    1    3    3  502    0  0.27035441830E+03 -0.65797102686E+03  0.19407546430E+03  0.73734949815E+03  0.12699999809E+01 0. -1.
       -4    1    3    3    0  502 -0.27035441830E+03  0.65797102686E+03 -0.58328312591E+03  0.91991206186E+03  0.12699999809E+01 0.  1.
</event>
<event>
 5   0  0.9432152E-05  0.1605891E+04  0.7818609E-02  0.8816937E-01
       -1   -1    0    0    0  501  0.00000000000E+00  0.00000000000E+00  0.26774731782E+03  0.26774731787E+03  0.50400001928E-02 0. -1.
        1   -1    0    0  501    0  0.00000000000E+00  0.00000000000E+00 -0.24079485744E+04  0.24079485744E+04  0.50400001928E-02 0.  1.
    10030    2    1    2    0    0  0.00000000000E+00  0.00000000000E+00 -0.21402012566E+04  0.26756958923E+04  0.16058913691E+04 0.  0.
        4    1    3    3  502    0 -0.71615294624E+03  0.36153450630E+03 -0.10138954892E+04  0.12928913015E+04  0.12699999809E+01 0. -1.
       -4    1    3    3    0  502  0.71615294624E+03 -0.36153450630E+03 -0.11263057674E+04  0.13828045908E+04  0.12699999809E+01 0.  1.
</event>
<event>
 5   0  0.9673017E-05  0.1596188E+04  0.7818609E-02  0.8822893E-01
        1   -1    0    0  501    0  0.00000000000E+00  0.00000000000E+00  0.43795746840E+03  0.43795746843E+03  0.50400001928E-02 0. -1.
       -1   -1    0    0    0  501  0.00000000000E+00  0.00000000000E+00 -0.14543740422E+04  0.14543740422E+04  0.50400001928E-02 0.  1.
    10030    2    1    2    0    0  0.00000000000E+00  0.00000000000E+00 -0.10164165738E+04  0.18923315107E+04  0.15961879259E+04 0.  0.
        1    1    3    3  502    0 -0.25902295200E+03  0.51496677713E+03 -0.11625856415E+04  0.12976475042E+04  0.50400001928E-02 0.  1.
       -1    1    3    3    0  502  0.25902295200E+03 -0.51496677713E+03  0.14616906768E+03  0.59468400650E+03  0.50400001928E-02 0. -1.
</event>
<event>
 5   0  0.9726935E-05  0.1601087E+04  0.7818609E-02  0.8819880E-01
        1   -1    0    0  501    0  0.00000000000E+00  0.00000000000E+00  0.71761956778E+03  0.71761956780E+03  0.50400001928E-02 0.  1.
       -1   -1    0    0    0  501  0.00000000000E+00  0.00000000000E+00 -0.89304969403E+03  0.89304969405E+03  0.50400001928E-02 0. -1.
    10030    2    1    2    0    0  0.00000000000E+00  0.00000000000E+00 -0.17543012625E+03  0.16106692618E+04  0.16010870501E+04 0.  0.
        2    1    3    3  502    0  0.78349901330E+03 -0.15583086426E+03 -0.14014196320E+03  0.81104483967E+03  0.25500000920E-02 0. -1.
       -2    1    3    3    0  502 -0.78349901330E+03  0.15583086426E+03 -0.35288163048E+02  0.79962442218E+03  0.25500000920E-02 0.  1.
</event>
<event>
 5   0  0.9726935E-05  0.1594278E+04  0.7818609E-02  0.8824071E-01
       -1   -1    0    0    0  501  0.00000000000E+00  0.00000000000E+00  0.47614664003E+03  0.47614664005E+03  0.50400001928E-02 0.  1.
        1   -1    0    0  501    0  0.00000000000E+00  0.00000000000E+00 -0.13345271410E+04  0.13345271410E+04  0.50400001928E-02 0. -1.
    10030    2    1    2    0    0  0.00000000000E+00  0.00000000000E+00 -0.85838050092E+03  0.18106737810E+04  0.15942780363E+04 0.  0.
        2    1    3    3  502    0 -0.14403119491E+03 -0.10975402193E+03  0.45247761708E+03  0.48736734032E+03  0.25500000920E-02 0.  1.
       -2    1    3    3    0  502  0.14403119491E+03  0.10975402193E+03 -0.13108581180E+04  0.13233064407E+04  0.25500000920E-02 0. -1.
</event>
<event>
 5   0  0.1914170E-04  0.1595793E+04  0.7818609E-02  0.8823136E-01
        2   -1    0    0  501    0  0.00000000000E+00  0.00000000000E+00  0.10803491811E+04  0.10803491811E+04  0.25500000920E-02 0.  1.
       -2   -1    0    0    0  501  0.00000000000E+00  0.00000000000E+00 -0.58929012278E+03  0.58929012279E+03  0.25500000920E-02 0. -1.
    10030    2    1    2    0    0  0.00000000000E+00  0.00000000000E+00  0.49105905831E+03  0.16696393039E+04  0.15957933470E+04 0.  0.
        3    1    3    3  502    0  0.41755247325E+03 -0.47891816453E+03  0.75048767307E+03  0.98333332795E+03  0.10100000352E+00 0.  1.
       -3    1    3    3    0  502 -0.41755247325E+03  0.47891816453E+03 -0.25942861477E+03  0.68630597592E+03  0.10100000352E+00 0. -1.
</event>
<event>
 5   0  0.1774934E-04  0.1587632E+04  0.7818609E-02  0.8828182E-01
        2   -1    0    0  501    0  0.00000000000E+00  0.00000000000E+00  0.84376121711E+03  0.84376121711E+03  0.25500000920E-02 0.  1.
       -2   -1    0    0    0  501  0.00000000000E+00  0.00000000000E+00 -0.74682746034E+03  0.74682746034E+03  0.25500000920E-02 0. -1.
    10030    2    1    2    0    0  0.00000000000E+00  0.00000000000E+00  0.96933756768E+02  0.15905886775E+04  0.15876322583E+04 0.  0.
        1    1    3    3  502    0 -0.45532467556E+03  0.46781236560E+03 -0.40401013926E+03  0.76771945542E+03  0.50400001928E-02 0. -1.
       -1    1    3    3    0  502  0.45532467556E+03 -0.46781236560E+03  0.50094389603E+03  0.82286922204E+03  0.50400001928E-02 0.  1.
</event>
<event>
 5   0  0.1914170E-04  0.1577860E+04  0.7818609E-02  0.8834266E-01
       -2   -1    0    0    0  501  0.00000000000E+00  0.00000000000E+00  0.72834105034E+03  0.72834105034E+03  0.25500000920E-02 0.  1.
        2   -1    0    0  501    0  0.00000000000E+00  0.00000000000E+00 -0.85455890562E+03  0.85455890562E+03  0.25500000920E-02 0. -1.
    10030    2    1    2    0    0  0.00000000000E+00  0.00000000000E+00 -0.12621785528E+03  0.15828999560E+04  0.15778597287E+04 0.  0.
        3    1    3    3  502    0  0.14781185832E+03 -0.10505283183E+03  0.70714959418E+03  0.73003082242E+03  0.10100000352E+00 0.  1.
       -3    1    3    3    0  502 -0.14781185832E+03  0.10505283183E+03 -0.83336744946E+03  0.85286913354E+03  0.10100000352E+00 0. -1.
</event>
<event>
 5   0  0.9673017E-05  0.1600657E+04  0.7818609E-02  0.8820145E-01
        1   -1    0    0  501    0  0.00000000000E+00  0.00000000000E+00  0.79613136287E+03  0.79613136288E+03  0.50400001928E-02 0.  1.
       -1   -1    0    0    0  501  0.00000000000E+00  0.00000000000E+00 -0.80454771541E+03  0.80454771543E+03  0.50400001928E-02 0. -1.
    10030    2    1    2    0    0  0.00000000000E+00  0.00000000000E+00 -0.84163525412E+01  0.16006790783E+04  0.16006569516E+04 0.  0.
        1    1    3    3  502    0  0.38841528024E+03  0.29269766433E+03 -0.63981692830E+03  0.80368156281E+03  0.50400001928E-02 0. -1.
       -1    1    3    3    0  502 -0.38841528024E+03 -0.29269766433E+03  0.63140057576E+03  0.79699751551E+03  0.50400001928E-02 0.  1.
</event>
<event>
 5   0  0.1832646E-04  0.1594388E+04  0.7818609E-02  0.8824003E-01
        2   -1    0    0  501    0  0.00000000000E+00  0.00000000000E+00  0.76619804114E+03  0.76619804115E+03  0.25500000920E-02 0.  1.
       -2   -1    0    0    0  501  0.00000000000E+00  0.00000000000E+00 -0.82944425942E+03  0.82944425942E+03  0.25500000920E-02 0. -1.
    10030    2    1    2    0    0  0.00000000000E+00  0.00000000000E+00 -0.63246218272E+02  0.15956423006E+04  0.15943883678E+04 0.  0.
        2    1    3    3  502    0  0.78614157376E+03  0.22953553796E+02 -0.16200652550E+03  0.80298913687E+03  0.25500000920E-02 0.  1.
       -2    1    3    3    0  502 -0.78614157376E+03 -0.22953553796E+02  0.98760307225E+02  0.79265316370E+03  0.25500000920E-02 0. -1.
</event>
<event>
 5   0  0.1832646E-04  0.1601655E+04  0.7818609E-02  0.8819532E-01
        2   -1    0    0  501    0  0.00000000000E+00  0.00000000000E+00  0.59341608046E+03  0.59341608046E+03  0.25500000920E-02 0. -1.
       -2   -1    0    0    0  501  0.00000000000E+00  0.00000000000E+00 -0.10807330516E+04  0.10807330516E+04  0.25500000920E-02 0.  1.
    10030    2    1    2    0    0  0.00000000000E+00  0.00000000000E+00 -0.48731697112E+03  0.16741491320E+04  0.16016546088E+04 0.  0.
        2    1    3    3  502    0  0.93943736660E+02  0.75264275477E+03  0.24930862409E+02  0.75889267349E+03  0.25500000920E-02 0. -1.
       -2    1    3    3    0  502 -0.93943736660E+02 -0.75264275477E+03 -0.51224783353E+03  0.91525645855E+03  0.25500000920E-02 0.  1.
</event>
<event>
 5   0  0.9432152E-05  0.1601972E+04  0.7818609E-02  0.8819338E-01
       -1   -1    0    0    0  501  0.00000000000E+00  0.00000000000E+00  0.10871635502E+04  0.10871635503E+04  0.50400001928E-02 0. -1.
        1   -1    0    0  501    0  0.00000000000E+00  0.00000000000E+00 -0.59013964241E+03  0.59013964243E+03  0.50400001928E-02 0.  1.
    10030    2    1    2    0    0  0.00000000000E+00  0.00000000000E+00  0.49702390784E+03  0.16773031927E+04  0.16019716712E+04 0.  0.
        4    1    3    3  502    0 -0.23693825807E+03  0.25263689549E+03 -0.50767702648E+03  0.61457523154E+03  0.12699999809E+01 0.  1.
       -4    1    3    3    0  502  0.23693825807E+03 -0.25263689549E+03  0.10047009343E+04  0.10627279612E+04  0.12699999809E+01 0. -1.
</event>
<event>
 5   0  0.9432152E-05  0.1567075E+04  0.7818609E-02  0.8841034E-01
        1   -1    0    0  501    0  0.00000000000E+00  0.00000000000E+00  0.16845502798E+04  0.16845502798E+04  0.50400001928E-02 0. -1.
       -1   -1    0    0    0  501  0.00000000000E+00  0.00000000000E+00 -0.36444816267E+03  0.36444816270E+03  0.50400001928E-02 0.  1.
    10030    2    1    2    0    0  0.00000000000E+00  0.00000000000E+00  0.13201021172E+04  0.20489984425E+04  0.15670753070E+04 0.  0.
        4    1    3    3  502    0  0.22318076093E+02  0.62941050080E+03  0.12695256535E+04  0.14171636013E+04  0.12699999809E+01 0. -1.
       -4    1    3    3    0  502 -0.22318076093E+02 -0.62941050080E+03  0.50576463669E+02  0.63183484125E+03  0.12699999809E+01 0.  1.
</event>
<event>
 5   0  0.9616567E-05  0.1609107E+04  0.7818609E-02  0.8814973E-01
       -1   -1    0    0    0  501  0.00000000000E+00  0.00000000000E+00  0.92709157200E+03  0.92709157201E+03  0.50400001928E-02 0. -1.
        1   -1    0    0  501    0  0.00000000000E+00  0.00000000000E+00 -0.69821146761E+03  0.69821146763E+03  0.50400001928E-02 0.  1.
    10030    2    1    2    0    0  0.00000000000E+00  0.00000000000E+00  0.22888010439E+03  0.16253030396E+04  0.16091065435E+04 0.  0.
        5    1    3    3  502    0  0.37002846920E+02  0.40000811709E+03  0.81852757546E+03  0.91180326069E+03  0.46999998093E+01 0. -1.
       -5    1    3    3    0  502 -0.37002846920E+02 -0.40000811709E+03 -0.58964747107E+03  0.71349977895E+03  0.46999998093E+01 0.  1.
</event>
<event>
 5   0  0.1858913E-04  0.1600338E+04  0.7818609E-02  0.8820340E-01
       -2   -1    0    0    0  501  0.00000000000E+00  0.00000000000E+00  0.22157303265E+03  0.22157303266E+03  0.25500000920E-02 0. -1.
        2   -1    0    0  501    0  0.00000000000E+00  0.00000000000E+00 -0.28896580453E+04  0.28896580453E+04  0.25500000920E-02 0.  1.
    10030    2    1    2    0    0  0.00000000000E+00  0.00000000000E+00 -0.26680850127E+04  0.31112310780E+04  0.16003378349E+04 0.  0.
        4    1    3    3  502    0 -0.80933405740E+02  0.13325810635E+03 -0.28598407584E+04  0.28640877632E+04  0.12699999809E+01 0.  1.
       -4    1    3    3    0  502  0.80933405740E+02 -0.13325810635E+03  0.19175574578E+03  0.24714331472E+03  0.12699999809E+01 0. -1.
</event>
<event>
 5   0  0.9616567E-05  0.1606602E+04  0.7818609E-02  0.8816502E-01
        1   -1    0    0  501    0  0.00000000000E+00  0.00000000000E+00  0.13796859798E+04  0.13796859798E+04  0.50400001928E-02 0. -1.
       -1   -1    0    0    0  501  0.00000000000E+00  0.00000000000E+00 -0.46770968759E+03  0.46770968762E+03  0.50400001928E-02 0.  1.
    10030    2    1    2    0    0  0.00000000000E+00  0.00000000000E+00  0.91197629220E+03  0.18473956674E+04  0.16066020025E+04 0.  0.
        5    1    3    3  502    0  0.16183200032E+03 -0.24765409751E+03  0.13147460138E+04  0.13476280344E+04  0.46999998093E+01 0. -1.
       -5    1    3    3    0  502 -0.16183200032E+03  0.24765409751E+03 -0.40276972161E+03  0.49976763299E+03  0.46999998093E+01 0.  1.
</event>
<event>
 5   0  0.1774934E-04  0.1594789E+04  0.7818609E-02  0.8823756E-01
       -2   -1    0    0    0  501  0.00000000000E+00  0.00000000000E+00  0.12600623934E+04  0.12600623934E+04  0.25500000920E-02 0. -1.
        2   -1    0    0  501    0  0.00000000000E+00  0.00000000000E+00 -0.50460826530E+03  0.50460826531E+03  0.25500000920E-02 0.  1.
    10030    2    1    2    0    0  0.00000000000E+00  0.00000000000E+00  0.75545412805E+03  0.17646706587E+04  0.15947888870E+04 0.  0.
        1    1    3    3  502    0  0.28124139046E+03 -0.69252330501E+03  0.70375172671E+02  0.75075822516E+03  0.50400001928E-02 0.  1.
       -1    1    3    3    0  502 -0.28124139046E+03  0.69252330501E+03  0.68507895538E+03  0.10139124335E+04  0.50400001928E-02 0. -1.
</event>
<event>
 5   0  0.9616567E-05  0.1606512E+04  0.7818609E-02  0.8816557E-01
        1   -1    0    0  501    0  0.00000000000E+00  0.00000000000E+00  0.14129661899E+04  0.14129661899E+04  0.50400001928E-02 0.  1.
       -1   -1    0    0    0  501  0.00000000000E+00  0.00000000000E+00 -0.45664226893E+03  0.45664226896E+03  0.50400001928E-02 0. -1.
    10030    2    1    2    0    0  0.00000000000E+00  0.00000000000E+00  0.95632392093E+03  0.18696084588E+04  0.16065118573E+04 0.  0.
        5    1    3    3  502    0 -0.36314338401E+03  0.22251074699E+03 -0.31440978146E+03  0.52939564652E+03  0.46999998093E+01 0. -1.
       -5    1    3    3    0  502  0.36314338401E+03 -0.22251074699E+03  0.12707337024E+04  0.13402128123E+04  0.46999998093E+01 0.  1.
</event>
<event>
 5   0  0.9939872E-05  0.1606081E+04  0.7818609E-02  0.8816821E-01
        1   -1    0    0  501    0  0.00000000000E+00  0.00000000000E+00  0.14531531131E+04  0.14531531131E+04  0.50400001928E-02 0. -1.
       -1   -1    0    0    0  501  0.00000000000E+00  0.00000000000E+00 -0.44377594152E+03  0.44377594155E+03  0.50400001928E-02 0.  1.
    10030    2    1    2    0    0  0.00000000000E+00  0.00000000000E+00  0.10093771716E+04  0.18969290546E+04  0.16060814313E+04 0.  0.
        3    1    3    3  502    0 -0.63410814253E+03  0.40559577539E+03  0.17425028445E+03  0.77263461046E+03  0.10100000352E+00 0.  1.
       -3    1    3    3    0  502  0.63410814253E+03 -0.40559577539E+03  0.83512688712E+03  0.11242944442E+04  0.10100000352E+00 0. -1.
</event>
<event>
 5   0  0.9939872E-05  0.1567591E+04  0.7818609E-02  0.8840709E-01
        1   -1    0    0  501    0  0.00000000000E+00  0.00000000000E+00  0.11188002411E+04  0.11188002411E+04  0.50400001928E-02 0.  1.
       -1   -1    0    0    0  501  0.00000000000E+00  0.00000000000E+00 -0.54910201699E+03  0.54910201702E+03  0.50400001928E-02 0. -1.
    10030    2    1    2    0    0  0.00000000000E+00  0.00000000000E+00  0.56969822414E+03  0.16679022582E+04  0.15675911062E+04 0.  0.
        3    1    3    3  502    0  0.22102918595E+03 -0.78202831707E+02  0.10806158639E+04  0.11057577671E+04  0.10100000352E+00 0.  1.
       -3    1    3    3    0  502 -0.22102918595E+03  0.78202831707E+02 -0.51091763981E+03  0.56214449104E+03  0.10100000352E+00 0. -1.
</event>
<event>
 5   0  0.9616567E-05  0.1597774E+04  0.7818609E-02  0.8821917E-01
        1   -1    0    0  501    0  0.00000000000E+00  0.00000000000E+00  0.11430692159E+04  0.11430692159E+04  0.50400001928E-02 0.  1.
       -1   -1    0    0    0  501  0.00000000000E+00  0.00000000000E+00 -0.55833905030E+03  0.55833905032E+03  0.50400001928E-02 0. -1.
    10030    2    1    2    0    0  0.00000000000E+00  0.00000000000E+00  0.58473016558E+03  0.17014082662E+04  0.15977736767E+04 0.  0.
        5    1    3    3  502    0  0.79198723905E+03  0.14942220992E+02  0.18205529342E+03  0.81279350185E+03  0.46999998093E+01 0. -1.
       -5    1    3    3    0  502 -0.79198723905E+03 -0.14942220992E+02  0.40267487215E+03  0.88861476437E+03  0.46999998093E+01 0.  1.
</event>
<event>
 5   0  0.1858913E-04  0.1592460E+04  0.7818609E-02  0.8825193E-01
       -2   -1    0    0    0  501  0.00000000000E+00  0.00000000000E+00  0.67971554250E+03  0.67971554251E+03  0.25500000920E-02 0. -1.
        2   -1    0    0  501    0  0.00000000000E+00  0.00000000000E+00 -0.93271726467E+03  0.93271726467E+03  0.25500000920E-02 0.  1.
    10030    2    1    2    0    0  0.00000000000E+00  0.00000000000E+00 -0.25300172216E+03  0.16124328072E+04  0.15924602621E+04 0.  0.
        4    1    3    3  502    0 -0.76510970487E+03  0.20508197495E+03 -0.44683138073E+02  0.79337864394E+03  0.12699999809E+01 0.  1.
       -4    1    3    3    0  502  0.76510970487E+03 -0.20508197495E+03 -0.20831858409E+03  0.81905416324E+03  0.12699999809E+01 0. -1.
</event>
<event>
 5   0  0.1914170E-04  0.1613428E+04  0.7818609E-02  0.8812341E-01
        2   -1    0    0  501    0  0.00000000000E+00  0.00000000000E+00  0.16301491838E+04  0.16301491838E+04  0.25500000920E-02 0.  1.
       -2   -1    0    0    0  501  0.00000000000E+00  0.00000000000E+00 -0.39921954365E+03  0.39921954366E+03  0.25500000920E-02 0. -1.
    10030    2    1    2    0    0  0.00000000000E+00  0.00000000000E+00  0.12309296401E+04  0.20293687275E+04  0.16134279200E+04 0.  0.
        3    1    3    3  502    0  0.86335815510E+02 -0.21360658264E+02 -0.39303407101E+03  0.40297139097E+03  0.10100000352E+00 0. -1.
       -3    1    3    3    0  502 -0.86335815510E+02  0.21360658264E+02  0.16239637112E+04  0.16263973365E+04  0.10100000352E+00 0.  1.
</event>
<event>
 5   0  0.1832646E-04  0.1599593E+04  0.7818609E-02  0.8820798E-01
       -2   -1    0    0    0  501  0.00000000000E+00  0.00000000000E+00  0.74018582410E+03  0.74018582410E+03  0.25500000920E-02 0. -1.
        2   -1    0    0  501    0  0.00000000000E+00  0.00000000000E+00 -0.86420835652E+03  0.86420835652E+03  0.25500000920E-02 0.  1.
    10030    2    1    2    0    0  0.00000000000E+00  0.00000000000E+00 -0.12402253242E+03  0.16043941806E+04  0.15995934165E+04 0.  0.
        2    1    3    3  502    0 -0.59438903268E+03  0.22642248344E+03  0.42432469602E+03  0.76460245280E+03  0.25500000920E-02 0. -1.
       -2    1    3    3    0  502  0.59438903268E+03 -0.22642248344E+03 -0.54834722844E+03  0.83979172782E+03  0.25500000920E-02 0.  1.
</event>
<event>
 5   0  0.1774934E-04  0.1654304E+04  0.7818609E-02  0.8787864E-01
       -2   -1    0    0    0  501  0.00000000000E+00  0.00000000000E+00  0.61534458860E+03  0.61534458861E+03  0.25500000920E-02 0.  1.
        2   -1    0    0  501    0  0.00000000000E+00  0.00000000000E+00 -0.11118652417E+04  0.11118652417E+04  0.25500000920E-02 0. -1.
    10030    2    1    2    0    0  0.00000000000E+00  0.00000000000E+00 -0.49652065307E+03  0.17272098303E+04  0.16543037928E+04 0.  0.
        1    1    3    3  502    0 -0.49536461719E+03 -0.65776786632E+03 -0.16647827642E+03  0.84009504609E+03  0.50400001928E-02 0. -1.
       -1    1    3    3    0  502  0.49536461719E+03  0.65776786632E+03 -0.33004237665E+03  0.88711478419E+03  0.50400001928E-02 0.  1.
</event>
<event>
 5   0  0.1835088E-04  0.1588380E+04  0.7818609E-02  0.8827718E-01
       -2   -1    0    0    0  501  0.00000000000E+00  0.00000000000E+00  0.49047347555E+03  0.49047347555E+03  0.25500000920E-02 0.  1.
        2   -1    0    0  501    0  0.00000000000E+00  0.00000000000E+00 -0.12859776878E+04  0.12859776878E+04  0.25500000920E-02 0. -1.
    10030    2    1    2    0    0  0.00000000000E+00  0.00000000000E+00 -0.79550421226E+03  0.17764511634E+04  0.15883802391E+04 0.  0.
        5    1    3    3  502    0  0.21086754411E+03  0.23869331279E+03  0.41590232769E+03  0.52386682937E+03  0.46999998093E+01 0.  1.
       -5    1    3    3    0  502 -0.21086754411E+03 -0.23869331279E+03 -0.12114065400E+04  0.12525843340E+04  0.46999998093E+01 0. -1.
</event>
<event>
 5   0  0.1914170E-04  0.1598782E+04  0.7818609E-02  0.8821296E-01
        2   -1    0    0  501    0  0.00000000000E+00  0.00000000000E+00  0.17655595280E+04  0.17655595280E+04  0.25500000920E-02 0. -1.
       -2   -1    0    0    0  501  0.00000000000E+00  0.00000000000E+00 -0.36193972906E+03  0.36193972906E+03  0.25500000920E-02 0.  1.
    10030    2    1    2    0    0  0.00000000000E+00  0.00000000000E+00  0.14036197989E+04  0.21274992571E+04  0.15987822081E+04 0.  0.
        3    1    3    3  502    0  0.54124618474E+03  0.16233354049E+03  0.14542456781E+04  0.15601698988E+04  0.10100000352E+00 0. -1.
       -3    1    3    3    0  502 -0.54124618474E+03 -0.16233354049E+03 -0.50625879132E+02  0.56732935822E+03  0.10100000352E+00 0.  1.
</event>
<event>
 5   0  0.9673017E-05  0.1601306E+04  0.7818609E-02  0.8819746E-01
       -1   -1    0    0    0  501  0.00000000000E+00  0.00000000000E+00  0.46106762495E+03  0.46106762498E+03  0.50400001928E-02 0.  1.
        1   -1    0    0  501    0  0.00000000000E+00  0.00000000000E+00 -0.13903490624E+04  0.13903490624E+04  0.50400001928E-02 0. -1.
    10030    2    1    2    0    0  0.00000000000E+00  0.00000000000E+00 -0.92928143746E+03  0.18514166874E+04  0.16013056424E+04 0.  0.
        1    1    3    3  502    0 -0.47524091739E+03 -0.41955346487E+03  0.10079022208E+03  0.64190163447E+03  0.50400001928E-02 0.  1.
       -1    1    3    3    0  502  0.47524091739E+03  0.41955346487E+03 -0.10300716595E+04  0.12095150529E+04  0.50400001928E-02 0. -1.
</event>
<event>
 5   0  0.9939872E-05  0.1592842E+04  0.7818609E-02  0.8824958E-01
        1   -1    0    0  501    0  0.00000000000E+00  0.00000000000E+00  0.96698481586E+03  0.96698481587E+03  0.50400001928E-02 0.  1.
       -1   -1    0    0    0  501  0.00000000000E+00  0.00000000000E+00 -0.65594215352E+03  0.65594215354E+03  0.50400001928E-02 0. -1.
    10030    2    1    2    0    0  0.00000000000E+00  0.00000000000E+00  0.31104266234E+03  0.16229269694E+04  0.15928416149E+04 0.  0.
        3    1    3    3  502    0  0.55303060941E+03  0.36781132937E+03 -0.29227734459E+03  0.72564046560E+03  0.10100000352E+00 0. -1.
       -3    1    3    3    0  502 -0.55303060941E+03 -0.36781132937E+03  0.60332000693E+03  0.89728650381E+03  0.10100000352E+00 0.  1.
</event>
<event>
 5   0  0.9616567E-05  0.1600775E+04  0.7818609E-02  0.8820072E-01
       -1   -1    0    0    0  501  0.00000000000E+00  0.00000000000E+00  0.85360094845E+03  0.85360094846E+03  0.50400001928E-02 0. -1.
        1   -1    0    0  501    0  0.00000000000E+00  0.00000000000E+00 -0.75049145147E+03  0.75049145149E+03  0.50400001928E-02 0.  1.
    10030    2    1    2    0    0  0.00000000000E+00  0.00000000000E+00  0.10310949698E+03  0.16040924000E+04  0.16007750808E+04 0.  0.
        5    1    3    3  502    0 -0.40878641347E+03  0.53025071653E+02 -0.63592831047E+03  0.75785545860E+03  0.46999998093E+01 0.  1.
       -5    1    3    3    0  502  0.40878641347E+03 -0.53025071653E+02  0.73903780745E+03  0.84623694135E+03  0.46999998093E+01 0. -1.
</event>
<event>
 5   0  0.9939872E-05  0.1607584E+04  0.7818609E-02  0.8815903E-01
       -1   -1    0    0    0  501  0.00000000000E+00  0.00000000000E+00  0.87870856359E+03  0.87870856360E+03  0.50400001928E-02 0.  1.
        1   -1    0    0  501    0  0.00000000000E+00  0.00000000000E+00 -0.73526218864E+03  0.73526218865E+03  0.50400001928E-02 0. -1.
    10030    2    1    2    0    0  0.00000000000E+00  0.00000000000E+00  0.14344637495E+03  0.16139707523E+04  0.16075835053E+04 0.  0.
        3    1    3    3  502    0 -0.49945982663E+03 -0.21850273911E+03 -0.52128223650E+03  0.75428028325E+03  0.10100000352E+00 0. -1.
       -3    1    3    3    0  502  0.49945982663E+03  0.21850273911E+03  0.66472861145E+03  0.85969046900E+03  0.10100000352E+00 0.  1.
</event>
<event>
 5   0  0.1832646E-04  0.1599657E+04  0.7818609E-02  0.8820759E-01
       -2   -1    0    0    0  501  0.00000000000E+00  0.00000000000E+00  0.63714302077E+03  0.63714302077E+03  0.25500000920E-02 0.  1.
        2   -1    0    0  501    0  0.00000000000E+00  0.00000000000E+00 -0.10040532723E+04  0.10040532723E+04  0.25500000920E-02 0. -1.
    10030    2    1    2    0    0  0.00000000000E+00  0.00000000000E+00 -0.36691025156E+03  0.16411962931E+04  0.15996568819E+04 0.  0.
        2    1    3    3  502    0  0.46860543629E+03  0.43066768583E+03 -0.68045131567E+03  0.93170794970E+03  0.25500000920E-02 0. -1.
       -2    1    3    3    0  502 -0.46860543629E+03 -0.43066768583E+03  0.31354106411E+03  0.70948834340E+03  0.25500000920E-02 0.  1.
</event>
<event>
 5   0  0.1914170E-04  0.1597069E+04  0.7818609E-02  0.8822351E-01
       -2   -1    0    0    0  501  0.00000000000E+00  0.00000000000E+00  0.11493936719E+04  0.11493936719E+04  0.25500000920E-02 0.  1.
        2   -1    0    0  501    0  0.00000000000E+00  0.00000000000E+00 -0.55477715882E+03  0.55477715883E+03  0.25500000920E-02 0. -1.
    10030    2    1    2    0    0  0.00000000000E+00  0.00000000000E+00  0.59461651311E+03  0.17041708308E+04  0.15970690100E+04 0.  0.
        3    1    3    3  502    0  0.10265972562E+03 -0.52413904144E+03 -0.33613146635E+03  0.63106665804E+03  0.10100000352E+00 0. -1.
       -3    1    3    3    0  502 -0.10265972562E+03  0.52413904144E+03  0.93074797947E+03  0.10731041727E+04  0.10100000352E+00 0.  1.
</event>
<event>
 5   0  0.9939872E-05  0.1586970E+04  0.7818609E-02  0.8828593E-01
       -1   -1    0    0    0  501  0.00000000000E+00  0.00000000000E+00  0.33605812205E+03  0.33605812209E+03  0.50400001928E-02 0.  1.
        1   -1    0    0  501    0  0.00000000000E+00  0.00000000000E+00 -0.18735412846E+04  0.18735412847E+04  0.50400001928E-02 0. -1.
    10030    2    1    2    0    0  0.00000000000E+00  0.00000000000E+00 -0.15374831626E+04  0.22095994067E+04  0.15869704039E+04 0.  0.
        3    1    3    3  502    0 -0.42075403031E+03 -0.25585586989E+03  0.97559719025E+02  0.50201004886E+03  0.10100000352E+00 0.  1.
       -3    1    3    3    0  502  0.42075403031E+03  0.25585586989E+03 -0.16350428816E+04  0.17075893579E+04  0.10100000352E+00 0. -1.
</event>
<event>
 5   0  0.9726935E-05  0.1588715E+04  0.7818609E-02  0.8827511E-01
        1   -1    0    0  501    0  0.00000000000E+00  0.00000000000E+00  0.11675504865E+04  0.11675504865E+04  0.50400001928E-02 0.  1.
       -1   -1    0    0    0  501  0.00000000000E+00  0.00000000000E+00 -0.54045099319E+03  0.54045099321E+03  0.50400001928E-02 0. -1.
    10030    2    1    2    0    0  0.00000000000E+00  0.00000000000E+00  0.62709949330E+03  0.17080014797E+04  0.15887149777E+04 0.  0.
        2    1    3    3  502    0  0.11296874060E+03 -0.27692903698E+02 -0.53124642570E+03  0.54383048655E+03  0.25500000920E-02 0. -1.
       -2    1    3    3    0  502 -0.11296874060E+03  0.27692903698E+02  0.11583459190E+04  0.11641709932E+04  0.25500000920E-02 0.  1.
</event>
<event>
 5   0  0.1832646E-04  0.1592023E+04  0.7818609E-02  0.8825463E-01
       -2   -1    0    0    0  501  0.00000000000E+00  0.00000000000E+00  0.31949657610E+03  0.31949657611E+03  0.25500000920E-02 0.  1.
        2   -1    0    0  501    0  0.00000000000E+00  0.00000000000E+00 -0.19832279781E+04  0.19832279781E+04  0.25500000920E-02 0. -1.
    10030    2    1    2    0    0  0.00000000000E+00  0.00000000000E+00 -0.16637314020E+04  0.23027245543E+04  0.15920233022E+04 0.  0.
        2    1    3    3  502    0  0.22986646173E+03 -0.68435174808E+03 -0.13169184740E+04  0.15018156254E+04  0.25500000920E-02 0.  1.
       -2    1    3    3    0  502 -0.22986646173E+03  0.68435174808E+03 -0.34681292800E+03  0.80090892888E+03  0.25500000920E-02 0. -1.
</event>
<event>
 5   0  0.9432152E-05  0.1552879E+04  0.7818609E-02  0.8850031E-01
       -1   -1    0    0    0  501  0.00000000000E+00  0.00000000000E+00  0.32831119893E+03  0.32831119897E+03  0.50400001928E-02 0.  1.
        1   -1    0    0  501    0  0.00000000000E+00  0.00000000000E+00 -0.18362408944E+04  0.18362408944E+04  0.50400001928E-02 0. -1.
    10030    2    1    2    0    0  0.00000000000E+00  0.00000000000E+00 -0.15079296955E+04  0.21645520934E+04  0.15528791964E+04 0.  0.
        4    1    3    3  502    0  0.36987593246E+03 -0.38656034839E+03 -0.15382958043E+04  0.16286782073E+04  0.12699999809E+01 0. -1.
       -4    1    3    3    0  502 -0.36987593246E+03  0.38656034839E+03  0.30366108839E+02  0.53587388612E+03  0.12699999809E+01 0.  1.
</event>
<event>
 5   0  0.6838750E-05  0.1601713E+04  0.7818609E-02  0.8819496E-01
       -3   -1    0    0    0  501  0.00000000000E+00  0.00000000000E+00  0.14336616544E+04  0.14336616579E+04  0.10100000352E+00 0. -1.
        3   -1    0    0  501    0  0.00000000000E+00  0.00000000000E+00 -0.44736594128E+03  0.44736595268E+03  0.10100000352E+00 0.  1.
    10030    2    1    2    0    0  0.00000000000E+00  0.00000000000E+00  0.98629571309E+03  0.18810276106E+04  0.16017133446E+04 0.  0.
        3    1    3    3  502    0  0.16699248896E+03  0.17169580079E+03 -0.40431984964E+03  0.46993668764E+03  0.10100000352E+00 0.  1.
       -3    1    3    3    0  502 -0.16699248896E+03 -0.17169580079E+03  0.13906155627E+04  0.14110909230E+04  0.10100000352E+00 0. -1.
</event>
<event>
 5   0  0.1774934E-04  0.1603138E+04  0.7818609E-02  0.8818623E-01
       -2   -1    0    0    0  501  0.00000000000E+00  0.00000000000E+00  0.29421981658E+03  0.29421981659E+03  0.25500000920E-02 0.  1.
        2   -1    0    0  501    0  0.00000000000E+00  0.00000000000E+00 -0.21837843294E+04  0.21837843294E+04  0.25500000920E-02 0. -1.
    10030    2    1    2    0    0  0.00000000000E+00  0.00000000000E+00 -0.18895645128E+04  0.24780041460E+04  0.16031377044E+04 0.  0.
        1    1    3    3  502    0  0.55248404540E+03 -0.31864872750E+03 -0.19429197991E+03  0.66672708468E+03  0.50400001928E-02 0.  1.
       -1    1    3    3    0  502 -0.55248404540E+03  0.31864872750E+03 -0.16952725329E+04  0.18112770613E+04  0.50400001928E-02 0. -1.
</event>
<event>
 5   0  0.9432152E-05  0.1596736E+04  0.7818609E-02  0.8822556E-01
       -1   -1    0    0    0  501  0.00000000000E+00  0.00000000000E+00  0.40361728242E+03  0.40361728245E+03  0.50400001928E-02 0. -1.
        1   -1    0    0  501    0  0.00000000000E+00  0.00000000000E+00 -0.15791972321E+04  0.15791972321E+04  0.50400001928E-02 0.  1.
    10030    2    1    2    0    0  0.00000000000E+00  0.00000000000E+00 -0.11755799497E+04  0.19828145146E+04  0.15967357894E+04 0.  0.
        4    1    3    3  502    0 -0.81044058705E+02 -0.37401129871E+03  0.28229556737E+03  0.47554704423E+03  0.12699999809E+01 0. -1.
       -4    1    3    3    0  502  0.81044058705E+02  0.37401129871E+03 -0.14578755171E+04  0.15072674703E+04  0.12699999809E+01 0.  1.
</event>
<event>
 5   0  0.9673017E-05  0.1599455E+04  0.7818609E-02  0.8820883E-01
       -1   -1    0    0    0  501  0.00000000000E+00  0.00000000000E+00  0.90673053320E+03  0.90673053321E+03  0.50400001928E-02 0.  1.
        1   -1    0    0  501    0  0.00000000000E+00  0.00000000000E+00 -0.70535144855E+03  0.70535144856E+03  0.50400001928E-02 0. -1.
    10030    2    1    2    0    0  0.00000000000E+00  0.00000000000E+00  0.20137908465E+03  0.16120819818E+04  0.15994545258E+04 0.  0.
        1    1    3    3  502    0 -0.37363332343E+03 -0.19710223779E+03 -0.58372415795E+03  0.72054496398E+03  0.50400001928E-02 0. -1.
       -1    1    3    3    0  502  0.37363332343E+03  0.19710223779E+03  0.78510324260E+03  0.89153701779E+03  0.50400001928E-02 0.  1.
</event>
<event>
 5   0  0.9726935E-05  0.1598888E+04  0.7818609E-02  0.8821231E-01
       -1   -1    0    0    0  501  0.00000000000E+00  0.00000000000E+00  0.39941320421E+03  0.39941320424E+03  0.50400001928E-02 0.  1.
        1   -1    0    0  501    0  0.00000000000E+00  0.00000000000E+00 -0.16001250920E+04  0.16001250920E+04  0.50400001928E-02 0. -1.
    10030    2    1    2    0    0  0.00000000000E+00  0.00000000000E+00 -0.12007118878E+04  0.19995382962E+04  0.15988884766E+04 0.  0.
        2    1    3    3  502    0  0.20320137718E+03 -0.21292930965E+03 -0.15299008697E+04  0.15579558279E+04  0.25500000920E-02 0. -1.
       -2    1    3    3    0  502 -0.20320137718E+03  0.21292930965E+03  0.32918898187E+03  0.44158246838E+03  0.25500000920E-02 0.  1.
</event>
<event>
 5   0  0.1774934E-04  0.1602071E+04  0.7818609E-02  0.8819277E-01
        2   -1    0    0  501    0  0.00000000000E+00  0.00000000000E+00  0.11461794463E+04  0.11461794463E+04  0.25500000920E-02 0.  1.
       -2   -1    0    0    0  501  0.00000000000E+00  0.00000000000E+00 -0.55982324609E+03  0.55982324609E+03  0.25500000920E-02 0. -1.
    10030    2    1    2    0    0  0.00000000000E+00  0.00000000000E+00  0.58635620022E+03  0.17060026924E+04  0.16020710324E+04 0.  0.
        1    1    3    3  502    0 -0.63966687015E+02  0.55706983791E+03 -0.31598096234E+03  0.64363227851E+03  0.50400001928E-02 0. -1.
       -1    1    3    3    0  502  0.63966687015E+02 -0.55706983791E+03  0.90233716256E+03  0.10623704139E+04  0.50400001928E-02 0.  1.
</event>
<event>
 5   0  0.1835088E-04  0.1613977E+04  0.7818609E-02  0.8812007E-01
       -2   -1    0    0    0  501  0.00000000000E+00  0.00000000000E+00  0.33246901586E+03  0.33246901587E+03  0.25500000920E-02 0. -1.
        2   -1    0    0  501    0  0.00000000000E+00  0.00000000000E+00 -0.19587698044E+04  0.19587698045E+04  0.25500000920E-02 0.  1.
    10030    2    1    2    0    0  0.00000000000E+00  0.00000000000E+00 -0.16263007886E+04  0.22912388203E+04  0.16139767894E+04 0.  0.
        5    1    3    3  502    0  0.22995531659E+03  0.63030629940E+02 -0.19076014705E+04  0.19224509794E+04  0.46999998093E+01 0.  1.
       -5    1    3    3    0  502 -0.22995531659E+03 -0.63030629940E+02  0.28130068194E+03  0.36878784090E+03  0.46999998093E+01 0. -1.
</event>
<event>
 5   0  0.9616567E-05  0.1622509E+04  0.7818609E-02  0.8806838E-01
        1   -1    0    0  501    0  0.00000000000E+00  0.00000000000E+00  0.14434897532E+04  0.14434897532E+04  0.50400001928E-02 0. -1.
       -1   -1    0    0    0  501  0.00000000000E+00  0.00000000000E+00 -0.45593221796E+03  0.45593221799E+03  0.50400001928E-02 0.  1.
    10030    2    1    2    0    0  0.00000000000E+00  0.00000000000E+00  0.98755753523E+03  0.18994219712E+04  0.16225085329E+04 0.  0.
        5    1    3    3  502    0  0.22734636088E+03  0.20993178220E+03  0.13716670174E+04  0.14061472959E+04  0.46999998093E+01 0. -1.
       -5    1    3    3    0  502 -0.22734636088E+03 -0.20993178220E+03 -0.38410948221E+03  0.49327467531E+03  0.46999998093E+01 0.  1.
</event>
<event>
 5   0  0.1858913E-04  0.1601395E+04  0.7818609E-02  0.8819691E-01
        2   -1    0    0  501    0  0.00000000000E+00  0.00000000000E+00  0.88792011694E+03  0.88792011695E+03  0.25500000920E-02 0.  1.
       -2   -1    0    0    0  501  0.00000000000E+00  0.00000000000E+00 -0.72204331122E+03  0.72204331123E+03  0.25500000920E-02 0. -1.
    10030    2    1    2    0    0  0.00000000000E+00  0.00000000000E+00  0.16587680572E+03  0.16099634282E+04  0.16013953682E+04 0.  0.
        4    1    3    3  502    0 -0.39431143551E+03 -0.64541356004E+03 -0.18128901422E+03  0.77775799014E+03  0.12699999809E+01 0.  1.
       -4    1    3    3    0  502  0.39431143551E+03  0.64541356004E+03  0.34716581994E+03  0.83220543803E+03  0.12699999809E+01 0. -1.
</event>
<event>
 5   0  0.9673017E-05  0.1603821E+04  0.7818609E-02  0.8818204E-01
        1   -1    0    0  501    0  0.00000000000E+00  0.00000000000E+00  0.10310982004E+04  0.10310982004E+04  0.50400001928E-02 0.  1.
       -1   -1    0    0    0  501  0.00000000000E+00  0.00000000000E+00 -0.62366556284E+03  0.62366556286E+03  0.50400001928E-02 0. -1.
    10030    2    1    2    0    0  0.00000000000E+00  0.00000000000E+00  0.40743263753E+03  0.16547637632E+04  0.16038209869E+04 0.  0.
        1    1    3    3  502    0  0.68495238671E+03 -0.33117326626E+03  0.46519238757E+03  0.89176199842E+03  0.50400001928E-02 0.  1.
       -1    1    3    3    0  502 -0.68495238671E+03  0.33117326626E+03 -0.57759750041E+02  0.76300176481E+03  0.50400001928E-02 0. -1.
</event>
<event>
 5   0  0.9616567E-05  0.1611842E+04  0.7818609E-02  0.8813306E-01
        1   -1    0    0  501    0  0.00000000000E+00  0.00000000000E+00  0.52296806249E+03  0.52296806251E+03  0.50400001928E-02 0.  1.
       -1   -1    0    0    0  501  0.00000000000E+00  0.00000000000E+00 -0.12419669124E+04  0.12419669125E+04  0.50400001928E-02 0. -1.
    10030    2    1    2    0    0  0.00000000000E+00  0.00000000000E+00 -0.71899884995E+03  0.17649349750E+04  0.16118424612E+04 0.  0.
        5    1    3    3  502    0 -0.59399602691E+03  0.34877071975E+03 -0.81758151562E+03  0.10690808761E+04  0.46999998093E+01 0. -1.
       -5    1    3    3    0  502  0.59399602691E+03 -0.34877071975E+03  0.98582665673E+02  0.69585409887E+03  0.46999998093E+01 0.  1.
</event>
<event>
 5   0  0.9726935E-05  0.1600494E+04  0.7818609E-02  0.8820244E-01
        1   -1    0    0  501    0  0.00000000000E+00  0.00000000000E+00  0.10947342567E+04  0.10947342567E+04  0.50400001928E-02 0. -1.
       -1   -1    0    0    0  501  0.00000000000E+00  0.00000000000E+00 -0.58497800049E+03  0.58497800051E+03  0.50400001928E-02 0.  1.
    10030    2    1    2    0    0  0.00000000000E+00  0.00000000000E+00  0.50975625619E+03  0.16797122572E+04  0.16004942444E+04 0.  0.
        2    1    3    3  502    0 -0.24914908274E+03  0.17405855979E+03  0.10318056176E+04  0.10756367789E+04  0.25500000920E-02 0. -1.
       -2    1    3    3    0  502  0.24914908274E+03 -0.17405855979E+03 -0.52204936142E+03  0.60407547826E+03  0.25500000920E-02 0.  1.
</event>
<event>
 5   0  0.9726935E-05  0.1596125E+04  0.7818609E-02  0.8822932E-01
       -1   -1    0    0    0  501  0.00000000000E+00  0.00000000000E+00  0.60864543506E+03  0.60864543508E+03  0.50400001928E-02 0.  1.
        1   -1    0    0  501    0  0.00000000000E+00  0.00000000000E+00 -0.10464279726E+04  0.10464279726E+04  0.50400001928E-02 0. -1.
    10030    2    1    2    0    0  0.00000000000E+00  0.00000000000E+00 -0.43778253756E+03  0.16550734077E+04  0.15961248180E+04 0.  0.
        2    1    3    3  502    0 -0.31879525480E+03 -0.69899264815E+03 -0.44293218145E+03  0.88679763984E+03  0.25500000920E-02 0. -1.
       -2    1    3    3    0  502  0.31879525480E+03  0.69899264815E+03  0.51496438914E+01  0.76827576787E+03  0.25500000920E-02 0.  1.
</event>
<event>
 5   0  0.9616567E-05  0.1616896E+04  0.7818609E-02  0.8810235E-01
       -1   -1    0    0    0  501  0.00000000000E+00  0.00000000000E+00  0.51420415803E+03  0.51420415806E+03  0.50400001928E-02 0. -1.
        1   -1    0    0  501    0  0.00000000000E+00  0.00000000000E+00 -0.12710669448E+04  0.12710669448E+04  0.50400001928E-02 0.  1.
    10030    2    1    2    0    0  0.00000000000E+00  0.00000000000E+00 -0.75686278680E+03  0.17852711029E+04  0.16168956778E+04 0.  0.
        5    1    3    3  502    0 -0.28737292439E+03  0.74354054084E+03 -0.52710096546E+03  0.95566377525E+03  0.46999998093E+01 0.  1.
       -5    1    3    3    0  502  0.28737292439E+03 -0.74354054084E+03 -0.22976182134E+03  0.82960732765E+03  0.46999998093E+01 0. -1.
</event>
<event>
 5   0  0.9616567E-05  0.1602601E+04  0.7818609E-02  0.8818952E-01
       -1   -1    0    0    0  501  0.00000000000E+00  0.00000000000E+00  0.29093019293E+03  0.29093019298E+03  0.50400001928E-02 0. -1.
        1   -1    0    0  501    0  0.00000000000E+00  0.00000000000E+00 -0.22069972502E+04  0.22069972502E+04  0.50400001928E-02 0.  1.
    10030    2    1    2    0    0  0.00000000000E+00  0.00000000000E+00 -0.19160670573E+04  0.24979274432E+04  0.16026005564E+04 0.  0.
        5    1    3    3  502    0  0.37998030060E+03  0.18627679080E+03 -0.20185898998E+04  0.20624769927E+04  0.46999998093E+01 0.  1.
       -5    1    3    3    0  502 -0.37998030060E+03 -0.18627679080E+03  0.10252284253E+03  0.43545045054E+03  0.46999998093E+01 0. -1.
</event>
<event>
 5   0  0.9726935E-05  0.1609456E+04  0.7818609E-02  0.8814760E-01
       -1   -1    0    0    0  501  0.00000000000E+00  0.00000000000E+00  0.30709651871E+03  0.30709651875E+03  0.50400001928E-02 0.  1.
        1   -1    0    0  501    0  0.00000000000E+00  0.00000000000E+00 -0.21087421440E+04  0.21087421440E+04  0.50400001928E-02 0. -1.
    10030    2    1    2    0    0  0.00000000000E+00  0.00000000000E+00 -0.18016456252E+04  0.24158386627E+04  0.16094562701E+04 0.  0.
        2    1    3    3  502    0 -0.84661574543E+02  0.50247974498E+02  0.29802297458E+03  0.31386324176E+03  0.25500000920E-02 0.  1.
       -2    1    3    3    0  502  0.84661574543E+02 -0.50247974498E+02 -0.20996685998E+04  0.21019754209E+04  0.25500000920E-02 0. -1.
</event>
<event>
 5   0  0.9726935E-05  0.1592750E+04  0.7818609E-02  0.8825014E-01
       -1   -1    0    0    0  501  0.00000000000E+00  0.00000000000E+00  0.37066790437E+03  0.37066790440E+03  0.50400001928E-02 0.  1.
        1   -1    0    0  501    0  0.00000000000E+00  0.00000000000E+00 -0.17110016885E+04  0.17110016885E+04  0.50400001928E-02 0. -1.
    10030    2    1    2    0    0  0.00000000000E+00  0.00000000000E+00 -0.13403337842E+04  0.20816695929E+04  0.15927503386E+04 0.  0.
        2    1    3    3  502    0  0.68252618890E+03 -0.40858173543E+03 -0.71963129794E+03  0.10726836617E+04  0.25500000920E-02 0.  1.
       -2    1    3    3    0  502 -0.68252618890E+03  0.40858173543E+03 -0.62070248622E+03  0.10089859313E+04  0.25500000920E-02 0. -1.
</event>
<event>
 5   0  0.6838750E-05  0.1599151E+04  0.7818609E-02  0.8821070E-01
        4   -1    0    0  501    0  0.00000000000E+00  0.00000000000E+00  0.47094259280E+03  0.47094430521E+03  0.12699999809E+01 0.  1.
       -4   -1    0    0    0  501  0.00000000000E+00  0.00000000000E+00 -0.13575310506E+04  0.13575316447E+04  0.12699999809E+01 0. -1.
    10030    2    1    2    0    0  0.00000000000E+00  0.00000000000E+00 -0.88658845783E+03  0.18284759499E+04  0.15991514018E+04 0.  0.
        3    1    3    3  502    0  0.64350370977E+02 -0.23724303207E+03  0.42666713995E+03  0.49241251509E+03  0.10100000352E+00 0.  1.
       -3    1    3    3    0  502 -0.64350370977E+02  0.23724303207E+03 -0.13132555978E+04  0.13360634348E+04  0.10100000352E+00 0. -1.
</event>
<event>
 5   0  0.1774934E-04  0.1598304E+04  0.7818609E-02  0.8821591E-01
        2   -1    0    0  501    0  0.00000000000E+00  0.00000000000E+00  0.92189697565E+03  0.92189697565E+03  0.25500000920E-02 0. -1.
       -2   -1    0    0    0  501  0.00000000000E+00  0.00000000000E+00 -0.69274946632E+03  0.69274946632E+03  0.25500000920E-02 0.  1.
    10030    2    1    2    0    0  0.00000000000E+00  0.00000000000E+00  0.22914750933E+03  0.16146464420E+04  0.15983036481E+04 0.  0.
        1    1    3    3  502    0  0.13848613547E+03  0.63688412341E+02 -0.67792771423E+03  0.69485294080E+03  0.50400001928E-02 0.  1.
       -1    1    3    3    0  502 -0.13848613547E+03 -0.63688412341E+02  0.90707522356E+03  0.91979350118E+03  0.50400001928E-02 0. -1.
</event>
<event>
 5   0  0.9616567E-05  0.1611446E+04  0.7818609E-02  0.8813547E-01
       -1   -1    0    0    0  501  0.00000000000E+00  0.00000000000E+00  0.62387952044E+03  0.62387952046E+03  0.50400001928E-02 0. -1.
        1   -1    0    0  501    0  0.00000000000E+00  0.00000000000E+00 -0.10405683818E+04  0.10405683818E+04  0.50400001928E-02 0.  1.
    10030    2    1    2    0    0  0.00000000000E+00  0.00000000000E+00 -0.41668886134E+03  0.16644479022E+04  0.16114456901E+04 0.  0.
        5    1    3    3  502    0  0.25300691350E+03 -0.71784234802E+03 -0.48134260411E+03  0.90056811370E+03  0.46999998093E+01 0.  1.
       -5    1    3    3    0  502 -0.25300691350E+03  0.71784234802E+03  0.64653742769E+02  0.76387978854E+03  0.46999998093E+01 0. -1.
</event>
<event>
 5   0  0.9726935E-05  0.1601722E+04  0.7818609E-02  0.8819491E-01
        1   -1    0    0  501    0  0.00000000000E+00  0.00000000000E+00  0.65637902546E+03  0.65637902548E+03  0.50400001928E-02 0.  1.
       -1   -1    0    0    0  501  0.00000000000E+00  0.00000000000E+00 -0.97714593581E+03  0.97714593583E+03  0.50400001928E-02 0. -1.
    10030    2    1    2    0    0  0.00000000000E+00  0.00000000000E+00 -0.32076691035E+03  0.16335249613E+04  0.16017216951E+04 0.  0.
        2    1    3    3  502    0  0.38684291783E+03  0.13314116089E+03 -0.86253322768E+03  0.95464002674E+03  0.25500000920E-02 0. -1.
       -2    1    3    3    0  502 -0.38684291783E+03 -0.13314116089E+03  0.54176631733E+03  0.67888493457E+03  0.25500000920E-02 0.  1.
</event>
<event>
 5   0  0.9673017E-05  0.1598859E+04  0.7818609E-02  0.8821249E-01
        1   -1    0    0  501    0  0.00000000000E+00  0.00000000000E+00  0.19136191058E+04  0.19136191058E+04  0.50400001928E-02 0. -1.
       -1   -1    0    0    0  501  0.00000000000E+00  0.00000000000E+00 -0.33396790417E+03  0.33396790421E+03  0.50400001928E-02 0.  1.
    10030    2    1    2    0    0  0.00000000000E+00  0.00000000000E+00  0.15796512016E+04  0.22475870100E+04  0.15988587958E+04 0.  0.
        1    1    3    3  502    0 -0.33209946881E+03 -0.64479333946E+03  0.31719669800E+03  0.79162001809E+03  0.50400001928E-02 0.  1.
       -1    1    3    3    0  502  0.33209946881E+03  0.64479333946E+03  0.12624545037E+04  0.14559669919E+04  0.50400001928E-02 0. -1.
</event>
<event>
 5   0  0.1835088E-04  0.1608139E+04  0.7818609E-02  0.8815564E-01
       -2   -1    0    0    0  501  0.00000000000E+00  0.00000000000E+00  0.10171044488E+04  0.10171044488E+04  0.25500000920E-02 0.  1.
        2   -1    0    0  501    0  0.00000000000E+00  0.00000000000E+00 -0.63565490874E+03  0.63565490874E+03  0.25500000920E-02 0. -1.
    10030    2    1    2    0    0  0.00000000000E+00  0.00000000000E+00  0.38144954010E+03  0.16527593576E+04  0.16081385955E+04 0.  0.
        5    1    3    3  502    0 -0.51128437446E+03  0.15510301705E+03 -0.42681057229E+03  0.68385525668E+03  0.46999998093E+01 0. -1.
       -5    1    3    3    0  502  0.51128437446E+03 -0.15510301705E+03  0.80826011239E+03  0.96890410090E+03  0.46999998093E+01 0.  1.
</event>
<event>
 5   0  0.1835088E-04  0.1597624E+04  0.7818609E-02  0.8822009E-01
       -2   -1    0    0    0  501  0.00000000000E+00  0.00000000000E+00  0.64518233957E+03  0.64518233957E+03  0.25500000920E-02 0.  1.
        2   -1    0    0  501    0  0.00000000000E+00  0.00000000000E+00 -0.98902373115E+03  0.98902373115E+03  0.25500000920E-02 0. -1.
    10030    2    1    2    0    0  0.00000000000E+00  0.00000000000E+00 -0.34384139158E+03  0.16342060707E+04  0.15976240418E+04 0.  0.
        5    1    3    3  502    0  0.73616624937E+03  0.25489896881E+03 -0.35249713534E+03  0.85509680822E+03  0.46999998093E+01 0. -1.
       -5    1    3    3    0  502 -0.73616624937E+03 -0.25489896881E+03  0.86557437577E+01  0.77910926250E+03  0.46999998093E+01 0.  1.
</event>
<event>
 5   0  0.1858913E-04  0.1591907E+04  0.7818609E-02  0.8825535E-01
       -2   -1    0    0    0  501  0.00000000000E+00  0.00000000000E+00  0.10448276061E+04  0.10448276061E+04  0.25500000920E-02 0.  1.
        2   -1    0    0  501    0  0.00000000000E+00  0.00000000000E+00 -0.60636028758E+03  0.60636028758E+03  0.25500000920E-02 0. -1.
    10030    2    1    2    0    0  0.00000000000E+00  0.00000000000E+00  0.43846731852E+03  0.16511878937E+04  0.15919069919E+04 0.  0.
        4    1    3    3  502    0  0.72258699345E+03 -0.90033145946E+01  0.56531621254E+03  0.91749498954E+03  0.12699999809E+01 0.  1.
       -4    1    3    3    0  502 -0.72258699345E+03  0.90033145946E+01 -0.12684889402E+03  0.73369290414E+03  0.12699999809E+01 0. -1.
</event>
<event>
 5   0  0.9616567E-05  0.1599670E+04  0.7818609E-02  0.8820751E-01
       -1   -1    0    0    0  501  0.00000000000E+00  0.00000000000E+00  0.68293989787E+03  0.68293989789E+03  0.50400001928E-02 0. -1.
        1   -1    0    0  501    0  0.00000000000E+00  0.00000000000E+00 -0.93673863937E+03  0.93673863938E+03  0.50400001928E-02 0.  1.
    10030    2    1    2    0    0  0.00000000000E+00  0.00000000000E+00 -0.25379874149E+03  0.16196785373E+04  0.15996702044E+04 0.  0.
        5    1    3    3  502    0  0.48595165401E+03 -0.47470767750E+03 -0.55433803407E+03  0.87681761793E+03  0.46999998093E+01 0.  1.
       -5    1    3    3    0  502 -0.48595165401E+03  0.47470767750E+03  0.30053929257E+03  0.74286091934E+03  0.46999998093E+01 0. -1.
</event>
<event>
 5   0  0.1832646E-04  0.1595498E+04  0.7818609E-02  0.8823319E-01
       -2   -1    0    0    0  501  0.00000000000E+00  0.00000000000E+00  0.41785357700E+03  0.41785357701E+03  0.25500000920E-02 0. -1.
        2   -1    0    0  501    0  0.00000000000E+00  0.00000000000E+00 -0.15230292078E+04  0.15230292078E+04  0.25500000920E-02 0.  1.
    10030    2    1    2    0    0  0.00000000000E+00  0.00000000000E+00 -0.11051756308E+04  0.19408827849E+04  0.15954976683E+04 0.  0.
        2    1    3    3  502    0  0.74772636565E+03 -0.84184302175E+02 -0.23023004202E+03  0.78688473545E+03  0.25500000920E-02 0. -1.
       -2    1    3    3    0  502 -0.74772636565E+03  0.84184302175E+02 -0.87494558882E+03  0.11539980494E+04  0.25500000920E-02 0.  1.
</event>
<event>
 5   0  0.9726935E-05  0.1597783E+04  0.7818609E-02  0.8821911E-01
       -1   -1    0    0    0  501  0.00000000000E+00  0.00000000000E+00  0.60450347862E+03  0.60450347864E+03  0.50400001928E-02 0. -1.
        1   -1    0    0  501    0  0.00000000000E+00  0.00000000000E+00 -0.10557881062E+04  0.10557881062E+04  0.50400001928E-02 0.  1.
    10030    2    1    2    0    0  0.00000000000E+00  0.00000000000E+00 -0.45128462754E+03  0.16602915848E+04  0.15977829426E+04 0.  0.
        2    1    3    3  502    0 -0.46512782387E+03  0.26470413771E+03 -0.84198750969E+03  0.99767486665E+03  0.25500000920E-02 0.  1.
       -2    1    3    3    0  502  0.46512782387E+03 -0.26470413771E+03  0.39070288215E+03  0.66261671816E+03  0.25500000920E-02 0. -1.
</event>
<event>
 5   0  0.1832646E-04  0.1598077E+04  0.7818609E-02  0.8821730E-01
       -2   -1    0    0    0  501  0.00000000000E+00  0.00000000000E+00  0.65073356254E+03  0.65073356255E+03  0.25500000920E-02 0. -1.
        2   -1    0    0  501    0  0.00000000000E+00  0.00000000000E+00 -0.98114261674E+03  0.98114261674E+03  0.25500000920E-02 0.  1.
    10030    2    1    2    0    0  0.00000000000E+00  0.00000000000E+00 -0.33040905419E+03  0.16318761793E+04  0.15980768822E+04 0.  0.
        2    1    3    3  502    0  0.45103268283E+03 -0.53720126235E+03  0.22557284463E+03  0.73681665664E+03  0.25500000920E-02 0. -1.
       -2    1    3    3    0  502 -0.45103268283E+03  0.53720126235E+03 -0.55598189883E+03  0.89505952265E+03  0.25500000920E-02 0.  1.
</event>
<event>
 5   0  0.9616567E-05  0.1604172E+04  0.7818609E-02  0.8817989E-01
        1   -1    0    0  501    0  0.00000000000E+00  0.00000000000E+00  0.55737840771E+03  0.55737840773E+03  0.50400001928E-02 0.  1.
       -1   -1    0    0    0  501  0.00000000000E+00  0.00000000000E+00 -0.11542289265E+04  0.11542289266E+04  0.50400001928E-02 0. -1.
    10030    2    1    2    0    0  0.00000000000E+00  0.00000000000E+00 -0.59685051884E+03  0.17116073343E+04  0.16041724112E+04 0.  0.
        5    1    3    3  502    0 -0.74854329354E+03  0.20891756611E+03 -0.86754060752E+02  0.78199230737E+03  0.46999998093E+01 0.  1.
       -5    1    3    3    0  502  0.74854329354E+03 -0.20891756611E+03 -0.51009645808E+03  0.92961502692E+03  0.46999998093E+01 0. -1.
</event>
<event>
 5   0  0.1858913E-04  0.1609749E+04  0.7818609E-02  0.8814581E-01
        2   -1    0    0  501    0  0.00000000000E+00  0.00000000000E+00  0.53830421156E+03  0.53830421156E+03  0.25500000920E-02 0.  1.
       -2   -1    0    0    0  501  0.00000000000E+00  0.00000000000E+00 -0.12034506706E+04  0.12034506706E+04  0.25500000920E-02 0. -1.
    10030    2    1    2    0    0  0.00000000000E+00  0.00000000000E+00 -0.66514645905E+03  0.17417548822E+04  0.16097485076E+04 0.  0.
        4    1    3    3  502    0 -0.80823890763E+02 -0.72441273504E+03 -0.70190719866E+03  0.10119197796E+04  0.12699999809E+01 0. -1.
       -4    1    3    3    0  502  0.80823890763E+02  0.72441273504E+03  0.36760739610E+02  0.72983510253E+03  0.12699999809E+01 0.  1.
</event>
<event>
 5   0  0.9673017E-05  0.1612562E+04  0.7818609E-02  0.8812868E-01
       -1   -1    0    0    0  501  0.00000000000E+00  0.00000000000E+00  0.12153720200E+04  0.12153720200E+04  0.50400001928E-02 0.  1.
        1   -1    0    0  501    0  0.00000000000E+00  0.00000000000E+00 -0.53488907440E+03  0.53488907443E+03  0.50400001928E-02 0. -1.
    10030    2    1    2    0    0  0.00000000000E+00  0.00000000000E+00  0.68048294562E+03  0.17502610945E+04  0.16125622033E+04 0.  0.
        1    1    3    3  502    0  0.38217188713E+03 -0.60687598528E+03 -0.59641516341E+02  0.71966028327E+03  0.50400001928E-02 0. -1.
       -1    1    3    3    0  502 -0.38217188713E+03  0.60687598528E+03  0.74012446196E+03  0.10306008112E+04  0.50400001928E-02 0.  1.
</event>
<event>
 5   0  0.9616567E-05  0.1598799E+04  0.7818609E-02  0.8821286E-01
       -1   -1    0    0    0  501  0.00000000000E+00  0.00000000000E+00  0.92937817510E+03  0.92937817512E+03  0.50400001928E-02 0. -1.
        1   -1    0    0  501    0  0.00000000000E+00  0.00000000000E+00 -0.68759942472E+03  0.68759942474E+03  0.50400001928E-02 0.  1.
    10030    2    1    2    0    0  0.00000000000E+00  0.00000000000E+00  0.24177875038E+03  0.16169775999E+04  0.15987994228E+04 0.  0.
        5    1    3    3  502    0 -0.11626392069E+03 -0.58018407173E+03  0.66448253642E+03  0.88976962611E+03  0.46999998093E+01 0. -1.
       -5    1    3    3    0  502  0.11626392069E+03  0.58018407173E+03 -0.42270378604E+03  0.72720797374E+03  0.46999998093E+01 0.  1.
</event>
<event>
 5   0  0.9432152E-05  0.1598628E+04  0.7818609E-02  0.8821392E-01
       -1   -1    0    0    0  501  0.00000000000E+00  0.00000000000E+00  0.57544851083E+03  0.57544851085E+03  0.50400001928E-02 0.  1.
        1   -1    0    0  501    0  0.00000000000E+00  0.00000000000E+00 -0.11102687567E+04  0.11102687567E+04  0.50400001928E-02 0. -1.
    10030    2    1    2    0    0  0.00000000000E+00  0.00000000000E+00 -0.53482024589E+03  0.16857172676E+04  0.15986275397E+04 0.  0.
        4    1    3    3  502    0 -0.49316799546E+03 -0.41314620139E+03 -0.76758890303E+03  0.10015481978E+04  0.12699999809E+01 0. -1.
       -4    1    3    3    0  502  0.49316799546E+03  0.41314620139E+03  0.23276865714E+03  0.68416906983E+03  0.12699999809E+01 0.  1.
</event>
<event>
 5   0  0.1832646E-04  0.1588704E+04  0.7818609E-02  0.8827518E-01
       -2   -1    0    0    0  501  0.00000000000E+00  0.00000000000E+00  0.95312067911E+03  0.95312067912E+03  0.25500000920E-02 0. -1.
        2   -1    0    0  501    0  0.00000000000E+00  0.00000000000E+00 -0.66203031437E+03  0.66203031438E+03  0.25500000920E-02 0.  1.
    10030    2    1    2    0    0  0.00000000000E+00  0.00000000000E+00  0.29109036474E+03  0.16151509935E+04  0.15887036008E+04 0.  0.
        2    1    3    3  502    0 -0.51914901067E+03  0.58014731167E+03 -0.14905395037E+02  0.77865831359E+03  0.25500000920E-02 0.  1.
       -2    1    3    3    0  502  0.51914901067E+03 -0.58014731167E+03  0.30599575978E+03  0.83649267990E+03  0.25500000920E-02 0. -1.
</event>
<event>
 5   0  0.1914170E-04  0.1613197E+04  0.7818609E-02  0.8812482E-01
        2   -1    0    0  501    0  0.00000000000E+00  0.00000000000E+00  0.10062058792E+04  0.10062058792E+04  0.25500000920E-02 0.  1.
       -2   -1    0    0    0  501  0.00000000000E+00  0.00000000000E+00 -0.64658830068E+03  0.64658830069E+03  0.25500000920E-02 0. -1.
    10030    2    1    2    0    0  0.00000000000E+00  0.00000000000E+00  0.35961757851E+03  0.16527941799E+04  0.16131967637E+04 0.  0.
        3    1    3    3  502    0  0.54949801064E+03 -0.42058947157E+03  0.60441772172E+03  0.91878417478E+03  0.10100000352E+00 0.  1.
       -3    1    3    3    0  502 -0.54949801064E+03  0.42058947157E+03 -0.24480014321E+03  0.73401000511E+03  0.10100000352E+00 0. -1.
</event>
<event>
 5   0  0.9616567E-05  0.1598500E+04  0.7818609E-02  0.8821470E-01
       -1   -1    0    0    0  501  0.00000000000E+00  0.00000000000E+00  0.15811109813E+04  0.15811109814E+04  0.50400001928E-02 0.  1.
        1   -1    0    0  501    0  0.00000000000E+00  0.00000000000E+00 -0.40401993731E+03  0.40401993734E+03  0.50400001928E-02 0. -1.
    10030    2    1    2    0    0  0.00000000000E+00  0.00000000000E+00  0.11770910440E+04  0.19851309187E+04  0.15984997461E+04 0.  0.
        5    1    3    3  502    0 -0.33072499389E+03  0.50522904265E+03  0.12387726035E+04  0.13781201182E+04  0.46999998093E+01 0.  1.
       -5    1    3    3    0  502  0.33072499389E+03 -0.50522904265E+03 -0.61681559444E+02  0.60701080047E+03  0.46999998093E+01 0. -1.
</event>
<event>
 5   0  0.1835088E-04  0.1609674E+04  0.7818609E-02  0.8814627E-01
        2   -1    0    0  501    0  0.00000000000E+00  0.00000000000E+00  0.15062415632E+04  0.15062415632E+04  0.25500000920E-02 0.  1.
       -2   -1    0    0    0  501  0.00000000000E+00  0.00000000000E+00 -0.43005210413E+03  0.43005210413E+03  0.25500000920E-02 0. -1.
    10030    2    1    2    0    0  0.00000000000E+00  0.00000000000E+00  0.10761894591E+04  0.19362936674E+04  0.16096736981E+04 0.  0.
        5    1    3    3  502    0 -0.14456520100E+03 -0.85123059811E+02  0.14849583057E+04  0.14944123568E+04  0.46999998093E+01 0.  1.
       -5    1    3    3    0  502  0.14456520100E+03  0.85123059811E+02 -0.40876884658E+03  0.44188131052E+03  0.46999998093E+01 0. -1.
</event>
<event>
 5   0  0.1835088E-04  0.1595686E+04  0.7818609E-02  0.8823202E-01
       -2   -1    0    0    0  501  0.00000000000E+00  0.00000000000E+00  0.57858783780E+03  0.57858783780E+03  0.25500000920E-02 0. -1.
        2   -1    0    0  501    0  0.00000000000E+00  0.00000000000E+00 -0.11001850694E+04  0.11001850694E+04  0.25500000920E-02 0.  1.
    10030    2    1    2    0    0  0.00000000000E+00  0.00000000000E+00 -0.52159723163E+03  0.16787729072E+04  0.15956863107E+04 0.  0.
        5    1    3    3  502    0 -0.40481709185E+03  0.57470326829E+03  0.13616895205E+03  0.71604804164E+03  0.46999998093E+01 0. -1.
       -5    1    3    3    0  502  0.40481709185E+03 -0.57470326829E+03 -0.65776618369E+03  0.96272486559E+03  0.46999998093E+01 0.  1.
</event>
<event>
 5   0  0.1835088E-04  0.1604901E+04  0.7818609E-02  0.8817543E-01
       -2   -1    0    0    0  501  0.00000000000E+00  0.00000000000E+00  0.73436585758E+03  0.73436585758E+03  0.25500000920E-02 0.  1.
        2   -1    0    0  501    0  0.00000000000E+00  0.00000000000E+00 -0.87684777036E+03  0.87684777037E+03  0.25500000920E-02 0. -1.
    10030    2    1    2    0    0  0.00000000000E+00  0.00000000000E+00 -0.14248191279E+03  0.16112136280E+04  0.16049013239E+04 0.  0.
        5    1    3    3  502    0  0.73822055031E+02  0.66606287203E+03 -0.51435608519E+03  0.84479211507E+03  0.46999998093E+01 0.  1.
       -5    1    3    3    0  502 -0.73822055031E+02 -0.66606287203E+03  0.37187417240E+03  0.76642151288E+03  0.46999998093E+01 0. -1.
</event>
<event>
 5   0  0.9673017E-05  0.1575118E+04  0.7818609E-02  0.8835981E-01
       -1   -1    0    0    0  501  0.00000000000E+00  0.00000000000E+00  0.35080203981E+03  0.35080203984E+03  0.50400001928E-02 0.  1.
        1   -1    0    0  501    0  0.00000000000E+00  0.00000000000E+00 -0.17680893119E+04  0.17680893119E+04  0.50400001928E-02 0. -1.
    10030    2    1    2    0    0  0.00000000000E+00  0.00000000000E+00 -0.14172872721E+04  0.21188913518E+04  0.15751182016E+04 0.  0.
        1    1    3    3  502    0 -0.36079084228E+03  0.54895838537E+03 -0.12424512514E+03  0.66855231051E+03  0.50400001928E-02 0.  1.
       -1    1    3    3    0  502  0.36079084228E+03 -0.54895838537E+03 -0.12930421470E+04  0.14503390412E+04  0.50400001928E-02 0. -1.
</event>
<event>
 5   0  0.1858913E-04  0.1598123E+04  0.7818609E-02  0.8821702E-01
        2   -1    0    0  501    0  0.00000000000E+00  0.00000000000E+00  0.69676667088E+03  0.69676667089E+03  0.25500000920E-02 0.  1.
       -2   -1    0    0    0  501  0.00000000000E+00  0.00000000000E+00 -0.91637485953E+03  0.91637485953E+03  0.25500000920E-02 0. -1.
    10030    2    1    2    0    0  0.00000000000E+00  0.00000000000E+00 -0.21960818865E+03  0.16131415304E+04  0.15981232245E+04 0.  0.
        4    1    3    3  502    0  0.51399215569E+03 -0.49321221181E+03  0.25560841872E+03  0.75682461549E+03  0.12699999809E+01 0.  1.
       -4    1    3    3    0  502 -0.51399215569E+03  0.49321221181E+03 -0.47521660736E+03  0.85631691494E+03  0.12699999809E+01 0. -1.
</event>
<event>
 5   0  0.9673017E-05  0.1599772E+04  0.7818609E-02  0.8820688E-01
        1   -1    0    0  501    0  0.00000000000E+00  0.00000000000E+00  0.59762528484E+03  0.59762528487E+03  0.50400001928E-02 0. -1.
       -1   -1    0    0    0  501  0.00000000000E+00  0.00000000000E+00 -0.10705998520E+04  0.10705998521E+04  0.50400001928E-02 0.  1.
    10030    2    1    2    0    0  0.00000000000E+00  0.00000000000E+00 -0.47297456720E+03  0.16682251369E+04  0.15997719107E+04 0.  0.
        1    1    3    3  502    0  0.35234906877E+03  0.53173307316E+03  0.26678971597E+03  0.69142366168E+03  0.50400001928E-02 0. -1.
       -1    1    3    3    0  502 -0.35234906877E+03 -0.53173307316E+03 -0.73976428318E+03  0.97680147525E+03  0.50400001928E-02 0.  1.
</event>
<event>
 5   0  0.9673017E-05  0.1610500E+04  0.7818609E-02  0.8814123E-01
       -1   -1    0    0    0  501  0.00000000000E+00  0.00000000000E+00  0.13001390324E+04  0.13001390324E+04  0.50400001928E-02 0. -1.
        1   -1    0    0  501    0  0.00000000000E+00  0.00000000000E+00 -0.49873726524E+03  0.49873726527E+03  0.50400001928E-02 0.  1.
    10030    2    1    2    0    0  0.00000000000E+00  0.00000000000E+00  0.80140176716E+03  0.17988762977E+04  0.16105002769E+04 0.  0.
        1    1    3    3  502    0  0.23841221611E+03  0.76847637415E+03  0.36482791370E+03  0.88345669337E+03  0.50400001928E-02 0. -1.
       -1    1    3    3    0  502 -0.23841221611E+03 -0.76847637415E+03  0.43657385346E+03  0.91541960431E+03  0.50400001928E-02 0.  1.
</event>
<event>
 5   0  0.9726935E-05  0.1601296E+04  0.7818609E-02  0.8819752E-01
       -1   -1    0    0    0  501  0.00000000000E+00  0.00000000000E+00  0.51078092329E+03  0.51078092332E+03  0.50400001928E-02 0.  1.
        1   -1    0    0  501    0  0.00000000000E+00  0.00000000000E+00 -0.12550141624E+04  0.12550141625E+04  0.50400001928E-02 0. -1.
    10030    2    1    2    0    0  0.00000000000E+00  0.00000000000E+00 -0.74423323915E+03  0.17657950858E+04  0.16012960909E+04 0.  0.
        2    1    3    3  502    0 -0.57816480562E+02 -0.64882520611E+03  0.14123927879E+03  0.66653239035E+03  0.25500000920E-02 0. -1.
       -2    1    3    3    0  502  0.57816480562E+02  0.64882520611E+03 -0.88547251794E+03  0.10992626954E+04  0.25500000920E-02 0.  1.
</event>
<event>
 5   0  0.1858913E-04  0.1598107E+04  0.7818609E-02  0.8821712E-01
       -2   -1    0    0    0  501  0.00000000000E+00  0.00000000000E+00  0.37282527852E+03  0.37282527852E+03  0.25500000920E-02 0.  1.
        2   -1    0    0  501    0  0.00000000000E+00  0.00000000000E+00 -0.17125617481E+04  0.17125617481E+04  0.25500000920E-02 0. -1.
    10030    2    1    2    0    0  0.00000000000E+00  0.00000000000E+00 -0.13397364696E+04  0.20853870266E+04  0.15981067683E+04 0.  0.
        4    1    3    3  502    0 -0.45277499834E+03 -0.50381046779E+03 -0.11677297028E+03  0.68736287801E+03  0.12699999809E+01 0.  1.
       -4    1    3    3    0  502  0.45277499834E+03  0.50381046779E+03 -0.12229634993E+04  0.13980241486E+04  0.12699999809E+01 0. -1.
</event>
<event>
 5   0  0.9432152E-05  0.1599086E+04  0.7818609E-02  0.8821110E-01
        1   -1    0    0  501    0  0.00000000000E+00  0.00000000000E+00  0.34627887797E+03  0.34627887800E+03  0.50400001928E-02 0. -1.
       -1   -1    0    0    0  501  0.00000000000E+00  0.00000000000E+00 -0.18461107933E+04  0.18461107933E+04  0.50400001928E-02 0.  1.
    10030    2    1    2    0    0  0.00000000000E+00  0.00000000000E+00 -0.14998319153E+04  0.21923896713E+04  0.15990862067E+04 0.  0.
        4    1    3    3  502    0 -0.42460702658E+03 -0.15626001138E+03  0.15387994072E+03  0.47790058300E+03  0.12699999809E+01 0. -1.
       -4    1    3    3    0  502  0.42460702658E+03  0.15626001138E+03 -0.16537118560E+04  0.17144890883E+04  0.12699999809E+01 0.  1.
</event>
<event>
 5   0  0.9939872E-05  0.1559364E+04  0.7818609E-02  0.8845909E-01
        1   -1    0    0  501    0  0.00000000000E+00  0.00000000000E+00  0.10562394372E+04  0.10562394372E+04  0.50400001928E-02 0.  1.
       -1   -1    0    0    0  501  0.00000000000E+00  0.00000000000E+00 -0.57553597307E+03  0.57553597309E+03  0.50400001928E-02 0. -1.
    10030    2    1    2    0    0  0.00000000000E+00  0.00000000000E+00  0.48070346412E+03  0.16317754103E+04  0.15593637065E+04 0.  0.
        3    1    3    3  502    0  0.88144961543E+02  0.54276764929E+03 -0.33807085256E+03  0.64549064045E+03  0.10100000352E+00 0. -1.
       -3    1    3    3    0  502 -0.88144961543E+02 -0.54276764929E+03  0.81877431668E+03  0.98628476984E+03  0.10100000352E+00 0.  1.
</event>
<event>
 5   0  0.1774934E-04  0.1531040E+04  0.7818609E-02  0.8864070E-01
       -2   -1    0    0    0  501  0.00000000000E+00  0.00000000000E+00  0.35090884631E+03  0.35090884632E+03  0.25500000920E-02 0.  1.
        2   -1    0    0  501    0  0.00000000000E+00  0.00000000000E+00 -0.16700078396E+04  0.16700078396E+04  0.25500000920E-02 0. -1.
    10030    2    1    2    0    0  0.00000000000E+00  0.00000000000E+00 -0.13190989933E+04  0.20209166860E+04  0.15310395480E+04 0.  0.
        1    1    3    3  502    0 -0.18132778033E+03 -0.73413667518E+03 -0.50234573561E+03  0.90784781758E+03  0.50400001928E-02 0. -1.
       -1    1    3    3    0  502  0.18132778033E+03  0.73413667518E+03 -0.81675325771E+03  0.11130688684E+04  0.50400001928E-02 0.  1.
</event>
<event>
 5   0  0.1835088E-04  0.1600423E+04  0.7818609E-02  0.8820288E-01
       -2   -1    0    0    0  501  0.00000000000E+00  0.00000000000E+00  0.11290139896E+04  0.11290139896E+04  0.25500000920E-02 0. -1.
        2   -1    0    0  501    0  0.00000000000E+00  0.00000000000E+00 -0.56716618811E+03  0.56716618811E+03  0.25500000920E-02 0.  1.
    10030    2    1    2    0    0  0.00000000000E+00  0.00000000000E+00  0.56184780149E+03  0.16961801777E+04  0.16004231451E+04 0.  0.
        5    1    3    3  502    0 -0.56054385180E+03  0.55052937571E+03  0.44174090126E+03  0.90135959370E+03  0.46999998093E+01 0.  1.
       -5    1    3    3    0  502  0.56054385180E+03 -0.55052937571E+03  0.12010690024E+03  0.79482058403E+03  0.46999998093E+01 0. -1.
</event>
<event>
 5   0  0.9432152E-05  0.1528176E+04  0.7818609E-02  0.8865930E-01
       -1   -1    0    0    0  501  0.00000000000E+00  0.00000000000E+00  0.30829119784E+03  0.30829119788E+03  0.50400001928E-02 0.  1.
        1   -1    0    0  501    0  0.00000000000E+00  0.00000000000E+00 -0.18937619602E+04  0.18937619602E+04  0.50400001928E-02 0. -1.
    10030    2    1    2    0    0  0.00000000000E+00  0.00000000000E+00 -0.15854707624E+04  0.22020531581E+04  0.15281755700E+04 0.  0.
        4    1    3    3  502    0  0.47074978914E+01  0.55293657124E+03 -0.32882217000E+02  0.55393489278E+03  0.12699999809E+01 0.  1.
       -4    1    3    3    0  502 -0.47074978914E+01 -0.55293657124E+03 -0.15525885454E+04  0.16481182653E+04  0.12699999809E+01 0. -1.
</event>
<event>
 5   0  0.1858913E-04  0.1599049E+04  0.7818609E-02  0.8821132E-01
       -2   -1    0    0    0  501  0.00000000000E+00  0.00000000000E+00  0.80892399467E+03  0.80892399468E+03  0.25500000920E-02 0.  1.
        2   -1    0    0  501    0  0.00000000000E+00  0.00000000000E+00 -0.79023425848E+03  0.79023425849E+03  0.25500000920E-02 0. -1.
    10030    2    1    2    0    0  0.00000000000E+00  0.00000000000E+00  0.18689736192E+02  0.15991582532E+04  0.15990490338E+04 0.  0.
        4    1    3    3  502    0 -0.34966515344E+03  0.28422233937E+03  0.66983663216E+03  0.80729844817E+03  0.12699999809E+01 0.  1.
       -4    1    3    3    0  502  0.34966515344E+03 -0.28422233937E+03 -0.65114689597E+03  0.79185980499E+03  0.12699999809E+01 0. -1.
</event>
<event>
 5   0  0.1832646E-04  0.1597584E+04  0.7818609E-02  0.8822033E-01
       -2   -1    0    0    0  501  0.00000000000E+00  0.00000000000E+00  0.12636353338E+04  0.12636353338E+04  0.25500000920E-02 0. -1.
        2   -1    0    0  501    0  0.00000000000E+00  0.00000000000E+00 -0.50494711402E+03  0.50494711403E+03  0.25500000920E-02 0.  1.
    10030    2    1    2    0    0  0.00000000000E+00  0.00000000000E+00  0.75868821975E+03  0.17685824478E+04  0.15975844453E+04 0.  0.
        2    1    3    3  502    0 -0.47762348316E+03  0.46571843138E+03  0.86574874141E+03  0.10929495561E+04  0.25500000920E-02 0. -1.
       -2    1    3    3    0  502  0.47762348316E+03 -0.46571843138E+03 -0.10706052166E+03  0.67563289166E+03  0.25500000920E-02 0.  1.
</event>
<event>
 5   0  0.9673017E-05  0.1606674E+04  0.7818609E-02  0.8816458E-01
        1   -1    0    0  501    0  0.00000000000E+00  0.00000000000E+00  0.32403753844E+03  0.32403753848E+03  0.50400001928E-02 0.  1.
       -1   -1    0    0    0  501  0.00000000000E+00  0.00000000000E+00 -0.19915919463E+04  0.19915919463E+04  0.50400001928E-02 0. -1.
    10030    2    1    2    0    0  0.00000000000E+00  0.00000000000E+00 -0.16675544079E+04  0.23156294848E+04  0.16066742693E+04 0.  0.
        1    1    3    3  502    0 -0.38150674553E+03 -0.41714695708E+03 -0.16564197261E+04  0.17502243541E+04  0.50400001928E-02 0. -1.
       -1    1    3    3    0  502  0.38150674553E+03  0.41714695708E+03 -0.11134681820E+02  0.56540513073E+03  0.50400001928E-02 0.  1.
</event>
<event>
 5   0  0.1832646E-04  0.1603813E+04  0.7818609E-02  0.8818209E-01
        2   -1    0    0  501    0  0.00000000000E+00  0.00000000000E+00  0.17802875413E+04  0.17802875413E+04  0.25500000920E-02 0. -1.
       -2   -1    0    0    0  501  0.00000000000E+00  0.00000000000E+00 -0.36120791848E+03  0.36120791849E+03  0.25500000920E-02 0.  1.
    10030    2    1    2    0    0  0.00000000000E+00  0.00000000000E+00  0.14190796228E+04  0.21414954598E+04  0.16038129032E+04 0.  0.
        2    1    3    3  502    0 -0.32746630874E+03 -0.18190127847E+02 -0.26755945763E+03  0.42326484320E+03  0.25500000920E-02 0.  1.
       -2    1    3    3    0  502  0.32746630874E+03  0.18190127847E+02  0.16866390804E+04  0.17182306166E+04  0.25500000920E-02 0. -1.
</event>
<event>
 5   0  0.9726935E-05  0.1599336E+04  0.7818609E-02  0.8820956E-01
        1   -1    0    0  501    0  0.00000000000E+00  0.00000000000E+00  0.22300338179E+04  0.22300338179E+04  0.50400001928E-02 0.  1.
       -1   -1    0    0    0  501  0.00000000000E+00  0.00000000000E+00 -0.28675302581E+03  0.28675302586E+03  0.50400001928E-02 0. -1.
    10030    2    1    2    0    0  0.00000000000E+00  0.00000000000E+00  0.19432807921E+04  0.25167868438E+04  0.15993360435E+04 0.  0.
        2    1    3    3  502    0 -0.70712574766E+03  0.34858568627E+03  0.76092388516E+03  0.10956933707E+04  0.25500000920E-02 0. -1.
       -2    1    3    3    0  502  0.70712574766E+03 -0.34858568627E+03  0.11823569069E+04  0.14210934730E+04  0.25500000920E-02 0.  1.
</event>
<event>
 5   0  0.9432152E-05  0.1601341E+04  0.7818609E-02  0.8819725E-01
       -1   -1    0    0    0  501  0.00000000000E+00  0.00000000000E+00  0.55267261609E+03  0.55267261611E+03  0.50400001928E-02 0.  1.
        1   -1    0    0  501    0  0.00000000000E+00  0.00000000000E+00 -0.11599504689E+04  0.11599504689E+04  0.50400001928E-02 0. -1.
    10030    2    1    2    0    0  0.00000000000E+00  0.00000000000E+00 -0.60727785280E+03  0.17126230850E+04  0.16013405137E+04 0.  0.
        4    1    3    3  502    0 -0.11136468693E+03  0.19261096836E+03  0.51894692465E+03  0.56463138606E+03  0.12699999809E+01 0.  1.
       -4    1    3    3    0  502  0.11136468693E+03 -0.19261096836E+03 -0.11262247774E+04  0.11479916989E+04  0.12699999809E+01 0. -1.
</event>
<event>
 5   0  0.1774934E-04  0.1609061E+04  0.7818609E-02  0.8815001E-01
       -2   -1    0    0    0  501  0.00000000000E+00  0.00000000000E+00  0.37090691601E+03  0.37090691602E+03  0.25500000920E-02 0.  1.
        2   -1    0    0  501    0  0.00000000000E+00  0.00000000000E+00 -0.17450998298E+04  0.17450998298E+04  0.25500000920E-02 0. -1.
    10030    2    1    2    0    0  0.00000000000E+00  0.00000000000E+00 -0.13741929138E+04  0.21160067458E+04  0.16090613363E+04 0.  0.
        1    1    3    3  502    0  0.48616445123E+03  0.43176204382E+03 -0.13101825184E+04  0.14626525793E+04  0.50400001928E-02 0. -1.
       -1    1    3    3    0  502 -0.48616445123E+03 -0.43176204382E+03 -0.64010395334E+02  0.65335416648E+03  0.50400001928E-02 0.  1.
</event>
<event>
 5   0  0.1832646E-04  0.1598910E+04  0.7818609E-02  0.8821218E-01
        2   -1    0    0  501    0  0.00000000000E+00  0.00000000000E+00  0.66411712103E+03  0.66411712103E+03  0.25500000920E-02 0.  1.
       -2   -1    0    0    0  501  0.00000000000E+00  0.00000000000E+00 -0.96237344592E+03  0.96237344593E+03  0.25500000920E-02 0. -1.
    10030    2    1    2    0    0  0.00000000000E+00  0.00000000000E+00 -0.29825632490E+03  0.16264905670E+04  0.15989104819E+04 0.  0.
        2    1    3    3  502    0 -0.53310896375E+03 -0.40245660870E+03  0.29771205954E+03  0.73130633767E+03  0.25500000920E-02 0.  1.
       -2    1    3    3    0  502  0.53310896375E+03  0.40245660870E+03 -0.59596838444E+03  0.89518422929E+03  0.25500000920E-02 0. -1.
</event>
<event>
 5   0  0.9673017E-05  0.1597540E+04  0.7818609E-02  0.8822061E-01
       -1   -1    0    0    0  501  0.00000000000E+00  0.00000000000E+00  0.55762944074E+03  0.55762944076E+03  0.50400001928E-02 0.  1.
        1   -1    0    0  501    0  0.00000000000E+00  0.00000000000E+00 -0.11441894021E+04  0.11441894021E+04  0.50400001928E-02 0. -1.
    10030    2    1    2    0    0  0.00000000000E+00  0.00000000000E+00 -0.58655996138E+03  0.17018188429E+04  0.15975402298E+04 0.  0.
        1    1    3    3  502    0  0.42624430060E+03 -0.14671384231E+03  0.40917508395E+03  0.60879668582E+03  0.50400001928E-02 0.  1.
       -1    1    3    3    0  502 -0.42624430060E+03  0.14671384231E+03 -0.99573504533E+03  0.10930221571E+04  0.50400001928E-02 0. -1.
</event>
<event>
 5   0  0.9726935E-05  0.1593274E+04  0.7818609E-02  0.8824691E-01
       -1   -1    0    0    0  501  0.00000000000E+00  0.00000000000E+00  0.54543805468E+03  0.54543805470E+03  0.50400001928E-02 0.  1.
        1   -1    0    0  501    0  0.00000000000E+00  0.00000000000E+00 -0.11635237628E+04  0.11635237628E+04  0.50400001928E-02 0. -1.
    10030    2    1    2    0    0  0.00000000000E+00  0.00000000000E+00 -0.61808570812E+03  0.17089618175E+04  0.15932735331E+04 0.  0.
        2    1    3    3  502    0 -0.50758459517E+03 -0.31900924617E+03 -0.87175060150E+03  0.10579972267E+04  0.25500000920E-02 0. -1.
       -2    1    3    3    0  502  0.50758459517E+03  0.31900924617E+03  0.25366489339E+03  0.65096459085E+03  0.25500000920E-02 0.  1.
</event>
<event>
 5   0  0.1774934E-04  0.1599420E+04  0.7818609E-02  0.8820904E-01
       -2   -1    0    0    0  501  0.00000000000E+00  0.00000000000E+00  0.26721811821E+03  0.26721811822E+03  0.25500000920E-02 0. -1.
        2   -1    0    0  501    0  0.00000000000E+00  0.00000000000E+00 -0.23933124289E+04  0.23933124289E+04  0.25500000920E-02 0.  1.
    10030    2    1    2    0    0  0.00000000000E+00  0.00000000000E+00 -0.21260943107E+04  0.26605305471E+04  0.15994204495E+04 0.  0.
        1    1    3    3  502    0  0.27544139818E+03 -0.73458457398E+03 -0.80505939141E+03  0.11241010114E+04  0.50400001928E-02 0. -1.
       -1    1    3    3    0  502 -0.27544139818E+03  0.73458457398E+03 -0.13210349193E+04  0.15364295357E+04  0.50400001928E-02 0.  1.
</event>
<event>
 5   0  0.9726935E-05  0.1600043E+04  0.7818609E-02  0.8820521E-01
        1   -1    0    0  501    0  0.00000000000E+00  0.00000000000E+00  0.23489179474E+04  0.23489179474E+04  0.50400001928E-02 0.  1.
       -1   -1    0    0    0  501  0.00000000000E+00  0.00000000000E+00 -0.27248067896E+03  0.27248067901E+03  0.50400001928E-02 0. -1.
    10030    2    1    2    0    0  0.00000000000E+00  0.00000000000E+00  0.20764372684E+04  0.26213986264E+04  0.16000434459E+04 0.  0.
        2    1    3    3  502    0 -0.46005230082E+03  0.65442577576E+03  0.10207612565E+04  0.12968711417E+04  0.25500000920E-02 0. -1.
       -2    1    3    3    0  502  0.46005230082E+03 -0.65442577576E+03  0.10556760119E+04  0.13245274846E+04  0.25500000920E-02 0.  1.
</event>
<event>
 5   0  0.9939872E-05  0.1596493E+04  0.7818609E-02  0.8822705E-01
        1   -1    0    0  501    0  0.00000000000E+00  0.00000000000E+00  0.96358751289E+03  0.96358751290E+03  0.50400001928E-02 0.  1.
       -1   -1    0    0    0  501  0.00000000000E+00  0.00000000000E+00 -0.66127630990E+03  0.66127630992E+03  0.50400001928E-02 0. -1.
    10030    2    1    2    0    0  0.00000000000E+00  0.00000000000E+00  0.30231120299E+03  0.16248638228E+04  0.15964931504E+04 0.  0.
        3    1    3    3  502    0 -0.77174204616E+03  0.14397133571E+03  0.40743535196E+01  0.78506696649E+03  0.10100000352E+00 0. -1.
       -3    1    3    3    0  502  0.77174204616E+03 -0.14397133571E+03  0.29823684947E+03  0.83979685633E+03  0.10100000352E+00 0.  1.
</event>
<event>
 5   0  0.1858913E-04  0.1632525E+04  0.7818609E-02  0.8800812E-01
        2   -1    0    0  501    0  0.00000000000E+00  0.00000000000E+00  0.11638530603E+04  0.11638530603E+04  0.25500000920E-02 0.  1.
       -2   -1    0    0    0  501  0.00000000000E+00  0.00000000000E+00 -0.57248135410E+03  0.57248135411E+03  0.25500000920E-02 0. -1.
    10030    2    1    2    0    0  0.00000000000E+00  0.00000000000E+00  0.59137170623E+03  0.17363344144E+04  0.16325246411E+04 0.  0.
        4    1    3    3  502    0  0.42126924464E+03 -0.69589983047E+03  0.36733582814E+03  0.89257020680E+03  0.12699999809E+01 0. -1.
       -4    1    3    3    0  502 -0.42126924464E+03  0.69589983047E+03  0.22403587809E+03  0.84376420764E+03  0.12699999809E+01 0.  1.
</event>
<event>
 5   0  0.1858913E-04  0.1579664E+04  0.7818609E-02  0.8833139E-01
       -2   -1    0    0    0  501  0.00000000000E+00  0.00000000000E+00  0.14254021243E+04  0.14254021243E+04  0.25500000920E-02 0. -1.
        2   -1    0    0  501    0  0.00000000000E+00  0.00000000000E+00 -0.43765541089E+03  0.43765541090E+03  0.25500000920E-02 0.  1.
    10030    2    1    2    0    0  0.00000000000E+00  0.00000000000E+00  0.98774671345E+03  0.18630575352E+04  0.15796644611E+04 0.  0.
        4    1    3    3  502    0  0.39530891706E+03  0.67145111152E+03  0.64636584193E+03  0.10123764861E+04  0.12699999809E+01 0.  1.
       -4    1    3    3    0  502 -0.39530891706E+03 -0.67145111152E+03  0.34138087152E+03  0.85068104916E+03  0.12699999809E+01 0. -1.
</event>
<event>
 5   0  0.1858913E-04  0.1603379E+04  0.7818609E-02  0.8818475E-01
       -2   -1    0    0    0  501  0.00000000000E+00  0.00000000000E+00  0.14829291580E+04  0.14829291580E+04  0.25500000920E-02 0.  1.
        2   -1    0    0  501    0  0.00000000000E+00  0.00000000000E+00 -0.43340297331E+03  0.43340297332E+03  0.25500000920E-02 0. -1.
    10030    2    1    2    0    0  0.00000000000E+00  0.00000000000E+00  0.10495261847E+04  0.19163321313E+04  0.16033788152E+04 0.  0.
        4    1    3    3  502    0 -0.31233631747E+03  0.65516180790E+03  0.93167586269E+03  0.11810218016E+04  0.12699999809E+01 0.  1.
       -4    1    3    3    0  502  0.31233631747E+03 -0.65516180790E+03  0.11785032199E+03  0.73531032975E+03  0.12699999809E+01 0. -1.
</event>
<event>
 5   0  0.1914170E-04  0.1596870E+04  0.7818609E-02  0.8822473E-01
        2   -1    0    0  501    0  0.00000000000E+00  0.00000000000E+00  0.12804379597E+04  0.12804379597E+04  0.25500000920E-02 0.  1.
       -2   -1    0    0    0  501  0.00000000000E+00  0.00000000000E+00 -0.49787503933E+03  0.49787503933E+03  0.25500000920E-02 0. -1.
    10030    2    1    2    0    0  0.00000000000E+00  0.00000000000E+00  0.78256292037E+03  0.17783129990E+04  0.15968695621E+04 0.  0.
        3    1    3    3  502    0  0.20961287363E+03  0.76175933492E+03  0.26293292863E+03  0.83267555284E+03  0.10100000352E+00 0. -1.
       -3    1    3    3    0  502 -0.20961287363E+03 -0.76175933492E+03  0.51962999175E+03  0.94563744620E+03  0.10100000352E+00 0.  1.
</event>
<event>
 5   0  0.9673017E-05  0.1566530E+04  0.7818609E-02  0.8841378E-01
        1   -1    0    0  501    0  0.00000000000E+00  0.00000000000E+00  0.10486336395E+04  0.10486336395E+04  0.50400001928E-02 0.  1.
       -1   -1    0    0    0  501  0.00000000000E+00  0.00000000000E+00 -0.58505065518E+03  0.58505065520E+03  0.50400001928E-02 0. -1.
    10030    2    1    2    0    0  0.00000000000E+00  0.00000000000E+00  0.46358298430E+03  0.16336842947E+04  0.15665296650E+04 0.  0.
        1    1    3    3  502    0 -0.64702483876E+03 -0.44061179234E+03  0.20373262788E+03  0.80888001410E+03  0.50400001928E-02 0.  1.
       -1    1    3    3    0  502  0.64702483876E+03  0.44061179234E+03  0.25985035642E+03  0.82480428059E+03  0.50400001928E-02 0. -1.
</event>
<event>
 5   0  0.1832646E-04  0.1602359E+04  0.7818609E-02  0.8819100E-01
        2   -1    0    0  501    0  0.00000000000E+00  0.00000000000E+00  0.15689997815E+04  0.15689997815E+04  0.25500000920E-02 0.  1.
       -2   -1    0    0    0  501  0.00000000000E+00  0.00000000000E+00 -0.40910662390E+03  0.40910662391E+03  0.25500000920E-02 0. -1.
    10030    2    1    2    0    0  0.00000000000E+00  0.00000000000E+00  0.11598931576E+04  0.19781064054E+04  0.16023585161E+04 0.  0.
        2    1    3    3  502    0 -0.45937548468E+02 -0.36798039735E+02 -0.40643398852E+03  0.41067376483E+03  0.25500000920E-02 0. -1.
       -2    1    3    3    0  502  0.45937548468E+02  0.36798039735E+02  0.15663271462E+04  0.15674326406E+04  0.25500000920E-02 0.  1.
</event>
<event>
 5   0  0.1774934E-04  0.1528783E+04  0.7818609E-02  0.8865535E-01
       -2   -1    0    0    0  501  0.00000000000E+00  0.00000000000E+00  0.36590489677E+03  0.36590489678E+03  0.25500000920E-02 0.  1.
        2   -1    0    0  501    0  0.00000000000E+00  0.00000000000E+00 -0.15968474812E+04  0.15968474812E+04  0.25500000920E-02 0. -1.
    10030    2    1    2    0    0  0.00000000000E+00  0.00000000000E+00 -0.12309425845E+04  0.19627523780E+04  0.15287829313E+04 0.  0.
        1    1    3    3  502    0 -0.22122076637E+02  0.78143203484E+02  0.36035009374E+03  0.36938859837E+03  0.50400001928E-02 0.  1.
       -1    1    3    3    0  502  0.22122076637E+02 -0.78143203484E+02 -0.15912926782E+04  0.15933637796E+04  0.50400001928E-02 0. -1.
</event>
<event>
 5   0  0.9726935E-05  0.1606820E+04  0.7818609E-02  0.8816369E-01
        1   -1    0    0  501    0  0.00000000000E+00  0.00000000000E+00  0.11104249526E+04  0.11104249526E+04  0.50400001928E-02 0. -1.
       -1   -1    0    0    0  501  0.00000000000E+00  0.00000000000E+00 -0.58128019195E+03  0.58128019197E+03  0.50400001928E-02 0.  1.
    10030    2    1    2    0    0  0.00000000000E+00  0.00000000000E+00  0.52914476066E+03  0.16917051446E+04  0.16068204998E+04 0.  0.
        2    1    3    3  502    0 -0.30605558494E+03  0.51380478922E+03 -0.30024063813E+03  0.66918594074E+03  0.25500000920E-02 0.  1.
       -2    1    3    3    0  502  0.30605558494E+03 -0.51380478922E+03  0.82938539878E+03  0.10225192038E+04  0.25500000920E-02 0. -1.
</event>
<event>
 5   0  0.9726935E-05  0.1595724E+04  0.7818609E-02  0.8823179E-01
       -1   -1    0    0    0  501  0.00000000000E+00  0.00000000000E+00  0.96286237509E+03  0.96286237511E+03  0.50400001928E-02 0.  1.
        1   -1    0    0  501    0  0.00000000000E+00  0.00000000000E+00 -0.66113653691E+03  0.66113653693E+03  0.50400001928E-02 0. -1.
    10030    2    1    2    0    0  0.00000000000E+00  0.00000000000E+00  0.30172583818E+03  0.16239989120E+04  0.15957236555E+04 0.  0.
        2    1    3    3  502    0  0.32578224224E+03  0.61632327442E+03 -0.24407914968E+03  0.73862241996E+03  0.25500000920E-02 0. -1.
       -2    1    3    3    0  502 -0.32578224224E+03 -0.61632327442E+03  0.54580498786E+03  0.88537649208E+03  0.25500000920E-02 0.  1.
</event>
<event>
 5   0  0.1774934E-04  0.1599066E+04  0.7818609E-02  0.8821122E-01
        2   -1    0    0  501    0  0.00000000000E+00  0.00000000000E+00  0.21884796440E+04  0.21884796440E+04  0.25500000920E-02 0.  1.
       -2   -1    0    0    0  501  0.00000000000E+00  0.00000000000E+00 -0.29209898577E+03  0.29209898579E+03  0.25500000920E-02 0. -1.
    10030    2    1    2    0    0  0.00000000000E+00  0.00000000000E+00  0.18963806582E+04  0.24805786298E+04  0.15990655827E+04 0.  0.
        1    1    3    3  502    0  0.17055273835E+03  0.62511408255E+03  0.16748012112E+04  0.17957769767E+04  0.50400001928E-02 0.  1.
       -1    1    3    3    0  502 -0.17055273835E+03 -0.62511408255E+03  0.22157944701E+03  0.68480165313E+03  0.50400001928E-02 0. -1.
</event>
<event>
 5   0  0.1858913E-04  0.1588751E+04  0.7818609E-02  0.8827489E-01
       -2   -1    0    0    0  501  0.00000000000E+00  0.00000000000E+00  0.66654244186E+03  0.66654244187E+03  0.25500000920E-02 0.  1.
        2   -1    0    0  501    0  0.00000000000E+00  0.00000000000E+00 -0.94672502435E+03  0.94672502435E+03  0.25500000920E-02 0. -1.
    10030    2    1    2    0    0  0.00000000000E+00  0.00000000000E+00 -0.28018258249E+03  0.16132674662E+04  0.15887509679E+04 0.  0.
        4    1    3    3  502    0 -0.24731992418E+03  0.16720952319E+03  0.60741005168E+03  0.67681219945E+03  0.12699999809E+01 0.  1.
       -4    1    3    3    0  502  0.24731992418E+03 -0.16720952319E+03 -0.88759263416E+03  0.93645526677E+03  0.12699999809E+01 0. -1.
</event>
<event>
 5   0  0.1858913E-04  0.1583880E+04  0.7818609E-02  0.8830513E-01
        2   -1    0    0  501    0  0.00000000000E+00  0.00000000000E+00  0.11112973395E+04  0.11112973395E+04  0.25500000920E-02 0.  1.
       -2   -1    0    0    0  501  0.00000000000E+00  0.00000000000E+00 -0.56435729779E+03  0.56435729780E+03  0.25500000920E-02 0. -1.
    10030    2    1    2    0    0  0.00000000000E+00  0.00000000000E+00  0.54694004174E+03  0.16756546373E+04  0.15838797474E+04 0.  0.
        4    1    3    3  502    0  0.71256809788E+01  0.20306626038E+03  0.10832495941E+04  0.11021424488E+04  0.12699999809E+01 0.  1.
       -4    1    3    3    0  502 -0.71256809788E+01 -0.20306626038E+03 -0.53630955241E+03  0.57351218848E+03  0.12699999809E+01 0. -1.
</event>
<event>
 5   0  0.9939872E-05  0.1600859E+04  0.7818609E-02  0.8820021E-01
       -1   -1    0    0    0  501  0.00000000000E+00  0.00000000000E+00  0.57124202186E+03  0.57124202188E+03  0.50400001928E-02 0. -1.
        1   -1    0    0  501    0  0.00000000000E+00  0.00000000000E+00 -0.11215685913E+04  0.11215685913E+04  0.50400001928E-02 0.  1.
    10030    2    1    2    0    0  0.00000000000E+00  0.00000000000E+00 -0.55032656940E+03  0.16928106132E+04  0.16008586568E+04 0.  0.
        3    1    3    3  502    0 -0.19785658752E+03  0.13407911417E+03  0.53262794287E+03  0.58379531842E+03  0.10100000352E+00 0. -1.
       -3    1    3    3    0  502  0.19785658752E+03 -0.13407911417E+03 -0.10829545123E+04  0.11090152947E+04  0.10100000352E+00 0.  1.
</event>
<event>
 5   0  0.9616567E-05  0.1599995E+04  0.7818609E-02  0.8820551E-01
        1   -1    0    0  501    0  0.00000000000E+00  0.00000000000E+00  0.35903181296E+03  0.35903181300E+03  0.50400001928E-02 0. -1.
       -1   -1    0    0    0  501  0.00000000000E+00  0.00000000000E+00 -0.17825608887E+04  0.17825608887E+04  0.50400001928E-02 0.  1.
    10030    2    1    2    0    0  0.00000000000E+00  0.00000000000E+00 -0.14235290757E+04  0.21415927017E+04  0.15999950845E+04 0.  0.
        5    1    3    3  502    0 -0.34345981455E+03  0.58778308107E+03 -0.14940293476E+03  0.69699133532E+03  0.46999998093E+01 0. -1.
       -5    1    3    3    0  502  0.34345981455E+03 -0.58778308107E+03 -0.12741261410E+04  0.14446013664E+04  0.46999998093E+01 0.  1.
</event>
<event>
 5   0  0.1832646E-04  0.1595136E+04  0.7818609E-02  0.8823542E-01
       -2   -1    0    0    0  501  0.00000000000E+00  0.00000000000E+00  0.35331733479E+03  0.35331733480E+03  0.25500000920E-02 0.  1.
        2   -1    0    0  501    0  0.00000000000E+00  0.00000000000E+00 -0.18004066271E+04  0.18004066271E+04  0.25500000920E-02 0. -1.
    10030    2    1    2    0    0  0.00000000000E+00  0.00000000000E+00 -0.14470892923E+04  0.21537239619E+04  0.15951361961E+04 0.  0.
        2    1    3    3  502    0  0.19835251848E+03  0.16098241569E+03  0.29658526871E+03  0.39143566696E+03  0.25500000920E-02 0.  1.
       -2    1    3    3    0  502 -0.19835251848E+03 -0.16098241569E+03 -0.17436745611E+04  0.17622882950E+04  0.25500000920E-02 0. -1.
</event>
<event>
 5   0  0.9726935E-05  0.1607328E+04  0.7818609E-02  0.8816058E-01
        1   -1    0    0  501    0  0.00000000000E+00  0.00000000000E+00  0.79604169719E+03  0.79604169720E+03  0.50400001928E-02 0. -1.
       -1   -1    0    0    0  501  0.00000000000E+00  0.00000000000E+00 -0.81135972725E+03  0.81135972727E+03  0.50400001928E-02 0.  1.
    10030    2    1    2    0    0  0.00000000000E+00  0.00000000000E+00 -0.15318030070E+02  0.16074014245E+04  0.16073284348E+04 0.  0.
        2    1    3    3  502    0  0.70130870802E+03 -0.94098298278E+02 -0.38871146163E+03  0.80733202222E+03  0.25500000920E-02 0.  1.
       -2    1    3    3    0  502 -0.70130870802E+03  0.94098298278E+02  0.37339343156E+03  0.80006940226E+03  0.25500000920E-02 0. -1.
</event>
<event>
 5   0  0.9726935E-05  0.1598905E+04  0.7818609E-02  0.8821221E-01
        1   -1    0    0  501    0  0.00000000000E+00  0.00000000000E+00  0.11023509446E+04  0.11023509446E+04  0.50400001928E-02 0.  1.
       -1   -1    0    0    0  501  0.00000000000E+00  0.00000000000E+00 -0.57978305845E+03  0.57978305847E+03  0.50400001928E-02 0. -1.
    10030    2    1    2    0    0  0.00000000000E+00  0.00000000000E+00  0.52256788617E+03  0.16821340031E+04  0.15989051281E+04 0.  0.
        2    1    3    3  502    0 -0.72070920732E+03  0.13788412281E+03  0.59511933651E+03  0.94477553818E+03  0.25500000920E-02 0.  1.
       -2    1    3    3    0  502  0.72070920732E+03 -0.13788412281E+03 -0.72551450348E+02  0.73735846492E+03  0.25500000920E-02 0. -1.
</event>
<event>
 5   0  0.9673017E-05  0.1601258E+04  0.7818609E-02  0.8819776E-01
        1   -1    0    0  501    0  0.00000000000E+00  0.00000000000E+00  0.40545821799E+03  0.40545821802E+03  0.50400001928E-02 0.  1.
       -1   -1    0    0    0  501  0.00000000000E+00  0.00000000000E+00 -0.15809437206E+04  0.15809437206E+04  0.50400001928E-02 0. -1.
    10030    2    1    2    0    0  0.00000000000E+00  0.00000000000E+00 -0.11754855026E+04  0.19864019386E+04  0.16012577853E+04 0.  0.
        1    1    3    3  502    0 -0.78331028334E+02 -0.28547297344E+03 -0.15105607526E+04  0.15392934599E+04  0.50400001928E-02 0. -1.
       -1    1    3    3    0  502  0.78331028334E+02  0.28547297344E+03  0.33507524996E+03  0.44710847870E+03  0.50400001928E-02 0.  1.
</event>
<event>
 5   0  0.1832646E-04  0.1596317E+04  0.7818609E-02  0.8822814E-01
       -2   -1    0    0    0  501  0.00000000000E+00  0.00000000000E+00  0.50723582707E+03  0.50723582708E+03  0.25500000920E-02 0.  1.
        2   -1    0    0  501    0  0.00000000000E+00  0.00000000000E+00 -0.12559378499E+04  0.12559378499E+04  0.25500000920E-02 0. -1.
    10030    2    1    2    0    0  0.00000000000E+00  0.00000000000E+00 -0.74870202285E+03  0.17631736770E+04  0.15963166028E+04 0.  0.
        2    1    3    3  502    0  0.29818241387E+03  0.49389581432E+03 -0.98355594296E+03  0.11402754581E+04  0.25500000920E-02 0. -1.
       -2    1    3    3    0  502 -0.29818241387E+03 -0.49389581432E+03  0.23485392012E+03  0.62289821892E+03  0.25500000920E-02 0.  1.
</event>
<event>
 5   0  0.1858913E-04  0.1577290E+04  0.7818609E-02  0.8834622E-01
       -2   -1    0    0    0  501  0.00000000000E+00  0.00000000000E+00  0.83037710703E+03  0.83037710704E+03  0.25500000920E-02 0. -1.
        2   -1    0    0  501    0  0.00000000000E+00  0.00000000000E+00 -0.74901010640E+03  0.74901010641E+03  0.25500000920E-02 0.  1.
    10030    2    1    2    0    0  0.00000000000E+00  0.00000000000E+00  0.81367000629E+02  0.15793872134E+04  0.15772898850E+04 0.  0.
        4    1    3    3  502    0 -0.34733278706E+03 -0.14026891371E+03 -0.65424494070E+03  0.75389222602E+03  0.12699999809E+01 0.  1.
       -4    1    3    3    0  502  0.34733278706E+03  0.14026891371E+03  0.73561194133E+03  0.82549498742E+03  0.12699999809E+01 0. -1.
</event>
<event>
 5   0  0.9673017E-05  0.1597765E+04  0.7818609E-02  0.8821922E-01
       -1   -1    0    0    0  501  0.00000000000E+00  0.00000000000E+00  0.88550220460E+03  0.88550220461E+03  0.50400001928E-02 0. -1.
        1   -1    0    0  501    0  0.00000000000E+00  0.00000000000E+00 -0.72073630260E+03  0.72073630262E+03  0.50400001928E-02 0.  1.
    10030    2    1    2    0    0  0.00000000000E+00  0.00000000000E+00  0.16476590199E+03  0.16062385072E+04  0.15977654207E+04 0.  0.
        1    1    3    3  502    0  0.32422762401E+03  0.15150772660E+03 -0.63564237693E+03  0.72946512923E+03  0.50400001928E-02 0.  1.
       -1    1    3    3    0  502 -0.32422762401E+03 -0.15150772660E+03  0.80040827892E+03  0.87677337801E+03  0.50400001928E-02 0. -1.
</event>
<event>
 5   0  0.1774934E-04  0.1599753E+04  0.7818609E-02  0.8820700E-01
        2   -1    0    0  501    0  0.00000000000E+00  0.00000000000E+00  0.13203482646E+04  0.13203482646E+04  0.25500000920E-02 0. -1.
       -2   -1    0    0    0  501  0.00000000000E+00  0.00000000000E+00 -0.48457090718E+03  0.48457090719E+03  0.25500000920E-02 0.  1.
    10030    2    1    2    0    0  0.00000000000E+00  0.00000000000E+00  0.83577735737E+03  0.18049191717E+04  0.15997529264E+04 0.  0.
        1    1    3    3  502    0 -0.27750538242E+03  0.18274003701E+03 -0.40302309457E+03  0.52233205261E+03  0.50400001928E-02 0.  1.
       -1    1    3    3    0  502  0.27750538242E+03 -0.18274003701E+03  0.12388004519E+04  0.12825871191E+04  0.50400001928E-02 0. -1.
</event>
<event>
 5   0  0.9726935E-05  0.1600497E+04  0.7818609E-02  0.8820243E-01
        1   -1    0    0  501    0  0.00000000000E+00  0.00000000000E+00  0.87936040249E+03  0.87936040251E+03  0.50400001928E-02 0. -1.
       -1   -1    0    0    0  501  0.00000000000E+00  0.00000000000E+00 -0.72825385423E+03  0.72825385424E+03  0.50400001928E-02 0.  1.
    10030    2    1    2    0    0  0.00000000000E+00  0.00000000000E+00  0.15110654827E+03  0.16076142568E+04  0.16004969258E+04 0.  0.
        2    1    3    3  502    0 -0.22771767094E+03  0.24606648737E+03 -0.65430966666E+03  0.73520418508E+03  0.25500000920E-02 0.  1.
       -2    1    3    3    0  502  0.22771767094E+03 -0.24606648737E+03  0.80541621493E+03  0.87241007167E+03  0.25500000920E-02 0. -1.
</event>
<event>
 5   0  0.9673017E-05  0.1606007E+04  0.7818609E-02  0.8816866E-01
       -1   -1    0    0    0  501  0.00000000000E+00  0.00000000000E+00  0.90666309283E+03  0.90666309285E+03  0.50400001928E-02 0. -1.
        1   -1    0    0  501    0  0.00000000000E+00  0.00000000000E+00 -0.71119573586E+03  0.71119573588E+03  0.50400001928E-02 0.  1.
    10030    2    1    2    0    0  0.00000000000E+00  0.00000000000E+00  0.19546735697E+03  0.16178588287E+04  0.16060073792E+04 0.  0.
        1    1    3    3  502    0  0.67997752790E+03 -0.39842607928E+03 -0.57357438856E+02  0.79019153053E+03  0.50400001928E-02 0.  1.
       -1    1    3    3    0  502 -0.67997752790E+03  0.39842607928E+03  0.25282479583E+03  0.82766729820E+03  0.50400001928E-02 0. -1.
</event>
<event>
 5   0  0.9673017E-05  0.1597754E+04  0.7818609E-02  0.8821929E-01
        1   -1    0    0  501    0  0.00000000000E+00  0.00000000000E+00  0.17719432808E+04  0.17719432808E+04  0.50400001928E-02 0.  1.
       -1   -1    0    0    0  501  0.00000000000E+00  0.00000000000E+00 -0.36017210072E+03  0.36017210076E+03  0.50400001928E-02 0. -1.
    10030    2    1    2    0    0  0.00000000000E+00  0.00000000000E+00  0.14117711800E+04  0.21321153815E+04  0.15977540910E+04 0.  0.
        1    1    3    3  502    0  0.16945905049E+02  0.59604877536E+02  0.17687313509E+04  0.17698165150E+04  0.50400001928E-02 0.  1.
       -1    1    3    3    0  502 -0.16945905049E+02 -0.59604877536E+02 -0.35696017082E+03  0.36229886655E+03  0.50400001928E-02 0. -1.
</event>
<event>
 5   0  0.9673017E-05  0.1600561E+04  0.7818609E-02  0.8820203E-01
       -1   -1    0    0    0  501  0.00000000000E+00  0.00000000000E+00  0.46197776951E+03  0.46197776954E+03  0.50400001928E-02 0. -1.
        1   -1    0    0  501    0  0.00000000000E+00  0.00000000000E+00 -0.13863203404E+04  0.13863203404E+04  0.50400001928E-02 0.  1.
    10030    2    1    2    0    0  0.00000000000E+00  0.00000000000E+00 -0.92434257090E+03  0.18482981100E+04  0.16005613749E+04 0.  0.
        1    1    3    3  502    0  0.43023552787E+03  0.26434611587E+03 -0.11791292335E+04  0.12827030942E+04  0.50400001928E-02 0.  1.
       -1    1    3    3    0  502 -0.43023552787E+03 -0.26434611587E+03  0.25478666262E+03  0.56559501580E+03  0.50400001928E-02 0. -1.
</event>
<event>
 5   0  0.9673017E-05  0.1600148E+04  0.7818609E-02  0.8820457E-01
       -1   -1    0    0    0  501  0.00000000000E+00  0.00000000000E+00  0.67451878107E+03  0.67451878109E+03  0.50400001928E-02 0. -1.
        1   -1    0    0  501    0  0.00000000000E+00  0.00000000000E+00 -0.94899958490E+03  0.94899958492E+03  0.50400001928E-02 0.  1.
    10030    2    1    2    0    0  0.00000000000E+00  0.00000000000E+00 -0.27448080383E+03  0.16235183660E+04  0.16001475473E+04 0.  0.
        1    1    3    3  502    0 -0.73658526118E+02 -0.50074781296E+03  0.49144180741E+03  0.70547076534E+03  0.50400001928E-02 0. -1.
       -1    1    3    3    0  502  0.73658526118E+02  0.50074781296E+03 -0.76592261124E+03  0.91804760067E+03  0.50400001928E-02 0.  1.
</event>
<event>
 5   0  0.9726935E-05  0.1597358E+04  0.7818609E-02  0.8822173E-01
       -1   -1    0    0    0  501  0.00000000000E+00  0.00000000000E+00  0.51033104548E+03  0.51033104550E+03  0.50400001928E-02 0.  1.
        1   -1    0    0  501    0  0.00000000000E+00  0.00000000000E+00 -0.12499495416E+04  0.12499495416E+04  0.50400001928E-02 0. -1.
    10030    2    1    2    0    0  0.00000000000E+00  0.00000000000E+00 -0.73961849607E+03  0.17602805871E+04  0.15973578890E+04 0.  0.
        2    1    3    3  502    0  0.14085037742E+03 -0.17486297209E+03  0.47483400417E+03  0.52524586562E+03  0.25500000920E-02 0.  1.
       -2    1    3    3    0  502 -0.14085037742E+03  0.17486297209E+03 -0.12144525002E+04  0.12350347214E+04  0.25500000920E-02 0. -1.
</event>
<event>
 5   0  0.9432152E-05  0.1602937E+04  0.7818609E-02  0.8818746E-01
        1   -1    0    0  501    0  0.00000000000E+00  0.00000000000E+00  0.63858292513E+03  0.63858292515E+03  0.50400001928E-02 0. -1.
       -1   -1    0    0    0  501  0.00000000000E+00  0.00000000000E+00 -0.10059022665E+04  0.10059022665E+04  0.50400001928E-02 0.  1.
    10030    2    1    2    0    0  0.00000000000E+00  0.00000000000E+00 -0.36731934139E+03  0.16444851917E+04  0.16029373185E+04 0.  0.
        4    1    3    3  502    0  0.13321574030E+03 -0.60402244828E+03  0.33921821365E+03  0.70545032487E+03  0.12699999809E+01 0. -1.
       -4    1    3    3    0  502 -0.13321574030E+03  0.60402244828E+03 -0.70653755504E+03  0.93903486680E+03  0.12699999809E+01 0.  1.
</event>
<event>
 5   0  0.1832646E-04  0.1602728E+04  0.7818609E-02  0.8818874E-01
       -2   -1    0    0    0  501  0.00000000000E+00  0.00000000000E+00  0.84762885911E+03  0.84762885912E+03  0.25500000920E-02 0. -1.
        2   -1    0    0  501    0  0.00000000000E+00  0.00000000000E+00 -0.75762437928E+03  0.75762437928E+03  0.25500000920E-02 0.  1.
    10030    2    1    2    0    0  0.00000000000E+00  0.00000000000E+00  0.90004479835E+02  0.16052532384E+04  0.16027280346E+04 0.  0.
        2    1    3    3  502    0 -0.16216991659E+03 -0.47453955814E+03 -0.58104050873E+03  0.76752520928E+03  0.25500000920E-02 0.  1.
       -2    1    3    3    0  502  0.16216991659E+03  0.47453955814E+03  0.67104498856E+03  0.83772802912E+03  0.25500000920E-02 0. -1.
</event>
<event>
 5   0  0.9726935E-05  0.1616733E+04  0.7818609E-02  0.8810334E-01
       -1   -1    0    0    0  501  0.00000000000E+00  0.00000000000E+00  0.87900785467E+03  0.87900785468E+03  0.50400001928E-02 0.  1.
        1   -1    0    0  501    0  0.00000000000E+00  0.00000000000E+00 -0.74340203045E+03  0.74340203047E+03  0.50400001928E-02 0. -1.
    10030    2    1    2    0    0  0.00000000000E+00  0.00000000000E+00  0.13560582422E+03  0.16224098851E+04  0.16167327843E+04 0.  0.
        2    1    3    3  502    0  0.40008029257E+03 -0.21828510601E+03 -0.60218180291E+03  0.75520563542E+03  0.25500000920E-02 0. -1.
       -2    1    3    3    0  502 -0.40008029257E+03  0.21828510601E+03  0.73778762713E+03  0.86720424973E+03  0.25500000920E-02 0.  1.
</event>
<event>
 5   0  0.9616567E-05  0.1621066E+04  0.7818609E-02  0.8807710E-01
       -1   -1    0    0    0  501  0.00000000000E+00  0.00000000000E+00  0.91470190921E+03  0.91470190922E+03  0.50400001928E-02 0. -1.
        1   -1    0    0  501    0  0.00000000000E+00  0.00000000000E+00 -0.71822694167E+03  0.71822694169E+03  0.50400001928E-02 0.  1.
    10030    2    1    2    0    0  0.00000000000E+00  0.00000000000E+00  0.19647496754E+03  0.16329288509E+04  0.16210657665E+04 0.  0.
        5    1    3    3  502    0  0.75438115300E+03  0.28175283349E+03  0.19092104744E+03  0.82761616679E+03  0.46999998093E+01 0. -1.
       -5    1    3    3    0  502 -0.75438115300E+03 -0.28175283349E+03  0.55539200924E+01  0.80531268412E+03  0.46999998093E+01 0.  1.
</event>
<event>
 5   0  0.1774934E-04  0.1587503E+04  0.7818609E-02  0.8828262E-01
        2   -1    0    0  501    0  0.00000000000E+00  0.00000000000E+00  0.19755875362E+04  0.19755875362E+04  0.25500000920E-02 0. -1.
       -2   -1    0    0    0  501  0.00000000000E+00  0.00000000000E+00 -0.31891360736E+03  0.31891360737E+03  0.25500000920E-02 0.  1.
    10030    2    1    2    0    0  0.00000000000E+00  0.00000000000E+00  0.16566739288E+04  0.22945011435E+04  0.15875033831E+04 0.  0.
        1    1    3    3  502    0  0.23196350810E+01 -0.77540543683E+03  0.58312596061E+03  0.97020351377E+03  0.50400001928E-02 0.  1.
       -1    1    3    3    0  502 -0.23196350810E+01  0.77540543683E+03  0.10735479682E+04  0.13242976298E+04  0.50400001928E-02 0. -1.
</event>
<event>
 5   0  0.1774934E-04  0.1602217E+04  0.7818609E-02  0.8819187E-01
        2   -1    0    0  501    0  0.00000000000E+00  0.00000000000E+00  0.17071203917E+04  0.17071203917E+04  0.25500000920E-02 0. -1.
       -2   -1    0    0    0  501  0.00000000000E+00  0.00000000000E+00 -0.37594020522E+03  0.37594020522E+03  0.25500000920E-02 0.  1.
    10030    2    1    2    0    0  0.00000000000E+00  0.00000000000E+00  0.13311801865E+04  0.20830605969E+04  0.16022174514E+04 0.  0.
        1    1    3    3  502    0 -0.69999291134E+03 -0.54940147249E+02  0.16413354944E+03  0.72107441904E+03  0.50400001928E-02 0.  1.
       -1    1    3    3    0  502  0.69999291134E+03  0.54940147249E+02  0.11670466370E+04  0.13619861779E+04  0.50400001928E-02 0. -1.
</event>
<event>
 5   0  0.1832646E-04  0.1602300E+04  0.7818609E-02  0.8819136E-01
       -2   -1    0    0    0  501  0.00000000000E+00  0.00000000000E+00  0.51703948133E+03  0.51703948133E+03  0.25500000920E-02 0.  1.
        2   -1    0    0  501    0  0.00000000000E+00  0.00000000000E+00 -0.12413775107E+04  0.12413775107E+04  0.25500000920E-02 0. -1.
    10030    2    1    2    0    0  0.00000000000E+00  0.00000000000E+00 -0.72433802934E+03  0.17584169920E+04  0.16022998274E+04 0.  0.
        2    1    3    3  502    0 -0.50804309251E+03 -0.21960456893E+03 -0.99783508365E+03  0.11410560042E+04  0.25500000920E-02 0. -1.
       -2    1    3    3    0  502  0.50804309251E+03  0.21960456893E+03  0.27349705431E+03  0.61736098781E+03  0.25500000920E-02 0.  1.
</event>
<event>
 5   0  0.1835088E-04  0.1591921E+04  0.7818609E-02  0.8825527E-01
        2   -1    0    0  501    0  0.00000000000E+00  0.00000000000E+00  0.16939974072E+04  0.16939974072E+04  0.25500000920E-02 0. -1.
       -2   -1    0    0    0  501  0.00000000000E+00  0.00000000000E+00 -0.37399868209E+03  0.37399868210E+03  0.25500000920E-02 0.  1.
    10030    2    1    2    0    0  0.00000000000E+00  0.00000000000E+00  0.13199987251E+04  0.20679960893E+04  0.15919205982E+04 0.  0.
        5    1    3    3  502    0 -0.21663585645E+03  0.13141933894E+03 -0.32018958301E+03  0.40834494734E+03  0.46999998093E+01 0.  1.
       -5    1    3    3    0  502  0.21663585645E+03 -0.13141933894E+03  0.16401883081E+04  0.16596511419E+04  0.46999998093E+01 0. -1.
</event>
<event>
 5   0  0.9432152E-05  0.1600086E+04  0.7818609E-02  0.8820495E-01
       -1   -1    0    0    0  501  0.00000000000E+00  0.00000000000E+00  0.93324178151E+03  0.93324178153E+03  0.50400001928E-02 0.  1.
        1   -1    0    0  501    0  0.00000000000E+00  0.00000000000E+00 -0.68585522592E+03  0.68585522594E+03  0.50400001928E-02 0. -1.
    10030    2    1    2    0    0  0.00000000000E+00  0.00000000000E+00  0.24738655559E+03  0.16190970075E+04  0.16000859388E+04 0.  0.
        4    1    3    3  502    0 -0.23120253078E+02 -0.24510140011E+03 -0.64657232534E+03  0.69185737493E+03  0.12699999809E+01 0. -1.
       -4    1    3    3    0  502  0.23120253078E+02  0.24510140011E+03  0.89395888094E+03  0.92723963254E+03  0.12699999809E+01 0.  1.
</event>
<event>
 5   0  0.1774934E-04  0.1601759E+04  0.7818609E-02  0.8819468E-01
        2   -1    0    0  501    0  0.00000000000E+00  0.00000000000E+00  0.79511668849E+03  0.79511668849E+03  0.25500000920E-02 0. -1.
       -2   -1    0    0    0  501  0.00000000000E+00  0.00000000000E+00 -0.80668428900E+03  0.80668428901E+03  0.25500000920E-02 0.  1.
    10030    2    1    2    0    0  0.00000000000E+00  0.00000000000E+00 -0.11567600514E+02  0.16018009775E+04  0.16017592085E+04 0.  0.
        1    1    3    3  502    0 -0.12687433806E+03  0.53542275442E+03 -0.58772123519E+03  0.80510302069E+03  0.50400001928E-02 0.  1.
       -1    1    3    3    0  502  0.12687433806E+03 -0.53542275442E+03  0.57615363468E+03  0.79669795681E+03  0.50400001928E-02 0. -1.
</event>
<event>
 5   0  0.9673017E-05  0.1598683E+04  0.7818609E-02  0.8821357E-01
       -1   -1    0    0    0  501  0.00000000000E+00  0.00000000000E+00  0.10386039549E+04  0.10386039549E+04  0.50400001928E-02 0. -1.
        1   -1    0    0  501    0  0.00000000000E+00  0.00000000000E+00 -0.61519795700E+03  0.61519795703E+03  0.50400001928E-02 0.  1.
    10030    2    1    2    0    0  0.00000000000E+00  0.00000000000E+00  0.42340599787E+03  0.16538019119E+04  0.15986832472E+04 0.  0.
        1    1    3    3  502    0 -0.61578433989E+03 -0.49979033510E+03  0.10842970747E+03  0.80046095083E+03  0.50400001928E-02 0.  1.
       -1    1    3    3    0  502  0.61578433989E+03  0.49979033510E+03  0.31497629040E+03  0.85334096108E+03  0.50400001928E-02 0. -1.
</event>
<event>
 5   0  0.9726935E-05  0.1605118E+04  0.7818609E-02  0.8817410E-01
       -1   -1    0    0    0  501  0.00000000000E+00  0.00000000000E+00  0.56701298892E+03  0.56701298894E+03  0.50400001928E-02 0.  1.
        1   -1    0    0  501    0  0.00000000000E+00  0.00000000000E+00 -0.11359546360E+04  0.11359546360E+04  0.50400001928E-02 0. -1.
    10030    2    1    2    0    0  0.00000000000E+00  0.00000000000E+00 -0.56894164710E+03  0.17029676250E+04  0.16051181059E+04 0.  0.
        2    1    3    3  502    0  0.25297856288E+03 -0.54561115390E+03  0.27934916787E+03  0.66311812080E+03  0.25500000920E-02 0.  1.
       -2    1    3    3    0  502 -0.25297856288E+03  0.54561115390E+03 -0.84829081497E+03  0.10398495042E+04  0.25500000920E-02 0. -1.
</event>
<event>
 5   0  0.9673017E-05  0.1608125E+04  0.7818609E-02  0.8815572E-01
        1   -1    0    0  501    0  0.00000000000E+00  0.00000000000E+00  0.90031709750E+03  0.90031709752E+03  0.50400001928E-02 0. -1.
       -1   -1    0    0    0  501  0.00000000000E+00  0.00000000000E+00 -0.71809843910E+03  0.71809843911E+03  0.50400001928E-02 0.  1.
    10030    2    1    2    0    0  0.00000000000E+00  0.00000000000E+00  0.18221865841E+03  0.16184155366E+04  0.16081247494E+04 0.  0.
        1    1    3    3  502    0 -0.32355385221E+03  0.66689189981E+03 -0.22246827017E+03  0.77390182360E+03  0.50400001928E-02 0. -1.
       -1    1    3    3    0  502  0.32355385221E+03 -0.66689189981E+03  0.40468692858E+03  0.84451371303E+03  0.50400001928E-02 0.  1.
</event>
<event>
 5   0  0.9616567E-05  0.1591986E+04  0.7818609E-02  0.8825486E-01
       -1   -1    0    0    0  501  0.00000000000E+00  0.00000000000E+00  0.59630442484E+03  0.59630442486E+03  0.50400001928E-02 0. -1.
        1   -1    0    0  501    0  0.00000000000E+00  0.00000000000E+00 -0.10625530426E+04  0.10625530426E+04  0.50400001928E-02 0.  1.
    10030    2    1    2    0    0  0.00000000000E+00  0.00000000000E+00 -0.46624861773E+03  0.16588574674E+04  0.15919862825E+04 0.  0.
        5    1    3    3  502    0 -0.74052839005E+03  0.27750434875E+03 -0.13881261572E+03  0.80292091287E+03  0.46999998093E+01 0. -1.
       -5    1    3    3    0  502  0.74052839005E+03 -0.27750434875E+03 -0.32743600201E+03  0.85593655457E+03  0.46999998093E+01 0.  1.
</event>
<event>
 5   0  0.9726935E-05  0.1593820E+04  0.7818609E-02  0.8824354E-01
       -1   -1    0    0    0  501  0.00000000000E+00  0.00000000000E+00  0.59734665292E+03  0.59734665294E+03  0.50400001928E-02 0.  1.
        1   -1    0    0  501    0  0.00000000000E+00  0.00000000000E+00 -0.10631434310E+04  0.10631434310E+04  0.50400001928E-02 0. -1.
    10030    2    1    2    0    0  0.00000000000E+00  0.00000000000E+00 -0.46579677803E+03  0.16604900839E+04  0.15938195256E+04 0.  0.
        2    1    3    3  502    0 -0.24206316769E+03  0.39668788990E+03 -0.90736553262E+03  0.10194449808E+04  0.25500000920E-02 0. -1.
       -2    1    3    3    0  502  0.24206316769E+03 -0.39668788990E+03  0.44156875459E+03  0.64104510307E+03  0.25500000920E-02 0.  1.
</event>
<event>
 5   0  0.1774934E-04  0.1604001E+04  0.7818609E-02  0.8818094E-01
        2   -1    0    0  501    0  0.00000000000E+00  0.00000000000E+00  0.11949632556E+04  0.11949632556E+04  0.25500000920E-02 0. -1.
       -2   -1    0    0    0  501  0.00000000000E+00  0.00000000000E+00 -0.53826333564E+03  0.53826333565E+03  0.25500000920E-02 0.  1.
    10030    2    1    2    0    0  0.00000000000E+00  0.00000000000E+00  0.65669991994E+03  0.17332265912E+04  0.16040011321E+04 0.  0.
        1    1    3    3  502    0  0.49768675679E+03 -0.37826064833E+03 -0.21455349243E+03  0.66091332798E+03  0.50400001928E-02 0.  1.
       -1    1    3    3    0  502 -0.49768675679E+03  0.37826064833E+03  0.87125341237E+03  0.10723132633E+04  0.50400001928E-02 0. -1.
</event>
<event>
 5   0  0.1914170E-04  0.1600342E+04  0.7818609E-02  0.8820338E-01
       -2   -1    0    0    0  501  0.00000000000E+00  0.00000000000E+00  0.61727940799E+03  0.61727940799E+03  0.25500000920E-02 0. -1.
        2   -1    0    0  501    0  0.00000000000E+00  0.00000000000E+00 -0.10372510915E+04  0.10372510915E+04  0.25500000920E-02 0.  1.
    10030    2    1    2    0    0  0.00000000000E+00  0.00000000000E+00 -0.41997168349E+03  0.16545304995E+04  0.16003421380E+04 0.  0.
        3    1    3    3  502    0  0.53270878378E+03 -0.13945877999E+03  0.39022901063E+03  0.67491191319E+03  0.10100000352E+00 0. -1.
       -3    1    3    3    0  502 -0.53270878378E+03  0.13945877999E+03 -0.81020069412E+03  0.97961858628E+03  0.10100000352E+00 0.  1.
</event>
<event>
 5   0  0.9673017E-05  0.1601458E+04  0.7818609E-02  0.8819653E-01
       -1   -1    0    0    0  501  0.00000000000E+00  0.00000000000E+00  0.58076984554E+03  0.58076984557E+03  0.50400001928E-02 0.  1.
        1   -1    0    0  501    0  0.00000000000E+00  0.00000000000E+00 -0.11039953302E+04  0.11039953302E+04  0.50400001928E-02 0. -1.
    10030    2    1    2    0    0  0.00000000000E+00  0.00000000000E+00 -0.52322548463E+03  0.16847651758E+04  0.16014583322E+04 0.  0.
        1    1    3    3  502    0  0.46049181539E+03  0.63621983373E+03 -0.42573723272E+03  0.89335355835E+03  0.50400001928E-02 0. -1.
       -1    1    3    3    0  502 -0.46049181539E+03 -0.63621983373E+03 -0.97488251912E+02  0.79141161740E+03  0.50400001928E-02 0.  1.
</event>
<event>
 5   0  0.9726935E-05  0.1606564E+04  0.7818609E-02  0.8816525E-01
        1   -1    0    0  501    0  0.00000000000E+00  0.00000000000E+00  0.55717565294E+03  0.55717565296E+03  0.50400001928E-02 0.  1.
       -1   -1    0    0    0  501  0.00000000000E+00  0.00000000000E+00 -0.11580948100E+04  0.11580948100E+04  0.50400001928E-02 0. -1.
    10030    2    1    2    0    0  0.00000000000E+00  0.00000000000E+00 -0.60091915705E+03  0.17152704630E+04  0.16065643242E+04 0.  0.
        2    1    3    3  502    0  0.16402099707E+03  0.59283757775E+03  0.25112380951E+03  0.66439630401E+03  0.25500000920E-02 0.  1.
       -2    1    3    3    0  502 -0.16402099707E+03 -0.59283757775E+03 -0.85204296656E+03  0.10508741590E+04  0.25500000920E-02 0. -1.
</event>
<event>
 5   0  0.6838750E-05  0.1597268E+04  0.7818609E-02  0.8822228E-01
        3   -1    0    0  501    0  0.00000000000E+00  0.00000000000E+00  0.66430608934E+03  0.66430609701E+03  0.10100000352E+00 0.  1.
       -3   -1    0    0    0  501  0.00000000000E+00  0.00000000000E+00 -0.96012380946E+03  0.96012381477E+03  0.10100000352E+00 0. -1.
    10030    2    1    2    0    0  0.00000000000E+00  0.00000000000E+00 -0.29581772012E+03  0.16244299118E+04  0.15972677968E+04 0.  0.
        3    1    3    3  502    0 -0.71243128832E+03 -0.31383399947E+03  0.33352121752E+02  0.77920632314E+03  0.10100000352E+00 0.  1.
       -3    1    3    3    0  502  0.71243128832E+03  0.31383399947E+03 -0.32916984187E+03  0.84522358864E+03  0.10100000352E+00 0. -1.
</event>
<event>
 5   0  0.9673017E-05  0.1570592E+04  0.7818609E-02  0.8838821E-01
       -1   -1    0    0    0  501  0.00000000000E+00  0.00000000000E+00  0.53117131929E+03  0.53117131931E+03  0.50400001928E-02 0.  1.
        1   -1    0    0  501    0  0.00000000000E+00  0.00000000000E+00 -0.11609994705E+04  0.11609994705E+04  0.50400001928E-02 0. -1.
    10030    2    1    2    0    0  0.00000000000E+00  0.00000000000E+00 -0.62982815122E+03  0.16921707898E+04  0.15705917617E+04 0.  0.
        1    1    3    3  502    0  0.79454350924E+02  0.34948814386E+03 -0.10677410713E+04  0.11262885740E+04  0.50400001928E-02 0. -1.
       -1    1    3    3    0  502 -0.79454350924E+02 -0.34948814386E+03  0.43791292008E+03  0.56588221582E+03  0.50400001928E-02 0.  1.
</event>
<event>
 5   0  0.9726935E-05  0.1603536E+04  0.7818609E-02  0.8818379E-01
        1   -1    0    0  501    0  0.00000000000E+00  0.00000000000E+00  0.11689001412E+04  0.11689001412E+04  0.50400001928E-02 0.  1.
       -1   -1    0    0    0  501  0.00000000000E+00  0.00000000000E+00 -0.54994581152E+03  0.54994581154E+03  0.50400001928E-02 0. -1.
    10030    2    1    2    0    0  0.00000000000E+00  0.00000000000E+00  0.61895432971E+03  0.17188459528E+04  0.16035357642E+04 0.  0.
        2    1    3    3  502    0 -0.63915809620E+03  0.39788802192E+03  0.13984061952E+02  0.75301627069E+03  0.25500000920E-02 0. -1.
       -2    1    3    3    0  502  0.63915809620E+03 -0.39788802192E+03  0.60497026776E+03  0.96582968209E+03  0.25500000920E-02 0.  1.
</event>
<event>
 5   0  0.9939872E-05  0.1578742E+04  0.7818609E-02  0.8833715E-01
       -1   -1    0    0    0  501  0.00000000000E+00  0.00000000000E+00  0.74146284793E+03  0.74146284795E+03  0.50400001928E-02 0. -1.
        1   -1    0    0  501    0  0.00000000000E+00  0.00000000000E+00 -0.84037464497E+03  0.84037464498E+03  0.50400001928E-02 0.  1.
    10030    2    1    2    0    0  0.00000000000E+00  0.00000000000E+00 -0.98911797036E+02  0.15818374929E+04  0.15787420025E+04 0.  0.
        3    1    3    3  502    0 -0.24121928480E+03 -0.39078446407E+03 -0.69274849745E+03  0.83114362877E+03  0.10100000352E+00 0.  1.
       -3    1    3    3    0  502  0.24121928480E+03  0.39078446407E+03  0.59383670042E+03  0.75069386416E+03  0.10100000352E+00 0. -1.
</event>
<event>
 5   0  0.1774934E-04  0.1602725E+04  0.7818609E-02  0.8818876E-01
       -2   -1    0    0    0  501  0.00000000000E+00  0.00000000000E+00  0.97932332825E+03  0.97932332825E+03  0.25500000920E-02 0. -1.
        2   -1    0    0  501    0  0.00000000000E+00  0.00000000000E+00 -0.65574002280E+03  0.65574002280E+03  0.25500000920E-02 0.  1.
    10030    2    1    2    0    0  0.00000000000E+00  0.00000000000E+00  0.32358330545E+03  0.16350633511E+04  0.16027245572E+04 0.  0.
        1    1    3    3  502    0  0.22227563248E+03 -0.16487585922E+02 -0.62348203290E+03  0.66212396321E+03  0.50400001928E-02 0.  1.
       -1    1    3    3    0  502 -0.22227563248E+03  0.16487585922E+02  0.94706533835E+03  0.97293938784E+03  0.50400001928E-02 0. -1.
</event>
<event>
 5   0  0.9616567E-05  0.1598188E+04  0.7818609E-02  0.8821662E-01
       -1   -1    0    0    0  501  0.00000000000E+00  0.00000000000E+00  0.10775896210E+04  0.10775896210E+04  0.50400001928E-02 0.  1.
        1   -1    0    0  501    0  0.00000000000E+00  0.00000000000E+00 -0.59257368320E+03  0.59257368322E+03  0.50400001928E-02 0. -1.
    10030    2    1    2    0    0  0.00000000000E+00  0.00000000000E+00  0.48501593783E+03  0.16701633043E+04  0.15981880374E+04 0.  0.
        5    1    3    3  502    0  0.28042175527E+03  0.55195357197E+03 -0.28545744790E+03  0.68176033252E+03  0.46999998093E+01 0. -1.
       -5    1    3    3    0  502 -0.28042175527E+03 -0.55195357197E+03  0.77047338573E+03  0.98840297175E+03  0.46999998093E+01 0.  1.
</event>
<event>
 5   0  0.1832646E-04  0.1595003E+04  0.7818609E-02  0.8823623E-01
        2   -1    0    0  501    0  0.00000000000E+00  0.00000000000E+00  0.21267884327E+04  0.21267884327E+04  0.25500000920E-02 0.  1.
       -2   -1    0    0    0  501  0.00000000000E+00  0.00000000000E+00 -0.29904665417E+03  0.29904665418E+03  0.25500000920E-02 0. -1.
    10030    2    1    2    0    0  0.00000000000E+00  0.00000000000E+00  0.18277417785E+04  0.24258350869E+04  0.15950034043E+04 0.  0.
        2    1    3    3  502    0  0.98874264862E+02 -0.45118985626E+03 -0.74899654959E+02  0.46792987184E+03  0.25500000920E-02 0. -1.
       -2    1    3    3    0  502 -0.98874264862E+02  0.45118985626E+03  0.19026414335E+04  0.19579052150E+04  0.25500000920E-02 0.  1.
</event>
<event>
 5   0  0.9726935E-05  0.1595929E+04  0.7818609E-02  0.8823053E-01
        1   -1    0    0  501    0  0.00000000000E+00  0.00000000000E+00  0.69806121931E+03  0.69806121933E+03  0.50400001928E-02 0.  1.
       -1   -1    0    0    0  501  0.00000000000E+00  0.00000000000E+00 -0.91216567851E+03  0.91216567852E+03  0.50400001928E-02 0. -1.
    10030    2    1    2    0    0  0.00000000000E+00  0.00000000000E+00 -0.21410445920E+03  0.16102268978E+04  0.15959291786E+04 0.  0.
        2    1    3    3  502    0 -0.47152062998E+03 -0.73599108583E+02 -0.75231195618E+03  0.89091066482E+03  0.25500000920E-02 0. -1.
       -2    1    3    3    0  502  0.47152062998E+03  0.73599108583E+02  0.53820749698E+03  0.71931623302E+03  0.25500000920E-02 0.  1.
</event>
<event>
 5   0  0.1914170E-04  0.1599144E+04  0.7818609E-02  0.8821074E-01
        2   -1    0    0  501    0  0.00000000000E+00  0.00000000000E+00  0.21444304922E+04  0.21444304922E+04  0.25500000920E-02 0.  1.
       -2   -1    0    0    0  501  0.00000000000E+00  0.00000000000E+00 -0.29812818773E+03  0.29812818774E+03  0.25500000920E-02 0. -1.
    10030    2    1    2    0    0  0.00000000000E+00  0.00000000000E+00  0.18463023044E+04  0.24425586799E+04  0.15991437413E+04 0.  0.
        3    1    3    3  502    0 -0.72514943218E+03  0.24312762553E+03  0.56702250209E+03  0.95208574685E+03  0.10100000352E+00 0. -1.
       -3    1    3    3    0  502  0.72514943218E+03 -0.24312762553E+03  0.12792798023E+04  0.14904729331E+04  0.10100000352E+00 0.  1.
</event>
<event>
 5   0  0.9673017E-05  0.1585073E+04  0.7818609E-02  0.8829771E-01
        1   -1    0    0  501    0  0.00000000000E+00  0.00000000000E+00  0.67790963648E+03  0.67790963650E+03  0.50400001928E-02 0.  1.
       -1   -1    0    0    0  501  0.00000000000E+00  0.00000000000E+00 -0.92654584647E+03  0.92654584648E+03  0.50400001928E-02 0. -1.
    10030    2    1    2    0    0  0.00000000000E+00  0.00000000000E+00 -0.24863620999E+03  0.16044554830E+04  0.15850733207E+04 0.  0.
        1    1    3    3  502    0  0.61841192852E+03 -0.34640613975E+03  0.23453608425E+03  0.74661750705E+03  0.50400001928E-02 0.  1.
       -1    1    3    3    0  502 -0.61841192852E+03  0.34640613975E+03 -0.48317229425E+03  0.85783797593E+03  0.50400001928E-02 0. -1.
</event>
<event>
 5   0  0.1914170E-04  0.1662147E+04  0.7818609E-02  0.8783253E-01
       -2   -1    0    0    0  501  0.00000000000E+00  0.00000000000E+00  0.13276914119E+04  0.13276914119E+04  0.25500000920E-02 0.  1.
        2   -1    0    0  501    0  0.00000000000E+00  0.00000000000E+00 -0.52021355449E+03  0.52021355450E+03  0.25500000920E-02 0. -1.
    10030    2    1    2    0    0  0.00000000000E+00  0.00000000000E+00  0.80747785743E+03  0.18479049664E+04  0.16621468872E+04 0.  0.
        3    1    3    3  502    0 -0.11839043549E+03  0.23408507425E+03 -0.47297996089E+03  0.54085318785E+03  0.10100000352E+00 0. -1.
       -3    1    3    3    0  502  0.11839043549E+03 -0.23408507425E+03  0.12804578183E+04  0.13070517786E+04  0.10100000352E+00 0.  1.
</event>
<event>
 5   0  0.9939872E-05  0.1594396E+04  0.7818609E-02  0.8823998E-01
       -1   -1    0    0    0  501  0.00000000000E+00  0.00000000000E+00  0.53175474623E+03  0.53175474626E+03  0.50400001928E-02 0.  1.
        1   -1    0    0  501    0  0.00000000000E+00  0.00000000000E+00 -0.11951457537E+04  0.11951457537E+04  0.50400001928E-02 0. -1.
    10030    2    1    2    0    0  0.00000000000E+00  0.00000000000E+00 -0.66339100750E+03  0.17269005000E+04  0.15943957188E+04 0.  0.
        3    1    3    3  502    0 -0.60773988356E+03 -0.51580916110E+03 -0.34343910044E+03  0.86796156750E+03  0.10100000352E+00 0.  1.
       -3    1    3    3    0  502  0.60773988356E+03  0.51580916110E+03 -0.31995190706E+03  0.85893893251E+03  0.10100000352E+00 0. -1.
</event>
<event>
 5   0  0.9616567E-05  0.1601818E+04  0.7818609E-02  0.8819432E-01
       -1   -1    0    0    0  501  0.00000000000E+00  0.00000000000E+00  0.76835280722E+03  0.76835280723E+03  0.50400001928E-02 0. -1.
        1   -1    0    0  501    0  0.00000000000E+00  0.00000000000E+00 -0.83484512503E+03  0.83484512505E+03  0.50400001928E-02 0.  1.
    10030    2    1    2    0    0  0.00000000000E+00  0.00000000000E+00 -0.66492317815E+02  0.16031979323E+04  0.16018184609E+04 0.  0.
        5    1    3    3  502    0 -0.45648553236E+03  0.42763176162E+03 -0.53386242030E+03  0.82236192677E+03  0.46999998093E+01 0.  1.
       -5    1    3    3    0  502  0.45648553236E+03 -0.42763176162E+03  0.46737010249E+03  0.78083600551E+03  0.46999998093E+01 0. -1.
</event>
<event>
 5   0  0.9939872E-05  0.1598873E+04  0.7818609E-02  0.8821240E-01
       -1   -1    0    0    0  501  0.00000000000E+00  0.00000000000E+00  0.74891141583E+03  0.74891141584E+03  0.50400001928E-02 0. -1.
        1   -1    0    0  501    0  0.00000000000E+00  0.00000000000E+00 -0.85337064618E+03  0.85337064620E+03  0.50400001928E-02 0.  1.
    10030    2    1    2    0    0  0.00000000000E+00  0.00000000000E+00 -0.10445923036E+03  0.16022820620E+04  0.15988733770E+04 0.  0.
        3    1    3    3  502    0  0.37213145434E+03 -0.44977020364E+03  0.49512522439E+03  0.76545676130E+03  0.10100000352E+00 0. -1.
       -3    1    3    3    0  502 -0.37213145434E+03  0.44977020364E+03 -0.59958445475E+03  0.83682530074E+03  0.10100000352E+00 0.  1.
</event>
<event>
 5   0  0.1835088E-04  0.1599537E+04  0.7818609E-02  0.8820833E-01
        2   -1    0    0  501    0  0.00000000000E+00  0.00000000000E+00  0.11485098797E+04  0.11485098797E+04  0.25500000920E-02 0.  1.
       -2   -1    0    0    0  501  0.00000000000E+00  0.00000000000E+00 -0.55692132517E+03  0.55692132518E+03  0.25500000920E-02 0. -1.
    10030    2    1    2    0    0  0.00000000000E+00  0.00000000000E+00  0.59158855453E+03  0.17054312049E+04  0.15995369882E+04 0.  0.
        5    1    3    3  502    0  0.20773680606E+03  0.75619679763E+03  0.46308753793E+03  0.91074713017E+03  0.46999998093E+01 0.  1.
       -5    1    3    3    0  502 -0.20773680606E+03 -0.75619679763E+03  0.12850101660E+03  0.79468407471E+03  0.46999998093E+01 0. -1.
</event>
<event>
 5   0  0.1774934E-04  0.1595881E+04  0.7818609E-02  0.8823082E-01
        2   -1    0    0  501    0  0.00000000000E+00  0.00000000000E+00  0.17717712925E+04  0.17717712925E+04  0.25500000920E-02 0.  1.
       -2   -1    0    0    0  501  0.00000000000E+00  0.00000000000E+00 -0.35936317344E+03  0.35936317345E+03  0.25500000920E-02 0. -1.
    10030    2    1    2    0    0  0.00000000000E+00  0.00000000000E+00  0.14124081190E+04  0.21311344659E+04  0.15958813919E+04 0.  0.
        1    1    3    3  502    0  0.36241300316E+03 -0.37352183256E+03  0.15139231602E+04  0.16008825938E+04  0.50400001928E-02 0.  1.
       -1    1    3    3    0  502 -0.36241300316E+03  0.37352183256E+03 -0.10151504114E+03  0.53025187210E+03  0.50400001928E-02 0. -1.
</event>
<event>
 5   0  0.1774934E-04  0.1586891E+04  0.7818609E-02  0.8828642E-01
        2   -1    0    0  501    0  0.00000000000E+00  0.00000000000E+00  0.10914405921E+04  0.10914405921E+04  0.25500000920E-02 0.  1.
       -2   -1    0    0    0  501  0.00000000000E+00  0.00000000000E+00 -0.57681171298E+03  0.57681171298E+03  0.25500000920E-02 0. -1.
    10030    2    1    2    0    0  0.00000000000E+00  0.00000000000E+00  0.51462887909E+03  0.16682523050E+04  0.15868909446E+04 0.  0.
        1    1    3    3  502    0 -0.71384565964E+03  0.34585462345E+03  0.27738989253E+03  0.84031910538E+03  0.50400001928E-02 0. -1.
       -1    1    3    3    0  502  0.71384565964E+03 -0.34585462345E+03  0.23723898655E+03  0.82793319967E+03  0.50400001928E-02 0.  1.
</event>
<event>
 5   0  0.9726935E-05  0.1600232E+04  0.7818609E-02  0.8820405E-01
        1   -1    0    0  501    0  0.00000000000E+00  0.00000000000E+00  0.68936017679E+03  0.68936017681E+03  0.50400001928E-02 0. -1.
       -1   -1    0    0    0  501  0.00000000000E+00  0.00000000000E+00 -0.92866676724E+03  0.92866676725E+03  0.50400001928E-02 0.  1.
    10030    2    1    2    0    0  0.00000000000E+00  0.00000000000E+00 -0.23930659045E+03  0.16180269441E+04  0.16002323417E+04 0.  0.
        2    1    3    3  502    0 -0.73823971390E+03 -0.30823660629E+03 -0.10615545957E+03  0.80701713875E+03  0.25500000920E-02 0.  1.
       -2    1    3    3    0  502  0.73823971390E+03  0.30823660629E+03 -0.13315113088E+03  0.81100980531E+03  0.25500000920E-02 0. -1.
</event>
<event>
 5   0  0.6838750E-05  0.1531863E+04  0.7818609E-02  0.8863537E-01
       -4   -1    0    0    0  501  0.00000000000E+00  0.00000000000E+00  0.27254600307E+03  0.27254896200E+03  0.12699999809E+01 0. -1.
        4   -1    0    0  501    0  0.00000000000E+00  0.00000000000E+00 -0.21524686070E+04  0.21524689817E+04  0.12699999809E+01 0.  1.
    10030    2    1    2    0    0  0.00000000000E+00  0.00000000000E+00 -0.18799226040E+04  0.24250179437E+04  0.15318626016E+04 0.  0.
        4    1    3    3  502    0 -0.73630622103E+03 -0.66935762159E+01 -0.60617569121E+03  0.95375166401E+03  0.12699999809E+01 0.  1.
       -4    1    3    3    0  502  0.73630622103E+03  0.66935762159E+01 -0.12737469128E+04  0.14712662797E+04  0.12699999809E+01 0. -1.
</event>
<event>
 5   0  0.1832646E-04  0.1599932E+04  0.7818609E-02  0.8820590E-01
       -2   -1    0    0    0  501  0.00000000000E+00  0.00000000000E+00  0.30666714637E+03  0.30666714638E+03  0.25500000920E-02 0.  1.
        2   -1    0    0  501    0  0.00000000000E+00  0.00000000000E+00 -0.20867750917E+04  0.20867750917E+04  0.25500000920E-02 0. -1.
    10030    2    1    2    0    0  0.00000000000E+00  0.00000000000E+00 -0.17801079454E+04  0.23934422381E+04  0.15999317017E+04 0.  0.
        2    1    3    3  502    0 -0.36289288617E+03 -0.69919746401E+03 -0.10982943889E+04  0.13515986480E+04  0.25500000920E-02 0. -1.
       -2    1    3    3    0  502  0.36289288617E+03  0.69919746401E+03 -0.68181355647E+03  0.10418435901E+04  0.25500000920E-02 0.  1.
</event>
<event>
 5   0  0.9616567E-05  0.1591938E+04  0.7818609E-02  0.8825516E-01
        1   -1    0    0  501    0  0.00000000000E+00  0.00000000000E+00  0.77264866634E+03  0.77264866635E+03  0.50400001928E-02 0. -1.
       -1   -1    0    0    0  501  0.00000000000E+00  0.00000000000E+00 -0.81999346301E+03  0.81999346303E+03  0.50400001928E-02 0.  1.
    10030    2    1    2    0    0  0.00000000000E+00  0.00000000000E+00 -0.47344796673E+02  0.15926421294E+04  0.15919382596E+04 0.  0.
        5    1    3    3  502    0 -0.39609853964E+03 -0.68499827293E+03 -0.10989680699E+03  0.79888427523E+03  0.46999998093E+01 0.  1.
       -5    1    3    3    0  502  0.39609853964E+03  0.68499827293E+03  0.62552010313E+02  0.79375785415E+03  0.46999998093E+01 0. -1.
</event>
<event>
 5   0  0.9432152E-05  0.1597178E+04  0.7818609E-02  0.8822284E-01
        1   -1    0    0  501    0  0.00000000000E+00  0.00000000000E+00  0.82919116615E+03  0.82919116617E+03  0.50400001928E-02 0.  1.
       -1   -1    0    0    0  501  0.00000000000E+00  0.00000000000E+00 -0.76911612732E+03  0.76911612734E+03  0.50400001928E-02 0. -1.
    10030    2    1    2    0    0  0.00000000000E+00  0.00000000000E+00  0.60075038828E+02  0.15983072935E+04  0.15971778843E+04 0.  0.
        4    1    3    3  502    0  0.49920145769E+03  0.11019925991E+03  0.64398313827E+03  0.82222981430E+03  0.12699999809E+01 0.  1.
       -4    1    3    3    0  502 -0.49920145769E+03 -0.11019925991E+03 -0.58390809944E+03  0.77607747921E+03  0.12699999809E+01 0. -1.
</event>
<event>
 5   0  0.9939872E-05  0.1598401E+04  0.7818609E-02  0.8821531E-01
       -1   -1    0    0    0  501  0.00000000000E+00  0.00000000000E+00  0.66076091624E+03  0.66076091626E+03  0.50400001928E-02 0.  1.
        1   -1    0    0  501    0  0.00000000000E+00  0.00000000000E+00 -0.96664546112E+03  0.96664546113E+03  0.50400001928E-02 0. -1.
    10030    2    1    2    0    0  0.00000000000E+00  0.00000000000E+00 -0.30588454488E+03  0.16274063774E+04  0.15984011269E+04 0.  0.
        3    1    3    3  502    0  0.66724270930E+02 -0.63579902671E+03 -0.64125892174E+03  0.90548635860E+03  0.10100000352E+00 0. -1.
       -3    1    3    3    0  502 -0.66724270930E+02  0.63579902671E+03  0.33537437686E+03  0.72192001880E+03  0.10100000352E+00 0.  1.
</event>
<event>
 5   0  0.9616567E-05  0.1603535E+04  0.7818609E-02  0.8818379E-01
       -1   -1    0    0    0  501  0.00000000000E+00  0.00000000000E+00  0.26874825200E+03  0.26874825205E+03  0.50400001928E-02 0.  1.
        1   -1    0    0  501    0  0.00000000000E+00  0.00000000000E+00 -0.23919464352E+04  0.23919464352E+04  0.50400001928E-02 0. -1.
    10030    2    1    2    0    0  0.00000000000E+00  0.00000000000E+00 -0.21231981832E+04  0.26606946872E+04  0.16035353734E+04 0.  0.
        5    1    3    3  502    0  0.97310154899E+02 -0.54390671018E+03 -0.97643643719E+02  0.56112400304E+03  0.46999998093E+01 0.  1.
       -5    1    3    3    0  502 -0.97310154899E+02  0.54390671018E+03 -0.20255545394E+04  0.20995706842E+04  0.46999998093E+01 0. -1.
</event>
<event>
 5   0  0.1832646E-04  0.1628645E+04  0.7818609E-02  0.8803141E-01
        2   -1    0    0  501    0  0.00000000000E+00  0.00000000000E+00  0.23213011062E+04  0.23213011062E+04  0.25500000920E-02 0. -1.
       -2   -1    0    0    0  501  0.00000000000E+00  0.00000000000E+00 -0.28566784624E+03  0.28566784625E+03  0.25500000920E-02 0.  1.
    10030    2    1    2    0    0  0.00000000000E+00  0.00000000000E+00  0.20356332600E+04  0.26069689525E+04  0.16286449429E+04 0.  0.
        2    1    3    3  502    0  0.38296922968E+03 -0.27129608148E+03  0.20830377664E+04  0.21352548633E+04  0.25500000920E-02 0. -1.
       -2    1    3    3    0  502 -0.38296922968E+03  0.27129608148E+03 -0.47404506454E+02  0.47171408920E+03  0.25500000920E-02 0.  1.
</event>
<event>
 5   0  0.1832646E-04  0.1596342E+04  0.7818609E-02  0.8822798E-01
        2   -1    0    0  501    0  0.00000000000E+00  0.00000000000E+00  0.85722513274E+03  0.85722513274E+03  0.25500000920E-02 0. -1.
       -2   -1    0    0    0  501  0.00000000000E+00  0.00000000000E+00 -0.74318512652E+03  0.74318512652E+03  0.25500000920E-02 0.  1.
    10030    2    1    2    0    0  0.00000000000E+00  0.00000000000E+00  0.11404000622E+03  0.16004102593E+04  0.15963420294E+04 0.  0.
        2    1    3    3  502    0 -0.35880030726E+03  0.46627858520E+02  0.77028596464E+03  0.85103013167E+03  0.25500000920E-02 0. -1.
       -2    1    3    3    0  502  0.35880030726E+03 -0.46627858520E+02 -0.65624595842E+03  0.74938012759E+03  0.25500000920E-02 0.  1.
</event>
<event>
 5   0  0.9432152E-05  0.1608348E+04  0.7818609E-02  0.8815436E-01
       -1   -1    0    0    0  501  0.00000000000E+00  0.00000000000E+00  0.12784390710E+04  0.12784390710E+04  0.50400001928E-02 0. -1.
        1   -1    0    0  501    0  0.00000000000E+00  0.00000000000E+00 -0.50584824572E+03  0.50584824575E+03  0.50400001928E-02 0.  1.
    10030    2    1    2    0    0  0.00000000000E+00  0.00000000000E+00  0.77259082526E+03  0.17842873167E+04  0.16083484216E+04 0.  0.
        4    1    3    3  502    0  0.33579000941E+03  0.72438207371E+03  0.27982722209E+03  0.84604326500E+03  0.12699999809E+01 0. -1.
       -4    1    3    3    0  502 -0.33579000941E+03 -0.72438207371E+03  0.49276360317E+03  0.93824405174E+03  0.12699999809E+01 0.  1.
</event>
<event>
 5   0  0.9673017E-05  0.1601945E+04  0.7818609E-02  0.8819354E-01
        1   -1    0    0  501    0  0.00000000000E+00  0.00000000000E+00  0.12065782997E+04  0.12065782997E+04  0.50400001928E-02 0. -1.
       -1   -1    0    0    0  501  0.00000000000E+00  0.00000000000E+00 -0.53171616631E+03  0.53171616633E+03  0.50400001928E-02 0.  1.
    10030    2    1    2    0    0  0.00000000000E+00  0.00000000000E+00  0.67486213338E+03  0.17382944660E+04  0.16019453023E+04 0.  0.
        1    1    3    3  502    0 -0.32602996129E+03  0.72847507156E+03  0.41091282526E+03  0.89767522831E+03  0.50400001928E-02 0. -1.
       -1    1    3    3    0  502  0.32602996129E+03 -0.72847507156E+03  0.26394930812E+03  0.84061923772E+03  0.50400001928E-02 0.  1.
</event>
<event>
 5   0  0.9673017E-05  0.1597880E+04  0.7818609E-02  0.8821851E-01
        1   -1    0    0  501    0  0.00000000000E+00  0.00000000000E+00  0.94314528181E+03  0.94314528183E+03  0.50400001928E-02 0. -1.
       -1   -1    0    0    0  501  0.00000000000E+00  0.00000000000E+00 -0.67678357880E+03  0.67678357882E+03  0.50400001928E-02 0.  1.
    10030    2    1    2    0    0  0.00000000000E+00  0.00000000000E+00  0.26636170301E+03  0.16199288606E+04  0.15978801447E+04 0.  0.
        1    1    3    3  502    0  0.45656357350E+03 -0.56044122348E+03 -0.21175003538E+03  0.75324812587E+03  0.50400001928E-02 0.  1.
       -1    1    3    3    0  502 -0.45656357350E+03  0.56044122348E+03  0.47811173840E+03  0.86668073478E+03  0.50400001928E-02 0. -1.
</event>
<event>
 5   0  0.6838750E-05  0.1599917E+04  0.7818609E-02  0.8820599E-01
        3   -1    0    0  501    0  0.00000000000E+00  0.00000000000E+00  0.63095807685E+03  0.63095808494E+03  0.10100000352E+00 0.  1.
       -3   -1    0    0    0  501  0.00000000000E+00  0.00000000000E+00 -0.10142246407E+04  0.10142246457E+04  0.10100000352E+00 0. -1.
    10030    2    1    2    0    0  0.00000000000E+00  0.00000000000E+00 -0.38326656382E+03  0.16451827306E+04  0.15999165473E+04 0.  0.
        5    1    3    3  502    0  0.66775723830E+03 -0.42879173880E+03 -0.88040420559E+02  0.79845807042E+03  0.46999998093E+01 0. -1.
       -5    1    3    3    0  502 -0.66775723830E+03  0.42879173880E+03 -0.29522614326E+03  0.84672466022E+03  0.46999998093E+01 0.  1.
</event>
<event>
 5   0  0.9616567E-05  0.1605767E+04  0.7818609E-02  0.8817013E-01
       -1   -1    0    0    0  501  0.00000000000E+00  0.00000000000E+00  0.12826919003E+04  0.12826919003E+04  0.50400001928E-02 0. -1.
        1   -1    0    0  501    0  0.00000000000E+00  0.00000000000E+00 -0.50255392499E+03  0.50255392502E+03  0.50400001928E-02 0.  1.
    10030    2    1    2    0    0  0.00000000000E+00  0.00000000000E+00  0.78013797527E+03  0.17852458253E+04  0.16057669184E+04 0.  0.
        5    1    3    3  502    0 -0.42972414494E+03 -0.44113755437E+03  0.96274955110E+03  0.11428796834E+04  0.46999998093E+01 0.  1.
       -5    1    3    3    0  502  0.42972414494E+03  0.44113755437E+03 -0.18261157583E+03  0.64236614188E+03  0.46999998093E+01 0. -1.
</event>
<event>
 5   0  0.1774934E-04  0.1594388E+04  0.7818609E-02  0.8824003E-01
        2   -1    0    0  501    0  0.00000000000E+00  0.00000000000E+00  0.26694824524E+04  0.26694824524E+04  0.25500000920E-02 0.  1.
       -2   -1    0    0    0  501  0.00000000000E+00  0.00000000000E+00 -0.23806795250E+03  0.23806795251E+03  0.25500000920E-02 0. -1.
    10030    2    1    2    0    0  0.00000000000E+00  0.00000000000E+00  0.24314144999E+04  0.29075504049E+04  0.15943879348E+04 0.  0.
        1    1    3    3  502    0  0.48746758815E+03 -0.51039059670E+03  0.53975077172E+03  0.88851229946E+03  0.50400001928E-02 0. -1.
       -1    1    3    3    0  502 -0.48746758815E+03  0.51039059670E+03  0.18916637281E+04  0.20190381054E+04  0.50400001928E-02 0.  1.
</event>
<event>
 5   0  0.1914170E-04  0.1596133E+04  0.7818609E-02  0.8822927E-01
        2   -1    0    0  501    0  0.00000000000E+00  0.00000000000E+00  0.11410951332E+04  0.11410951332E+04  0.25500000920E-02 0.  1.
       -2   -1    0    0    0  501  0.00000000000E+00  0.00000000000E+00 -0.55815671225E+03  0.55815671225E+03  0.25500000920E-02 0. -1.
    10030    2    1    2    0    0  0.00000000000E+00  0.00000000000E+00  0.58293842090E+03  0.16992518454E+04  0.15961327111E+04 0.  0.
        3    1    3    3  502    0 -0.14441801770E+03  0.71170497669E+03 -0.60864361843E+02  0.72875580164E+03  0.10100000352E+00 0.  1.
       -3    1    3    3    0  502  0.14441801770E+03 -0.71170497669E+03  0.64380278275E+03  0.97049604376E+03  0.10100000352E+00 0. -1.
</event>
<event>
 5   0  0.1774934E-04  0.1598190E+04  0.7818609E-02  0.8821661E-01
       -2   -1    0    0    0  501  0.00000000000E+00  0.00000000000E+00  0.72458982077E+03  0.72458982078E+03  0.25500000920E-02 0.  1.
        2   -1    0    0  501    0  0.00000000000E+00  0.00000000000E+00 -0.88126146650E+03  0.88126146651E+03  0.25500000920E-02 0. -1.
    10030    2    1    2    0    0  0.00000000000E+00  0.00000000000E+00 -0.15667164573E+03  0.16058512873E+04  0.15981903367E+04 0.  0.
        1    1    3    3  502    0  0.25084519607E+03 -0.51628284317E+03  0.48028039648E+03  0.74842537758E+03  0.50400001928E-02 0.  1.
       -1    1    3    3    0  502 -0.25084519607E+03  0.51628284317E+03 -0.63695204221E+03  0.85742590971E+03  0.50400001928E-02 0. -1.
</event>
<event>
 5   0  0.1914170E-04  0.1593563E+04  0.7818609E-02  0.8824512E-01
        2   -1    0    0  501    0  0.00000000000E+00  0.00000000000E+00  0.31974738602E+03  0.31974738603E+03  0.25500000920E-02 0. -1.
       -2   -1    0    0    0  501  0.00000000000E+00  0.00000000000E+00 -0.19855083790E+04  0.19855083790E+04  0.25500000920E-02 0.  1.
    10030    2    1    2    0    0  0.00000000000E+00  0.00000000000E+00 -0.16657609929E+04  0.23052557650E+04  0.15935634460E+04 0.  0.
        3    1    3    3  502    0 -0.64347403099E+03  0.81047601947E+02 -0.16331431276E+03  0.66880424437E+03  0.10100000352E+00 0. -1.
       -3    1    3    3    0  502  0.64347403099E+03 -0.81047601947E+02 -0.15024466802E+04  0.16364515206E+04  0.10100000352E+00 0.  1.
</event>
<event>
 5   0  0.1835088E-04  0.1586606E+04  0.7818609E-02  0.8828819E-01
        2   -1    0    0  501    0  0.00000000000E+00  0.00000000000E+00  0.17576634301E+04  0.17576634301E+04  0.25500000920E-02 0. -1.
       -2   -1    0    0    0  501  0.00000000000E+00  0.00000000000E+00 -0.35804878905E+03  0.35804878906E+03  0.25500000920E-02 0.  1.
    10030    2    1    2    0    0  0.00000000000E+00  0.00000000000E+00  0.13996146411E+04  0.21157122192E+04  0.15866055121E+04 0.  0.
        5    1    3    3  502    0  0.38502765124E+03  0.37552270100E+03  0.14774049473E+04  0.15722630376E+04  0.46999998093E+01 0. -1.
       -5    1    3    3    0  502 -0.38502765124E+03 -0.37552270100E+03 -0.77790306234E+02  0.54344918155E+03  0.46999998093E+01 0.  1.
</event>
<event>
 5   0  0.6838750E-05  0.1601948E+04  0.7818609E-02  0.8819352E-01
       -4   -1    0    0    0  501  0.00000000000E+00  0.00000000000E+00  0.58617062833E+03  0.58617200412E+03  0.12699999809E+01 0.  1.
        4   -1    0    0  501    0  0.00000000000E+00  0.00000000000E+00 -0.10944890923E+04  0.10944898291E+04  0.12699999809E+01 0. -1.
    10030    2    1    2    0    0  0.00000000000E+00  0.00000000000E+00 -0.50831846400E+03  0.16806618333E+04  0.16019477323E+04 0.  0.
        4    1    3    3  502    0 -0.30458484303E+03 -0.14404200326E+03  0.50820827367E+03  0.60975182463E+03  0.12699999809E+01 0.  1.
       -4    1    3    3    0  502  0.30458484303E+03  0.14404200326E+03 -0.10165267377E+04  0.10709100086E+04  0.12699999809E+01 0. -1.
</event>
<event>
 5   0  0.9673017E-05  0.1599976E+04  0.7818609E-02  0.8820562E-01
       -1   -1    0    0    0  501  0.00000000000E+00  0.00000000000E+00  0.52594053414E+03  0.52594053416E+03  0.50400001928E-02 0. -1.
        1   -1    0    0  501    0  0.00000000000E+00  0.00000000000E+00 -0.12168317320E+04  0.12168317320E+04  0.50400001928E-02 0.  1.
    10030    2    1    2    0    0  0.00000000000E+00  0.00000000000E+00 -0.69089119781E+03  0.17427722661E+04  0.15999764137E+04 0.  0.
        1    1    3    3  502    0 -0.67067718593E+02  0.46540698100E+03 -0.10504170956E+04  0.11508595968E+04  0.50400001928E-02 0.  1.
       -1    1    3    3    0  502  0.67067718593E+02 -0.46540698100E+03  0.35952589781E+03  0.59191266929E+03  0.50400001928E-02 0. -1.
</event>
<event>
 5   0  0.1774934E-04  0.1596939E+04  0.7818609E-02  0.8822431E-01
       -2   -1    0    0    0  501  0.00000000000E+00  0.00000000000E+00  0.78939050597E+03  0.78939050597E+03  0.25500000920E-02 0.  1.
        2   -1    0    0  501    0  0.00000000000E+00  0.00000000000E+00 -0.80765316670E+03  0.80765316671E+03  0.25500000920E-02 0. -1.
    10030    2    1    2    0    0  0.00000000000E+00  0.00000000000E+00 -0.18262660735E+02  0.15970436727E+04  0.15969392498E+04 0.  0.
        1    1    3    3  502    0 -0.50037215110E+03  0.32215507437E+03 -0.54151711524E+03  0.80460982325E+03  0.50400001928E-02 0. -1.
       -1    1    3    3    0  502  0.50037215110E+03 -0.32215507437E+03  0.52325445451E+03  0.79243384943E+03  0.50400001928E-02 0.  1.
</event>
<event>
 5   0  0.9939872E-05  0.1595704E+04  0.7818609E-02  0.8823192E-01
        1   -1    0    0  501    0  0.00000000000E+00  0.00000000000E+00  0.17433371562E+04  0.17433371562E+04  0.50400001928E-02 0.  1.
       -1   -1    0    0    0  501  0.00000000000E+00  0.00000000000E+00 -0.36514328405E+03  0.36514328409E+03  0.50400001928E-02 0. -1.
    10030    2    1    2    0    0  0.00000000000E+00  0.00000000000E+00  0.13781938722E+04  0.21084804403E+04  0.15957040508E+04 0.  0.
        3    1    3    3  502    0  0.22772893300E+03  0.58554137236E+03  0.13389109729E+04  0.14789867374E+04  0.10100000352E+00 0.  1.
       -3    1    3    3    0  502 -0.22772893300E+03 -0.58554137236E+03  0.39282899230E+02  0.62949370294E+03  0.10100000352E+00 0. -1.
</event>
<event>
 5   0  0.9726935E-05  0.1601501E+04  0.7818609E-02  0.8819626E-01
        1   -1    0    0  501    0  0.00000000000E+00  0.00000000000E+00  0.19367970445E+04  0.19367970445E+04  0.50400001928E-02 0.  1.
       -1   -1    0    0    0  501  0.00000000000E+00  0.00000000000E+00 -0.33106274505E+03  0.33106274508E+03  0.50400001928E-02 0. -1.
    10030    2    1    2    0    0  0.00000000000E+00  0.00000000000E+00  0.16057342995E+04  0.22678597896E+04  0.16015009787E+04 0.  0.
        2    1    3    3  502    0 -0.58977114732E+03  0.31745022124E+03  0.14243274776E+04  0.15739483513E+04  0.25500000920E-02 0.  1.
       -2    1    3    3    0  502  0.58977114732E+03 -0.31745022124E+03  0.18140682190E+03  0.69391143831E+03  0.25500000920E-02 0. -1.
</event>
<event>
 5   0  0.9432152E-05  0.1597583E+04  0.7818609E-02  0.8822034E-01
        1   -1    0    0  501    0  0.00000000000E+00  0.00000000000E+00  0.80746935944E+03  0.80746935946E+03  0.50400001928E-02 0. -1.
       -1   -1    0    0    0  501  0.00000000000E+00  0.00000000000E+00 -0.79020653738E+03  0.79020653740E+03  0.50400001928E-02 0.  1.
    10030    2    1    2    0    0  0.00000000000E+00  0.00000000000E+00  0.17262822058E+02  0.15976758969E+04  0.15975826321E+04 0.  0.
        4    1    3    3  502    0  0.67555751900E+03  0.48932493728E+02 -0.41482406211E+03  0.79426252954E+03  0.12699999809E+01 0.  1.
       -4    1    3    3    0  502 -0.67555751900E+03 -0.48932493728E+02  0.43208688417E+03  0.80341336732E+03  0.12699999809E+01 0. -1.
</event>
<event>
 5   0  0.1858913E-04  0.1601693E+04  0.7818609E-02  0.8819509E-01
        2   -1    0    0  501    0  0.00000000000E+00  0.00000000000E+00  0.12236981534E+04  0.12236981534E+04  0.25500000920E-02 0. -1.
       -2   -1    0    0    0  501  0.00000000000E+00  0.00000000000E+00 -0.52411212955E+03  0.52411212955E+03  0.25500000920E-02 0.  1.
    10030    2    1    2    0    0  0.00000000000E+00  0.00000000000E+00  0.69958602384E+03  0.17478102829E+04  0.16016929108E+04 0.  0.
        4    1    3    3  502    0 -0.23085383190E+02  0.32778585473E+03 -0.44715896215E+03  0.55491373366E+03  0.12699999809E+01 0.  1.
       -4    1    3    3    0  502  0.23085383190E+02 -0.32778585473E+03  0.11467449860E+04  0.11928965493E+04  0.12699999809E+01 0. -1.
</event>
<event>
 5   0  0.9616567E-05  0.1590993E+04  0.7818609E-02  0.8826101E-01
        1   -1    0    0  501    0  0.00000000000E+00  0.00000000000E+00  0.19001297001E+04  0.19001297002E+04  0.50400001928E-02 0.  1.
       -1   -1    0    0    0  501  0.00000000000E+00  0.00000000000E+00 -0.33303757348E+03  0.33303757352E+03  0.50400001928E-02 0. -1.
    10030    2    1    2    0    0  0.00000000000E+00  0.00000000000E+00  0.15670921267E+04  0.22331672737E+04  0.15909928783E+04 0.  0.
        5    1    3    3  502    0  0.11602399266E+03  0.78697518995E+03  0.78215780458E+03  0.11156094468E+04  0.46999998093E+01 0. -1.
       -5    1    3    3    0  502 -0.11602399266E+03 -0.78697518995E+03  0.78493432208E+03  0.11175578269E+04  0.46999998093E+01 0.  1.
</event>
<event>
 5   0  0.9616567E-05  0.1639054E+04  0.7818609E-02  0.8796908E-01
        1   -1    0    0  501    0  0.00000000000E+00  0.00000000000E+00  0.13525206944E+04  0.13525206944E+04  0.50400001928E-02 0.  1.
       -1   -1    0    0    0  501  0.00000000000E+00  0.00000000000E+00 -0.49657244176E+03  0.49657244178E+03  0.50400001928E-02 0. -1.
    10030    2    1    2    0    0  0.00000000000E+00  0.00000000000E+00  0.85594825266E+03  0.18490931362E+04  0.16390540001E+04 0.  0.
        5    1    3    3  502    0  0.62650684129E+01  0.72020324549E+03 -0.13115956495E+02  0.72036524361E+03  0.46999998093E+01 0. -1.
       -5    1    3    3    0  502 -0.62650684129E+01 -0.72020324549E+03  0.86906420916E+03  0.11287278926E+04  0.46999998093E+01 0.  1.
</event>
<event>
 5   0  0.9616567E-05  0.1603990E+04  0.7818609E-02  0.8818100E-01
        1   -1    0    0  501    0  0.00000000000E+00  0.00000000000E+00  0.15662378387E+04  0.15662378387E+04  0.50400001928E-02 0.  1.
       -1   -1    0    0    0  501  0.00000000000E+00  0.00000000000E+00 -0.41066313156E+03  0.41066313159E+03  0.50400001928E-02 0. -1.
    10030    2    1    2    0    0  0.00000000000E+00  0.00000000000E+00  0.11555747072E+04  0.19769009703E+04  0.16039901941E+04 0.  0.
        5    1    3    3  502    0  0.33632368769E+03  0.11560467535E+03 -0.30814537874E+03  0.47058870397E+03  0.46999998093E+01 0. -1.
       -5    1    3    3    0  502 -0.33632368769E+03 -0.11560467535E+03  0.14637200859E+04  0.15063122664E+04  0.46999998093E+01 0.  1.
</event>
<event>
 5   0  0.1835088E-04  0.1598105E+04  0.7818609E-02  0.8821713E-01
        2   -1    0    0  501    0  0.00000000000E+00  0.00000000000E+00  0.10870449044E+04  0.10870449044E+04  0.25500000920E-02 0. -1.
       -2   -1    0    0    0  501  0.00000000000E+00  0.00000000000E+00 -0.58735808297E+03  0.58735808297E+03  0.25500000920E-02 0.  1.
    10030    2    1    2    0    0  0.00000000000E+00  0.00000000000E+00  0.49968682139E+03  0.16744029873E+04  0.15981046413E+04 0.  0.
        5    1    3    3  502    0  0.53369481669E+03 -0.15851380055E+03 -0.35067490491E+03  0.65799069998E+03  0.46999998093E+01 0.  1.
       -5    1    3    3    0  502 -0.53369481669E+03  0.15851380055E+03  0.85036172630E+03  0.10164122874E+04  0.46999998093E+01 0. -1.
</event>
<event>
 5   0  0.1774934E-04  0.1605957E+04  0.7818609E-02  0.8816897E-01
       -2   -1    0    0    0  501  0.00000000000E+00  0.00000000000E+00  0.21099750512E+04  0.21099750512E+04  0.25500000920E-02 0. -1.
        2   -1    0    0  501    0  0.00000000000E+00  0.00000000000E+00 -0.30558381032E+03  0.30558381033E+03  0.25500000920E-02 0.  1.
    10030    2    1    2    0    0  0.00000000000E+00  0.00000000000E+00  0.18043912409E+04  0.24155588615E+04  0.16059566817E+04 0.  0.
        1    1    3    3  502    0 -0.31301535211E+03 -0.69010000310E+03  0.50265984796E+03  0.90933137398E+03  0.50400001928E-02 0.  1.
       -1    1    3    3    0  502  0.31301535211E+03  0.69010000310E+03  0.13017313929E+04  0.15062274876E+04  0.50400001928E-02 0. -1.
</event>
<event>
 5   0  0.9726935E-05  0.1596713E+04  0.7818609E-02  0.8822570E-01
        1   -1    0    0  501    0  0.00000000000E+00  0.00000000000E+00  0.10517971327E+04  0.10517971327E+04  0.50400001928E-02 0. -1.
       -1   -1    0    0    0  501  0.00000000000E+00  0.00000000000E+00 -0.60598459934E+03  0.60598459936E+03  0.50400001928E-02 0.  1.
    10030    2    1    2    0    0  0.00000000000E+00  0.00000000000E+00  0.44581253337E+03  0.16577817321E+04  0.15967127031E+04 0.  0.
        2    1    3    3  502    0  0.94923513170E+02 -0.78217560535E+03  0.89283820175E+02  0.79295696700E+03  0.25500000920E-02 0.  1.
       -2    1    3    3    0  502 -0.94923513170E+02  0.78217560535E+03  0.35652871320E+03  0.86482476508E+03  0.25500000920E-02 0. -1.
</event>
<event>
 5   0  0.6838750E-05  0.1608848E+04  0.7818609E-02  0.8815131E-01
        4   -1    0    0  501    0  0.00000000000E+00  0.00000000000E+00  0.89193642185E+03  0.89193732600E+03  0.12699999809E+01 0. -1.
       -4   -1    0    0    0  501  0.00000000000E+00  0.00000000000E+00 -0.72549560357E+03  0.72549671516E+03  0.12699999809E+01 0.  1.
    10030    2    1    2    0    0  0.00000000000E+00  0.00000000000E+00  0.16644081828E+03  0.16174340412E+04  0.16088475166E+04 0.  0.
        2    1    3    3  502    0  0.27783529000E+02  0.78190086717E+03 -0.10474453530E+03  0.78937463111E+03  0.25500000920E-02 0.  1.
       -2    1    3    3    0  502 -0.27783529000E+02 -0.78190086717E+03  0.27118535357E+03  0.82805941005E+03  0.25500000920E-02 0. -1.
</event>
<event>
 5   0  0.1774934E-04  0.1601159E+04  0.7818609E-02  0.8819836E-01
        2   -1    0    0  501    0  0.00000000000E+00  0.00000000000E+00  0.12031031563E+04  0.12031031563E+04  0.25500000920E-02 0. -1.
       -2   -1    0    0    0  501  0.00000000000E+00  0.00000000000E+00 -0.53272896109E+03  0.53272896110E+03  0.25500000920E-02 0.  1.
    10030    2    1    2    0    0  0.00000000000E+00  0.00000000000E+00  0.67037419516E+03  0.17358321173E+04  0.16011594481E+04 0.  0.
        1    1    3    3  502    0  0.72897442405E+03  0.29034979752E+03  0.50735644228E+03  0.93440744614E+03  0.50400001928E-02 0.  1.
       -1    1    3    3    0  502 -0.72897442405E+03 -0.29034979752E+03  0.16301775288E+03  0.80142467121E+03  0.50400001928E-02 0. -1.
</event>
<event>
 5   0  0.6838750E-05  0.1638066E+04  0.7818609E-02  0.8797498E-01
       -3   -1    0    0    0  501  0.00000000000E+00  0.00000000000E+00  0.14958437512E+04  0.14958437546E+04  0.10100000352E+00 0.  1.
        3   -1    0    0  501    0  0.00000000000E+00  0.00000000000E+00 -0.44845263952E+03  0.44845265089E+03  0.10100000352E+00 0. -1.
    10030    2    1    2    0    0  0.00000000000E+00  0.00000000000E+00  0.10473911117E+04  0.19442964055E+04  0.16380660462E+04 0.  0.
        3    1    3    3  502    0  0.14981531899E+03  0.76655156574E+03  0.23109668507E+03  0.81452539603E+03  0.10100000352E+00 0. -1.
       -3    1    3    3    0  502 -0.14981531899E+03 -0.76655156574E+03  0.81629442662E+03  0.11297710095E+04  0.10100000352E+00 0.  1.
</event>
<event>
 5   0  0.1774934E-04  0.1584909E+04  0.7818609E-02  0.8829873E-01
        2   -1    0    0  501    0  0.00000000000E+00  0.00000000000E+00  0.13497082057E+04  0.13497082057E+04  0.25500000920E-02 0.  1.
       -2   -1    0    0    0  501  0.00000000000E+00  0.00000000000E+00 -0.46527379971E+03  0.46527379971E+03  0.25500000920E-02 0. -1.
    10030    2    1    2    0    0  0.00000000000E+00  0.00000000000E+00  0.88443440602E+03  0.18149820054E+04  0.15849086603E+04 0.  0.
        1    1    3    3  502    0  0.29704802066E+03  0.73567466402E+02  0.12793118362E+04  0.13154043002E+04  0.50400001928E-02 0.  1.
       -1    1    3    3    0  502 -0.29704802066E+03 -0.73567466402E+02 -0.39487743018E+03  0.49957770525E+03  0.50400001928E-02 0. -1.
</event>
<event>
 5   0  0.1914170E-04  0.1595579E+04  0.7818609E-02  0.8823268E-01
       -2   -1    0    0    0  501  0.00000000000E+00  0.00000000000E+00  0.33816204626E+03  0.33816204627E+03  0.25500000920E-02 0. -1.
        2   -1    0    0  501    0  0.00000000000E+00  0.00000000000E+00 -0.18821402214E+04  0.18821402214E+04  0.25500000920E-02 0.  1.
    10030    2    1    2    0    0  0.00000000000E+00  0.00000000000E+00 -0.15439781751E+04  0.22203022676E+04  0.15955793789E+04 0.  0.
        3    1    3    3  502    0 -0.22339488920E+03 -0.67548235432E+03 -0.26971159857E+03  0.76087189732E+03  0.10100000352E+00 0. -1.
       -3    1    3    3    0  502  0.22339488920E+03  0.67548235432E+03 -0.12742665765E+04  0.14594303703E+04  0.10100000352E+00 0.  1.
</event>
<event>
 5   0  0.9432152E-05  0.1596800E+04  0.7818609E-02  0.8822516E-01
       -1   -1    0    0    0  501  0.00000000000E+00  0.00000000000E+00  0.45845040210E+03  0.45845040213E+03  0.50400001928E-02 0.  1.
        1   -1    0    0  501    0  0.00000000000E+00  0.00000000000E+00 -0.13904284894E+04  0.13904284894E+04  0.50400001928E-02 0. -1.
    10030    2    1    2    0    0  0.00000000000E+00  0.00000000000E+00 -0.93197808733E+03  0.18488788916E+04  0.15967999250E+04 0.  0.
        4    1    3    3  502    0  0.47918312018E+03 -0.63024385206E+03 -0.58529473160E+03  0.98457874823E+03  0.12699999809E+01 0.  1.
       -4    1    3    3    0  502 -0.47918312018E+03  0.63024385206E+03 -0.34668335573E+03  0.86430014333E+03  0.12699999809E+01 0. -1.
</event>
<event>
 5   0  0.9432152E-05  0.1601327E+04  0.7818609E-02  0.8819733E-01
       -1   -1    0    0    0  501  0.00000000000E+00  0.00000000000E+00  0.31306677585E+03  0.31306677589E+03  0.50400001928E-02 0.  1.
        1   -1    0    0  501    0  0.00000000000E+00  0.00000000000E+00 -0.20476836430E+04  0.20476836430E+04  0.50400001928E-02 0. -1.
    10030    2    1    2    0    0  0.00000000000E+00  0.00000000000E+00 -0.17346168671E+04  0.23607504189E+04  0.16013265952E+04 0.  0.
        4    1    3    3  502    0 -0.10571631235E+03  0.40444751399E+02 -0.20358276258E+04  0.20389721557E+04  0.12699999809E+01 0. -1.
       -4    1    3    3    0  502  0.10571631235E+03 -0.40444751399E+02  0.30121075870E+03  0.32177826320E+03  0.12699999809E+01 0.  1.
</event>
<event>
 5   0  0.9673017E-05  0.1594590E+04  0.7818609E-02  0.8823879E-01
       -1   -1    0    0    0  501  0.00000000000E+00  0.00000000000E+00  0.14553981799E+04  0.14553981799E+04  0.50400001928E-02 0. -1.
        1   -1    0    0  501    0  0.00000000000E+00  0.00000000000E+00 -0.43677340194E+03  0.43677340197E+03  0.50400001928E-02 0.  1.
    10030    2    1    2    0    0  0.00000000000E+00  0.00000000000E+00  0.10186247779E+04  0.18921715819E+04  0.15945898711E+04 0.  0.
        1    1    3    3  502    0  0.47682950441E+03 -0.63880316300E+03  0.49080124201E+03  0.93612056730E+03  0.50400001928E-02 0. -1.
       -1    1    3    3    0  502 -0.47682950441E+03  0.63880316300E+03  0.52782353593E+03  0.95605101456E+03  0.50400001928E-02 0.  1.
</event>
<event>
 5   0  0.1835088E-04  0.1671334E+04  0.7818609E-02  0.8777885E-01
        2   -1    0    0  501    0  0.00000000000E+00  0.00000000000E+00  0.78334298305E+03  0.78334298305E+03  0.25500000920E-02 0.  1.
       -2   -1    0    0    0  501  0.00000000000E+00  0.00000000000E+00 -0.89148557112E+03  0.89148557112E+03  0.25500000920E-02 0. -1.
    10030    2    1    2    0    0  0.00000000000E+00  0.00000000000E+00 -0.10814258807E+03  0.16748285542E+04  0.16713335593E+04 0.  0.
        5    1    3    3  502    0  0.27555474943E+03  0.25512543643E+03  0.69401338100E+03  0.78911093723E+03  0.46999998093E+01 0.  1.
       -5    1    3    3    0  502 -0.27555474943E+03 -0.25512543643E+03 -0.80215596907E+03  0.88571761694E+03  0.46999998093E+01 0. -1.
</event>
<event>
 5   0  0.9673017E-05  0.1603194E+04  0.7818609E-02  0.8818588E-01
        1   -1    0    0  501    0  0.00000000000E+00  0.00000000000E+00  0.31303251370E+03  0.31303251374E+03  0.50400001928E-02 0.  1.
       -1   -1    0    0    0  501  0.00000000000E+00  0.00000000000E+00 -0.20526867855E+04  0.20526867855E+04  0.50400001928E-02 0. -1.
    10030    2    1    2    0    0  0.00000000000E+00  0.00000000000E+00 -0.17396542718E+04  0.23657192993E+04  0.16031939426E+04 0.  0.
        1    1    3    3  502    0  0.53785825133E+03  0.24151599010E+03 -0.68442127881E+02  0.59355353330E+03  0.50400001928E-02 0.  1.
       -1    1    3    3    0  502 -0.53785825133E+03 -0.24151599010E+03 -0.16712121439E+04  0.17721657660E+04  0.50400001928E-02 0. -1.
</event>
<event>
 5   0  0.6838750E-05  0.1601784E+04  0.7818609E-02  0.8819453E-01
        3   -1    0    0  501    0  0.00000000000E+00  0.00000000000E+00  0.62095413374E+03  0.62095414196E+03  0.10100000352E+00 0.  1.
       -3   -1    0    0    0  501  0.00000000000E+00  0.00000000000E+00 -0.10329709756E+04  0.10329709805E+04  0.10100000352E+00 0. -1.
    10030    2    1    2    0    0  0.00000000000E+00  0.00000000000E+00 -0.41201684186E+03  0.16539251225E+04  0.16017835162E+04 0.  0.
        5    1    3    3  502    0 -0.74444050892E+03 -0.28095597159E+03 -0.29995131847E+03  0.85036510556E+03  0.46999998093E+01 0. -1.
       -5    1    3    3    0  502  0.74444050892E+03  0.28095597159E+03 -0.11206552339E+03  0.80356001694E+03  0.46999998093E+01 0.  1.
</event>
<event>
 5   0  0.1835088E-04  0.1596694E+04  0.7818609E-02  0.8822582E-01
        2   -1    0    0  501    0  0.00000000000E+00  0.00000000000E+00  0.13604970336E+04  0.13604970336E+04  0.25500000920E-02 0. -1.
       -2   -1    0    0    0  501  0.00000000000E+00  0.00000000000E+00 -0.46847405806E+03  0.46847405807E+03  0.25500000920E-02 0.  1.
    10030    2    1    2    0    0  0.00000000000E+00  0.00000000000E+00  0.89202297549E+03  0.18289710916E+04  0.15966935414E+04 0.  0.
        5    1    3    3  502    0 -0.66016349239E+03 -0.43242880560E+03  0.58406353786E+03  0.98181607995E+03  0.46999998093E+01 0. -1.
       -5    1    3    3    0  502  0.66016349239E+03  0.43242880560E+03  0.30795943763E+03  0.84715501168E+03  0.46999998093E+01 0.  1.
</event>
<event>
 5   0  0.1774934E-04  0.1625175E+04  0.7818609E-02  0.8805230E-01
        2   -1    0    0  501    0  0.00000000000E+00  0.00000000000E+00  0.19348729472E+04  0.19348729472E+04  0.25500000920E-02 0.  1.
       -2   -1    0    0    0  501  0.00000000000E+00  0.00000000000E+00 -0.34126186603E+03  0.34126186604E+03  0.25500000920E-02 0. -1.
    10030    2    1    2    0    0  0.00000000000E+00  0.00000000000E+00  0.15936110811E+04  0.22761348132E+04  0.16251748860E+04 0.  0.
        1    1    3    3  502    0  0.51675529066E+02 -0.22771052586E+03 -0.29326317966E+03  0.37486762525E+03  0.50400001928E-02 0. -1.
       -1    1    3    3    0  502 -0.51675529066E+02  0.22771052586E+03  0.18868742608E+04  0.19012671879E+04  0.50400001928E-02 0.  1.
</event>
<event>
 5   0  0.1858913E-04  0.1602575E+04  0.7818609E-02  0.8818968E-01
        2   -1    0    0  501    0  0.00000000000E+00  0.00000000000E+00  0.16874436751E+04  0.16874436751E+04  0.25500000920E-02 0.  1.
       -2   -1    0    0    0  501  0.00000000000E+00  0.00000000000E+00 -0.38049349405E+03  0.38049349406E+03  0.25500000920E-02 0. -1.
    10030    2    1    2    0    0  0.00000000000E+00  0.00000000000E+00  0.13069501811E+04  0.20679371692E+04  0.16025746035E+04 0.  0.
        4    1    3    3  502    0  0.35937265812E+03 -0.45762745137E+03  0.13643446901E+04  0.14832429464E+04  0.12699999809E+01 0.  1.
       -4    1    3    3    0  502 -0.35937265812E+03  0.45762745137E+03 -0.57394509006E+02  0.58469422283E+03  0.12699999809E+01 0. -1.
</event>
<event>
 5   0  0.1835088E-04  0.1594876E+04  0.7818609E-02  0.8823702E-01
        2   -1    0    0  501    0  0.00000000000E+00  0.00000000000E+00  0.11031136209E+04  0.11031136209E+04  0.25500000920E-02 0. -1.
       -2   -1    0    0    0  501  0.00000000000E+00  0.00000000000E+00 -0.57646610879E+03  0.57646610879E+03  0.25500000920E-02 0.  1.
    10030    2    1    2    0    0  0.00000000000E+00  0.00000000000E+00  0.52664751208E+03  0.16795797297E+04  0.15948763169E+04 0.  0.
        5    1    3    3  502    0  0.77066002158E+03  0.18143003461E+03  0.36351761334E+03  0.87120656077E+03  0.46999998093E+01 0.  1.
       -5    1    3    3    0  502 -0.77066002158E+03 -0.18143003461E+03  0.16312989874E+03  0.80837316889E+03  0.46999998093E+01 0. -1.
</event>
<event>
 5   0  0.9432152E-05  0.1595280E+04  0.7818609E-02  0.8823453E-01
       -1   -1    0    0    0  501  0.00000000000E+00  0.00000000000E+00  0.87239352956E+03  0.87239352958E+03  0.50400001928E-02 0.  1.
        1   -1    0    0  501    0  0.00000000000E+00  0.00000000000E+00 -0.72929176148E+03  0.72929176150E+03  0.50400001928E-02 0. -1.
    10030    2    1    2    0    0  0.00000000000E+00  0.00000000000E+00  0.14310176808E+03  0.16016852911E+04  0.15952798048E+04 0.  0.
        4    1    3    3  502    0 -0.44095197645E+03 -0.42059817813E+03  0.58828851693E+03  0.84701030988E+03  0.12699999809E+01 0.  1.
       -4    1    3    3    0  502  0.44095197645E+03  0.42059817813E+03 -0.44518674885E+03  0.75467498119E+03  0.12699999809E+01 0. -1.
</event>
<event>
 5   0  0.1774934E-04  0.1566656E+04  0.7818609E-02  0.8841299E-01
       -2   -1    0    0    0  501  0.00000000000E+00  0.00000000000E+00  0.70812026553E+03  0.70812026554E+03  0.25500000920E-02 0.  1.
        2   -1    0    0  501    0  0.00000000000E+00  0.00000000000E+00 -0.86652301015E+03  0.86652301016E+03  0.25500000920E-02 0. -1.
    10030    2    1    2    0    0  0.00000000000E+00  0.00000000000E+00 -0.15840274462E+03  0.15746432757E+04  0.15666556789E+04 0.  0.
        1    1    3    3  502    0 -0.27932286958E+03 -0.38215787240E+02 -0.81376322003E+03  0.86121558866E+03  0.50400001928E-02 0. -1.
       -1    1    3    3    0  502  0.27932286958E+03  0.38215787240E+02  0.65536047541E+03  0.71342768703E+03  0.50400001928E-02 0.  1.
</event>
<event>
 5   0  0.9432152E-05  0.1577492E+04  0.7818609E-02  0.8834496E-01
        1   -1    0    0  501    0  0.00000000000E+00  0.00000000000E+00  0.11937915753E+04  0.11937915753E+04  0.50400001928E-02 0.  1.
       -1   -1    0    0    0  501  0.00000000000E+00  0.00000000000E+00 -0.52112992657E+03  0.52112992659E+03  0.50400001928E-02 0. -1.
    10030    2    1    2    0    0  0.00000000000E+00  0.00000000000E+00  0.67266164874E+03  0.17149215019E+04  0.15774923341E+04 0.  0.
        4    1    3    3  502    0 -0.33561996660E+03 -0.28091209237E+03  0.10496717245E+04  0.11372619346E+04  0.12699999809E+01 0.  1.
       -4    1    3    3    0  502  0.33561996660E+03  0.28091209237E+03 -0.37701007578E+03  0.57765956736E+03  0.12699999809E+01 0. -1.
</event>
<event>
 5   0  0.9726935E-05  0.1598818E+04  0.7818609E-02  0.8821275E-01
        1   -1    0    0  501    0  0.00000000000E+00  0.00000000000E+00  0.87328702247E+03  0.87328702248E+03  0.50400001928E-02 0. -1.
       -1   -1    0    0    0  501  0.00000000000E+00  0.00000000000E+00 -0.73178084712E+03  0.73178084713E+03  0.50400001928E-02 0.  1.
    10030    2    1    2    0    0  0.00000000000E+00  0.00000000000E+00  0.14150617535E+03  0.16050678696E+04  0.15988179597E+04 0.  0.
        2    1    3    3  502    0 -0.20669907398E+03  0.65600196289E+03 -0.33826026271E+03  0.76647445348E+03  0.25500000920E-02 0.  1.
       -2    1    3    3    0  502  0.20669907398E+03 -0.65600196289E+03  0.47976643806E+03  0.83859341614E+03  0.25500000920E-02 0. -1.
</event>
<event>
 5   0  0.6838750E-05  0.1598442E+04  0.7818609E-02  0.8821506E-01
        4   -1    0    0  501    0  0.00000000000E+00  0.00000000000E+00  0.88499174889E+03  0.88499266014E+03  0.12699999809E+01 0. -1.
       -4   -1    0    0    0  501  0.00000000000E+00  0.00000000000E+00 -0.72176116854E+03  0.72176228588E+03  0.12699999809E+01 0.  1.
    10030    2    1    2    0    0  0.00000000000E+00  0.00000000000E+00  0.16323058035E+03  0.16067549460E+04  0.15984421273E+04 0.  0.
        5    1    3    3  502    0  0.21366548146E+03  0.53430965768E+03 -0.47587919866E+03  0.74674148805E+03  0.46999998093E+01 0.  1.
       -5    1    3    3    0  502 -0.21366548146E+03 -0.53430965768E+03  0.63910977901E+03  0.86001345797E+03  0.46999998093E+01 0. -1.
</event>
<event>
 5   0  0.9673017E-05  0.1599997E+04  0.7818609E-02  0.8820550E-01
       -1   -1    0    0    0  501  0.00000000000E+00  0.00000000000E+00  0.40719270718E+03  0.40719270721E+03  0.50400001928E-02 0.  1.
        1   -1    0    0  501    0  0.00000000000E+00  0.00000000000E+00 -0.15717314788E+04  0.15717314788E+04  0.50400001928E-02 0. -1.
    10030    2    1    2    0    0  0.00000000000E+00  0.00000000000E+00 -0.11645387717E+04  0.19789241861E+04  0.15999969948E+04 0.  0.
        1    1    3    3  502    0 -0.53169362031E+03  0.19458051743E+03 -0.12813113036E+04  0.14008277340E+04  0.50400001928E-02 0. -1.
       -1    1    3    3    0  502  0.53169362031E+03 -0.19458051743E+03  0.11677253192E+03  0.57809645205E+03  0.50400001928E-02 0.  1.
</event>
<event>
 5   0  0.9432152E-05  0.1600554E+04  0.7818609E-02  0.8820208E-01
       -1   -1    0    0    0  501  0.00000000000E+00  0.00000000000E+00  0.11026338288E+04  0.11026338289E+04  0.50400001928E-02 0. -1.
        1   -1    0    0  501    0  0.00000000000E+00  0.00000000000E+00 -0.58083053673E+03  0.58083053675E+03  0.50400001928E-02 0.  1.
    10030    2    1    2    0    0  0.00000000000E+00  0.00000000000E+00  0.52180329212E+03  0.16834643656E+04  0.16005541523E+04 0.  0.
        4    1    3    3  502    0  0.40198000766E+03  0.46777801409E+03 -0.27545247354E+03  0.67548491849E+03  0.12699999809E+01 0. -1.
       -4    1    3    3    0  502 -0.40198000766E+03 -0.46777801409E+03  0.79725576566E+03  0.10079794471E+04  0.12699999809E+01 0.  1.
</event>
<event>
 5   0  0.1858913E-04  0.1603164E+04  0.7818609E-02  0.8818607E-01
        2   -1    0    0  501    0  0.00000000000E+00  0.00000000000E+00  0.15092919847E+04  0.15092919847E+04  0.25500000920E-02 0. -1.
       -2   -1    0    0    0  501  0.00000000000E+00  0.00000000000E+00 -0.42571867387E+03  0.42571867387E+03  0.25500000920E-02 0.  1.
    10030    2    1    2    0    0  0.00000000000E+00  0.00000000000E+00  0.10835733109E+04  0.19350106586E+04  0.16031640992E+04 0.  0.
        4    1    3    3  502    0 -0.15988313099E+03 -0.83850306510E+02  0.14844323114E+04  0.14953709872E+04  0.12699999809E+01 0. -1.
       -4    1    3    3    0  502  0.15988313099E+03  0.83850306510E+02 -0.40085900050E+03  0.43963967139E+03  0.12699999809E+01 0.  1.
</event>
<event>
 5   0  0.1858913E-04  0.1599884E+04  0.7818609E-02  0.8820619E-01
       -2   -1    0    0    0  501  0.00000000000E+00  0.00000000000E+00  0.61417643199E+03  0.61417643199E+03  0.25500000920E-02 0. -1.
        2   -1    0    0  501    0  0.00000000000E+00  0.00000000000E+00 -0.10418948129E+04  0.10418948129E+04  0.25500000920E-02 0.  1.
    10030    2    1    2    0    0  0.00000000000E+00  0.00000000000E+00 -0.42771838089E+03  0.16560712449E+04  0.15998840441E+04 0.  0.
        4    1    3    3  502    0 -0.60490521106E+03  0.26748434076E+03  0.25188414889E+03  0.70774672325E+03  0.12699999809E+01 0. -1.
       -4    1    3    3    0  502  0.60490521106E+03 -0.26748434076E+03 -0.67960252977E+03  0.94832452161E+03  0.12699999809E+01 0.  1.
</event>
<event>
 5   0  0.9616567E-05  0.1596086E+04  0.7818609E-02  0.8822956E-01
       -1   -1    0    0    0  501  0.00000000000E+00  0.00000000000E+00  0.55507403043E+03  0.55507403045E+03  0.50400001928E-02 0. -1.
        1   -1    0    0  501    0  0.00000000000E+00  0.00000000000E+00 -0.11473649517E+04  0.11473649517E+04  0.50400001928E-02 0.  1.
    10030    2    1    2    0    0  0.00000000000E+00  0.00000000000E+00 -0.59229092130E+03  0.17024389822E+04  0.15960858225E+04 0.  0.
        5    1    3    3  502    0  0.52675400033E+03  0.30727452485E+03  0.25289951459E+03  0.66020274534E+03  0.46999998093E+01 0. -1.
       -5    1    3    3    0  502 -0.52675400033E+03 -0.30727452485E+03 -0.84519043589E+03  0.10422362368E+04  0.46999998093E+01 0.  1.
</event>
<event>
 5   0  0.1832646E-04  0.1605180E+04  0.7818609E-02  0.8817372E-01
       -2   -1    0    0    0  501  0.00000000000E+00  0.00000000000E+00  0.74911808111E+03  0.74911808112E+03  0.25500000920E-02 0. -1.
        2   -1    0    0  501    0  0.00000000000E+00  0.00000000000E+00 -0.85987890476E+03  0.85987890477E+03  0.25500000920E-02 0.  1.
    10030    2    1    2    0    0  0.00000000000E+00  0.00000000000E+00 -0.11076082365E+03  0.16089969859E+04  0.16051801583E+04 0.  0.
        2    1    3    3  502    0 -0.63318948680E+03 -0.89878023637E+02 -0.54144978780E+03  0.83795874483E+03  0.25500000920E-02 0.  1.
       -2    1    3    3    0  502  0.63318948680E+03  0.89878023637E+02  0.43068896415E+03  0.77103824106E+03  0.25500000920E-02 0. -1.
</event>
<event>
 5   0  0.9616567E-05  0.1605345E+04  0.7818609E-02  0.8817271E-01
       -1   -1    0    0    0  501  0.00000000000E+00  0.00000000000E+00  0.40254205958E+03  0.40254205961E+03  0.50400001928E-02 0.  1.
        1   -1    0    0  501    0  0.00000000000E+00  0.00000000000E+00 -0.16005357790E+04  0.16005357790E+04  0.50400001928E-02 0. -1.
    10030    2    1    2    0    0  0.00000000000E+00  0.00000000000E+00 -0.11979937194E+04  0.20030778386E+04  0.16053447841E+04 0.  0.
        5    1    3    3  502    0 -0.67607803818E+03 -0.97632691194E+02 -0.11249035747E+04  0.13160713501E+04  0.46999998093E+01 0. -1.
       -5    1    3    3    0  502  0.67607803818E+03  0.97632691194E+02 -0.73090144745E+02  0.68700648858E+03  0.46999998093E+01 0.  1.
</event>
<event>
 5   0  0.1774934E-04  0.1604355E+04  0.7818609E-02  0.8817877E-01
        2   -1    0    0  501    0  0.00000000000E+00  0.00000000000E+00  0.92037855924E+03  0.92037855924E+03  0.25500000920E-02 0.  1.
       -2   -1    0    0    0  501  0.00000000000E+00  0.00000000000E+00 -0.69915696614E+03  0.69915696615E+03  0.25500000920E-02 0. -1.
    10030    2    1    2    0    0  0.00000000000E+00  0.00000000000E+00  0.22122159310E+03  0.16195355254E+04  0.16043554235E+04 0.  0.
        1    1    3    3  502    0  0.29830656080E+03  0.24038193481E+03  0.82206212078E+03  0.90694895625E+03  0.50400001928E-02 0.  1.
       -1    1    3    3    0  502 -0.29830656080E+03 -0.24038193481E+03 -0.60084052768E+03  0.71258656915E+03  0.50400001928E-02 0. -1.
</event>
<event>
 5   0  0.1858913E-04  0.1599298E+04  0.7818609E-02  0.8820979E-01
       -2   -1    0    0    0  501  0.00000000000E+00  0.00000000000E+00  0.23749477502E+03  0.23749477503E+03  0.25500000920E-02 0.  1.
        2   -1    0    0  501    0  0.00000000000E+00  0.00000000000E+00 -0.26924315239E+04  0.26924315239E+04  0.25500000920E-02 0. -1.
    10030    2    1    2    0    0  0.00000000000E+00  0.00000000000E+00 -0.24549367489E+04  0.29299262989E+04  0.15992978697E+04 0.  0.
        4    1    3    3  502    0  0.62963065885E+03 -0.43994608089E+03 -0.82008038052E+03  0.11236194926E+04  0.12699999809E+01 0.  1.
       -4    1    3    3    0  502 -0.62963065885E+03  0.43994608089E+03 -0.16348563684E+04  0.18063068064E+04  0.12699999809E+01 0. -1.
</event>
<event>
 5   0  0.9939872E-05  0.1606799E+04  0.7818609E-02  0.8816382E-01
        1   -1    0    0  501    0  0.00000000000E+00  0.00000000000E+00  0.12698789358E+04  0.12698789358E+04  0.50400001928E-02 0. -1.
       -1   -1    0    0    0  501  0.00000000000E+00  0.00000000000E+00 -0.50827734158E+03  0.50827734161E+03  0.50400001928E-02 0.  1.
    10030    2    1    2    0    0  0.00000000000E+00  0.00000000000E+00  0.76160159424E+03  0.17781562774E+04  0.16067989167E+04 0.  0.
        3    1    3    3  502    0 -0.71511432048E+03 -0.64463437286E+02 -0.18062517849E+02  0.71824110914E+03  0.10100000352E+00 0.  1.
       -3    1    3    3    0  502  0.71511432048E+03  0.64463437286E+02  0.77966411209E+03  0.10599151683E+04  0.10100000352E+00 0. -1.
</event>
<event>
 5   0  0.1858913E-04  0.1605933E+04  0.7818609E-02  0.8816911E-01
       -2   -1    0    0    0  501  0.00000000000E+00  0.00000000000E+00  0.57967358947E+03  0.57967358948E+03  0.25500000920E-02 0. -1.
        2   -1    0    0  501    0  0.00000000000E+00  0.00000000000E+00 -0.11122733808E+04  0.11122733808E+04  0.25500000920E-02 0.  1.
    10030    2    1    2    0    0  0.00000000000E+00  0.00000000000E+00 -0.53259979128E+03  0.16919469702E+04  0.16059333773E+04 0.  0.
        4    1    3    3  502    0 -0.38436720590E+03  0.20727950835E+03  0.44362354361E+03  0.62250012441E+03  0.12699999809E+01 0. -1.
       -4    1    3    3    0  502  0.38436720590E+03 -0.20727950835E+03 -0.97622333489E+03  0.10694468458E+04  0.12699999809E+01 0.  1.
</event>
<event>
 5   0  0.1835088E-04  0.1599215E+04  0.7818609E-02  0.8821030E-01
       -2   -1    0    0    0  501  0.00000000000E+00  0.00000000000E+00  0.10806719039E+04  0.10806719039E+04  0.25500000920E-02 0. -1.
        2   -1    0    0  501    0  0.00000000000E+00  0.00000000000E+00 -0.59164354061E+03  0.59164354062E+03  0.25500000920E-02 0.  1.
    10030    2    1    2    0    0  0.00000000000E+00  0.00000000000E+00  0.48902836330E+03  0.16723154445E+04  0.15992154970E+04 0.  0.
        5    1    3    3  502    0  0.35117444008E+03 -0.40596619652E+03  0.86424037773E+03  0.10173817182E+04  0.46999998093E+01 0. -1.
       -5    1    3    3    0  502 -0.35117444008E+03  0.40596619652E+03 -0.37521201443E+03  0.65493372631E+03  0.46999998093E+01 0.  1.
</event>
<event>
 5   0  0.1774934E-04  0.1600594E+04  0.7818609E-02  0.8820183E-01
        2   -1    0    0  501    0  0.00000000000E+00  0.00000000000E+00  0.64455191565E+03  0.64455191565E+03  0.25500000920E-02 0. -1.
       -2   -1    0    0    0  501  0.00000000000E+00  0.00000000000E+00 -0.99367530479E+03  0.99367530479E+03  0.25500000920E-02 0.  1.
    10030    2    1    2    0    0  0.00000000000E+00  0.00000000000E+00 -0.34912338914E+03  0.16382272204E+04  0.16005940413E+04 0.  0.
        1    1    3    3  502    0  0.56623775309E+03  0.26783453350E+03  0.33526112365E+03  0.71046502476E+03  0.50400001928E-02 0. -1.
       -1    1    3    3    0  502 -0.56623775309E+03 -0.26783453350E+03 -0.68438451279E+03  0.92776219568E+03  0.50400001928E-02 0.  1.
</event>
<event>
 5   0  0.9432152E-05  0.1602397E+04  0.7818609E-02  0.8819077E-01
       -1   -1    0    0    0  501  0.00000000000E+00  0.00000000000E+00  0.10486223284E+04  0.10486223284E+04  0.50400001928E-02 0.  1.
        1   -1    0    0  501    0  0.00000000000E+00  0.00000000000E+00 -0.61215459404E+03  0.61215459406E+03  0.50400001928E-02 0. -1.
    10030    2    1    2    0    0  0.00000000000E+00  0.00000000000E+00  0.43646773435E+03  0.16607769225E+04  0.16023969243E+04 0.  0.
        4    1    3    3  502    0 -0.28833046417E+03 -0.42400816389E+03  0.85629280139E+03  0.99807632685E+03  0.12699999809E+01 0.  1.
       -4    1    3    3    0  502  0.28833046417E+03  0.42400816389E+03 -0.41982506704E+03  0.66270059561E+03  0.12699999809E+01 0. -1.
</event>
<event>
 5   0  0.1774934E-04  0.1596086E+04  0.7818609E-02  0.8822956E-01
        2   -1    0    0  501    0  0.00000000000E+00  0.00000000000E+00  0.13392155006E+04  0.13392155006E+04  0.25500000920E-02 0.  1.
       -2   -1    0    0    0  501  0.00000000000E+00  0.00000000000E+00 -0.47555643468E+03  0.47555643469E+03  0.25500000920E-02 0. -1.
    10030    2    1    2    0    0  0.00000000000E+00  0.00000000000E+00  0.86365906587E+03  0.18147719352E+04  0.15960858983E+04 0.  0.
        1    1    3    3  502    0 -0.19816703039E+02 -0.74077025045E+03  0.76862236082E+03  0.10676673636E+04  0.50400001928E-02 0.  1.
       -1    1    3    3    0  502  0.19816703039E+02  0.74077025045E+03  0.95036705055E+02  0.74710457167E+03  0.50400001928E-02 0. -1.
</event>
<event>
 5   0  0.9726935E-05  0.1595164E+04  0.7818609E-02  0.8823525E-01
       -1   -1    0    0    0  501  0.00000000000E+00  0.00000000000E+00  0.58938847253E+03  0.58938847255E+03  0.50400001928E-02 0.  1.
        1   -1    0    0  501    0  0.00000000000E+00  0.00000000000E+00 -0.10793168706E+04  0.10793168706E+04  0.50400001928E-02 0. -1.
    10030    2    1    2    0    0  0.00000000000E+00  0.00000000000E+00 -0.48992839804E+03  0.16687053431E+04  0.15951638433E+04 0.  0.
        2    1    3    3  502    0  0.56228076731E+03  0.84382468001E+02 -0.83008724008E+03  0.10061435724E+04  0.25500000920E-02 0. -1.
       -2    1    3    3    0  502 -0.56228076731E+03 -0.84382468001E+02  0.34015884203E+03  0.66256177071E+03  0.25500000920E-02 0.  1.
</event>
<event>
 5   0  0.1914170E-04  0.1596372E+04  0.7818609E-02  0.8822780E-01
       -2   -1    0    0    0  501  0.00000000000E+00  0.00000000000E+00  0.55486772727E+03  0.55486772727E+03  0.25500000920E-02 0.  1.
        2   -1    0    0  501    0  0.00000000000E+00  0.00000000000E+00 -0.11482034498E+04  0.11482034498E+04  0.25500000920E-02 0. -1.
    10030    2    1    2    0    0  0.00000000000E+00  0.00000000000E+00 -0.59333572254E+03  0.17030711771E+04  0.15963721855E+04 0.  0.
        3    1    3    3  502    0 -0.50104953987E+03 -0.19068129579E+03 -0.92753933927E+03  0.10713259234E+04  0.10100000352E+00 0. -1.
       -3    1    3    3    0  502  0.50104953987E+03  0.19068129579E+03  0.33420361673E+03  0.63174525372E+03  0.10100000352E+00 0.  1.
</event>
<event>
 5   0  0.9432152E-05  0.1594561E+04  0.7818609E-02  0.8823896E-01
        1   -1    0    0  501    0  0.00000000000E+00  0.00000000000E+00  0.10639533134E+04  0.10639533134E+04  0.50400001928E-02 0.  1.
       -1   -1    0    0    0  501  0.00000000000E+00  0.00000000000E+00 -0.59744775356E+03  0.59744775358E+03  0.50400001928E-02 0. -1.
    10030    2    1    2    0    0  0.00000000000E+00  0.00000000000E+00  0.46650555985E+03  0.16614010670E+04  0.15945614030E+04 0.  0.
        4    1    3    3  502    0 -0.68823686301E+03  0.41325346979E+02 -0.18387491914E+03  0.71357505751E+03  0.12699999809E+01 0.  1.
       -4    1    3    3    0  502  0.68823686301E+03 -0.41325346979E+02  0.65038047899E+03  0.94782600949E+03  0.12699999809E+01 0. -1.
</event>
<event>
 5   0  0.9432152E-05  0.1607064E+04  0.7818609E-02  0.8816220E-01
        1   -1    0    0  501    0  0.00000000000E+00  0.00000000000E+00  0.14134711819E+04  0.14134711819E+04  0.50400001928E-02 0.  1.
       -1   -1    0    0    0  501  0.00000000000E+00  0.00000000000E+00 -0.45679295417E+03  0.45679295420E+03  0.50400001928E-02 0. -1.
    10030    2    1    2    0    0  0.00000000000E+00  0.00000000000E+00  0.95667822770E+03  0.18702641361E+04  0.16070640022E+04 0.  0.
        4    1    3    3  502    0  0.61527620689E+03  0.94926825717E+02  0.10695632061E+04  0.12375552423E+04  0.12699999809E+01 0.  1.
       -4    1    3    3    0  502 -0.61527620689E+03 -0.94926825717E+02 -0.11288497840E+03  0.63270889377E+03  0.12699999809E+01 0. -1.
</event>
<event>
 5   0  0.1774934E-04  0.1586568E+04  0.7818609E-02  0.8828843E-01
       -2   -1    0    0    0  501  0.00000000000E+00  0.00000000000E+00  0.86590812181E+03  0.86590812181E+03  0.25500000920E-02 0.  1.
        2   -1    0    0  501    0  0.00000000000E+00  0.00000000000E+00 -0.72675069610E+03  0.72675069611E+03  0.25500000920E-02 0. -1.
    10030    2    1    2    0    0  0.00000000000E+00  0.00000000000E+00  0.13915742571E+03  0.15926588179E+04  0.15865677802E+04 0.  0.
        1    1    3    3  502    0  0.26737581794E+03  0.23112927202E+03 -0.64335117334E+03  0.73403766979E+03  0.50400001928E-02 0. -1.
       -1    1    3    3    0  502 -0.26737581794E+03 -0.23112927202E+03  0.78250859905E+03  0.85862114813E+03  0.50400001928E-02 0.  1.
</event>
<event>
 5   0  0.1858913E-04  0.1594057E+04  0.7818609E-02  0.8824208E-01
        2   -1    0    0  501    0  0.00000000000E+00  0.00000000000E+00  0.18756634078E+04  0.18756634078E+04  0.25500000920E-02 0. -1.
       -2   -1    0    0    0  501  0.00000000000E+00  0.00000000000E+00 -0.33868233956E+03  0.33868233957E+03  0.25500000920E-02 0.  1.
    10030    2    1    2    0    0  0.00000000000E+00  0.00000000000E+00  0.15369810682E+04  0.22143457474E+04  0.15940565501E+04 0.  0.
        4    1    3    3  502    0 -0.48885078091E+03  0.37973493984E+03  0.14659353085E+04  0.15912704523E+04  0.12699999809E+01 0. -1.
       -4    1    3    3    0  502  0.48885078091E+03 -0.37973493984E+03  0.71045759721E+02  0.62307529513E+03  0.12699999809E+01 0.  1.
</event>
<event>
 5   0  0.9616567E-05  0.1600734E+04  0.7818609E-02  0.8820097E-01
       -1   -1    0    0    0  501  0.00000000000E+00  0.00000000000E+00  0.65052542253E+03  0.65052542255E+03  0.50400001928E-02 0.  1.
        1   -1    0    0  501    0  0.00000000000E+00  0.00000000000E+00 -0.98472342816E+03  0.98472342817E+03  0.50400001928E-02 0. -1.
    10030    2    1    2    0    0  0.00000000000E+00  0.00000000000E+00 -0.33419800563E+03  0.16352488507E+04  0.16007343617E+04 0.  0.
        5    1    3    3  502    0 -0.11427159879E+03 -0.79180075599E+03 -0.14294390283E+03  0.81268781511E+03  0.46999998093E+01 0. -1.
       -5    1    3    3    0  502  0.11427159879E+03  0.79180075599E+03 -0.19125410279E+03  0.82256103561E+03  0.46999998093E+01 0.  1.
</event>
<event>
 5   0  0.1774934E-04  0.1598462E+04  0.7818609E-02  0.8821493E-01
       -2   -1    0    0    0  501  0.00000000000E+00  0.00000000000E+00  0.95000675562E+03  0.95000675562E+03  0.25500000920E-02 0.  1.
        2   -1    0    0  501    0  0.00000000000E+00  0.00000000000E+00 -0.67238483239E+03  0.67238483239E+03  0.25500000920E-02 0. -1.
    10030    2    1    2    0    0  0.00000000000E+00  0.00000000000E+00  0.27762192323E+03  0.16223915880E+04  0.15984619272E+04 0.  0.
        1    1    3    3  502    0  0.50415459419E+03 -0.61761772121E+03  0.81876378989E+02  0.80145320877E+03  0.50400001928E-02 0.  1.
       -1    1    3    3    0  502 -0.50415459419E+03  0.61761772121E+03  0.19574554424E+03  0.82093837924E+03  0.50400001928E-02 0. -1.
</event>
<event>
 5   0  0.1914170E-04  0.1602636E+04  0.7818609E-02  0.8818930E-01
       -2   -1    0    0    0  501  0.00000000000E+00  0.00000000000E+00  0.29986506038E+03  0.29986506039E+03  0.25500000920E-02 0. -1.
        2   -1    0    0  501    0  0.00000000000E+00  0.00000000000E+00 -0.21413306911E+04  0.21413306911E+04  0.25500000920E-02 0.  1.
    10030    2    1    2    0    0  0.00000000000E+00  0.00000000000E+00 -0.18414656307E+04  0.24411957515E+04  0.16026356504E+04 0.  0.
        3    1    3    3  502    0 -0.15922757863E+03 -0.44490150583E+03 -0.19065156243E+04  0.19642027919E+04  0.10100000352E+00 0.  1.
       -3    1    3    3    0  502  0.15922757863E+03  0.44490150583E+03  0.65049993555E+02  0.47699295964E+03  0.10100000352E+00 0. -1.
</event>
<event>
 5   0  0.9673017E-05  0.1602615E+04  0.7818609E-02  0.8818943E-01
       -1   -1    0    0    0  501  0.00000000000E+00  0.00000000000E+00  0.12207077515E+04  0.12207077515E+04  0.50400001928E-02 0.  1.
        1   -1    0    0  501    0  0.00000000000E+00  0.00000000000E+00 -0.52600131049E+03  0.52600131051E+03  0.50400001928E-02 0. -1.
    10030    2    1    2    0    0  0.00000000000E+00  0.00000000000E+00  0.69470644104E+03  0.17467090620E+04  0.16026152090E+04 0.  0.
        1    1    3    3  502    0 -0.60014165894E+03 -0.36486599555E+03  0.76777762888E+03  0.10405670055E+04  0.50400001928E-02 0.  1.
       -1    1    3    3    0  502  0.60014165894E+03  0.36486599555E+03 -0.73071187841E+02  0.70614205654E+03  0.50400001928E-02 0. -1.
</event>
<event>
 5   0  0.9432152E-05  0.1601365E+04  0.7818609E-02  0.8819710E-01
        1   -1    0    0  501    0  0.00000000000E+00  0.00000000000E+00  0.21034179541E+04  0.21034179541E+04  0.50400001928E-02 0.  1.
       -1   -1    0    0    0  501  0.00000000000E+00  0.00000000000E+00 -0.30478598696E+03  0.30478598700E+03  0.50400001928E-02 0. -1.
    10030    2    1    2    0    0  0.00000000000E+00  0.00000000000E+00  0.17986319671E+04  0.24082039411E+04  0.16013648144E+04 0.  0.
        4    1    3    3  502    0  0.13363971008E+03 -0.49393125974E+03  0.18254487367E+04  0.18958091583E+04  0.12699999809E+01 0.  1.
       -4    1    3    3    0  502 -0.13363971008E+03  0.49393125974E+03 -0.26816769528E+02  0.51239478284E+03  0.12699999809E+01 0. -1.
</event>
<event>
 5   0  0.9939872E-05  0.1597520E+04  0.7818609E-02  0.8822073E-01
        1   -1    0    0  501    0  0.00000000000E+00  0.00000000000E+00  0.18147773532E+04  0.18147773532E+04  0.50400001928E-02 0.  1.
       -1   -1    0    0    0  501  0.00000000000E+00  0.00000000000E+00 -0.35156799147E+03  0.35156799150E+03  0.50400001928E-02 0. -1.
    10030    2    1    2    0    0  0.00000000000E+00  0.00000000000E+00  0.14632093617E+04  0.21663453447E+04  0.15975201145E+04 0.  0.
        3    1    3    3  502    0 -0.62527807815E+03 -0.36538661987E+03  0.27467314035E+03  0.77454851444E+03  0.10100000352E+00 0. -1.
       -3    1    3    3    0  502  0.62527807815E+03  0.36538661987E+03  0.11885362214E+04  0.13917968303E+04  0.10100000352E+00 0.  1.
</event>
<event>
 5   0  0.9616567E-05  0.1602684E+04  0.7818609E-02  0.8818901E-01
       -1   -1    0    0    0  501  0.00000000000E+00  0.00000000000E+00  0.61383160544E+03  0.61383160546E+03  0.50400001928E-02 0.  1.
        1   -1    0    0  501    0  0.00000000000E+00  0.00000000000E+00 -0.10461320638E+04  0.10461320638E+04  0.50400001928E-02 0. -1.
    10030    2    1    2    0    0  0.00000000000E+00  0.00000000000E+00 -0.43230045832E+03  0.16599636692E+04  0.16026839042E+04 0.  0.
        5    1    3    3  502    0 -0.19425212529E+03  0.67289482912E+03  0.18713115868E+03  0.72495620543E+03  0.46999998093E+01 0.  1.
       -5    1    3    3    0  502  0.19425212529E+03 -0.67289482912E+03 -0.61943161700E+03  0.93500746380E+03  0.46999998093E+01 0. -1.
</event>
<event>
 5   0  0.9939872E-05  0.1612288E+04  0.7818609E-02  0.8813034E-01
       -1   -1    0    0    0  501  0.00000000000E+00  0.00000000000E+00  0.39192099365E+03  0.39192099369E+03  0.50400001928E-02 0. -1.
        1   -1    0    0  501    0  0.00000000000E+00  0.00000000000E+00 -0.16581614717E+04  0.16581614717E+04  0.50400001928E-02 0.  1.
    10030    2    1    2    0    0  0.00000000000E+00  0.00000000000E+00 -0.12662404780E+04  0.20500824654E+04  0.16122881773E+04 0.  0.
        3    1    3    3  502    0  0.29405480621E+03 -0.31903167683E+03  0.23079358826E+03  0.49144188920E+03  0.10100000352E+00 0. -1.
       -3    1    3    3    0  502 -0.29405480621E+03  0.31903167683E+03 -0.14970340663E+04  0.15586405762E+04  0.10100000352E+00 0.  1.
</event>
<event>
 5   0  0.1858913E-04  0.1564995E+04  0.7818609E-02  0.8842346E-01
       -2   -1    0    0    0  501  0.00000000000E+00  0.00000000000E+00  0.14747259628E+04  0.14747259628E+04  0.25500000920E-02 0. -1.
        2   -1    0    0  501    0  0.00000000000E+00  0.00000000000E+00 -0.41519741710E+03  0.41519741711E+03  0.25500000920E-02 0.  1.
    10030    2    1    2    0    0  0.00000000000E+00  0.00000000000E+00  0.10595285457E+04  0.18899233799E+04  0.15649950935E+04 0.  0.
        4    1    3    3  502    0 -0.72495266367E+03 -0.99013056062E+01  0.88523715244E+03  0.11442468394E+04  0.12699999809E+01 0. -1.
       -4    1    3    3    0  502  0.72495266367E+03  0.99013056062E+01  0.17429139322E+03  0.74567654051E+03  0.12699999809E+01 0.  1.
</event>
<event>
 5   0  0.1774934E-04  0.1602627E+04  0.7818609E-02  0.8818936E-01
       -2   -1    0    0    0  501  0.00000000000E+00  0.00000000000E+00  0.46955747283E+03  0.46955747283E+03  0.25500000920E-02 0. -1.
        2   -1    0    0  501    0  0.00000000000E+00  0.00000000000E+00 -0.13674639885E+04  0.13674639885E+04  0.25500000920E-02 0.  1.
    10030    2    1    2    0    0  0.00000000000E+00  0.00000000000E+00 -0.89790651568E+03  0.18370214613E+04  0.16026265125E+04 0.  0.
        1    1    3    3  502    0 -0.28419425201E+03  0.28459004073E+03 -0.12433886359E+04  0.13068179537E+04  0.50400001928E-02 0.  1.
       -1    1    3    3    0  502  0.28419425201E+03 -0.28459004073E+03  0.34548212020E+03  0.53020350768E+03  0.50400001928E-02 0. -1.
</event>
<event>
 5   0  0.9726935E-05  0.1602144E+04  0.7818609E-02  0.8819232E-01
       -1   -1    0    0    0  501  0.00000000000E+00  0.00000000000E+00  0.69969140431E+03  0.69969140433E+03  0.50400001928E-02 0. -1.
        1   -1    0    0  501    0  0.00000000000E+00  0.00000000000E+00 -0.91714176034E+03  0.91714176036E+03  0.50400001928E-02 0.  1.
    10030    2    1    2    0    0  0.00000000000E+00  0.00000000000E+00 -0.21745035603E+03  0.16168331647E+04  0.16021438216E+04 0.  0.
        2    1    3    3  502    0 -0.54464501278E+03 -0.84098367779E+02 -0.69543800199E+03  0.88732448407E+03  0.25500000920E-02 0.  1.
       -2    1    3    3    0  502  0.54464501278E+03  0.84098367779E+02  0.47798764596E+03  0.72950868062E+03  0.25500000920E-02 0. -1.
</event>
<event>
 5   0  0.1835088E-04  0.1594800E+04  0.7818609E-02  0.8823749E-01
        2   -1    0    0  501    0  0.00000000000E+00  0.00000000000E+00  0.17753022784E+04  0.17753022784E+04  0.25500000920E-02 0.  1.
       -2   -1    0    0    0  501  0.00000000000E+00  0.00000000000E+00 -0.35816266025E+03  0.35816266026E+03  0.25500000920E-02 0. -1.
    10030    2    1    2    0    0  0.00000000000E+00  0.00000000000E+00  0.14171396181E+04  0.21334649386E+04  0.15948002844E+04 0.  0.
        5    1    3    3  502    0  0.63790534427E+03 -0.25266659591E+03  0.16506701207E+03  0.70571442199E+03  0.46999998093E+01 0. -1.
       -5    1    3    3    0  502 -0.63790534427E+03  0.25266659591E+03  0.12520726061E+04  0.14277505166E+04  0.46999998093E+01 0.  1.
</event>
<event>
 5   0  0.9726935E-05  0.1601874E+04  0.7818609E-02  0.8819398E-01
        1   -1    0    0  501    0  0.00000000000E+00  0.00000000000E+00  0.82595262396E+03  0.82595262397E+03  0.50400001928E-02 0. -1.
       -1   -1    0    0    0  501  0.00000000000E+00  0.00000000000E+00 -0.77667906376E+03  0.77667906378E+03  0.50400001928E-02 0.  1.
    10030    2    1    2    0    0  0.00000000000E+00  0.00000000000E+00  0.49273560193E+02  0.16026316878E+04  0.16018740409E+04 0.  0.
        2    1    3    3  502    0 -0.47714039038E+01  0.68537263149E+03 -0.38997653133E+03  0.78856838973E+03  0.25500000920E-02 0.  1.
       -2    1    3    3    0  502  0.47714039038E+01 -0.68537263149E+03  0.43925009152E+03  0.81406329802E+03  0.25500000920E-02 0. -1.
</event>
<event>
 5   0  0.1832646E-04  0.1596675E+04  0.7818609E-02  0.8822593E-01
        2   -1    0    0  501    0  0.00000000000E+00  0.00000000000E+00  0.11541554250E+04  0.11541554250E+04  0.25500000920E-02 0.  1.
       -2   -1    0    0    0  501  0.00000000000E+00  0.00000000000E+00 -0.55221576171E+03  0.55221576171E+03  0.25500000920E-02 0. -1.
    10030    2    1    2    0    0  0.00000000000E+00  0.00000000000E+00  0.60193966333E+03  0.17063711868E+04  0.15966750667E+04 0.  0.
        2    1    3    3  502    0 -0.27371960954E+03  0.40075001502E+03 -0.37647298481E+03  0.61421080053E+03  0.25500000920E-02 0. -1.
       -2    1    3    3    0  502  0.27371960954E+03 -0.40075001502E+03  0.97841264814E+03  0.10921603862E+04  0.25500000920E-02 0.  1.
</event>
<event>
 5   0  0.1914170E-04  0.1596360E+04  0.7818609E-02  0.8822787E-01
        2   -1    0    0  501    0  0.00000000000E+00  0.00000000000E+00  0.75476800959E+03  0.75476800959E+03  0.25500000920E-02 0. -1.
       -2   -1    0    0    0  501  0.00000000000E+00  0.00000000000E+00 -0.84408870032E+03  0.84408870033E+03  0.25500000920E-02 0.  1.
    10030    2    1    2    0    0  0.00000000000E+00  0.00000000000E+00 -0.89320690736E+02  0.15988567099E+04  0.15963597944E+04 0.  0.
        3    1    3    3  502    0 -0.17701942839E+03  0.12859578999E+03  0.72414590696E+03  0.75647872409E+03  0.10100000352E+00 0. -1.
       -3    1    3    3    0  502  0.17701942839E+03 -0.12859578999E+03 -0.81346659770E+03  0.84237798583E+03  0.10100000352E+00 0.  1.
</event>
<event>
 5   0  0.6838750E-05  0.1678565E+04  0.7818609E-02  0.8773685E-01
       -3   -1    0    0    0  501  0.00000000000E+00  0.00000000000E+00  0.73685680216E+03  0.73685680908E+03  0.10100000352E+00 0. -1.
        3   -1    0    0  501    0  0.00000000000E+00  0.00000000000E+00 -0.95594538684E+03  0.95594539218E+03  0.10100000352E+00 0.  1.
    10030    2    1    2    0    0  0.00000000000E+00  0.00000000000E+00 -0.21908858468E+03  0.16928022013E+04  0.16785647097E+04 0.  0.
        3    1    3    3  502    0  0.14637969433E+03 -0.41310514621E+03  0.61228646664E+03  0.75297915255E+03  0.10100000352E+00 0. -1.
       -3    1    3    3    0  502 -0.14637969433E+03  0.41310514621E+03 -0.83137505133E+03  0.93982304872E+03  0.10100000352E+00 0.  1.
</event>
<event>
 5   0  0.1774934E-04  0.1596514E+04  0.7818609E-02  0.8822693E-01
       -2   -1    0    0    0  501  0.00000000000E+00  0.00000000000E+00  0.10458312635E+04  0.10458312635E+04  0.25500000920E-02 0.  1.
        2   -1    0    0  501    0  0.00000000000E+00  0.00000000000E+00 -0.60928957934E+03  0.60928957935E+03  0.25500000920E-02 0. -1.
    10030    2    1    2    0    0  0.00000000000E+00  0.00000000000E+00  0.43654168420E+03  0.16551208429E+04  0.15965138153E+04 0.  0.
        1    1    3    3  502    0 -0.97557589030E+02 -0.62529696958E+03 -0.28610750905E+03  0.69452954589E+03  0.50400001928E-02 0.  1.
       -1    1    3    3    0  502  0.97557589030E+02  0.62529696958E+03  0.72264919325E+03  0.96059129700E+03  0.50400001928E-02 0. -1.
</event>
<event>
 5   0  0.1858913E-04  0.1598750E+04  0.7818609E-02  0.8821316E-01
       -2   -1    0    0    0  501  0.00000000000E+00  0.00000000000E+00  0.59957972320E+03  0.59957972321E+03  0.25500000920E-02 0. -1.
        2   -1    0    0  501    0  0.00000000000E+00  0.00000000000E+00 -0.10657472693E+04  0.10657472693E+04  0.25500000920E-02 0.  1.
    10030    2    1    2    0    0  0.00000000000E+00  0.00000000000E+00 -0.46616754608E+03  0.16653269925E+04  0.15987500777E+04 0.  0.
        4    1    3    3  502    0 -0.36095654732E+03 -0.60077061247E+03 -0.63351918614E+03  0.94475559271E+03  0.12699999809E+01 0.  1.
       -4    1    3    3    0  502  0.36095654732E+03  0.60077061247E+03  0.16735164005E+03  0.72057139978E+03  0.12699999809E+01 0. -1.
</event>
<event>
 5   0  0.9616567E-05  0.1596636E+04  0.7818609E-02  0.8822617E-01
       -1   -1    0    0    0  501  0.00000000000E+00  0.00000000000E+00  0.48077160140E+03  0.48077160142E+03  0.50400001928E-02 0. -1.
        1   -1    0    0  501    0  0.00000000000E+00  0.00000000000E+00 -0.13256020203E+04  0.13256020203E+04  0.50400001928E-02 0.  1.
    10030    2    1    2    0    0  0.00000000000E+00  0.00000000000E+00 -0.84483041893E+03  0.18063736218E+04  0.15966362218E+04 0.  0.
        5    1    3    3  502    0 -0.60670583796E+03 -0.34867903079E+03 -0.85710075575E+03  0.11064867084E+04  0.46999998093E+01 0.  1.
       -5    1    3    3    0  502  0.60670583796E+03  0.34867903079E+03  0.12270336829E+02  0.69988691336E+03  0.46999998093E+01 0. -1.
</event>
<event>
 5   0  0.9432152E-05  0.1600412E+04  0.7818609E-02  0.8820295E-01
       -1   -1    0    0    0  501  0.00000000000E+00  0.00000000000E+00  0.12799727755E+04  0.12799727755E+04  0.50400001928E-02 0. -1.
        1   -1    0    0  501    0  0.00000000000E+00  0.00000000000E+00 -0.50026816131E+03  0.50026816134E+03  0.50400001928E-02 0.  1.
    10030    2    1    2    0    0  0.00000000000E+00  0.00000000000E+00  0.77970461417E+03  0.17802409368E+04  0.16004119807E+04 0.  0.
        4    1    3    3  502    0 -0.64394924266E+03 -0.40183520157E+03  0.10803564667E+03  0.76669124828E+03  0.12699999809E+01 0. -1.
       -4    1    3    3    0  502  0.64394924266E+03  0.40183520157E+03  0.67166896750E+03  0.10135496885E+04  0.12699999809E+01 0.  1.
</event>
<event>
 5   0  0.9616567E-05  0.1615042E+04  0.7818609E-02  0.8811360E-01
       -1   -1    0    0    0  501  0.00000000000E+00  0.00000000000E+00  0.92092511952E+03  0.92092511953E+03  0.50400001928E-02 0. -1.
        1   -1    0    0  501    0  0.00000000000E+00  0.00000000000E+00 -0.70808173012E+03  0.70808173014E+03  0.50400001928E-02 0.  1.
    10030    2    1    2    0    0  0.00000000000E+00  0.00000000000E+00  0.21284338940E+03  0.16290068497E+04  0.16150421071E+04 0.  0.
        5    1    3    3  502    0  0.73315499885E+03  0.33023798227E+03  0.18118946007E+03  0.82427245963E+03  0.46999998093E+01 0.  1.
       -5    1    3    3    0  502 -0.73315499885E+03 -0.33023798227E+03  0.31653929324E+02  0.80473439004E+03  0.46999998093E+01 0. -1.
</event>
<event>
 5   0  0.1914170E-04  0.1616198E+04  0.7818609E-02  0.8810658E-01
       -2   -1    0    0    0  501  0.00000000000E+00  0.00000000000E+00  0.74718119879E+03  0.74718119879E+03  0.25500000920E-02 0.  1.
        2   -1    0    0  501    0  0.00000000000E+00  0.00000000000E+00 -0.87398373954E+03  0.87398373954E+03  0.25500000920E-02 0. -1.
    10030    2    1    2    0    0  0.00000000000E+00  0.00000000000E+00 -0.12680254075E+03  0.16211649383E+04  0.16161982777E+04 0.  0.
        3    1    3    3  502    0 -0.45811671197E+03  0.63025898556E+03  0.15156291860E+03  0.79376863074E+03  0.10100000352E+00 0.  1.
       -3    1    3    3    0  502  0.45811671197E+03 -0.63025898556E+03 -0.27836545934E+03  0.82739630759E+03  0.10100000352E+00 0. -1.
</event>
<event>
 5   0  0.1832646E-04  0.1603633E+04  0.7818609E-02  0.8818319E-01
        2   -1    0    0  501    0  0.00000000000E+00  0.00000000000E+00  0.10003147182E+04  0.10003147182E+04  0.25500000920E-02 0.  1.
       -2   -1    0    0    0  501  0.00000000000E+00  0.00000000000E+00 -0.64270749940E+03  0.64270749941E+03  0.25500000920E-02 0. -1.
    10030    2    1    2    0    0  0.00000000000E+00  0.00000000000E+00  0.35760721879E+03  0.16430222176E+04  0.16036330891E+04 0.  0.
        2    1    3    3  502    0  0.50313371177E+03 -0.35898985465E+03 -0.34451869378E+03  0.70760891602E+03  0.25500000920E-02 0. -1.
       -2    1    3    3    0  502 -0.50313371177E+03  0.35898985465E+03  0.70212591257E+03  0.93541330158E+03  0.25500000920E-02 0.  1.
</event>
<event>
 5   0  0.1835088E-04  0.1638410E+04  0.7818609E-02  0.8797293E-01
        2   -1    0    0  501    0  0.00000000000E+00  0.00000000000E+00  0.16826922698E+04  0.16826922698E+04  0.25500000920E-02 0.  1.
       -2   -1    0    0    0  501  0.00000000000E+00  0.00000000000E+00 -0.39882333580E+03  0.39882333581E+03  0.25500000920E-02 0. -1.
    10030    2    1    2    0    0  0.00000000000E+00  0.00000000000E+00  0.12838689340E+04  0.20815156056E+04  0.16384101369E+04 0.  0.
        5    1    3    3  502    0  0.32523542978E+03 -0.63174812428E+03  0.11598523369E+04  0.13602070837E+04  0.46999998093E+01 0.  1.
       -5    1    3    3    0  502 -0.32523542978E+03  0.63174812428E+03  0.12401659710E+03  0.72130852183E+03  0.46999998093E+01 0. -1.
</event>
<event>
 5   0  0.9432152E-05  0.1605383E+04  0.7818609E-02  0.8817248E-01
       -1   -1    0    0    0  501  0.00000000000E+00  0.00000000000E+00  0.72242841095E+03  0.72242841096E+03  0.50400001928E-02 0. -1.
        1   -1    0    0  501    0  0.00000000000E+00  0.00000000000E+00 -0.89187199759E+03  0.89187199760E+03  0.50400001928E-02 0.  1.
    10030    2    1    2    0    0  0.00000000000E+00  0.00000000000E+00 -0.16944358664E+03  0.16143004086E+04  0.16053830322E+04 0.  0.
        4    1    3    3  502    0 -0.71322252776E+03 -0.28932101721E+03  0.14440136207E+03  0.78310049890E+03  0.12699999809E+01 0. -1.
       -4    1    3    3    0  502  0.71322252776E+03  0.28932101721E+03 -0.31384494872E+03  0.83119990967E+03  0.12699999809E+01 0.  1.
</event>
<event>
 5   0  0.9673017E-05  0.1598406E+04  0.7818609E-02  0.8821528E-01
        1   -1    0    0  501    0  0.00000000000E+00  0.00000000000E+00  0.96849767741E+03  0.96849767743E+03  0.50400001928E-02 0. -1.
       -1   -1    0    0    0  501  0.00000000000E+00  0.00000000000E+00 -0.65950129621E+03  0.65950129623E+03  0.50400001928E-02 0.  1.
    10030    2    1    2    0    0  0.00000000000E+00  0.00000000000E+00  0.30899638120E+03  0.16279989737E+04  0.15984060481E+04 0.  0.
        1    1    3    3  502    0 -0.45751323641E+02  0.62704434480E+03  0.65703726136E+03  0.90938207416E+03  0.50400001928E-02 0. -1.
       -1    1    3    3    0  502  0.45751323641E+02 -0.62704434480E+03 -0.34804088015E+03  0.71861689950E+03  0.50400001928E-02 0.  1.
</event>
<event>
 5   0  0.1832646E-04  0.1606165E+04  0.7818609E-02  0.8816769E-01
        2   -1    0    0  501    0  0.00000000000E+00  0.00000000000E+00  0.87288150848E+03  0.87288150849E+03  0.25500000920E-02 0. -1.
       -2   -1    0    0    0  501  0.00000000000E+00  0.00000000000E+00 -0.73886503338E+03  0.73886503339E+03  0.25500000920E-02 0.  1.
    10030    2    1    2    0    0  0.00000000000E+00  0.00000000000E+00  0.13401647510E+03  0.16117465419E+04  0.16061651533E+04 0.  0.
        2    1    3    3  502    0 -0.20730240463E+03  0.68954080808E+03 -0.28989723252E+03  0.77619663643E+03  0.25500000920E-02 0. -1.
       -2    1    3    3    0  502  0.20730240463E+03 -0.68954080808E+03  0.42391370762E+03  0.83554990544E+03  0.25500000920E-02 0.  1.
</event>
<event>
 5   0  0.6838750E-05  0.1606017E+04  0.7818609E-02  0.8816860E-01
       -3   -1    0    0    0  501  0.00000000000E+00  0.00000000000E+00  0.12903855802E+04  0.12903855842E+04  0.10100000352E+00 0.  1.
        3   -1    0    0  501    0  0.00000000000E+00  0.00000000000E+00 -0.49971311306E+03  0.49971312326E+03  0.10100000352E+00 0. -1.
    10030    2    1    2    0    0  0.00000000000E+00  0.00000000000E+00  0.79067246715E+03  0.17900987074E+04  0.16060169464E+04 0.  0.
        4    1    3    3  502    0 -0.32512738300E+03  0.72857909760E+02 -0.41902695741E+03  0.53535156124E+03  0.12699999809E+01 0. -1.
       -4    1    3    3    0  502  0.32512738300E+03 -0.72857909760E+02  0.12096994246E+04  0.12547471462E+04  0.12699999809E+01 0.  1.
</event>
<event>
 5   0  0.9432152E-05  0.1594374E+04  0.7818609E-02  0.8824012E-01
       -1   -1    0    0    0  501  0.00000000000E+00  0.00000000000E+00  0.76107152496E+03  0.76107152498E+03  0.50400001928E-02 0. -1.
        1   -1    0    0  501    0  0.00000000000E+00  0.00000000000E+00 -0.83501655355E+03  0.83501655356E+03  0.50400001928E-02 0.  1.
    10030    2    1    2    0    0  0.00000000000E+00  0.00000000000E+00 -0.73945028587E+02  0.15960880785E+04  0.15943742620E+04 0.  0.
        4    1    3    3  502    0 -0.53950445846E+03  0.14733962449E+03  0.53173292292E+03  0.77169653353E+03  0.12699999809E+01 0. -1.
       -4    1    3    3    0  502  0.53950445846E+03 -0.14733962449E+03 -0.60567795151E+03  0.82439154501E+03  0.12699999809E+01 0.  1.
</event>
<event>
 5   0  0.1858913E-04  0.1602941E+04  0.7818609E-02  0.8818743E-01
       -2   -1    0    0    0  501  0.00000000000E+00  0.00000000000E+00  0.64624260043E+03  0.64624260043E+03  0.25500000920E-02 0. -1.
        2   -1    0    0  501    0  0.00000000000E+00  0.00000000000E+00 -0.99398479267E+03  0.99398479267E+03  0.25500000920E-02 0.  1.
    10030    2    1    2    0    0  0.00000000000E+00  0.00000000000E+00 -0.34774219224E+03  0.16402273931E+04  0.16029414427E+04 0.  0.
        4    1    3    3  502    0  0.47767979889E+03  0.22208834257E+03 -0.79195161570E+03  0.95115203658E+03  0.12699999809E+01 0.  1.
       -4    1    3    3    0  502 -0.47767979889E+03 -0.22208834257E+03  0.44420942346E+03  0.68907535652E+03  0.12699999809E+01 0. -1.
</event>
<event>
 5   0  0.9616567E-05  0.1600927E+04  0.7818609E-02  0.8819979E-01
       -1   -1    0    0    0  501  0.00000000000E+00  0.00000000000E+00  0.67599305389E+03  0.67599305391E+03  0.50400001928E-02 0. -1.
        1   -1    0    0  501    0  0.00000000000E+00  0.00000000000E+00 -0.94785302620E+03  0.94785302621E+03  0.50400001928E-02 0.  1.
    10030    2    1    2    0    0  0.00000000000E+00  0.00000000000E+00 -0.27185997231E+03  0.16238460801E+04  0.16009273086E+04 0.  0.
        5    1    3    3  502    0  0.50934482516E+03  0.44875636339E+03  0.29429489744E+03  0.73989593948E+03  0.46999998093E+01 0.  1.
       -5    1    3    3    0  502 -0.50934482516E+03 -0.44875636339E+03 -0.56615486975E+03  0.88395014064E+03  0.46999998093E+01 0. -1.
</event>
<event>
 5   0  0.1914170E-04  0.1600088E+04  0.7818609E-02  0.8820494E-01
       -2   -1    0    0    0  501  0.00000000000E+00  0.00000000000E+00  0.47856615791E+03  0.47856615792E+03  0.25500000920E-02 0. -1.
        2   -1    0    0  501    0  0.00000000000E+00  0.00000000000E+00 -0.13374751977E+04  0.13374751977E+04  0.25500000920E-02 0.  1.
    10030    2    1    2    0    0  0.00000000000E+00  0.00000000000E+00 -0.85890903976E+03  0.18160413556E+04  0.16000879559E+04 0.  0.
        3    1    3    3  502    0  0.56822094033E+03  0.27860145448E+03  0.12607102035E+03  0.64528111691E+03  0.10100000352E+00 0. -1.
       -3    1    3    3    0  502 -0.56822094033E+03 -0.27860145448E+03 -0.98498006011E+03  0.11707602387E+04  0.10100000352E+00 0.  1.
</event>
<event>
 5   0  0.1774934E-04  0.1593441E+04  0.7818609E-02  0.8824588E-01
        2   -1    0    0  501    0  0.00000000000E+00  0.00000000000E+00  0.56119650766E+03  0.56119650767E+03  0.25500000920E-02 0. -1.
       -2   -1    0    0    0  501  0.00000000000E+00  0.00000000000E+00 -0.11310892953E+04  0.11310892953E+04  0.25500000920E-02 0.  1.
    10030    2    1    2    0    0  0.00000000000E+00  0.00000000000E+00 -0.56989278767E+03  0.16922858030E+04  0.15934407581E+04 0.  0.
        1    1    3    3  502    0 -0.18152558410E+03  0.77389998520E+03 -0.34204619724E+03  0.86537178475E+03  0.50400001928E-02 0. -1.
       -1    1    3    3    0  502  0.18152558410E+03 -0.77389998520E+03 -0.22784659044E+03  0.82691401825E+03  0.50400001928E-02 0.  1.
</event>
<event>
 5   0  0.9939872E-05  0.1595286E+04  0.7818609E-02  0.8823449E-01
       -1   -1    0    0    0  501  0.00000000000E+00  0.00000000000E+00  0.69900452906E+03  0.69900452908E+03  0.50400001928E-02 0.  1.
        1   -1    0    0  501    0  0.00000000000E+00  0.00000000000E+00 -0.91020041793E+03  0.91020041794E+03  0.50400001928E-02 0. -1.
    10030    2    1    2    0    0  0.00000000000E+00  0.00000000000E+00 -0.21119588887E+03  0.16092049470E+04  0.15952858233E+04 0.  0.
        3    1    3    3  502    0  0.10125336822E+03 -0.63488728896E+03  0.37064436456E+03  0.74209929891E+03  0.10100000352E+00 0.  1.
       -3    1    3    3    0  502 -0.10125336822E+03  0.63488728896E+03 -0.58184025343E+03  0.86710564811E+03  0.10100000352E+00 0. -1.
</event>
<event>
 5   0  0.9726935E-05  0.1599176E+04  0.7818609E-02  0.8821055E-01
       -1   -1    0    0    0  501  0.00000000000E+00  0.00000000000E+00  0.64176748070E+03  0.64176748072E+03  0.50400001928E-02 0.  1.
        1   -1    0    0  501    0  0.00000000000E+00  0.00000000000E+00 -0.99621845912E+03  0.99621845913E+03  0.50400001928E-02 0. -1.
    10030    2    1    2    0    0  0.00000000000E+00  0.00000000000E+00 -0.35445097842E+03  0.16379859398E+04  0.15991755510E+04 0.  0.
        2    1    3    3  502    0  0.14486881913E+03 -0.55844944562E+03  0.38982360531E+03  0.69628672350E+03  0.25500000920E-02 0.  1.
       -2    1    3    3    0  502 -0.14486881913E+03  0.55844944562E+03 -0.74427458373E+03  0.94169921634E+03  0.25500000920E-02 0. -1.
</event>
<event>
 5   0  0.9432152E-05  0.1600750E+04  0.7818609E-02  0.8820087E-01
       -1   -1    0    0    0  501  0.00000000000E+00  0.00000000000E+00  0.51456275091E+03  0.51456275094E+03  0.50400001928E-02 0.  1.
        1   -1    0    0  501    0  0.00000000000E+00  0.00000000000E+00 -0.12449405179E+04  0.12449405180E+04  0.50400001928E-02 0. -1.
    10030    2    1    2    0    0  0.00000000000E+00  0.00000000000E+00 -0.73037776703E+03  0.17595032689E+04  0.16007498464E+04 0.  0.
        4    1    3    3  502    0  0.17810984382E+03 -0.39056256157E+03 -0.11077104249E+04  0.11879756855E+04  0.12699999809E+01 0. -1.
       -4    1    3    3    0  502 -0.17810984382E+03  0.39056256157E+03  0.37733265789E+03  0.57152758339E+03  0.12699999809E+01 0.  1.
</event>
<event>
 5   0  0.9432152E-05  0.1600058E+04  0.7818609E-02  0.8820512E-01
        1   -1    0    0  501    0  0.00000000000E+00  0.00000000000E+00  0.33118961020E+03  0.33118961023E+03  0.50400001928E-02 0. -1.
       -1   -1    0    0    0  501  0.00000000000E+00  0.00000000000E+00 -0.19325683394E+04  0.19325683394E+04  0.50400001928E-02 0.  1.
    10030    2    1    2    0    0  0.00000000000E+00  0.00000000000E+00 -0.16013787292E+04  0.22637579496E+04  0.16000581928E+04 0.  0.
        4    1    3    3  502    0  0.39147877391E+03  0.45672524719E+03 -0.15469078954E+04  0.16597527622E+04  0.12699999809E+01 0.  1.
       -4    1    3    3    0  502 -0.39147877391E+03 -0.45672524719E+03 -0.54470833816E+02  0.60400518746E+03  0.12699999809E+01 0. -1.
</event>
<event>
 5   0  0.9673017E-05  0.1593279E+04  0.7818609E-02  0.8824687E-01
       -1   -1    0    0    0  501  0.00000000000E+00  0.00000000000E+00  0.12335346659E+04  0.12335346659E+04  0.50400001928E-02 0.  1.
        1   -1    0    0  501    0  0.00000000000E+00  0.00000000000E+00 -0.51448472106E+03  0.51448472108E+03  0.50400001928E-02 0. -1.
    10030    2    1    2    0    0  0.00000000000E+00  0.00000000000E+00  0.71904994482E+03  0.17480193870E+04  0.15932793082E+04 0.  0.
        1    1    3    3  502    0 -0.59153341902E+03  0.45300842398E+03  0.66887855965E+03  0.10012626756E+04  0.50400001928E-02 0.  1.
       -1    1    3    3    0  502  0.59153341902E+03 -0.45300842398E+03  0.50171385168E+02  0.74675671134E+03  0.50400001928E-02 0. -1.
</event>
<event>
 5   0  0.1835088E-04  0.1601293E+04  0.7818609E-02  0.8819754E-01
        2   -1    0    0  501    0  0.00000000000E+00  0.00000000000E+00  0.96584521500E+03  0.96584521501E+03  0.25500000920E-02 0. -1.
       -2   -1    0    0    0  501  0.00000000000E+00  0.00000000000E+00 -0.66370375442E+03  0.66370375442E+03  0.25500000920E-02 0.  1.
    10030    2    1    2    0    0  0.00000000000E+00  0.00000000000E+00  0.30214146059E+03  0.16295489694E+04  0.16012933465E+04 0.  0.
        5    1    3    3  502    0  0.28172198942E+03 -0.22923579773E+03 -0.57502962148E+03  0.68014519469E+03  0.46999998093E+01 0.  1.
       -5    1    3    3    0  502 -0.28172198942E+03  0.22923579773E+03  0.87717108207E+03  0.94940377474E+03  0.46999998093E+01 0. -1.
</event>
<event>
 5   0  0.1832646E-04  0.1596490E+04  0.7818609E-02  0.8822707E-01
        2   -1    0    0  501    0  0.00000000000E+00  0.00000000000E+00  0.11720027400E+04  0.11720027400E+04  0.25500000920E-02 0.  1.
       -2   -1    0    0    0  501  0.00000000000E+00  0.00000000000E+00 -0.54368030426E+03  0.54368030427E+03  0.25500000920E-02 0. -1.
    10030    2    1    2    0    0  0.00000000000E+00  0.00000000000E+00  0.62832243571E+03  0.17156830442E+04  0.15964896571E+04 0.  0.
        2    1    3    3  502    0 -0.56812623374E+02  0.65403064031E+03  0.80216919431E+03  0.10365612230E+04  0.25500000920E-02 0.  1.
       -2    1    3    3    0  502  0.56812623374E+02 -0.65403064031E+03 -0.17384675860E+03  0.67912182127E+03  0.25500000920E-02 0. -1.
</event>
<event>
 5   0  0.9726935E-05  0.1599643E+04  0.7818609E-02  0.8820767E-01
        1   -1    0    0  501    0  0.00000000000E+00  0.00000000000E+00  0.15752586355E+04  0.15752586355E+04  0.50400001928E-02 0. -1.
       -1   -1    0    0    0  501  0.00000000000E+00  0.00000000000E+00 -0.40610112485E+03  0.40610112488E+03  0.50400001928E-02 0.  1.
    10030    2    1    2    0    0  0.00000000000E+00  0.00000000000E+00  0.11691575106E+04  0.19813597604E+04  0.15996428399E+04 0.  0.
        2    1    3    3  502    0  0.28113629405E+03 -0.15232554765E+03 -0.32349032248E+03  0.45484797135E+03  0.25500000920E-02 0.  1.
       -2    1    3    3    0  502 -0.28113629405E+03  0.15232554765E+03  0.14926478331E+04  0.15265117890E+04  0.25500000920E-02 0. -1.
</event>
<event>
 5   0  0.9673017E-05  0.1601634E+04  0.7818609E-02  0.8819545E-01
        1   -1    0    0  501    0  0.00000000000E+00  0.00000000000E+00  0.70092781248E+03  0.70092781249E+03  0.50400001928E-02 0. -1.
       -1   -1    0    0    0  501  0.00000000000E+00  0.00000000000E+00 -0.91494126956E+03  0.91494126957E+03  0.50400001928E-02 0.  1.
    10030    2    1    2    0    0  0.00000000000E+00  0.00000000000E+00 -0.21401345708E+03  0.16158690821E+04  0.16016338940E+04 0.  0.
        1    1    3    3  502    0  0.53398836639E+02  0.79775772359E+03 -0.61450536767E+02  0.80190086033E+03  0.50400001928E-02 0. -1.
       -1    1    3    3    0  502 -0.53398836639E+02 -0.79775772359E+03 -0.15256292032E+03  0.81396822173E+03  0.50400001928E-02 0.  1.
</event>
<event>
 5   0  0.9939872E-05  0.1598997E+04  0.7818609E-02  0.8821164E-01
       -1   -1    0    0    0  501  0.00000000000E+00  0.00000000000E+00  0.33800368987E+03  0.33800368991E+03  0.50400001928E-02 0.  1.
        1   -1    0    0  501    0  0.00000000000E+00  0.00000000000E+00 -0.18910971852E+04  0.18910971852E+04  0.50400001928E-02 0. -1.
    10030    2    1    2    0    0  0.00000000000E+00  0.00000000000E+00 -0.15530934953E+04  0.22291008751E+04  0.15989969688E+04 0.  0.
        3    1    3    3  502    0  0.24771512968E+03 -0.74327683429E+03 -0.55448103894E+03  0.95982939662E+03  0.10100000352E+00 0.  1.
       -3    1    3    3    0  502 -0.24771512968E+03  0.74327683429E+03 -0.99861245639E+03  0.12692714785E+04  0.10100000352E+00 0. -1.
</event>
<event>
 5   0  0.9673017E-05  0.1593950E+04  0.7818609E-02  0.8824273E-01
        1   -1    0    0  501    0  0.00000000000E+00  0.00000000000E+00  0.93315766332E+03  0.93315766333E+03  0.50400001928E-02 0.  1.
       -1   -1    0    0    0  501  0.00000000000E+00  0.00000000000E+00 -0.68066684996E+03  0.68066684997E+03  0.50400001928E-02 0. -1.
    10030    2    1    2    0    0  0.00000000000E+00  0.00000000000E+00  0.25249081336E+03  0.16138245133E+04  0.15939504224E+04 0.  0.
        1    1    3    3  502    0  0.10336551298E+03 -0.58968148659E+03  0.65888542071E+03  0.89024641676E+03  0.50400001928E-02 0.  1.
       -1    1    3    3    0  502 -0.10336551298E+03  0.58968148659E+03 -0.40639460734E+03  0.72357809655E+03  0.50400001928E-02 0. -1.
</event>
<event>
 5   0  0.9432152E-05  0.1602380E+04  0.7818609E-02  0.8819087E-01
        1   -1    0    0  501    0  0.00000000000E+00  0.00000000000E+00  0.78133779317E+03  0.78133779319E+03  0.50400001928E-02 0.  1.
       -1   -1    0    0    0  501  0.00000000000E+00  0.00000000000E+00 -0.82154709687E+03  0.82154709689E+03  0.50400001928E-02 0. -1.
    10030    2    1    2    0    0  0.00000000000E+00  0.00000000000E+00 -0.40209303699E+02  0.16028848901E+04  0.16023804738E+04 0.  0.
        4    1    3    3  502    0 -0.68077786197E+03 -0.10186553708E+03 -0.43019601728E+03  0.81172982647E+03  0.12699999809E+01 0. -1.
       -4    1    3    3    0  502  0.68077786197E+03  0.10186553708E+03  0.38998671358E+03  0.79115506361E+03  0.12699999809E+01 0.  1.
</event>
<event>
 5   0  0.9432152E-05  0.1605078E+04  0.7818609E-02  0.8817434E-01
       -1   -1    0    0    0  501  0.00000000000E+00  0.00000000000E+00  0.34210786587E+03  0.34210786591E+03  0.50400001928E-02 0. -1.
        1   -1    0    0  501    0  0.00000000000E+00  0.00000000000E+00 -0.18826491247E+04  0.18826491248E+04  0.50400001928E-02 0.  1.
    10030    2    1    2    0    0  0.00000000000E+00  0.00000000000E+00 -0.15405412589E+04  0.22247569907E+04  0.16050782838E+04 0.  0.
        4    1    3    3  502    0 -0.10799391028E+03  0.49154157747E+03 -0.16367515444E+04  0.17123764300E+04  0.12699999809E+01 0.  1.
       -4    1    3    3    0  502  0.10799391028E+03 -0.49154157747E+03  0.96210285500E+02  0.51238056069E+03  0.12699999809E+01 0. -1.
</event>
<event>
 5   0  0.9939872E-05  0.1609945E+04  0.7818609E-02  0.8814461E-01
       -1   -1    0    0    0  501  0.00000000000E+00  0.00000000000E+00  0.32873308072E+03  0.32873308076E+03  0.50400001928E-02 0. -1.
        1   -1    0    0  501    0  0.00000000000E+00  0.00000000000E+00 -0.19711463646E+04  0.19711463646E+04  0.50400001928E-02 0.  1.
    10030    2    1    2    0    0  0.00000000000E+00  0.00000000000E+00 -0.16424132838E+04  0.22998794453E+04  0.16099453618E+04 0.  0.
        3    1    3    3  502    0 -0.74359873297E+03  0.30280499696E+03 -0.73851047903E+03  0.10908838984E+04  0.10100000352E+00 0.  1.
       -3    1    3    3    0  502  0.74359873297E+03 -0.30280499696E+03 -0.90390280481E+03  0.12089955470E+04  0.10100000352E+00 0. -1.
</event>
<event>
 5   0  0.1832646E-04  0.1606133E+04  0.7818609E-02  0.8816789E-01
       -2   -1    0    0    0  501  0.00000000000E+00  0.00000000000E+00  0.12807021014E+04  0.12807021014E+04  0.25500000920E-02 0.  1.
        2   -1    0    0  501    0  0.00000000000E+00  0.00000000000E+00 -0.50356439291E+03  0.50356439292E+03  0.25500000920E-02 0. -1.
    10030    2    1    2    0    0  0.00000000000E+00  0.00000000000E+00  0.77713770848E+03  0.17842664943E+04  0.16061332151E+04 0.  0.
        2    1    3    3  502    0  0.73503423045E+03  0.23256741102E+03  0.13879218952E+03  0.78334295968E+03  0.25500000920E-02 0. -1.
       -2    1    3    3    0  502 -0.73503423045E+03 -0.23256741102E+03  0.63834551895E+03  0.10009235346E+04  0.25500000920E-02 0.  1.
</event>
<event>
 5   0  0.9616567E-05  0.1598725E+04  0.7818609E-02  0.8821331E-01
        1   -1    0    0  501    0  0.00000000000E+00  0.00000000000E+00  0.82385676431E+03  0.82385676433E+03  0.50400001928E-02 0.  1.
       -1   -1    0    0    0  501  0.00000000000E+00  0.00000000000E+00 -0.77559688255E+03  0.77559688257E+03  0.50400001928E-02 0. -1.
    10030    2    1    2    0    0  0.00000000000E+00  0.00000000000E+00  0.48259881759E+02  0.15994536469E+04  0.15987254149E+04 0.  0.
        5    1    3    3  502    0 -0.23615940085E+03 -0.44600045017E+03 -0.59604837264E+03  0.78101435114E+03  0.46999998093E+01 0. -1.
       -5    1    3    3    0  502  0.23615940085E+03  0.44600045017E+03  0.64430825440E+03  0.81843929576E+03  0.46999998093E+01 0.  1.
</event>
<event>
 5   0  0.1774934E-04  0.1604863E+04  0.7818609E-02  0.8817566E-01
        2   -1    0    0  501    0  0.00000000000E+00  0.00000000000E+00  0.12387759158E+04  0.12387759158E+04  0.25500000920E-02 0. -1.
       -2   -1    0    0    0  501  0.00000000000E+00  0.00000000000E+00 -0.51978464037E+03  0.51978464038E+03  0.25500000920E-02 0.  1.
    10030    2    1    2    0    0  0.00000000000E+00  0.00000000000E+00  0.71899127539E+03  0.17585605561E+04  0.16048634757E+04 0.  0.
        1    1    3    3  502    0  0.31407389360E+03  0.21930679364E+03 -0.41312589220E+03  0.56339229956E+03  0.50400001928E-02 0.  1.
       -1    1    3    3    0  502 -0.31407389360E+03 -0.21930679364E+03  0.11321171676E+04  0.11951682566E+04  0.50400001928E-02 0. -1.
</event>
<event>
 5   0  0.9939872E-05  0.1603580E+04  0.7818609E-02  0.8818352E-01
        1   -1    0    0  501    0  0.00000000000E+00  0.00000000000E+00  0.22424697839E+04  0.22424697839E+04  0.50400001928E-02 0. -1.
       -1   -1    0    0    0  501  0.00000000000E+00  0.00000000000E+00 -0.28667811505E+03  0.28667811509E+03  0.50400001928E-02 0.  1.
    10030    2    1    2    0    0  0.00000000000E+00  0.00000000000E+00  0.19557916688E+04  0.25291478990E+04  0.16035797589E+04 0.  0.
        3    1    3    3  502    0  0.40173062577E+03  0.69387938139E+03  0.98310508702E+03  0.12686022678E+04  0.10100000352E+00 0.  1.
       -3    1    3    3    0  502 -0.40173062577E+03 -0.69387938139E+03  0.97268658183E+03  0.12605456312E+04  0.10100000352E+00 0. -1.
</event>
<event>
 5   0  0.1774934E-04  0.1597701E+04  0.7818609E-02  0.8821962E-01
       -2   -1    0    0    0  501  0.00000000000E+00  0.00000000000E+00  0.12284096637E+04  0.12284096637E+04  0.25500000920E-02 0. -1.
        2   -1    0    0  501    0  0.00000000000E+00  0.00000000000E+00 -0.51950270403E+03  0.51950270404E+03  0.25500000920E-02 0.  1.
    10030    2    1    2    0    0  0.00000000000E+00  0.00000000000E+00  0.70890695965E+03  0.17479123677E+04  0.15977010258E+04 0.  0.
        1    1    3    3  502    0  0.56773156584E+03 -0.24239628880E+03  0.90916124051E+03  0.10989309591E+04  0.50400001928E-02 0. -1.
       -1    1    3    3    0  502 -0.56773156584E+03  0.24239628880E+03 -0.20025428086E+03  0.64898140859E+03  0.50400001928E-02 0.  1.
</event>
<event>
 5   0  0.9673017E-05  0.1602606E+04  0.7818609E-02  0.8818949E-01
       -1   -1    0    0    0  501  0.00000000000E+00  0.00000000000E+00  0.42894249618E+03  0.42894249621E+03  0.50400001928E-02 0. -1.
        1   -1    0    0  501    0  0.00000000000E+00  0.00000000000E+00 -0.14969052653E+04  0.14969052653E+04  0.50400001928E-02 0.  1.
    10030    2    1    2    0    0  0.00000000000E+00  0.00000000000E+00 -0.10679627691E+04  0.19258477615E+04  0.16026057295E+04 0.  0.
        1    1    3    3  502    0 -0.26698598809E+01 -0.62956439106E+03  0.61711530978E+02  0.63258735660E+03  0.50400001928E-02 0. -1.
       -1    1    3    3    0  502  0.26698598809E+01  0.62956439106E+03 -0.11296743001E+04  0.12932604050E+04  0.50400001928E-02 0.  1.
</event>
<event>
 5   0  0.1835088E-04  0.1625371E+04  0.7818609E-02  0.8805112E-01
        2   -1    0    0  501    0  0.00000000000E+00  0.00000000000E+00  0.71244533931E+03  0.71244533931E+03  0.25500000920E-02 0.  1.
       -2   -1    0    0    0  501  0.00000000000E+00  0.00000000000E+00 -0.92702920171E+03  0.92702920171E+03  0.25500000920E-02 0. -1.
    10030    2    1    2    0    0  0.00000000000E+00  0.00000000000E+00 -0.21458386240E+03  0.16394745410E+04  0.16253708920E+04 0.  0.
        5    1    3    3  502    0 -0.62298267391E+03 -0.30239074728E+03  0.32170781903E+03  0.76358731449E+03  0.46999998093E+01 0.  1.
       -5    1    3    3    0  502  0.62298267391E+03  0.30239074728E+03 -0.53629168143E+03  0.87588722653E+03  0.46999998093E+01 0. -1.
</event>
<event>
 5   0  0.9726935E-05  0.1599546E+04  0.7818609E-02  0.8820827E-01
        1   -1    0    0  501    0  0.00000000000E+00  0.00000000000E+00  0.86727380233E+03  0.86727380235E+03  0.50400001928E-02 0.  1.
       -1   -1    0    0    0  501  0.00000000000E+00  0.00000000000E+00 -0.73752569126E+03  0.73752569128E+03  0.50400001928E-02 0. -1.
    10030    2    1    2    0    0  0.00000000000E+00  0.00000000000E+00  0.12974811107E+03  0.16047994936E+04  0.15995458238E+04 0.  0.
        2    1    3    3  502    0  0.44641101579E+03  0.16220783098E+03 -0.58070074824E+03  0.75020499496E+03  0.25500000920E-02 0. -1.
       -2    1    3    3    0  502 -0.44641101579E+03 -0.16220783098E+03  0.71044885931E+03  0.85459449867E+03  0.25500000920E-02 0.  1.
</event>
<event>
 5   0  0.1914170E-04  0.1601457E+04  0.7818609E-02  0.8819654E-01
        2   -1    0    0  501    0  0.00000000000E+00  0.00000000000E+00  0.78147812542E+03  0.78147812542E+03  0.25500000920E-02 0.  1.
       -2   -1    0    0    0  501  0.00000000000E+00  0.00000000000E+00 -0.82045279064E+03  0.82045279065E+03  0.25500000920E-02 0. -1.
    10030    2    1    2    0    0  0.00000000000E+00  0.00000000000E+00 -0.38974665228E+02  0.16019309161E+04  0.16014567229E+04 0.  0.
        3    1    3    3  502    0  0.50052047309E+03 -0.15751806291E+03 -0.62450790569E+03  0.81568549000E+03  0.10100000352E+00 0. -1.
       -3    1    3    3    0  502 -0.50052047309E+03  0.15751806291E+03  0.58553324046E+03  0.78624542607E+03  0.10100000352E+00 0.  1.
</event>
<event>
 5   0  0.1832646E-04  0.1601993E+04  0.7818609E-02  0.8819325E-01
        2   -1    0    0  501    0  0.00000000000E+00  0.00000000000E+00  0.13220141114E+04  0.13220141114E+04  0.25500000920E-02 0.  1.
       -2   -1    0    0    0  501  0.00000000000E+00  0.00000000000E+00 -0.48531637277E+03  0.48531637278E+03  0.25500000920E-02 0. -1.
    10030    2    1    2    0    0  0.00000000000E+00  0.00000000000E+00  0.83669773860E+03  0.18073304841E+04  0.16019926258E+04 0.  0.
        2    1    3    3  502    0 -0.20895067651E+03 -0.69885221285E+03  0.44957728353E+02  0.73080503417E+03  0.25500000920E-02 0. -1.
       -2    1    3    3    0  502  0.20895067651E+03  0.69885221285E+03  0.79174001024E+03  0.10765254500E+04  0.25500000920E-02 0.  1.
</event>
<event>
 5   0  0.9726935E-05  0.1593191E+04  0.7818609E-02  0.8824742E-01
        1   -1    0    0  501    0  0.00000000000E+00  0.00000000000E+00  0.10676488236E+04  0.10676488236E+04  0.50400001928E-02 0. -1.
       -1   -1    0    0    0  501  0.00000000000E+00  0.00000000000E+00 -0.59435717257E+03  0.59435717259E+03  0.50400001928E-02 0.  1.
    10030    2    1    2    0    0  0.00000000000E+00  0.00000000000E+00  0.47329165100E+03  0.16620059962E+04  0.15931914337E+04 0.  0.
        2    1    3    3  502    0 -0.31682036352E+03 -0.72857450649E+03  0.29719400188E+03  0.84824538255E+03  0.25500000920E-02 0. -1.
       -2    1    3    3    0  502  0.31682036352E+03  0.72857450649E+03  0.17609764912E+03  0.81376061363E+03  0.25500000920E-02 0.  1.
</event>
<event>
 5   0  0.1835088E-04  0.1593162E+04  0.7818609E-02  0.8824760E-01
       -2   -1    0    0    0  501  0.00000000000E+00  0.00000000000E+00  0.60598684520E+03  0.60598684521E+03  0.25500000920E-02 0. -1.
        2   -1    0    0  501    0  0.00000000000E+00  0.00000000000E+00 -0.10471202600E+04  0.10471202600E+04  0.25500000920E-02 0.  1.
    10030    2    1    2    0    0  0.00000000000E+00  0.00000000000E+00 -0.44113341483E+03  0.16531071052E+04  0.15931617657E+04 0.  0.
        5    1    3    3  502    0  0.80642704832E+02  0.11029234512E+03 -0.10348566518E+04  0.10438477029E+04  0.46999998093E+01 0.  1.
       -5    1    3    3    0  502 -0.80642704832E+02 -0.11029234512E+03  0.59372323693E+03  0.60925940231E+03  0.46999998093E+01 0. -1.
</event>
<event>
 5   0  0.1835088E-04  0.1612065E+04  0.7818609E-02  0.8813170E-01
        2   -1    0    0  501    0  0.00000000000E+00  0.00000000000E+00  0.97377318735E+03  0.97377318735E+03  0.25500000920E-02 0. -1.
       -2   -1    0    0    0  501  0.00000000000E+00  0.00000000000E+00 -0.66718627677E+03  0.66718627677E+03  0.25500000920E-02 0.  1.
    10030    2    1    2    0    0  0.00000000000E+00  0.00000000000E+00  0.30658691058E+03  0.16409594641E+04  0.16120646479E+04 0.  0.
        5    1    3    3  502    0  0.25838121706E+03 -0.73829976993E+03  0.35124924181E+03  0.85746459022E+03  0.46999998093E+01 0. -1.
       -5    1    3    3    0  502 -0.25838121706E+03  0.73829976993E+03 -0.44662331237E+02  0.78349487390E+03  0.46999998093E+01 0.  1.
</event>
<event>
 5   0  0.1914170E-04  0.1594390E+04  0.7818609E-02  0.8824002E-01
        2   -1    0    0  501    0  0.00000000000E+00  0.00000000000E+00  0.16734792368E+04  0.16734792368E+04  0.25500000920E-02 0. -1.
       -2   -1    0    0    0  501  0.00000000000E+00  0.00000000000E+00 -0.37975954808E+03  0.37975954809E+03  0.25500000920E-02 0.  1.
    10030    2    1    2    0    0  0.00000000000E+00  0.00000000000E+00  0.12937196888E+04  0.20532387849E+04  0.15943898127E+04 0.  0.
        3    1    3    3  502    0  0.17113663371E+03 -0.56649374183E+03  0.13347334128E+04  0.14600397941E+04  0.10100000352E+00 0. -1.
       -3    1    3    3    0  502 -0.17113663371E+03  0.56649374183E+03 -0.41013724069E+02  0.59319899080E+03  0.10100000352E+00 0.  1.
</event>
<event>
 5   0  0.1774934E-04  0.1581401E+04  0.7818609E-02  0.8832057E-01
        2   -1    0    0  501    0  0.00000000000E+00  0.00000000000E+00  0.16018632643E+04  0.16018632643E+04  0.25500000920E-02 0. -1.
       -2   -1    0    0    0  501  0.00000000000E+00  0.00000000000E+00 -0.39029981292E+03  0.39029981293E+03  0.25500000920E-02 0.  1.
    10030    2    1    2    0    0  0.00000000000E+00  0.00000000000E+00  0.12115634514E+04  0.19921630773E+04  0.15814005595E+04 0.  0.
        1    1    3    3  502    0 -0.31956637306E+03  0.10040919882E+03  0.15080644393E+04  0.15448181211E+04  0.50400001928E-02 0. -1.
       -1    1    3    3    0  502  0.31956637306E+03 -0.10040919882E+03 -0.29650098790E+03  0.44734495621E+03  0.50400001928E-02 0.  1.
</event>
<event>
 5   0  0.9616567E-05  0.1602057E+04  0.7818609E-02  0.8819286E-01
       -1   -1    0    0    0  501  0.00000000000E+00  0.00000000000E+00  0.33466356086E+03  0.33466356089E+03  0.50400001928E-02 0. -1.
        1   -1    0    0  501    0  0.00000000000E+00  0.00000000000E+00 -0.19172876656E+04  0.19172876656E+04  0.50400001928E-02 0.  1.
    10030    2    1    2    0    0  0.00000000000E+00  0.00000000000E+00 -0.15826241047E+04  0.22519512265E+04  0.16020565750E+04 0.  0.
        5    1    3    3  502    0  0.33590613186E+03  0.61741775698E+03 -0.25129855848E+03  0.74646545235E+03  0.46999998093E+01 0. -1.
       -5    1    3    3    0  502 -0.33590613186E+03 -0.61741775698E+03 -0.13313255463E+04  0.15054857742E+04  0.46999998093E+01 0.  1.
</event>
<event>
 5   0  0.9673017E-05  0.1599173E+04  0.7818609E-02  0.8821056E-01
        1   -1    0    0  501    0  0.00000000000E+00  0.00000000000E+00  0.67380809884E+03  0.67380809886E+03  0.50400001928E-02 0.  1.
       -1   -1    0    0    0  501  0.00000000000E+00  0.00000000000E+00 -0.94884358870E+03  0.94884358872E+03  0.50400001928E-02 0. -1.
    10030    2    1    2    0    0  0.00000000000E+00  0.00000000000E+00 -0.27503548986E+03  0.16226516876E+04  0.15991729045E+04 0.  0.
        1    1    3    3  502    0  0.46659051624E+03 -0.57395481471E+03  0.17059763186E+03  0.75910104149E+03  0.50400001928E-02 0.  1.
       -1    1    3    3    0  502 -0.46659051624E+03  0.57395481471E+03 -0.44563312172E+03  0.86355064609E+03  0.50400001928E-02 0. -1.
</event>
<event>
 5   0  0.6838750E-05  0.1608370E+04  0.7818609E-02  0.8815422E-01
       -3   -1    0    0    0  501  0.00000000000E+00  0.00000000000E+00  0.51853412749E+03  0.51853413733E+03  0.10100000352E+00 0.  1.
        3   -1    0    0  501    0  0.00000000000E+00  0.00000000000E+00 -0.12471954972E+04  0.12471955012E+04  0.10100000352E+00 0. -1.
    10030    2    1    2    0    0  0.00000000000E+00  0.00000000000E+00 -0.72866136967E+03  0.17657296386E+04  0.16083699092E+04 0.  0.
        5    1    3    3  502    0  0.37142998846E+03  0.70343340666E+03 -0.23483903913E+03  0.82942766908E+03  0.46999998093E+01 0. -1.
       -5    1    3    3    0  502 -0.37142998846E+03 -0.70343340666E+03 -0.49382233054E+03  0.93630196949E+03  0.46999998093E+01 0.  1.
</event>
<event>
 5   0  0.1832646E-04  0.1592516E+04  0.7818609E-02  0.8825159E-01
        2   -1    0    0  501    0  0.00000000000E+00  0.00000000000E+00  0.10727534290E+04  0.10727534290E+04  0.25500000920E-02 0.  1.
       -2   -1    0    0    0  501  0.00000000000E+00  0.00000000000E+00 -0.59102736167E+03  0.59102736168E+03  0.25500000920E-02 0. -1.
    10030    2    1    2    0    0  0.00000000000E+00  0.00000000000E+00  0.48172606737E+03  0.16637807907E+04  0.15925157819E+04 0.  0.
        2    1    3    3  502    0  0.56151879083E+03 -0.46261018554E+03  0.57894110459E+03  0.92977649939E+03  0.25500000920E-02 0. -1.
       -2    1    3    3    0  502 -0.56151879083E+03  0.46261018554E+03 -0.97215037221E+02  0.73400429133E+03  0.25500000920E-02 0.  1.
</event>
<event>
 5   0  0.9726935E-05  0.1604951E+04  0.7818609E-02  0.8817512E-01
        1   -1    0    0  501    0  0.00000000000E+00  0.00000000000E+00  0.66332849971E+03  0.66332849973E+03  0.50400001928E-02 0.  1.
       -1   -1    0    0    0  501  0.00000000000E+00  0.00000000000E+00 -0.97081142947E+03  0.97081142949E+03  0.50400001928E-02 0. -1.
    10030    2    1    2    0    0  0.00000000000E+00  0.00000000000E+00 -0.30748292977E+03  0.16341399292E+04  0.16049509513E+04 0.  0.
        2    1    3    3  502    0 -0.55084924402E+03  0.45421236155E+03  0.21928630028E+03  0.74688033882E+03  0.25500000920E-02 0.  1.
       -2    1    3    3    0  502  0.55084924402E+03 -0.45421236155E+03 -0.52676923005E+03  0.88725959039E+03  0.25500000920E-02 0. -1.
</event>
<event>
 5   0  0.1774934E-04  0.1601809E+04  0.7818609E-02  0.8819438E-01
       -2   -1    0    0    0  501  0.00000000000E+00  0.00000000000E+00  0.17924349468E+04  0.17924349468E+04  0.25500000920E-02 0. -1.
        2   -1    0    0  501    0  0.00000000000E+00  0.00000000000E+00 -0.35786398142E+03  0.35786398143E+03  0.25500000920E-02 0.  1.
    10030    2    1    2    0    0  0.00000000000E+00  0.00000000000E+00  0.14345709653E+04  0.21502989282E+04  0.16018088606E+04 0.  0.
        1    1    3    3  502    0 -0.39083638383E+03  0.65938932183E+03  0.10289481221E+04  0.12830750542E+04  0.50400001928E-02 0. -1.
       -1    1    3    3    0  502  0.39083638383E+03 -0.65938932183E+03  0.40562284326E+03  0.86722387402E+03  0.50400001928E-02 0.  1.
</event>
<event>
 5   0  0.1835088E-04  0.1597995E+04  0.7818609E-02  0.8821781E-01
       -2   -1    0    0    0  501  0.00000000000E+00  0.00000000000E+00  0.64938024734E+03  0.64938024735E+03  0.25500000920E-02 0.  1.
        2   -1    0    0  501    0  0.00000000000E+00  0.00000000000E+00 -0.98308684228E+03  0.98308684229E+03  0.25500000920E-02 0. -1.
    10030    2    1    2    0    0  0.00000000000E+00  0.00000000000E+00 -0.33370659494E+03  0.16324670896E+04  0.15979952150E+04 0.  0.
        5    1    3    3  502    0 -0.70592827512E+03 -0.35588032992E+03 -0.28506267161E+03  0.84039773654E+03  0.46999998093E+01 0. -1.
       -5    1    3    3    0  502  0.70592827512E+03  0.35588032992E+03 -0.48643923333E+02  0.79206935309E+03  0.46999998093E+01 0.  1.
</event>
<event>
 5   0  0.9939872E-05  0.1612455E+04  0.7818609E-02  0.8812933E-01
        1   -1    0    0  501    0  0.00000000000E+00  0.00000000000E+00  0.95505297226E+03  0.95505297228E+03  0.50400001928E-02 0.  1.
       -1   -1    0    0    0  501  0.00000000000E+00  0.00000000000E+00 -0.68059330364E+03  0.68059330365E+03  0.50400001928E-02 0. -1.
    10030    2    1    2    0    0  0.00000000000E+00  0.00000000000E+00  0.27445966863E+03  0.16356462759E+04  0.16124548460E+04 0.  0.
        3    1    3    3  502    0 -0.39318941848E+03 -0.13228350072E+03 -0.56402033613E+03  0.70015412099E+03  0.10100000352E+00 0. -1.
       -3    1    3    3    0  502  0.39318941848E+03  0.13228350072E+03  0.83848000476E+03  0.93549215494E+03  0.10100000352E+00 0.  1.
</event>
<event>
 5   0  0.9616567E-05  0.1604429E+04  0.7818609E-02  0.8817832E-01
        1   -1    0    0  501    0  0.00000000000E+00  0.00000000000E+00  0.21508835136E+04  0.21508835136E+04  0.50400001928E-02 0.  1.
       -1   -1    0    0    0  501  0.00000000000E+00  0.00000000000E+00 -0.29920183330E+03  0.29920183334E+03  0.50400001928E-02 0. -1.
    10030    2    1    2    0    0  0.00000000000E+00  0.00000000000E+00  0.18516816803E+04  0.24500853469E+04  0.16044292325E+04 0.  0.
        5    1    3    3  502    0  0.13346040984E+03 -0.57113940545E+02 -0.27895583576E+03  0.31450299124E+03  0.46999998093E+01 0. -1.
       -5    1    3    3    0  502 -0.13346040984E+03  0.57113940545E+02  0.21306375160E+04  0.21355823557E+04  0.46999998093E+01 0.  1.
</event>
<event>
 5   0  0.1774934E-04  0.1635025E+04  0.7818609E-02  0.8799315E-01
        2   -1    0    0  501    0  0.00000000000E+00  0.00000000000E+00  0.95570744415E+03  0.95570744416E+03  0.25500000920E-02 0. -1.
       -2   -1    0    0    0  501  0.00000000000E+00  0.00000000000E+00 -0.69930068603E+03  0.69930068604E+03  0.25500000920E-02 0.  1.
    10030    2    1    2    0    0  0.00000000000E+00  0.00000000000E+00  0.25640675812E+03  0.16550081302E+04  0.16350252247E+04 0.  0.
        1    1    3    3  502    0 -0.22709841976E+03  0.31325616408E+03 -0.60075356412E+03  0.71456837421E+03  0.50400001928E-02 0.  1.
       -1    1    3    3    0  502  0.22709841976E+03 -0.31325616408E+03  0.85716032224E+03  0.94043975599E+03  0.50400001928E-02 0. -1.
</event>
<event>
 5   0  0.1858913E-04  0.1603886E+04  0.7818609E-02  0.8818164E-01
        2   -1    0    0  501    0  0.00000000000E+00  0.00000000000E+00  0.15496811111E+04  0.15496811112E+04  0.25500000920E-02 0. -1.
       -2   -1    0    0    0  501  0.00000000000E+00  0.00000000000E+00 -0.41499654139E+03  0.41499654140E+03  0.25500000920E-02 0.  1.
    10030    2    1    2    0    0  0.00000000000E+00  0.00000000000E+00  0.11346845698E+04  0.19646776525E+04  0.16038856585E+04 0.  0.
        4    1    3    3  502    0  0.16470203967E+03 -0.45771528907E+03 -0.21363397868E+03  0.53129195125E+03  0.12699999809E+01 0.  1.
       -4    1    3    3    0  502 -0.16470203967E+03  0.45771528907E+03  0.13483185484E+04  0.14333857013E+04  0.12699999809E+01 0. -1.
</event>
<event>
 5   0  0.6838750E-05  0.1597000E+04  0.7818609E-02  0.8822393E-01
        4   -1    0    0  501    0  0.00000000000E+00  0.00000000000E+00  0.77961281185E+03  0.77961384627E+03  0.12699999809E+01 0. -1.
       -4   -1    0    0    0  501  0.00000000000E+00  0.00000000000E+00 -0.81784253480E+03  0.81784352087E+03  0.12699999809E+01 0.  1.
    10030    2    1    2    0    0  0.00000000000E+00  0.00000000000E+00 -0.38229722945E+02  0.15974573671E+04  0.15969998523E+04 0.  0.
        5    1    3    3  502    0 -0.84638828102E+02  0.57891182532E+03 -0.56266487578E+03  0.81173670925E+03  0.46999998093E+01 0.  1.
       -5    1    3    3    0  502  0.84638828102E+02 -0.57891182532E+03  0.52443515283E+03  0.78572065789E+03  0.46999998093E+01 0. -1.
</event>
<event>
 5   0  0.9432152E-05  0.1595073E+04  0.7818609E-02  0.8823581E-01
        1   -1    0    0  501    0  0.00000000000E+00  0.00000000000E+00  0.23459506859E+04  0.23459506859E+04  0.50400001928E-02 0.  1.
       -1   -1    0    0    0  501  0.00000000000E+00  0.00000000000E+00 -0.27113289095E+03  0.27113289100E+03  0.50400001928E-02 0. -1.
    10030    2    1    2    0    0  0.00000000000E+00  0.00000000000E+00  0.20748177949E+04  0.26170835769E+04  0.15950729031E+04 0.  0.
        4    1    3    3  502    0  0.57738590541E+03 -0.33121487714E+02  0.19384537957E+04  0.20228880957E+04  0.12699999809E+01 0.  1.
       -4    1    3    3    0  502 -0.57738590541E+03  0.33121487714E+02  0.13636399924E+03  0.59419548122E+03  0.12699999809E+01 0. -1.
</event>
<event>
 5   0  0.1914170E-04  0.1587056E+04  0.7818609E-02  0.8828540E-01
        2   -1    0    0  501    0  0.00000000000E+00  0.00000000000E+00  0.73337324435E+03  0.73337324436E+03  0.25500000920E-02 0.  1.
       -2   -1    0    0    0  501  0.00000000000E+00  0.00000000000E+00 -0.85861648329E+03  0.85861648329E+03  0.25500000920E-02 0. -1.
    10030    2    1    2    0    0  0.00000000000E+00  0.00000000000E+00 -0.12524323893E+03  0.15919897276E+04  0.15870555832E+04 0.  0.
        3    1    3    3  502    0  0.67555185831E+03 -0.14537521604E+03  0.32869643029E+03  0.76520952699E+03  0.10100000352E+00 0.  1.
       -3    1    3    3    0  502 -0.67555185831E+03  0.14537521604E+03 -0.45393966922E+03  0.82678020066E+03  0.10100000352E+00 0. -1.
</event>
<event>
 5   0  0.9673017E-05  0.1614605E+04  0.7818609E-02  0.8811625E-01
       -1   -1    0    0    0  501  0.00000000000E+00  0.00000000000E+00  0.62527300029E+03  0.62527300031E+03  0.50400001928E-02 0. -1.
        1   -1    0    0  501    0  0.00000000000E+00  0.00000000000E+00 -0.10423248857E+04  0.10423248858E+04  0.50400001928E-02 0.  1.
    10030    2    1    2    0    0  0.00000000000E+00  0.00000000000E+00 -0.41705188545E+03  0.16675978861E+04  0.16146053494E+04 0.  0.
        1    1    3    3  502    0  0.42255358730E+03  0.42521890515E+02  0.50057748820E+03  0.65645827516E+03  0.50400001928E-02 0. -1.
       -1    1    3    3    0  502 -0.42255358730E+03 -0.42521890515E+02 -0.91762937365E+03  0.10111396109E+04  0.50400001928E-02 0.  1.
</event>
<event>
 5   0  0.1835088E-04  0.1600027E+04  0.7818609E-02  0.8820532E-01
        2   -1    0    0  501    0  0.00000000000E+00  0.00000000000E+00  0.98699752935E+03  0.98699752935E+03  0.25500000920E-02 0. -1.
       -2   -1    0    0    0  501  0.00000000000E+00  0.00000000000E+00 -0.64845295614E+03  0.64845295615E+03  0.25500000920E-02 0.  1.
    10030    2    1    2    0    0  0.00000000000E+00  0.00000000000E+00  0.33854457321E+03  0.16354504855E+04  0.16000268318E+04 0.  0.
        5    1    3    3  502    0  0.87384717478E+02  0.13526186809E+03  0.97024587476E+03  0.98352987209E+03  0.46999998093E+01 0. -1.
       -5    1    3    3    0  502 -0.87384717478E+02 -0.13526186809E+03 -0.63170130155E+03  0.65192061341E+03  0.46999998093E+01 0.  1.
</event>
<event>
 5   0  0.9726935E-05  0.1601290E+04  0.7818609E-02  0.8819756E-01
       -1   -1    0    0    0  501  0.00000000000E+00  0.00000000000E+00  0.53023736579E+03  0.53023736581E+03  0.50400001928E-02 0. -1.
        1   -1    0    0  501    0  0.00000000000E+00  0.00000000000E+00 -0.12089535976E+04  0.12089535976E+04  0.50400001928E-02 0.  1.
    10030    2    1    2    0    0  0.00000000000E+00  0.00000000000E+00 -0.67871623182E+03  0.17391909634E+04  0.16012899437E+04 0.  0.
        2    1    3    3  502    0  0.31229095535E+03  0.83659043237E+02  0.45618798667E+03  0.55913500651E+03  0.25500000920E-02 0. -1.
       -2    1    3    3    0  502 -0.31229095535E+03 -0.83659043237E+02 -0.11349042185E+04  0.11800559569E+04  0.25500000920E-02 0.  1.
</event>
<event>
 5   0  0.1774934E-04  0.1575628E+04  0.7818609E-02  0.8835662E-01
        2   -1    0    0  501    0  0.00000000000E+00  0.00000000000E+00  0.67720020623E+03  0.67720020623E+03  0.25500000920E-02 0.  1.
       -2   -1    0    0    0  501  0.00000000000E+00  0.00000000000E+00 -0.91649536166E+03  0.91649536167E+03  0.25500000920E-02 0. -1.
    10030    2    1    2    0    0  0.00000000000E+00  0.00000000000E+00 -0.23929515543E+03  0.15936955679E+04  0.15756279357E+04 0.  0.
        1    1    3    3  502    0  0.52205326658E+03  0.58397062791E+03 -0.20481249651E+03  0.80963539087E+03  0.50400001928E-02 0. -1.
       -1    1    3    3    0  502 -0.52205326658E+03 -0.58397062791E+03 -0.34482658925E+02  0.78406017703E+03  0.50400001928E-02 0.  1.
</event>
<event>
 5   0  0.1832646E-04  0.1595994E+04  0.7818609E-02  0.8823013E-01
       -2   -1    0    0    0  501  0.00000000000E+00  0.00000000000E+00  0.56996865230E+03  0.56996865230E+03  0.25500000920E-02 0.  1.
        2   -1    0    0  501    0  0.00000000000E+00  0.00000000000E+00 -0.11172523595E+04  0.11172523595E+04  0.25500000920E-02 0. -1.
    10030    2    1    2    0    0  0.00000000000E+00  0.00000000000E+00 -0.54728370718E+03  0.16872210118E+04  0.15959935108E+04 0.  0.
        2    1    3    3  502    0 -0.52598105181E+03  0.36361461751E+03 -0.77834835375E+03  0.10073221018E+04  0.25500000920E-02 0. -1.
       -2    1    3    3    0  502  0.52598105181E+03 -0.36361461751E+03  0.23106464657E+03  0.67989891001E+03  0.25500000920E-02 0.  1.
</event>
<event>
 5   0  0.6838750E-05  0.1597815E+04  0.7818609E-02  0.8821891E-01
       -3   -1    0    0    0  501  0.00000000000E+00  0.00000000000E+00  0.91856330486E+03  0.91856331042E+03  0.10100000352E+00 0. -1.
        3   -1    0    0  501    0  0.00000000000E+00  0.00000000000E+00 -0.69483861228E+03  0.69483861962E+03  0.10100000352E+00 0.  1.
    10030    2    1    2    0    0  0.00000000000E+00  0.00000000000E+00  0.22372469259E+03  0.16134019300E+04  0.15978150862E+04 0.  0.
        2    1    3    3  502    0 -0.57956447999E+01  0.22566289232E+03  0.88569054409E+03  0.91400496190E+03  0.25500000920E-02 0. -1.
       -2    1    3    3    0  502  0.57956447999E+01 -0.22566289232E+03 -0.66196585151E+03  0.69939696814E+03  0.25500000920E-02 0.  1.
</event>
<event>
 5   0  0.9432152E-05  0.1607585E+04  0.7818609E-02  0.8815902E-01
       -1   -1    0    0    0  501  0.00000000000E+00  0.00000000000E+00  0.80937402715E+03  0.80937402717E+03  0.50400001928E-02 0. -1.
        1   -1    0    0  501    0  0.00000000000E+00  0.00000000000E+00 -0.79824905316E+03  0.79824905317E+03  0.50400001928E-02 0.  1.
    10030    2    1    2    0    0  0.00000000000E+00  0.00000000000E+00  0.11124973993E+02  0.16076230803E+04  0.16075845867E+04 0.  0.
        4    1    3    3  502    0  0.23215641972E+03 -0.23435213788E+03  0.73856224146E+03  0.80888399982E+03  0.12699999809E+01 0. -1.
       -4    1    3    3    0  502 -0.23215641972E+03  0.23435213788E+03 -0.72743726747E+03  0.79873908052E+03  0.12699999809E+01 0.  1.
</event>
<event>
 5   0  0.6838750E-05  0.1597005E+04  0.7818609E-02  0.8822390E-01
        3   -1    0    0  501    0  0.00000000000E+00  0.00000000000E+00  0.79492265333E+03  0.79492265975E+03  0.10100000352E+00 0. -1.
       -3   -1    0    0    0  501  0.00000000000E+00  0.00000000000E+00 -0.80209837340E+03  0.80209837976E+03  0.10100000352E+00 0.  1.
    10030    2    1    2    0    0  0.00000000000E+00  0.00000000000E+00 -0.71757200720E+01  0.15970210395E+04  0.15970049185E+04 0.  0.
        3    1    3    3  502    0  0.31951043099E+03 -0.17035808429E+03  0.70810561372E+03  0.79531274526E+03  0.10100000352E+00 0. -1.
       -3    1    3    3    0  502 -0.31951043099E+03  0.17035808429E+03 -0.71528133379E+03  0.80170829425E+03  0.10100000352E+00 0.  1.
</event>
<event>
 5   0  0.1858913E-04  0.1601731E+04  0.7818609E-02  0.8819485E-01
       -2   -1    0    0    0  501  0.00000000000E+00  0.00000000000E+00  0.47975870765E+03  0.47975870766E+03  0.25500000920E-02 0.  1.
        2   -1    0    0  501    0  0.00000000000E+00  0.00000000000E+00 -0.13368917866E+04  0.13368917866E+04  0.25500000920E-02 0. -1.
    10030    2    1    2    0    0  0.00000000000E+00  0.00000000000E+00 -0.85713307896E+03  0.18166504943E+04  0.16017309085E+04 0.  0.
        4    1    3    3  502    0  0.28920367237E+03 -0.26412231850E+03  0.36372467248E+03  0.53450595274E+03  0.12699999809E+01 0.  1.
       -4    1    3    3    0  502 -0.28920367237E+03  0.26412231850E+03 -0.12208577514E+04  0.12821445415E+04  0.12699999809E+01 0. -1.
</event>
<event>
 5   0  0.1835088E-04  0.1596086E+04  0.7818609E-02  0.8822956E-01
       -2   -1    0    0    0  501  0.00000000000E+00  0.00000000000E+00  0.34853124934E+03  0.34853124935E+03  0.25500000920E-02 0.  1.
        2   -1    0    0  501    0  0.00000000000E+00  0.00000000000E+00 -0.18273041625E+04  0.18273041625E+04  0.25500000920E-02 0. -1.
    10030    2    1    2    0    0  0.00000000000E+00  0.00000000000E+00 -0.14787729131E+04  0.21758354118E+04  0.15960859660E+04 0.  0.
        5    1    3    3  502    0  0.14416985448E+03 -0.37294305054E+03  0.20211156634E+03  0.44804312419E+03  0.46999998093E+01 0.  1.
       -5    1    3    3    0  502 -0.14416985448E+03  0.37294305054E+03 -0.16808844795E+04  0.17277922876E+04  0.46999998093E+01 0. -1.
</event>
<event>
 5   0  0.9673017E-05  0.1610201E+04  0.7818609E-02  0.8814306E-01
       -1   -1    0    0    0  501  0.00000000000E+00  0.00000000000E+00  0.56993217942E+03  0.56993217944E+03  0.50400001928E-02 0.  1.
        1   -1    0    0  501    0  0.00000000000E+00  0.00000000000E+00 -0.11373050070E+04  0.11373050070E+04  0.50400001928E-02 0. -1.
    10030    2    1    2    0    0  0.00000000000E+00  0.00000000000E+00 -0.56737282759E+03  0.17072371865E+04  0.16102008835E+04 0.  0.
        1    1    3    3  502    0 -0.75994317160E+03  0.83633360837E+02 -0.16133052111E+02  0.76470153557E+03  0.50400001928E-02 0.  1.
       -1    1    3    3    0  502  0.75994317160E+03 -0.83633360837E+02 -0.55123977548E+03  0.94253565090E+03  0.50400001928E-02 0. -1.
</event>
<event>
 5   0  0.1858913E-04  0.1606137E+04  0.7818609E-02  0.8816787E-01
       -2   -1    0    0    0  501  0.00000000000E+00  0.00000000000E+00  0.90446178415E+03  0.90446178415E+03  0.25500000920E-02 0.  1.
        2   -1    0    0  501    0  0.00000000000E+00  0.00000000000E+00 -0.71304135424E+03  0.71304135424E+03  0.25500000920E-02 0. -1.
    10030    2    1    2    0    0  0.00000000000E+00  0.00000000000E+00  0.19142042991E+03  0.16175031384E+04  0.16061365514E+04 0.  0.
        4    1    3    3  502    0  0.59141123672E+03  0.12226824412E+03 -0.43737537074E+03  0.74566453736E+03  0.12699999809E+01 0. -1.
       -4    1    3    3    0  502 -0.59141123672E+03 -0.12226824412E+03  0.62879580065E+03  0.87183860104E+03  0.12699999809E+01 0.  1.
</event>
<event>
 5   0  0.6838750E-05  0.1599854E+04  0.7818609E-02  0.8820638E-01
        3   -1    0    0  501    0  0.00000000000E+00  0.00000000000E+00  0.72234652127E+03  0.72234652833E+03  0.10100000352E+00 0. -1.
       -3   -1    0    0    0  501  0.00000000000E+00  0.00000000000E+00 -0.88583952763E+03  0.88583953339E+03  0.10100000352E+00 0.  1.
    10030    2    1    2    0    0  0.00000000000E+00  0.00000000000E+00 -0.16349300636E+03  0.16081860617E+04  0.15998538827E+04 0.  0.
        3    1    3    3  502    0 -0.34910291545E+03 -0.26240247435E+03 -0.75542733211E+03  0.87258143943E+03  0.10100000352E+00 0.  1.
       -3    1    3    3    0  502  0.34910291545E+03  0.26240247435E+03  0.59193432575E+03  0.73560462229E+03  0.10100000352E+00 0. -1.
</event>
<event>
 5   0  0.9939872E-05  0.1594543E+04  0.7818609E-02  0.8823908E-01
       -1   -1    0    0    0  501  0.00000000000E+00  0.00000000000E+00  0.59712672083E+03  0.59712672085E+03  0.50400001928E-02 0. -1.
        1   -1    0    0  501    0  0.00000000000E+00  0.00000000000E+00 -0.10645006031E+04  0.10645006031E+04  0.50400001928E-02 0.  1.
    10030    2    1    2    0    0  0.00000000000E+00  0.00000000000E+00 -0.46737388230E+03  0.16616273240E+04  0.15945428868E+04 0.  0.
        3    1    3    3  502    0 -0.29914030184E+03  0.23424003843E+03  0.49672133962E+03  0.62536822371E+03  0.10100000352E+00 0. -1.
       -3    1    3    3    0  502  0.29914030184E+03 -0.23424003843E+03 -0.96409522192E+03  0.10362591003E+04  0.10100000352E+00 0.  1.
</event>
<event>
 5   0  0.9726935E-05  0.1599850E+04  0.7818609E-02  0.8820640E-01
       -1   -1    0    0    0  501  0.00000000000E+00  0.00000000000E+00  0.43865866302E+03  0.43865866305E+03  0.50400001928E-02 0.  1.
        1   -1    0    0  501    0  0.00000000000E+00  0.00000000000E+00 -0.14587191020E+04  0.14587191020E+04  0.50400001928E-02 0. -1.
    10030    2    1    2    0    0  0.00000000000E+00  0.00000000000E+00 -0.10200604390E+04  0.18973777650E+04  0.15998497067E+04 0.  0.
        2    1    3    3  502    0 -0.35767170273E+03 -0.20422523269E+03  0.30324153317E+03  0.51146106406E+03  0.25500000920E-02 0.  1.
       -2    1    3    3    0  502  0.35767170273E+03  0.20422523269E+03 -0.13233019721E+04  0.13859167010E+04  0.25500000920E-02 0. -1.
</event>
<event>
 5   0  0.9726935E-05  0.1592628E+04  0.7818609E-02  0.8825090E-01
       -1   -1    0    0    0  501  0.00000000000E+00  0.00000000000E+00  0.95700678170E+03  0.95700678171E+03  0.50400001928E-02 0.  1.
        1   -1    0    0  501    0  0.00000000000E+00  0.00000000000E+00 -0.66260374280E+03  0.66260374282E+03  0.50400001928E-02 0. -1.
    10030    2    1    2    0    0  0.00000000000E+00  0.00000000000E+00  0.29440303890E+03  0.16196105245E+04  0.15926283628E+04 0.  0.
        2    1    3    3  502    0 -0.50818460006E+03 -0.38559718612E+03  0.63191010468E+03  0.89791266730E+03  0.25500000920E-02 0.  1.
       -2    1    3    3    0  502  0.50818460006E+03  0.38559718612E+03 -0.33750706579E+03  0.72169785724E+03  0.25500000920E-02 0. -1.
</event>
<event>
 5   0  0.9673017E-05  0.1605888E+04  0.7818609E-02  0.8816939E-01
       -1   -1    0    0    0  501  0.00000000000E+00  0.00000000000E+00  0.42242754286E+03  0.42242754289E+03  0.50400001928E-02 0. -1.
        1   -1    0    0  501    0  0.00000000000E+00  0.00000000000E+00 -0.15262244562E+04  0.15262244563E+04  0.50400001928E-02 0.  1.
    10030    2    1    2    0    0  0.00000000000E+00  0.00000000000E+00 -0.11037969134E+04  0.19486519991E+04  0.16058882239E+04 0.  0.
        1    1    3    3  502    0 -0.35250150159E+03 -0.40972712639E+03  0.16863022302E+03  0.56618881909E+03  0.50400001928E-02 0. -1.
       -1    1    3    3    0  502  0.35250150159E+03  0.40972712639E+03 -0.12724271364E+04  0.13824631801E+04  0.50400001928E-02 0.  1.
</event>
<event>
 5   0  0.9616567E-05  0.1600030E+04  0.7818609E-02  0.8820530E-01
       -1   -1    0    0    0  501  0.00000000000E+00  0.00000000000E+00  0.11593305340E+04  0.11593305341E+04  0.50400001928E-02 0.  1.
        1   -1    0    0  501    0  0.00000000000E+00  0.00000000000E+00 -0.55206325109E+03  0.55206325111E+03  0.50400001928E-02 0. -1.
    10030    2    1    2    0    0  0.00000000000E+00  0.00000000000E+00  0.60726728296E+03  0.17113937852E+04  0.16000297294E+04 0.  0.
        5    1    3    3  502    0 -0.64177034503E+03 -0.18896206512E+03 -0.16556161403E+03  0.68920865915E+03  0.46999998093E+01 0. -1.
       -5    1    3    3    0  502  0.64177034503E+03  0.18896206512E+03  0.77282889700E+03  0.10221851260E+04  0.46999998093E+01 0.  1.
</event>
<event>
 5   0  0.9726935E-05  0.1600504E+04  0.7818609E-02  0.8820238E-01
       -1   -1    0    0    0  501  0.00000000000E+00  0.00000000000E+00  0.49752427424E+03  0.49752427427E+03  0.50400001928E-02 0. -1.
        1   -1    0    0  501    0  0.00000000000E+00  0.00000000000E+00 -0.12871798789E+04  0.12871798789E+04  0.50400001928E-02 0.  1.
    10030    2    1    2    0    0  0.00000000000E+00  0.00000000000E+00 -0.78965560465E+03  0.17847041532E+04  0.16005039645E+04 0.  0.
        2    1    3    3  502    0 -0.30078183773E+03 -0.74125612219E+03 -0.37057923436E+03  0.88162311763E+03  0.25500000920E-02 0.  1.
       -2    1    3    3    0  502  0.30078183773E+03  0.74125612219E+03 -0.41907637029E+03  0.90308103553E+03  0.25500000920E-02 0. -1.
</event>
<event>
 5   0  0.1858913E-04  0.1599360E+04  0.7818609E-02  0.8820941E-01
        2   -1    0    0  501    0  0.00000000000E+00  0.00000000000E+00  0.56108557667E+03  0.56108557668E+03  0.25500000920E-02 0.  1.
       -2   -1    0    0    0  501  0.00000000000E+00  0.00000000000E+00 -0.11397340994E+04  0.11397340994E+04  0.25500000920E-02 0. -1.
    10030    2    1    2    0    0  0.00000000000E+00  0.00000000000E+00 -0.57864852269E+03  0.17008196760E+04  0.15993603276E+04 0.  0.
        4    1    3    3  502    0  0.69913116292E+03 -0.38610825489E+03 -0.33216355644E+03  0.86498451349E+03  0.12699999809E+01 0.  1.
       -4    1    3    3    0  502 -0.69913116292E+03  0.38610825489E+03 -0.24648496625E+03  0.83583516255E+03  0.12699999809E+01 0. -1.
</event>
<event>
 5   0  0.1858913E-04  0.1600823E+04  0.7818609E-02  0.8820043E-01
        2   -1    0    0  501    0  0.00000000000E+00  0.00000000000E+00  0.16008215940E+04  0.16008215940E+04  0.25500000920E-02 0. -1.
       -2   -1    0    0    0  501  0.00000000000E+00  0.00000000000E+00 -0.40020603985E+03  0.40020603986E+03  0.25500000920E-02 0.  1.
    10030    2    1    2    0    0  0.00000000000E+00  0.00000000000E+00  0.12006155542E+04  0.20010276339E+04  0.16008228767E+04 0.  0.
        4    1    3    3  502    0  0.71428438026E+03 -0.30982716163E+03  0.83235632620E+03  0.11397428274E+04  0.12699999809E+01 0.  1.
       -4    1    3    3    0  502 -0.71428438026E+03  0.30982716163E+03  0.36825922797E+03  0.86128480647E+03  0.12699999809E+01 0. -1.
</event>
<event>
 5   0  0.1774934E-04  0.1602857E+04  0.7818609E-02  0.8818795E-01
        2   -1    0    0  501    0  0.00000000000E+00  0.00000000000E+00  0.11445168825E+04  0.11445168825E+04  0.25500000920E-02 0.  1.
       -2   -1    0    0    0  501  0.00000000000E+00  0.00000000000E+00 -0.56118694951E+03  0.56118694952E+03  0.25500000920E-02 0. -1.
    10030    2    1    2    0    0  0.00000000000E+00  0.00000000000E+00  0.58332993299E+03  0.17057038320E+04  0.16028573710E+04 0.  0.
        1    1    3    3  502    0  0.40867304456E+03  0.61583943403E+03  0.62141186104E+03  0.96562133723E+03  0.50400001928E-02 0.  1.
       -1    1    3    3    0  502 -0.40867304456E+03 -0.61583943403E+03 -0.38081928043E+02  0.74008249480E+03  0.50400001928E-02 0. -1.
</event>
<event>
 5   0  0.9432152E-05  0.1602379E+04  0.7818609E-02  0.8819088E-01
        1   -1    0    0  501    0  0.00000000000E+00  0.00000000000E+00  0.28776995119E+03  0.28776995123E+03  0.50400001928E-02 0. -1.
       -1   -1    0    0    0  501  0.00000000000E+00  0.00000000000E+00 -0.22306182873E+04  0.22306182873E+04  0.50400001928E-02 0.  1.
    10030    2    1    2    0    0  0.00000000000E+00  0.00000000000E+00 -0.19428483361E+04  0.25183882385E+04  0.16023793754E+04 0.  0.
        4    1    3    3  502    0  0.45910006937E+03  0.18975741067E+03 -0.19593475089E+04  0.20213423812E+04  0.12699999809E+01 0.  1.
       -4    1    3    3    0  502 -0.45910006937E+03 -0.18975741067E+03  0.16499172847E+02  0.49704585725E+03  0.12699999809E+01 0. -1.
</event>
<event>
 5   0  0.9432152E-05  0.1597439E+04  0.7818609E-02  0.8822123E-01
        1   -1    0    0  501    0  0.00000000000E+00  0.00000000000E+00  0.20349767151E+04  0.20349767152E+04  0.50400001928E-02 0. -1.
       -1   -1    0    0    0  501  0.00000000000E+00  0.00000000000E+00 -0.31349376845E+03  0.31349376849E+03  0.50400001928E-02 0.  1.
    10030    2    1    2    0    0  0.00000000000E+00  0.00000000000E+00  0.17214829467E+04  0.23484704836E+04  0.15974385987E+04 0.  0.
        4    1    3    3  502    0  0.31204714814E+03 -0.71417346641E+03  0.60384924926E+03  0.98592732567E+03  0.12699999809E+01 0.  1.
       -4    1    3    3    0  502 -0.31204714814E+03  0.71417346641E+03  0.11176336974E+04  0.13625431580E+04  0.12699999809E+01 0. -1.
</event>
<event>
 5   0  0.1835088E-04  0.1601088E+04  0.7818609E-02  0.8819880E-01
        2   -1    0    0  501    0  0.00000000000E+00  0.00000000000E+00  0.10314032677E+04  0.10314032677E+04  0.25500000920E-02 0.  1.
       -2   -1    0    0    0  501  0.00000000000E+00  0.00000000000E+00 -0.62135811586E+03  0.62135811587E+03  0.25500000920E-02 0. -1.
    10030    2    1    2    0    0  0.00000000000E+00  0.00000000000E+00  0.41004515188E+03  0.16527613836E+04  0.16010881189E+04 0.  0.
        5    1    3    3  502    0 -0.59007115260E+03 -0.24370753710E+03 -0.29354685231E+03  0.70268710908E+03  0.46999998093E+01 0. -1.
       -5    1    3    3    0  502  0.59007115260E+03  0.24370753710E+03  0.70359200418E+03  0.95007427453E+03  0.46999998093E+01 0.  1.
</event>
<event>
 5   0  0.9616567E-05  0.1603842E+04  0.7818609E-02  0.8818191E-01
        1   -1    0    0  501    0  0.00000000000E+00  0.00000000000E+00  0.13408548119E+04  0.13408548119E+04  0.50400001928E-02 0.  1.
       -1   -1    0    0    0  501  0.00000000000E+00  0.00000000000E+00 -0.47960251783E+03  0.47960251786E+03  0.50400001928E-02 0. -1.
    10030    2    1    2    0    0  0.00000000000E+00  0.00000000000E+00  0.86125229403E+03  0.18204573297E+04  0.16038420668E+04 0.  0.
        5    1    3    3  502    0  0.25513420550E+03  0.66777324990E+03  0.18174752853E+02  0.71509928523E+03  0.46999998093E+01 0. -1.
       -5    1    3    3    0  502 -0.25513420550E+03 -0.66777324990E+03  0.84307754117E+03  0.11053580445E+04  0.46999998093E+01 0.  1.
</event>
<event>
 5   0  0.9616567E-05  0.1599997E+04  0.7818609E-02  0.8820550E-01
       -1   -1    0    0    0  501  0.00000000000E+00  0.00000000000E+00  0.13636481162E+04  0.13636481163E+04  0.50400001928E-02 0.  1.
        1   -1    0    0  501    0  0.00000000000E+00  0.00000000000E+00 -0.46932725918E+03  0.46932725920E+03  0.50400001928E-02 0. -1.
    10030    2    1    2    0    0  0.00000000000E+00  0.00000000000E+00  0.89432085706E+03  0.18329753755E+04  0.15999965411E+04 0.  0.
        5    1    3    3  502    0  0.53311669431E+02  0.74615869994E+03  0.77195752410E+03  0.10749583474E+04  0.46999998093E+01 0. -1.
       -5    1    3    3    0  502 -0.53311669431E+02 -0.74615869994E+03  0.12236333296E+03  0.75801702807E+03  0.46999998093E+01 0.  1.
</event>
<event>
 5   0  0.1832646E-04  0.1604594E+04  0.7818609E-02  0.8817731E-01
       -2   -1    0    0    0  501  0.00000000000E+00  0.00000000000E+00  0.41039479703E+03  0.41039479703E+03  0.25500000920E-02 0. -1.
        2   -1    0    0  501    0  0.00000000000E+00  0.00000000000E+00 -0.15684416792E+04  0.15684416792E+04  0.25500000920E-02 0.  1.
    10030    2    1    2    0    0  0.00000000000E+00  0.00000000000E+00 -0.11580468822E+04  0.19788364763E+04  0.16045937861E+04 0.  0.
        2    1    3    3  502    0 -0.40235430895E+03  0.53354338851E+03 -0.11265600915E+04  0.13098454783E+04  0.25500000920E-02 0.  1.
       -2    1    3    3    0  502  0.40235430895E+03 -0.53354338851E+03 -0.31486790740E+02  0.66899099796E+03  0.25500000920E-02 0. -1.
</event>
<event>
 5   0  0.9939872E-05  0.1598796E+04  0.7818609E-02  0.8821288E-01
        1   -1    0    0  501    0  0.00000000000E+00  0.00000000000E+00  0.52961887346E+03  0.52961887348E+03  0.50400001928E-02 0. -1.
       -1   -1    0    0    0  501  0.00000000000E+00  0.00000000000E+00 -0.12065988751E+04  0.12065988751E+04  0.50400001928E-02 0.  1.
    10030    2    1    2    0    0  0.00000000000E+00  0.00000000000E+00 -0.67698000166E+03  0.17362177486E+04  0.15987964686E+04 0.  0.
        3    1    3    3  502    0  0.34638510253E+03 -0.18283926110E+03  0.41827561541E+03  0.57303345042E+03  0.10100000352E+00 0. -1.
       -3    1    3    3    0  502 -0.34638510253E+03  0.18283926110E+03 -0.10952556171E+04  0.11631842982E+04  0.10100000352E+00 0.  1.
</event>
<event>
 5   0  0.1914170E-04  0.1597936E+04  0.7818609E-02  0.8821817E-01
       -2   -1    0    0    0  501  0.00000000000E+00  0.00000000000E+00  0.53963655819E+03  0.53963655820E+03  0.25500000920E-02 0. -1.
        2   -1    0    0  501    0  0.00000000000E+00  0.00000000000E+00 -0.11829252876E+04  0.11829252876E+04  0.25500000920E-02 0.  1.
    10030    2    1    2    0    0  0.00000000000E+00  0.00000000000E+00 -0.64328872940E+03  0.17225618458E+04  0.15979358320E+04 0.  0.
        3    1    3    3  502    0 -0.55224718393E+03  0.51857957530E+03 -0.47978780168E+02  0.75908082681E+03  0.10100000352E+00 0. -1.
       -3    1    3    3    0  502  0.55224718393E+03 -0.51857957530E+03 -0.59530994923E+03  0.96348101898E+03  0.10100000352E+00 0.  1.
</event>
<event>
 5   0  0.6838750E-05  0.1593571E+04  0.7818609E-02  0.8824507E-01
        3   -1    0    0  501    0  0.00000000000E+00  0.00000000000E+00  0.55596303711E+03  0.55596304628E+03  0.10100000352E+00 0.  1.
       -3   -1    0    0    0  501  0.00000000000E+00  0.00000000000E+00 -0.11419228886E+04  0.11419228931E+04  0.10100000352E+00 0. -1.
    10030    2    1    2    0    0  0.00000000000E+00  0.00000000000E+00 -0.58595985150E+03  0.16978859394E+04  0.15935707438E+04 0.  0.
        3    1    3    3  502    0  0.13512522513E+03 -0.58907188814E+03  0.26024156562E+03  0.65801990740E+03  0.10100000352E+00 0.  1.
       -3    1    3    3    0  502 -0.13512522513E+03  0.58907188814E+03 -0.84620141712E+03  0.10398660319E+04  0.10100000352E+00 0. -1.
</event>
<event>
 5   0  0.1858913E-04  0.1597145E+04  0.7818609E-02  0.8822304E-01
        2   -1    0    0  501    0  0.00000000000E+00  0.00000000000E+00  0.69463432454E+03  0.69463432455E+03  0.25500000920E-02 0. -1.
       -2   -1    0    0    0  501  0.00000000000E+00  0.00000000000E+00 -0.91806320105E+03  0.91806320105E+03  0.25500000920E-02 0.  1.
    10030    2    1    2    0    0  0.00000000000E+00  0.00000000000E+00 -0.22342887650E+03  0.16126975256E+04  0.15971452176E+04 0.  0.
        4    1    3    3  502    0 -0.46599812320E+03  0.45621541347E+03  0.35367473922E+03  0.74187208356E+03  0.12699999809E+01 0. -1.
       -4    1    3    3    0  502  0.46599812320E+03 -0.45621541347E+03 -0.57710361572E+03  0.87082544203E+03  0.12699999809E+01 0.  1.
</event>
<event>
 5   0  0.1858913E-04  0.1608675E+04  0.7818609E-02  0.8815236E-01
        2   -1    0    0  501    0  0.00000000000E+00  0.00000000000E+00  0.80278981385E+03  0.80278981385E+03  0.25500000920E-02 0. -1.
       -2   -1    0    0    0  501  0.00000000000E+00  0.00000000000E+00 -0.80588841226E+03  0.80588841226E+03  0.25500000920E-02 0.  1.
    10030    2    1    2    0    0  0.00000000000E+00  0.00000000000E+00 -0.30985984088E+01  0.16086782261E+04  0.16086752419E+04 0.  0.
        4    1    3    3  502    0 -0.21264901123E+03  0.48502154106E+03 -0.60693616563E+03  0.80550519509E+03  0.12699999809E+01 0.  1.
       -4    1    3    3    0  502  0.21264901123E+03 -0.48502154106E+03  0.60383756722E+03  0.80317303102E+03  0.12699999809E+01 0. -1.
</event>
<event>
 5   0  0.9726935E-05  0.1599380E+04  0.7818609E-02  0.8820929E-01
       -1   -1    0    0    0  501  0.00000000000E+00  0.00000000000E+00  0.63704279935E+03  0.63704279937E+03  0.50400001928E-02 0. -1.
        1   -1    0    0  501    0  0.00000000000E+00  0.00000000000E+00 -0.10038639270E+04  0.10038639271E+04  0.50400001928E-02 0.  1.
    10030    2    1    2    0    0  0.00000000000E+00  0.00000000000E+00 -0.36682112770E+03  0.16409067264E+04  0.15993802378E+04 0.  0.
        2    1    3    3  502    0  0.79179789569E+02  0.64590656063E+03 -0.66027925965E+03  0.92705632239E+03  0.25500000920E-02 0.  1.
       -2    1    3    3    0  502 -0.79179789569E+02 -0.64590656063E+03  0.29345813195E+03  0.71385040404E+03  0.25500000920E-02 0. -1.
</event>
<event>
 5   0  0.1774934E-04  0.1603877E+04  0.7818609E-02  0.8818170E-01
       -2   -1    0    0    0  501  0.00000000000E+00  0.00000000000E+00  0.41667133475E+03  0.41667133476E+03  0.25500000920E-02 0.  1.
        2   -1    0    0  501    0  0.00000000000E+00  0.00000000000E+00 -0.15434353145E+04  0.15434353145E+04  0.25500000920E-02 0. -1.
    10030    2    1    2    0    0  0.00000000000E+00  0.00000000000E+00 -0.11267639798E+04  0.19601066493E+04  0.16038768689E+04 0.  0.
        1    1    3    3  502    0  0.29517840133E+03 -0.52731744531E+03  0.80878890776E+02  0.60970105112E+03  0.50400001928E-02 0.  1.
       -1    1    3    3    0  502 -0.29517840133E+03  0.52731744531E+03 -0.12076428706E+04  0.13504055982E+04  0.50400001928E-02 0. -1.
</event>
<event>
 5   0  0.9673017E-05  0.1605990E+04  0.7818609E-02  0.8816877E-01
       -1   -1    0    0    0  501  0.00000000000E+00  0.00000000000E+00  0.31120502236E+03  0.31120502240E+03  0.50400001928E-02 0. -1.
        1   -1    0    0  501    0  0.00000000000E+00  0.00000000000E+00 -0.20719482404E+04  0.20719482404E+04  0.50400001928E-02 0.  1.
    10030    2    1    2    0    0  0.00000000000E+00  0.00000000000E+00 -0.17607432180E+04  0.23831532628E+04  0.16059896619E+04 0.  0.
        1    1    3    3  502    0 -0.36267981965E+03  0.60521732734E+03 -0.31147612097E+03  0.77126003323E+03  0.50400001928E-02 0. -1.
       -1    1    3    3    0  502  0.36267981965E+03 -0.60521732734E+03 -0.14492670970E+04  0.16118932295E+04  0.50400001928E-02 0.  1.
</event>
<event>
 5   0  0.9616567E-05  0.1601191E+04  0.7818609E-02  0.8819817E-01
        1   -1    0    0  501    0  0.00000000000E+00  0.00000000000E+00  0.18440658547E+04  0.18440658547E+04  0.50400001928E-02 0.  1.
       -1   -1    0    0    0  501  0.00000000000E+00  0.00000000000E+00 -0.34757592131E+03  0.34757592134E+03  0.50400001928E-02 0. -1.
    10030    2    1    2    0    0  0.00000000000E+00  0.00000000000E+00  0.14964899334E+04  0.21916417760E+04  0.16011906675E+04 0.  0.
        5    1    3    3  502    0 -0.17735519162E+03 -0.59874996679E+03  0.14339561658E+04  0.15640360488E+04  0.46999998093E+01 0.  1.
       -5    1    3    3    0  502  0.17735519162E+03  0.59874996679E+03  0.62533767620E+02  0.62760572720E+03  0.46999998093E+01 0. -1.
</event>
<event>
 5   0  0.1774934E-04  0.1597018E+04  0.7818609E-02  0.8822382E-01
       -2   -1    0    0    0  501  0.00000000000E+00  0.00000000000E+00  0.31863782995E+03  0.31863782996E+03  0.25500000920E-02 0.  1.
        2   -1    0    0  501    0  0.00000000000E+00  0.00000000000E+00 -0.20010711590E+04  0.20010711590E+04  0.25500000920E-02 0. -1.
    10030    2    1    2    0    0  0.00000000000E+00  0.00000000000E+00 -0.16824333291E+04  0.23197089890E+04  0.15970184366E+04 0.  0.
        1    1    3    3  502    0 -0.16691328649E+03  0.75031922687E+03 -0.11553719185E+04  0.13877043120E+04  0.50400001928E-02 0. -1.
       -1    1    3    3    0  502  0.16691328649E+03 -0.75031922687E+03 -0.52706141059E+03  0.93200467702E+03  0.50400001928E-02 0.  1.
</event>
<event>
 5   0  0.9616567E-05  0.1598571E+04  0.7818609E-02  0.8821426E-01
        1   -1    0    0  501    0  0.00000000000E+00  0.00000000000E+00  0.11906288113E+04  0.11906288113E+04  0.50400001928E-02 0.  1.
       -1   -1    0    0    0  501  0.00000000000E+00  0.00000000000E+00 -0.53657123344E+03  0.53657123347E+03  0.50400001928E-02 0. -1.
    10030    2    1    2    0    0  0.00000000000E+00  0.00000000000E+00  0.65405757785E+03  0.17272000448E+04  0.15985708241E+04 0.  0.
        5    1    3    3  502    0  0.46195169942E+03 -0.45226346590E+03 -0.18078231363E+03  0.67130168338E+03  0.46999998093E+01 0. -1.
       -5    1    3    3    0  502 -0.46195169942E+03  0.45226346590E+03  0.83483989148E+03  0.10558983614E+04  0.46999998093E+01 0.  1.
</event>
<event>
 5   0  0.9939872E-05  0.1599794E+04  0.7818609E-02  0.8820675E-01
       -1   -1    0    0    0  501  0.00000000000E+00  0.00000000000E+00  0.45604444092E+03  0.45604444095E+03  0.50400001928E-02 0.  1.
        1   -1    0    0  501    0  0.00000000000E+00  0.00000000000E+00 -0.14030106030E+04  0.14030106030E+04  0.50400001928E-02 0. -1.
    10030    2    1    2    0    0  0.00000000000E+00  0.00000000000E+00 -0.94696616207E+03  0.18590550439E+04  0.15997939693E+04 0.  0.
        3    1    3    3  502    0  0.50794241848E+03 -0.31490824345E+03 -0.10913035191E+04  0.12442331306E+04  0.10100000352E+00 0. -1.
       -3    1    3    3    0  502 -0.50794241848E+03  0.31490824345E+03  0.14433735703E+03  0.61482191334E+03  0.10100000352E+00 0.  1.
</event>
<event>
 5   0  0.9432152E-05  0.1599410E+04  0.7818609E-02  0.8820911E-01
        1   -1    0    0  501    0  0.00000000000E+00  0.00000000000E+00  0.23865750591E+04  0.23865750591E+04  0.50400001928E-02 0.  1.
       -1   -1    0    0    0  501  0.00000000000E+00  0.00000000000E+00 -0.26796888260E+03  0.26796888265E+03  0.50400001928E-02 0. -1.
    10030    2    1    2    0    0  0.00000000000E+00  0.00000000000E+00  0.21186061765E+04  0.26545439417E+04  0.15994097060E+04 0.  0.
        4    1    3    3  502    0  0.38011694423E+03 -0.30500386706E+03  0.21116250004E+04  0.21671358992E+04  0.12699999809E+01 0.  1.
       -4    1    3    3    0  502 -0.38011694423E+03  0.30500386706E+03  0.69811760386E+01  0.48740804254E+03  0.12699999809E+01 0. -1.
</event>
<event>
 5   0  0.1835088E-04  0.1599546E+04  0.7818609E-02  0.8820827E-01
       -2   -1    0    0    0  501  0.00000000000E+00  0.00000000000E+00  0.13256373205E+04  0.13256373205E+04  0.25500000920E-02 0.  1.
        2   -1    0    0  501    0  0.00000000000E+00  0.00000000000E+00 -0.48251269625E+03  0.48251269625E+03  0.25500000920E-02 0. -1.
    10030    2    1    2    0    0  0.00000000000E+00  0.00000000000E+00  0.84312462422E+03  0.18081500167E+04  0.15995459828E+04 0.  0.
        5    1    3    3  502    0  0.24261062546E+03 -0.41666453473E+03 -0.29973206826E+03  0.56774171313E+03  0.46999998093E+01 0. -1.
       -5    1    3    3    0  502 -0.24261062546E+03  0.41666453473E+03  0.11428566925E+04  0.12404083036E+04  0.46999998093E+01 0.  1.
</event>
<event>
 5   0  0.1774934E-04  0.1631287E+04  0.7818609E-02  0.8801554E-01
        2   -1    0    0  501    0  0.00000000000E+00  0.00000000000E+00  0.63725697266E+03  0.63725697266E+03  0.25500000920E-02 0.  1.
       -2   -1    0    0    0  501  0.00000000000E+00  0.00000000000E+00 -0.10439654704E+04  0.10439654704E+04  0.25500000920E-02 0. -1.
    10030    2    1    2    0    0  0.00000000000E+00  0.00000000000E+00 -0.40670849770E+03  0.16812224430E+04  0.16312869462E+04 0.  0.
        1    1    3    3  502    0  0.58815617539E+03  0.54619059462E+03 -0.53924797481E+02  0.80446238949E+03  0.50400001928E-02 0.  1.
       -1    1    3    3    0  502 -0.58815617539E+03 -0.54619059462E+03 -0.35278370022E+03  0.87676005353E+03  0.50400001928E-02 0. -1.
</event>
<event>
 5   0  0.9726935E-05  0.1591446E+04  0.7818609E-02  0.8825820E-01
        1   -1    0    0  501    0  0.00000000000E+00  0.00000000000E+00  0.13424674554E+04  0.13424674554E+04  0.50400001928E-02 0.  1.
       -1   -1    0    0    0  501  0.00000000000E+00  0.00000000000E+00 -0.47165010312E+03  0.47165010314E+03  0.50400001928E-02 0. -1.
    10030    2    1    2    0    0  0.00000000000E+00  0.00000000000E+00  0.87081735229E+03  0.18141175586E+04  0.15914457751E+04 0.  0.
        2    1    3    3  502    0 -0.20410763488E+03  0.75354730419E+03  0.25998924280E+03  0.82285349404E+03  0.25500000920E-02 0.  1.
       -2    1    3    3    0  502  0.20410763488E+03 -0.75354730419E+03  0.61082810949E+03  0.99126406453E+03  0.25500000920E-02 0. -1.
</event>
<event>
 5   0  0.9616567E-05  0.1599800E+04  0.7818609E-02  0.8820671E-01
        1   -1    0    0  501    0  0.00000000000E+00  0.00000000000E+00  0.73197346659E+03  0.73197346661E+03  0.50400001928E-02 0. -1.
       -1   -1    0    0    0  501  0.00000000000E+00  0.00000000000E+00 -0.87412974276E+03  0.87412974277E+03  0.50400001928E-02 0.  1.
    10030    2    1    2    0    0  0.00000000000E+00  0.00000000000E+00 -0.14215627616E+03  0.16061032094E+04  0.15997997101E+04 0.  0.
        5    1    3    3  502    0 -0.39872392715E+03  0.64702283958E+03 -0.32145679977E+03  0.82521263268E+03  0.46999998093E+01 0. -1.
       -5    1    3    3    0  502  0.39872392715E+03 -0.64702283958E+03  0.17930052361E+03  0.78089057670E+03  0.46999998093E+01 0.  1.
</event>
<event>
 5   0  0.1914170E-04  0.1581905E+04  0.7818609E-02  0.8831743E-01
        2   -1    0    0  501    0  0.00000000000E+00  0.00000000000E+00  0.14952155473E+04  0.14952155473E+04  0.25500000920E-02 0. -1.
       -2   -1    0    0    0  501  0.00000000000E+00  0.00000000000E+00 -0.41840486896E+03  0.41840486896E+03  0.25500000920E-02 0.  1.
    10030    2    1    2    0    0  0.00000000000E+00  0.00000000000E+00  0.10768106783E+04  0.19136204163E+04  0.15819045042E+04 0.  0.
        3    1    3    3  502    0 -0.70083684875E+02  0.24064333487E+03  0.14459052766E+04  0.14674682335E+04  0.10100000352E+00 0. -1.
       -3    1    3    3    0  502  0.70083684875E+02 -0.24064333487E+03 -0.36909459822E+03  0.44615218271E+03  0.10100000352E+00 0.  1.
</event>
<event>
 5   0  0.1774934E-04  0.1595248E+04  0.7818609E-02  0.8823473E-01
       -2   -1    0    0    0  501  0.00000000000E+00  0.00000000000E+00  0.96952881411E+03  0.96952881411E+03  0.25500000920E-02 0.  1.
        2   -1    0    0  501    0  0.00000000000E+00  0.00000000000E+00 -0.65619891730E+03  0.65619891730E+03  0.25500000920E-02 0. -1.
    10030    2    1    2    0    0  0.00000000000E+00  0.00000000000E+00  0.31332989681E+03  0.16257277314E+04  0.15952476399E+04 0.  0.
        1    1    3    3  502    0  0.75122059555E+03 -0.26475534841E+03  0.11371735945E+03  0.80458648730E+03  0.50400001928E-02 0.  1.
       -1    1    3    3    0  502 -0.75122059555E+03  0.26475534841E+03  0.19961253736E+03  0.82114124411E+03  0.50400001928E-02 0. -1.
</event>
<event>
 5   0  0.9616567E-05  0.1596925E+04  0.7818609E-02  0.8822439E-01
       -1   -1    0    0    0  501  0.00000000000E+00  0.00000000000E+00  0.55406486025E+03  0.55406486027E+03  0.50400001928E-02 0. -1.
        1   -1    0    0  501    0  0.00000000000E+00  0.00000000000E+00 -0.11506642509E+04  0.11506642509E+04  0.50400001928E-02 0.  1.
    10030    2    1    2    0    0  0.00000000000E+00  0.00000000000E+00 -0.59659939068E+03  0.17047291112E+04  0.15969253300E+04 0.  0.
        5    1    3    3  502    0 -0.44081043925E+03  0.58842724820E+03  0.34105055942E+02  0.73603377274E+03  0.46999998093E+01 0. -1.
       -5    1    3    3    0  502  0.44081043925E+03 -0.58842724820E+03 -0.63070444663E+03  0.96869533847E+03  0.46999998093E+01 0.  1.
</event>
<event>
 5   0  0.9726935E-05  0.1600422E+04  0.7818609E-02  0.8820289E-01
        1   -1    0    0  501    0  0.00000000000E+00  0.00000000000E+00  0.63027957273E+03  0.63027957275E+03  0.50400001928E-02 0. -1.
       -1   -1    0    0    0  501  0.00000000000E+00  0.00000000000E+00 -0.10159583445E+04  0.10159583445E+04  0.50400001928E-02 0.  1.
    10030    2    1    2    0    0  0.00000000000E+00  0.00000000000E+00 -0.38567877176E+03  0.16462379172E+04  0.16004221834E+04 0.  0.
        2    1    3    3  502    0  0.69569278517E+03  0.26140519980E+03  0.11232966268E+03  0.75162429640E+03  0.25500000920E-02 0. -1.
       -2    1    3    3    0  502 -0.69569278517E+03 -0.26140519980E+03 -0.49800843444E+03  0.89461362084E+03  0.25500000920E-02 0.  1.
</event>
<event>
 5   0  0.9616567E-05  0.1598970E+04  0.7818609E-02  0.8821181E-01
        1   -1    0    0  501    0  0.00000000000E+00  0.00000000000E+00  0.12927892412E+04  0.12927892412E+04  0.50400001928E-02 0. -1.
       -1   -1    0    0    0  501  0.00000000000E+00  0.00000000000E+00 -0.49441651403E+03  0.49441651405E+03  0.50400001928E-02 0.  1.
    10030    2    1    2    0    0  0.00000000000E+00  0.00000000000E+00  0.79837272716E+03  0.17872057552E+04  0.15989701061E+04 0.  0.
        5    1    3    3  502    0  0.39955216286E+03 -0.24268207312E+03 -0.32571347497E+03  0.56977879675E+03  0.46999998093E+01 0.  1.
       -5    1    3    3    0  502 -0.39955216286E+03  0.24268207312E+03  0.11240862021E+04  0.12174269585E+04  0.46999998093E+01 0. -1.
</event>
<event>
 5   0  0.9726935E-05  0.1604694E+04  0.7818609E-02  0.8817669E-01
       -1   -1    0    0    0  501  0.00000000000E+00  0.00000000000E+00  0.70724938319E+03  0.70724938321E+03  0.50400001928E-02 0.  1.
        1   -1    0    0  501    0  0.00000000000E+00  0.00000000000E+00 -0.91023183016E+03  0.91023183017E+03  0.50400001928E-02 0. -1.
    10030    2    1    2    0    0  0.00000000000E+00  0.00000000000E+00 -0.20298244697E+03  0.16174812134E+04  0.16046942394E+04 0.  0.
        2    1    3    3  502    0 -0.96402639689E+02 -0.24228059532E+03 -0.86633113375E+03  0.90472260341E+03  0.25500000920E-02 0. -1.
       -2    1    3    3    0  502  0.96402639689E+02  0.24228059532E+03  0.66334868679E+03  0.71275860996E+03  0.25500000920E-02 0.  1.
</event>
<event>
 5   0  0.9616567E-05  0.1607290E+04  0.7818609E-02  0.8816082E-01
        1   -1    0    0  501    0  0.00000000000E+00  0.00000000000E+00  0.18828196423E+04  0.18828196423E+04  0.50400001928E-02 0. -1.
       -1   -1    0    0    0  501  0.00000000000E+00  0.00000000000E+00 -0.34302010429E+03  0.34302010433E+03  0.50400001928E-02 0.  1.
    10030    2    1    2    0    0  0.00000000000E+00  0.00000000000E+00  0.15397995380E+04  0.22258397466E+04  0.16072896318E+04 0.  0.
        5    1    3    3  502    0 -0.54604991664E+03 -0.86911394922E+02 -0.37711366930E+02  0.55422769619E+03  0.46999998093E+01 0.  1.
       -5    1    3    3    0  502  0.54604991664E+03  0.86911394922E+02  0.15775109049E+04  0.16716120504E+04  0.46999998093E+01 0. -1.
</event>
<event>
 5   0  0.9726935E-05  0.1593433E+04  0.7818609E-02  0.8824593E-01
        1   -1    0    0  501    0  0.00000000000E+00  0.00000000000E+00  0.17797521622E+04  0.17797521622E+04  0.50400001928E-02 0.  1.
       -1   -1    0    0    0  501  0.00000000000E+00  0.00000000000E+00 -0.35665470579E+03  0.35665470583E+03  0.50400001928E-02 0. -1.
    10030    2    1    2    0    0  0.00000000000E+00  0.00000000000E+00  0.14230974564E+04  0.21364068681E+04  0.15934327521E+04 0.  0.
        2    1    3    3  502    0  0.58656153859E+03  0.17217284265E+02 -0.10976641523E+02  0.58691682554E+03  0.25500000920E-02 0. -1.
       -2    1    3    3    0  502 -0.58656153859E+03 -0.17217284265E+02  0.14340740980E+04  0.15494900425E+04  0.25500000920E-02 0.  1.
</event>
<event>
 5   0  0.1914170E-04  0.1596088E+04  0.7818609E-02  0.8822955E-01
        2   -1    0    0  501    0  0.00000000000E+00  0.00000000000E+00  0.93266103515E+03  0.93266103515E+03  0.25500000920E-02 0. -1.
       -2   -1    0    0    0  501  0.00000000000E+00  0.00000000000E+00 -0.68285753611E+03  0.68285753612E+03  0.25500000920E-02 0.  1.
    10030    2    1    2    0    0  0.00000000000E+00  0.00000000000E+00  0.24980349904E+03  0.16155185713E+04  0.15960884894E+04 0.  0.
        3    1    3    3  502    0  0.34914477424E+03 -0.10877126015E+03 -0.59305782717E+03  0.69674303512E+03  0.10100000352E+00 0.  1.
       -3    1    3    3    0  502 -0.34914477424E+03  0.10877126015E+03  0.84286132621E+03  0.91877553615E+03  0.10100000352E+00 0. -1.
</event>
<event>
 5   0  0.1832646E-04  0.1576042E+04  0.7818609E-02  0.8835403E-01
        2   -1    0    0  501    0  0.00000000000E+00  0.00000000000E+00  0.97757236557E+03  0.97757236558E+03  0.25500000920E-02 0. -1.
       -2   -1    0    0    0  501  0.00000000000E+00  0.00000000000E+00 -0.63522396117E+03  0.63522396117E+03  0.25500000920E-02 0.  1.
    10030    2    1    2    0    0  0.00000000000E+00  0.00000000000E+00  0.34234840441E+03  0.16127963268E+04  0.15760423730E+04 0.  0.
        2    1    3    3  502    0  0.36590674846E+03 -0.26174897512E+03  0.83323729214E+03  0.94693434807E+03  0.25500000920E-02 0. -1.
       -2    1    3    3    0  502 -0.36590674846E+03  0.26174897512E+03 -0.49088888773E+03  0.66586197868E+03  0.25500000920E-02 0.  1.
</event>
<event>
 5   0  0.1774934E-04  0.1614024E+04  0.7818609E-02  0.8811979E-01
        2   -1    0    0  501    0  0.00000000000E+00  0.00000000000E+00  0.17021378551E+04  0.17021378551E+04  0.25500000920E-02 0.  1.
       -2   -1    0    0    0  501  0.00000000000E+00  0.00000000000E+00 -0.38261790734E+03  0.38261790735E+03  0.25500000920E-02 0. -1.
    10030    2    1    2    0    0  0.00000000000E+00  0.00000000000E+00  0.13195199478E+04  0.20847557625E+04  0.16140240694E+04 0.  0.
        1    1    3    3  502    0  0.60262507632E+03  0.48120106585E+03  0.35258327762E+03  0.84795425353E+03  0.50400001928E-02 0. -1.
       -1    1    3    3    0  502 -0.60262507632E+03 -0.48120106585E+03  0.96693667015E+03  0.12368015089E+04  0.50400001928E-02 0.  1.
</event>
<event>
 5   0  0.9726935E-05  0.1599308E+04  0.7818609E-02  0.8820973E-01
        1   -1    0    0  501    0  0.00000000000E+00  0.00000000000E+00  0.14949886803E+04  0.14949886803E+04  0.50400001928E-02 0. -1.
       -1   -1    0    0    0  501  0.00000000000E+00  0.00000000000E+00 -0.42772674373E+03  0.42772674376E+03  0.50400001928E-02 0.  1.
    10030    2    1    2    0    0  0.00000000000E+00  0.00000000000E+00  0.10672619366E+04  0.19227154241E+04  0.15993081506E+04 0.  0.
        2    1    3    3  502    0 -0.57576244992E+03  0.17145049317E+03 -0.10087197057E+03  0.60915747127E+03  0.25500000920E-02 0.  1.
       -2    1    3    3    0  502  0.57576244992E+03 -0.17145049317E+03  0.11681339071E+04  0.13135579528E+04  0.25500000920E-02 0. -1.
</event>
<event>
 5   0  0.1858913E-04  0.1596428E+04  0.7818609E-02  0.8822745E-01
       -2   -1    0    0    0  501  0.00000000000E+00  0.00000000000E+00  0.54865650957E+03  0.54865650958E+03  0.25500000920E-02 0.  1.
        2   -1    0    0  501    0  0.00000000000E+00  0.00000000000E+00 -0.11612833632E+04  0.11612833632E+04  0.25500000920E-02 0. -1.
    10030    2    1    2    0    0  0.00000000000E+00  0.00000000000E+00 -0.61262685362E+03  0.17099398728E+04  0.15964281088E+04 0.  0.
        4    1    3    3  502    0  0.26979972748E+03 -0.74899595148E+03 -0.24425191135E+03  0.83273491423E+03  0.12699999809E+01 0. -1.
       -4    1    3    3    0  502 -0.26979972748E+03  0.74899595148E+03 -0.36837494227E+03  0.87720495854E+03  0.12699999809E+01 0.  1.
</event>
<event>
 5   0  0.9673017E-05  0.1620833E+04  0.7818609E-02  0.8807851E-01
        1   -1    0    0  501    0  0.00000000000E+00  0.00000000000E+00  0.87139091130E+03  0.87139091132E+03  0.50400001928E-02 0.  1.
       -1   -1    0    0    0  501  0.00000000000E+00  0.00000000000E+00 -0.75370831690E+03  0.75370831692E+03  0.50400001928E-02 0. -1.
    10030    2    1    2    0    0  0.00000000000E+00  0.00000000000E+00  0.11768259440E+03  0.16250992282E+04  0.16208325973E+04 0.  0.
        1    1    3    3  502    0  0.15143091449E+03 -0.66521920465E+03  0.49740175585E+03  0.84430824872E+03  0.50400001928E-02 0. -1.
       -1    1    3    3    0  502 -0.15143091449E+03  0.66521920465E+03 -0.37971916145E+03  0.78079097952E+03  0.50400001928E-02 0.  1.
</event>
<event>
 5   0  0.9432152E-05  0.1598885E+04  0.7818609E-02  0.8821233E-01
       -1   -1    0    0    0  501  0.00000000000E+00  0.00000000000E+00  0.80496090921E+03  0.80496090923E+03  0.50400001928E-02 0. -1.
        1   -1    0    0  501    0  0.00000000000E+00  0.00000000000E+00 -0.79396213007E+03  0.79396213009E+03  0.50400001928E-02 0.  1.
    10030    2    1    2    0    0  0.00000000000E+00  0.00000000000E+00  0.10998779140E+02  0.15989230393E+04  0.15988852093E+04 0.  0.
        4    1    3    3  502    0 -0.54285561538E+03  0.42091651036E+03 -0.40346497507E+03  0.79664830813E+03  0.12699999809E+01 0.  1.
       -4    1    3    3    0  502  0.54285561538E+03 -0.42091651036E+03  0.41446375421E+03  0.80227473119E+03  0.12699999809E+01 0. -1.
</event>
<event>
 5   0  0.1914170E-04  0.1612039E+04  0.7818609E-02  0.8813186E-01
        2   -1    0    0  501    0  0.00000000000E+00  0.00000000000E+00  0.10002623039E+04  0.10002623039E+04  0.25500000920E-02 0.  1.
       -2   -1    0    0    0  501  0.00000000000E+00  0.00000000000E+00 -0.64949686961E+03  0.64949686961E+03  0.25500000920E-02 0. -1.
    10030    2    1    2    0    0  0.00000000000E+00  0.00000000000E+00  0.35076543433E+03  0.16497591736E+04  0.16120387529E+04 0.  0.
        3    1    3    3  502    0 -0.18209891981E+03  0.65815507333E+03  0.61358297717E+03  0.91804803645E+03  0.10100000352E+00 0.  1.
       -3    1    3    3    0  502  0.18209891981E+03 -0.65815507333E+03 -0.26281754284E+03  0.73171113711E+03  0.10100000352E+00 0. -1.
</event>
<event>
 5   0  0.9616567E-05  0.1592090E+04  0.7818609E-02  0.8825422E-01
       -1   -1    0    0    0  501  0.00000000000E+00  0.00000000000E+00  0.77431582849E+03  0.77431582850E+03  0.50400001928E-02 0. -1.
        1   -1    0    0  501    0  0.00000000000E+00  0.00000000000E+00 -0.81838414495E+03  0.81838414497E+03  0.50400001928E-02 0.  1.
    10030    2    1    2    0    0  0.00000000000E+00  0.00000000000E+00 -0.44068316465E+02  0.15926999735E+04  0.15920901950E+04 0.  0.
        5    1    3    3  502    0  0.16693950284E+03 -0.43303446698E+02 -0.79945580689E+03  0.81786041796E+03  0.46999998093E+01 0.  1.
       -5    1    3    3    0  502 -0.16693950284E+03  0.43303446698E+02  0.75538749042E+03  0.77483955551E+03  0.46999998093E+01 0. -1.
</event>
<event>
 5   0  0.1914170E-04  0.1579296E+04  0.7818609E-02  0.8833369E-01
       -2   -1    0    0    0  501  0.00000000000E+00  0.00000000000E+00  0.61444758488E+03  0.61444758488E+03  0.25500000920E-02 0. -1.
        2   -1    0    0  501    0  0.00000000000E+00  0.00000000000E+00 -0.10148041593E+04  0.10148041593E+04  0.25500000920E-02 0.  1.
    10030    2    1    2    0    0  0.00000000000E+00  0.00000000000E+00 -0.40035657446E+03  0.16292517442E+04  0.15792960012E+04 0.  0.
        3    1    3    3  502    0  0.19175172826E+02  0.76644191730E+03 -0.51397225173E+01  0.76669898056E+03  0.10100000352E+00 0. -1.
       -3    1    3    3    0  502 -0.19175172826E+02 -0.76644191730E+03 -0.39521685195E+03  0.86255276367E+03  0.10100000352E+00 0.  1.
</event>
<event>
 5   0  0.9432152E-05  0.1562236E+04  0.7818609E-02  0.8844090E-01
       -1   -1    0    0    0  501  0.00000000000E+00  0.00000000000E+00  0.14685195534E+04  0.14685195534E+04  0.50400001928E-02 0. -1.
        1   -1    0    0  501    0  0.00000000000E+00  0.00000000000E+00 -0.41548331655E+03  0.41548331658E+03  0.50400001928E-02 0.  1.
    10030    2    1    2    0    0  0.00000000000E+00  0.00000000000E+00  0.10530362369E+04  0.18840028700E+04  0.15622360571E+04 0.  0.
        4    1    3    3  502    0  0.29915369590E+03 -0.11968065921E+03  0.13846432158E+04  0.14216380840E+04  0.12699999809E+01 0. -1.
       -4    1    3    3    0  502 -0.29915369590E+03  0.11968065921E+03 -0.33160697892E+03  0.46236478600E+03  0.12699999809E+01 0.  1.
</event>
<event>
 5   0  0.9616567E-05  0.1605883E+04  0.7818609E-02  0.8816942E-01
        1   -1    0    0  501    0  0.00000000000E+00  0.00000000000E+00  0.54952896230E+03  0.54952896233E+03  0.50400001928E-02 0. -1.
       -1   -1    0    0    0  501  0.00000000000E+00  0.00000000000E+00 -0.11732146035E+04  0.11732146036E+04  0.50400001928E-02 0.  1.
    10030    2    1    2    0    0  0.00000000000E+00  0.00000000000E+00 -0.62368564124E+03  0.17227435659E+04  0.16058834375E+04 0.  0.
        5    1    3    3  502    0 -0.36949928159E+03  0.13101756794E+03 -0.10635461528E+04  0.11335112842E+04  0.46999998093E+01 0.  1.
       -5    1    3    3    0  502  0.36949928159E+03 -0.13101756794E+03  0.43986051155E+03  0.58923228172E+03  0.46999998093E+01 0. -1.
</event>
<event>
 5   0  0.1835088E-04  0.1592651E+04  0.7818609E-02  0.8825076E-01
       -2   -1    0    0    0  501  0.00000000000E+00  0.00000000000E+00  0.44880327120E+03  0.44880327121E+03  0.25500000920E-02 0. -1.
        2   -1    0    0  501    0  0.00000000000E+00  0.00000000000E+00 -0.14129448174E+04  0.14129448174E+04  0.25500000920E-02 0.  1.
    10030    2    1    2    0    0  0.00000000000E+00  0.00000000000E+00 -0.96414154616E+03  0.18617480886E+04  0.15926509424E+04 0.  0.
        5    1    3    3  502    0 -0.26343653069E+03 -0.55171681952E+03 -0.10784955488E+04  0.12397439225E+04  0.46999998093E+01 0.  1.
       -5    1    3    3    0  502  0.26343653069E+03  0.55171681952E+03  0.11435400265E+03  0.62200416604E+03  0.46999998093E+01 0. -1.
</event>
<event>
 5   0  0.9673017E-05  0.1596888E+04  0.7818609E-02  0.8822462E-01
        1   -1    0    0  501    0  0.00000000000E+00  0.00000000000E+00  0.52759072331E+03  0.52759072334E+03  0.50400001928E-02 0. -1.
       -1   -1    0    0    0  501  0.00000000000E+00  0.00000000000E+00 -0.12083476966E+04  0.12083476966E+04  0.50400001928E-02 0.  1.
    10030    2    1    2    0    0  0.00000000000E+00  0.00000000000E+00 -0.68075697330E+03  0.17359384200E+04  0.15968882682E+04 0.  0.
        1    1    3    3  502    0  0.79583619992E+03  0.26057291624E+02 -0.40449564235E+03  0.89311307473E+03  0.50400001928E-02 0.  1.
       -1    1    3    3    0  502 -0.79583619992E+03 -0.26057291624E+02 -0.27626133096E+03  0.84282534523E+03  0.50400001928E-02 0. -1.
</event>
<event>
 5   0  0.1835088E-04  0.1604177E+04  0.7818609E-02  0.8817986E-01
        2   -1    0    0  501    0  0.00000000000E+00  0.00000000000E+00  0.12881266331E+04  0.12881266331E+04  0.25500000920E-02 0. -1.
       -2   -1    0    0    0  501  0.00000000000E+00  0.00000000000E+00 -0.49944287765E+03  0.49944287766E+03  0.25500000920E-02 0.  1.
    10030    2    1    2    0    0  0.00000000000E+00  0.00000000000E+00  0.78868375542E+03  0.17875695107E+04  0.16041766392E+04 0.  0.
        5    1    3    3  502    0 -0.80160358978E+03  0.25182025580E+02  0.38207760734E+03  0.88837370379E+03  0.46999998093E+01 0. -1.
       -5    1    3    3    0  502  0.80160358978E+03 -0.25182025580E+02  0.40660614808E+03  0.89919580694E+03  0.46999998093E+01 0.  1.
</event>
<event>
 5   0  0.9726935E-05  0.1584879E+04  0.7818609E-02  0.8829892E-01
        1   -1    0    0  501    0  0.00000000000E+00  0.00000000000E+00  0.66726180088E+03  0.66726180090E+03  0.50400001928E-02 0.  1.
       -1   -1    0    0    0  501  0.00000000000E+00  0.00000000000E+00 -0.94110049594E+03  0.94110049595E+03  0.50400001928E-02 0. -1.
    10030    2    1    2    0    0  0.00000000000E+00  0.00000000000E+00 -0.27383869506E+03  0.16083622968E+04  0.15848790638E+04 0.  0.
        2    1    3    3  502    0 -0.53209830021E+03 -0.66686524103E+02  0.45515027928E+03  0.70337576750E+03  0.25500000920E-02 0.  1.
       -2    1    3    3    0  502  0.53209830021E+03  0.66686524103E+02 -0.72898897434E+03  0.90498652934E+03  0.25500000920E-02 0. -1.
</event>
<event>
 5   0  0.9939872E-05  0.1592674E+04  0.7818609E-02  0.8825061E-01
       -1   -1    0    0    0  501  0.00000000000E+00  0.00000000000E+00  0.44688855910E+03  0.44688855913E+03  0.50400001928E-02 0.  1.
        1   -1    0    0  501    0  0.00000000000E+00  0.00000000000E+00 -0.14190394326E+04  0.14190394326E+04  0.50400001928E-02 0. -1.
    10030    2    1    2    0    0  0.00000000000E+00  0.00000000000E+00 -0.97215087346E+03  0.18659279917E+04  0.15926738365E+04 0.  0.
        3    1    3    3  502    0 -0.61353496396E+03  0.47030418897E+03 -0.71003004392E+03  0.10496446330E+04  0.10100000352E+00 0. -1.
       -3    1    3    3    0  502  0.61353496396E+03 -0.47030418897E+03 -0.26212082953E+03  0.81628335867E+03  0.10100000352E+00 0.  1.
</event>
<event>
 5   0  0.9616567E-05  0.1614018E+04  0.7818609E-02  0.8811982E-01
        1   -1    0    0  501    0  0.00000000000E+00  0.00000000000E+00  0.82871357320E+03  0.82871357322E+03  0.50400001928E-02 0.  1.
       -1   -1    0    0    0  501  0.00000000000E+00  0.00000000000E+00 -0.78587296897E+03  0.78587296898E+03  0.50400001928E-02 0. -1.
    10030    2    1    2    0    0  0.00000000000E+00  0.00000000000E+00  0.42840604234E+02  0.16145865422E+04  0.16140180869E+04 0.  0.
        5    1    3    3  502    0  0.26750631011E+03 -0.22392774774E+03 -0.70652977533E+03  0.78797822025E+03  0.46999998093E+01 0. -1.
       -5    1    3    3    0  502 -0.26750631011E+03  0.22392774774E+03  0.74937037956E+03  0.82660832195E+03  0.46999998093E+01 0.  1.
</event>
<event>
 5   0  0.1832646E-04  0.1630908E+04  0.7818609E-02  0.8801782E-01
        2   -1    0    0  501    0  0.00000000000E+00  0.00000000000E+00  0.17701447381E+04  0.17701447381E+04  0.25500000920E-02 0. -1.
       -2   -1    0    0    0  501  0.00000000000E+00  0.00000000000E+00 -0.37565574784E+03  0.37565574785E+03  0.25500000920E-02 0.  1.
    10030    2    1    2    0    0  0.00000000000E+00  0.00000000000E+00  0.13944889902E+04  0.21458004859E+04  0.16309077784E+04 0.  0.
        2    1    3    3  502    0 -0.10372598743E+03  0.81408806282E+02 -0.36153657963E+03  0.38483135609E+03  0.25500000920E-02 0.  1.
       -2    1    3    3    0  502  0.10372598743E+03 -0.81408806282E+02  0.17560255699E+04  0.17609691298E+04  0.25500000920E-02 0. -1.
</event>
<event>
 5   0  0.1774934E-04  0.1606995E+04  0.7818609E-02  0.8816262E-01
        2   -1    0    0  501    0  0.00000000000E+00  0.00000000000E+00  0.49524501411E+03  0.49524501412E+03  0.25500000920E-02 0.  1.
       -2   -1    0    0    0  501  0.00000000000E+00  0.00000000000E+00 -0.13036141685E+04  0.13036141685E+04  0.25500000920E-02 0. -1.
    10030    2    1    2    0    0  0.00000000000E+00  0.00000000000E+00 -0.80836915440E+03  0.17988591826E+04  0.16069952300E+04 0.  0.
        1    1    3    3  502    0  0.21888650045E+02  0.23819095459E+03  0.45446672986E+03  0.51356990997E+03  0.50400001928E-02 0.  1.
       -1    1    3    3    0  502 -0.21888650045E+02 -0.23819095459E+03 -0.12628358843E+04  0.12852892727E+04  0.50400001928E-02 0. -1.
</event>
<event>
 5   0  0.9673017E-05  0.1601395E+04  0.7818609E-02  0.8819691E-01
       -1   -1    0    0    0  501  0.00000000000E+00  0.00000000000E+00  0.45945938948E+03  0.45945938951E+03  0.50400001928E-02 0. -1.
        1   -1    0    0  501    0  0.00000000000E+00  0.00000000000E+00 -0.13953721881E+04  0.13953721881E+04  0.50400001928E-02 0.  1.
    10030    2    1    2    0    0  0.00000000000E+00  0.00000000000E+00 -0.93591279860E+03  0.18548315776E+04  0.16013954585E+04 0.  0.
        1    1    3    3  502    0  0.19917861929E+03  0.61104886093E+03  0.85182596307E+02  0.64831235340E+03  0.50400001928E-02 0. -1.
       -1    1    3    3    0  502 -0.19917861929E+03 -0.61104886093E+03 -0.10210953949E+04  0.12065192242E+04  0.50400001928E-02 0.  1.
</event>
<event>
 5   0  0.9939872E-05  0.1597864E+04  0.7818609E-02  0.8821862E-01
       -1   -1    0    0    0  501  0.00000000000E+00  0.00000000000E+00  0.54077125583E+03  0.54077125586E+03  0.50400001928E-02 0. -1.
        1   -1    0    0  501    0  0.00000000000E+00  0.00000000000E+00 -0.11803363001E+04  0.11803363001E+04  0.50400001928E-02 0.  1.
    10030    2    1    2    0    0  0.00000000000E+00  0.00000000000E+00 -0.63956504425E+03  0.17211075560E+04  0.15978635027E+04 0.  0.
        3    1    3    3  502    0 -0.60704677011E+03 -0.36313964408E+03  0.80231548866E+02  0.71190820604E+03  0.10100000352E+00 0. -1.
       -3    1    3    3    0  502  0.60704677011E+03  0.36313964408E+03 -0.71979659312E+03  0.10091993499E+04  0.10100000352E+00 0.  1.
</event>
<event>
 5   0  0.9939872E-05  0.1597086E+04  0.7818609E-02  0.8822340E-01
       -1   -1    0    0    0  501  0.00000000000E+00  0.00000000000E+00  0.55786000830E+03  0.55786000832E+03  0.50400001928E-02 0. -1.
        1   -1    0    0  501    0  0.00000000000E+00  0.00000000000E+00 -0.11430663424E+04  0.11430663424E+04  0.50400001928E-02 0.  1.
    10030    2    1    2    0    0  0.00000000000E+00  0.00000000000E+00 -0.58520633411E+03  0.17009263507E+04  0.15970860957E+04 0.  0.
        3    1    3    3  502    0  0.45076878129E+03 -0.59572322058E+03  0.78610894509E+01  0.74708798455E+03  0.10100000352E+00 0. -1.
       -3    1    3    3    0  502 -0.45076878129E+03  0.59572322058E+03 -0.59306742356E+03  0.95383836619E+03  0.10100000352E+00 0.  1.
</event>
<event>
 5   0  0.9726935E-05  0.1599282E+04  0.7818609E-02  0.8820989E-01
       -1   -1    0    0    0  501  0.00000000000E+00  0.00000000000E+00  0.31386371513E+03  0.31386371518E+03  0.50400001928E-02 0.  1.
        1   -1    0    0  501    0  0.00000000000E+00  0.00000000000E+00 -0.20372729861E+04  0.20372729861E+04  0.50400001928E-02 0. -1.
    10030    2    1    2    0    0  0.00000000000E+00  0.00000000000E+00 -0.17234092710E+04  0.23511367013E+04  0.15992824244E+04 0.  0.
        2    1    3    3  502    0 -0.41670900810E+03  0.79091441580E+02 -0.18582725881E+04  0.19060637097E+04  0.25500000920E-02 0. -1.
       -2    1    3    3    0  502  0.41670900810E+03 -0.79091441580E+02  0.13486331713E+03  0.44507299163E+03  0.25500000920E-02 0.  1.
</event>
<event>
 5   0  0.1774934E-04  0.1602201E+04  0.7818609E-02  0.8819197E-01
        2   -1    0    0  501    0  0.00000000000E+00  0.00000000000E+00  0.23002059455E+04  0.23002059455E+04  0.25500000920E-02 0. -1.
       -2   -1    0    0    0  501  0.00000000000E+00  0.00000000000E+00 -0.27900207604E+03  0.27900207605E+03  0.25500000920E-02 0.  1.
    10030    2    1    2    0    0  0.00000000000E+00  0.00000000000E+00  0.20212038694E+04  0.25792080215E+04  0.16022012784E+04 0.  0.
        1    1    3    3  502    0  0.56533624435E+03 -0.52328006996E+03  0.65668547809E+03  0.10122563499E+04  0.50400001928E-02 0. -1.
       -1    1    3    3    0  502 -0.56533624435E+03  0.52328006996E+03  0.13645183914E+04  0.15669516716E+04  0.50400001928E-02 0.  1.
</event>
<event>
 5   0  0.1914170E-04  0.1600465E+04  0.7818609E-02  0.8820262E-01
        2   -1    0    0  501    0  0.00000000000E+00  0.00000000000E+00  0.11983717782E+04  0.11983717782E+04  0.25500000920E-02 0. -1.
       -2   -1    0    0    0  501  0.00000000000E+00  0.00000000000E+00 -0.53436840559E+03  0.53436840559E+03  0.25500000920E-02 0.  1.
    10030    2    1    2    0    0  0.00000000000E+00  0.00000000000E+00  0.66400337258E+03  0.17327401838E+04  0.16004649530E+04 0.  0.
        3    1    3    3  502    0  0.67414691879E+03 -0.15584390961E+03  0.76723508922E+03  0.10331558859E+04  0.10100000352E+00 0. -1.
       -3    1    3    3    0  502 -0.67414691879E+03  0.15584390961E+03 -0.10323171664E+03  0.69958429785E+03  0.10100000352E+00 0.  1.
</event>
<event>
 5   0  0.9939872E-05  0.1602484E+04  0.7818609E-02  0.8819023E-01
       -1   -1    0    0    0  501  0.00000000000E+00  0.00000000000E+00  0.77689588955E+03  0.77689588957E+03  0.50400001928E-02 0. -1.
        1   -1    0    0  501    0  0.00000000000E+00  0.00000000000E+00 -0.82635152120E+03  0.82635152121E+03  0.50400001928E-02 0.  1.
    10030    2    1    2    0    0  0.00000000000E+00  0.00000000000E+00 -0.49455631645E+02  0.16032474108E+04  0.16024844463E+04 0.  0.
        3    1    3    3  502    0 -0.20378191008E+03 -0.10363458873E+03 -0.79302696192E+03  0.82532355316E+03  0.10100000352E+00 0.  1.
       -3    1    3    3    0  502  0.20378191008E+03  0.10363458873E+03  0.74357133028E+03  0.77792385763E+03  0.10100000352E+00 0. -1.
</event>
<event>
 5   0  0.1858913E-04  0.1577601E+04  0.7818609E-02  0.8834428E-01
        2   -1    0    0  501    0  0.00000000000E+00  0.00000000000E+00  0.44296344296E+03  0.44296344297E+03  0.25500000920E-02 0.  1.
       -2   -1    0    0    0  501  0.00000000000E+00  0.00000000000E+00 -0.14046445606E+04  0.14046445606E+04  0.25500000920E-02 0. -1.
    10030    2    1    2    0    0  0.00000000000E+00  0.00000000000E+00 -0.96168111765E+03  0.18476080036E+04  0.15776009517E+04 0.  0.
        4    1    3    3  502    0  0.22121007071E+03 -0.52810709072E+03 -0.11162623323E+04  0.12545414310E+04  0.12699999809E+01 0. -1.
       -4    1    3    3    0  502 -0.22121007071E+03  0.52810709072E+03  0.15458121469E+03  0.59306657256E+03  0.12699999809E+01 0.  1.
</event>
<event>
 5   0  0.9939872E-05  0.1598276E+04  0.7818609E-02  0.8821608E-01
       -1   -1    0    0    0  501  0.00000000000E+00  0.00000000000E+00  0.88964176079E+03  0.88964176080E+03  0.50400001928E-02 0. -1.
        1   -1    0    0  501    0  0.00000000000E+00  0.00000000000E+00 -0.71784150704E+03  0.71784150706E+03  0.50400001928E-02 0.  1.
    10030    2    1    2    0    0  0.00000000000E+00  0.00000000000E+00  0.17180025375E+03  0.16074832679E+04  0.15982762994E+04 0.  0.
        3    1    3    3  502    0 -0.83088235268E+02 -0.79224061791E+03  0.21713053507E+02  0.79688162132E+03  0.10100000352E+00 0.  1.
       -3    1    3    3    0  502  0.83088235268E+02  0.79224061791E+03  0.15008720024E+03  0.81060164654E+03  0.10100000352E+00 0. -1.
</event>
<event>
 5   0  0.9939872E-05  0.1602460E+04  0.7818609E-02  0.8819038E-01
        1   -1    0    0  501    0  0.00000000000E+00  0.00000000000E+00  0.93630534730E+03  0.93630534731E+03  0.50400001928E-02 0. -1.
       -1   -1    0    0    0  501  0.00000000000E+00  0.00000000000E+00 -0.68564095602E+03  0.68564095603E+03  0.50400001928E-02 0.  1.
    10030    2    1    2    0    0  0.00000000000E+00  0.00000000000E+00  0.25066439128E+03  0.16219463033E+04  0.16024597261E+04 0.  0.
        3    1    3    3  502    0  0.74747397573E+03 -0.74093237545E+02 -0.15691746319E+03  0.76735275636E+03  0.10100000352E+00 0. -1.
       -3    1    3    3    0  502 -0.74747397573E+03  0.74093237545E+02  0.40758185447E+03  0.85459354698E+03  0.10100000352E+00 0.  1.
</event>
<event>
 5   0  0.1914170E-04  0.1602011E+04  0.7818609E-02  0.8819313E-01
       -2   -1    0    0    0  501  0.00000000000E+00  0.00000000000E+00  0.96111391012E+03  0.96111391013E+03  0.25500000920E-02 0.  1.
        2   -1    0    0  501    0  0.00000000000E+00  0.00000000000E+00 -0.66756926131E+03  0.66756926131E+03  0.25500000920E-02 0. -1.
    10030    2    1    2    0    0  0.00000000000E+00  0.00000000000E+00  0.29354464882E+03  0.16286831714E+04  0.16020113645E+04 0.  0.
        3    1    3    3  502    0 -0.46921909380E+03  0.43155236281E+03 -0.34628259960E+03  0.72547615317E+03  0.10100000352E+00 0. -1.
       -3    1    3    3    0  502  0.46921909380E+03 -0.43155236281E+03  0.63982724842E+03  0.90320701827E+03  0.10100000352E+00 0.  1.
</event>
<event>
 5   0  0.9432152E-05  0.1602864E+04  0.7818609E-02  0.8818791E-01
       -1   -1    0    0    0  501  0.00000000000E+00  0.00000000000E+00  0.38636901338E+03  0.38636901341E+03  0.50400001928E-02 0. -1.
        1   -1    0    0  501    0  0.00000000000E+00  0.00000000000E+00 -0.16623820082E+04  0.16623820082E+04  0.50400001928E-02 0.  1.
    10030    2    1    2    0    0  0.00000000000E+00  0.00000000000E+00 -0.12760129948E+04  0.20487510216E+04  0.16028635580E+04 0.  0.
        4    1    3    3  502    0 -0.59155723827E+02  0.35624898216E+03  0.27647746203E+03  0.45481219956E+03  0.12699999809E+01 0. -1.
       -4    1    3    3    0  502  0.59155723827E+02 -0.35624898216E+03 -0.15524904568E+04  0.15939388220E+04  0.12699999809E+01 0.  1.
</event>
<event>
 5   0  0.9939872E-05  0.1589913E+04  0.7818609E-02  0.8826769E-01
        1   -1    0    0  501    0  0.00000000000E+00  0.00000000000E+00  0.10625077966E+04  0.10625077966E+04  0.50400001928E-02 0. -1.
       -1   -1    0    0    0  501  0.00000000000E+00  0.00000000000E+00 -0.59477764896E+03  0.59477764898E+03  0.50400001928E-02 0.  1.
    10030    2    1    2    0    0  0.00000000000E+00  0.00000000000E+00  0.46773014760E+03  0.16572854456E+04  0.15899130659E+04 0.  0.
        3    1    3    3  502    0  0.57415039983E+03  0.13941441918E+02  0.80680425774E+03  0.99034143907E+03  0.10100000352E+00 0. -1.
       -3    1    3    3    0  502 -0.57415039983E+03 -0.13941441918E+02 -0.33907411013E+03  0.66694400649E+03  0.10100000352E+00 0.  1.
</event>
<event>
 5   0  0.1832646E-04  0.1607327E+04  0.7818609E-02  0.8816059E-01
       -2   -1    0    0    0  501  0.00000000000E+00  0.00000000000E+00  0.10839336518E+04  0.10839336518E+04  0.25500000920E-02 0.  1.
        2   -1    0    0  501    0  0.00000000000E+00  0.00000000000E+00 -0.59586202636E+03  0.59586202637E+03  0.25500000920E-02 0. -1.
    10030    2    1    2    0    0  0.00000000000E+00  0.00000000000E+00  0.48807162539E+03  0.16797956781E+04  0.16073268519E+04 0.  0.
        2    1    3    3  502    0 -0.24639522942E+03  0.68210053701E+03 -0.11784666635E+03  0.73475137866E+03  0.25500000920E-02 0. -1.
       -2    1    3    3    0  502  0.24639522942E+03 -0.68210053701E+03  0.60591829175E+03  0.94504429947E+03  0.25500000920E-02 0.  1.
</event>
<event>
 5   0  0.9432152E-05  0.1596822E+04  0.7818609E-02  0.8822503E-01
       -1   -1    0    0    0  501  0.00000000000E+00  0.00000000000E+00  0.56407180190E+03  0.56407180192E+03  0.50400001928E-02 0.  1.
        1   -1    0    0  501    0  0.00000000000E+00  0.00000000000E+00 -0.11301038694E+04  0.11301038694E+04  0.50400001928E-02 0. -1.
    10030    2    1    2    0    0  0.00000000000E+00  0.00000000000E+00 -0.56603206751E+03  0.16941756713E+04  0.15968215003E+04 0.  0.
        4    1    3    3  502    0  0.50079635076E+03  0.50495394508E+03 -0.66802100235E+03  0.97571980818E+03  0.12699999809E+01 0. -1.
       -4    1    3    3    0  502 -0.50079635076E+03 -0.50495394508E+03  0.10198893485E+03  0.71845586316E+03  0.12699999809E+01 0.  1.
</event>
<event>
 5   0  0.1774934E-04  0.1610004E+04  0.7818609E-02  0.8814426E-01
       -2   -1    0    0    0  501  0.00000000000E+00  0.00000000000E+00  0.79058200993E+03  0.79058200993E+03  0.25500000920E-02 0. -1.
        2   -1    0    0  501    0  0.00000000000E+00  0.00000000000E+00 -0.81968507398E+03  0.81968507398E+03  0.25500000920E-02 0.  1.
    10030    2    1    2    0    0  0.00000000000E+00  0.00000000000E+00 -0.29103064046E+02  0.16102670839E+04  0.16100040662E+04 0.  0.
        1    1    3    3  502    0 -0.62582623698E+03 -0.24699198887E+03 -0.45662458979E+03  0.81312332244E+03  0.50400001928E-02 0.  1.
       -1    1    3    3    0  502  0.62582623698E+03  0.24699198887E+03  0.42752152574E+03  0.79714376148E+03  0.50400001928E-02 0. -1.
</event>
<event>
 5   0  0.9726935E-05  0.1606121E+04  0.7818609E-02  0.8816797E-01
        1   -1    0    0  501    0  0.00000000000E+00  0.00000000000E+00  0.10603671738E+04  0.10603671738E+04  0.50400001928E-02 0.  1.
       -1   -1    0    0    0  501  0.00000000000E+00  0.00000000000E+00 -0.60819100697E+03  0.60819100699E+03  0.50400001928E-02 0. -1.
    10030    2    1    2    0    0  0.00000000000E+00  0.00000000000E+00  0.45217616686E+03  0.16685581808E+04  0.16061205176E+04 0.  0.
        2    1    3    3  502    0  0.62875983765E+03  0.49365990247E+03  0.30566037872E+03  0.85584303460E+03  0.25500000920E-02 0.  1.
       -2    1    3    3    0  502 -0.62875983765E+03 -0.49365990247E+03  0.14651578814E+03  0.81271514624E+03  0.25500000920E-02 0. -1.
</event>
<event>
 5   0  0.9432152E-05  0.1600877E+04  0.7818609E-02  0.8820009E-01
        1   -1    0    0  501    0  0.00000000000E+00  0.00000000000E+00  0.10395726275E+04  0.10395726275E+04  0.50400001928E-02 0.  1.
       -1   -1    0    0    0  501  0.00000000000E+00  0.00000000000E+00 -0.61631305240E+03  0.61631305242E+03  0.50400001928E-02 0. -1.
    10030    2    1    2    0    0  0.00000000000E+00  0.00000000000E+00  0.42325957508E+03  0.16558856799E+04  0.16008774835E+04 0.  0.
        4    1    3    3  502    0  0.84594713063E+02  0.62291879256E+03  0.72415186458E+03  0.95894818603E+03  0.12699999809E+01 0.  1.
       -4    1    3    3    0  502 -0.84594713063E+02 -0.62291879256E+03 -0.30089228951E+03  0.69693749389E+03  0.12699999809E+01 0. -1.
</event>
<event>
 5   0  0.1914170E-04  0.1593957E+04  0.7818609E-02  0.8824269E-01
        2   -1    0    0  501    0  0.00000000000E+00  0.00000000000E+00  0.44129500920E+03  0.44129500921E+03  0.25500000920E-02 0.  1.
       -2   -1    0    0    0  501  0.00000000000E+00  0.00000000000E+00 -0.14393420701E+04  0.14393420701E+04  0.25500000920E-02 0. -1.
    10030    2    1    2    0    0  0.00000000000E+00  0.00000000000E+00 -0.99804706092E+03  0.18806370793E+04  0.15939566771E+04 0.  0.
        3    1    3    3  502    0  0.33866788074E+02  0.14189436979E+03 -0.14234555833E+04  0.14309111710E+04  0.10100000352E+00 0. -1.
       -3    1    3    3    0  502 -0.33866788074E+02 -0.14189436979E+03  0.42540852237E+03  0.44972590833E+03  0.10100000352E+00 0.  1.
</event>
<event>
 5   0  0.9939872E-05  0.1601381E+04  0.7818609E-02  0.8819700E-01
        1   -1    0    0  501    0  0.00000000000E+00  0.00000000000E+00  0.79592236090E+03  0.79592236092E+03  0.50400001928E-02 0.  1.
       -1   -1    0    0    0  501  0.00000000000E+00  0.00000000000E+00 -0.80548680791E+03  0.80548680792E+03  0.50400001928E-02 0. -1.
    10030    2    1    2    0    0  0.00000000000E+00  0.00000000000E+00 -0.95644470043E+01  0.16014091688E+04  0.16013806067E+04 0.  0.
        3    1    3    3  502    0  0.79294921575E+03  0.46217322306E+02  0.96216865006E+02  0.80010136542E+03  0.10100000352E+00 0.  1.
       -3    1    3    3    0  502 -0.79294921575E+03 -0.46217322306E+02 -0.10578131201E+03  0.80130780341E+03  0.10100000352E+00 0. -1.
</event>
<event>
 5   0  0.1832646E-04  0.1599911E+04  0.7818609E-02  0.8820603E-01
        2   -1    0    0  501    0  0.00000000000E+00  0.00000000000E+00  0.11540950738E+04  0.11540950738E+04  0.25500000920E-02 0.  1.
       -2   -1    0    0    0  501  0.00000000000E+00  0.00000000000E+00 -0.55448549155E+03  0.55448549155E+03  0.25500000920E-02 0. -1.
    10030    2    1    2    0    0  0.00000000000E+00  0.00000000000E+00  0.59960958222E+03  0.17085805653E+04  0.15999112154E+04 0.  0.
        2    1    3    3  502    0  0.65886604370E+03  0.27676270505E+03 -0.84093402814E+02  0.71956497889E+03  0.25500000920E-02 0. -1.
       -2    1    3    3    0  502 -0.65886604370E+03 -0.27676270505E+03  0.68370298503E+03  0.98901558643E+03  0.25500000920E-02 0.  1.
</event>
<event>
 5   0  0.1914170E-04  0.1582510E+04  0.7818609E-02  0.8831365E-01
       -2   -1    0    0    0  501  0.00000000000E+00  0.00000000000E+00  0.54708123715E+03  0.54708123715E+03  0.25500000920E-02 0.  1.
        2   -1    0    0  501    0  0.00000000000E+00  0.00000000000E+00 -0.11444086088E+04  0.11444086088E+04  0.25500000920E-02 0. -1.
    10030    2    1    2    0    0  0.00000000000E+00  0.00000000000E+00 -0.59732737167E+03  0.16914898460E+04  0.15825100031E+04 0.  0.
        3    1    3    3  502    0  0.29616291215E+03  0.22277371961E+03  0.44858230109E+03  0.58186483974E+03  0.10100000352E+00 0.  1.
       -3    1    3    3    0  502 -0.29616291215E+03 -0.22277371961E+03 -0.10459096728E+04  0.11096250062E+04  0.10100000352E+00 0. -1.
</event>
<event>
 5   0  0.1832646E-04  0.1568166E+04  0.7818609E-02  0.8840347E-01
        2   -1    0    0  501    0  0.00000000000E+00  0.00000000000E+00  0.14001012074E+04  0.14001012074E+04  0.25500000920E-02 0. -1.
       -2   -1    0    0    0  501  0.00000000000E+00  0.00000000000E+00 -0.43910121809E+03  0.43910121810E+03  0.25500000920E-02 0.  1.
    10030    2    1    2    0    0  0.00000000000E+00  0.00000000000E+00  0.96099998926E+03  0.18392024255E+04  0.15681659933E+04 0.  0.
        2    1    3    3  502    0  0.25098352661E+03 -0.72075205036E+03  0.69131682786E+03  0.10297549248E+04  0.25500000920E-02 0. -1.
       -2    1    3    3    0  502 -0.25098352661E+03  0.72075205036E+03  0.26968316140E+03  0.80944750063E+03  0.25500000920E-02 0.  1.
</event>
<event>
 5   0  0.1832646E-04  0.1592887E+04  0.7818609E-02  0.8824930E-01
        2   -1    0    0  501    0  0.00000000000E+00  0.00000000000E+00  0.79041297397E+03  0.79041297398E+03  0.25500000920E-02 0. -1.
       -2   -1    0    0    0  501  0.00000000000E+00  0.00000000000E+00 -0.80252031818E+03  0.80252031819E+03  0.25500000920E-02 0.  1.
    10030    2    1    2    0    0  0.00000000000E+00  0.00000000000E+00 -0.12107344208E+02  0.15929332922E+04  0.15928872796E+04 0.  0.
        2    1    3    3  502    0  0.76314814610E+03  0.10518317539E+03 -0.20820767016E+03  0.79800314987E+03  0.25500000920E-02 0.  1.
       -2    1    3    3    0  502 -0.76314814610E+03 -0.10518317539E+03  0.19610032595E+03  0.79493014230E+03  0.25500000920E-02 0. -1.
</event>
<event>
 5   0  0.9616567E-05  0.1597607E+04  0.7818609E-02  0.8822020E-01
        1   -1    0    0  501    0  0.00000000000E+00  0.00000000000E+00  0.20919893620E+04  0.20919893620E+04  0.50400001928E-02 0.  1.
       -1   -1    0    0    0  501  0.00000000000E+00  0.00000000000E+00 -0.30501442433E+03  0.30501442437E+03  0.50400001928E-02 0. -1.
    10030    2    1    2    0    0  0.00000000000E+00  0.00000000000E+00  0.17869749377E+04  0.23970037864E+04  0.15976068740E+04 0.  0.
        5    1    3    3  502    0 -0.30344628657E+03  0.53455627849E+03  0.12809978991E+03  0.62790262771E+03  0.46999998093E+01 0. -1.
       -5    1    3    3    0  502  0.30344628657E+03 -0.53455627849E+03  0.16588751478E+04  0.17691011587E+04  0.46999998093E+01 0.  1.
</event>
<event>
 5   0  0.9432152E-05  0.1598473E+04  0.7818609E-02  0.8821487E-01
        1   -1    0    0  501    0  0.00000000000E+00  0.00000000000E+00  0.54227636160E+03  0.54227636163E+03  0.50400001928E-02 0.  1.
       -1   -1    0    0    0  501  0.00000000000E+00  0.00000000000E+00 -0.11779585418E+04  0.11779585418E+04  0.50400001928E-02 0. -1.
    10030    2    1    2    0    0  0.00000000000E+00  0.00000000000E+00 -0.63568218021E+03  0.17202349034E+04  0.15984731117E+04 0.  0.
        4    1    3    3  502    0  0.39214929445E+02  0.42582333984E+03  0.40880668308E+03  0.59159770493E+03  0.12699999809E+01 0.  1.
       -4    1    3    3    0  502 -0.39214929445E+02 -0.42582333984E+03 -0.10444888633E+04  0.11286371985E+04  0.12699999809E+01 0. -1.
</event>
<event>
 5   0  0.1832646E-04  0.1593883E+04  0.7818609E-02  0.8824314E-01
       -2   -1    0    0    0  501  0.00000000000E+00  0.00000000000E+00  0.30605019326E+03  0.30605019327E+03  0.25500000920E-02 0.  1.
        2   -1    0    0  501    0  0.00000000000E+00  0.00000000000E+00 -0.20752023489E+04  0.20752023490E+04  0.25500000920E-02 0. -1.
    10030    2    1    2    0    0  0.00000000000E+00  0.00000000000E+00 -0.17691521557E+04  0.23812525422E+04  0.15938834085E+04 0.  0.
        2    1    3    3  502    0  0.21265652617E+03  0.66347559786E+03 -0.14626059085E+04  0.16200736744E+04  0.25500000920E-02 0. -1.
       -2    1    3    3    0  502 -0.21265652617E+03 -0.66347559786E+03 -0.30654624721E+03  0.76117886779E+03  0.25500000920E-02 0.  1.
</event>
<event>
 5   0  0.1832646E-04  0.1596945E+04  0.7818609E-02  0.8822427E-01
        2   -1    0    0  501    0  0.00000000000E+00  0.00000000000E+00  0.12087001644E+04  0.12087001644E+04  0.25500000920E-02 0.  1.
       -2   -1    0    0    0  501  0.00000000000E+00  0.00000000000E+00 -0.52747406518E+03  0.52747406519E+03  0.25500000920E-02 0. -1.
    10030    2    1    2    0    0  0.00000000000E+00  0.00000000000E+00  0.68122609923E+03  0.17361742296E+04  0.15969445692E+04 0.  0.
        2    1    3    3  502    0  0.10217485655E+03  0.49351025513E+03 -0.33270997873E+03  0.60389403308E+03  0.25500000920E-02 0. -1.
       -2    1    3    3    0  502 -0.10217485655E+03 -0.49351025513E+03  0.10139360780E+04  0.11322801965E+04  0.25500000920E-02 0.  1.
</event>
<event>
 5   0  0.6838750E-05  0.1597860E+04  0.7818609E-02  0.8821864E-01
       -3   -1    0    0    0  501  0.00000000000E+00  0.00000000000E+00  0.88364195141E+03  0.88364195718E+03  0.10100000352E+00 0. -1.
        3   -1    0    0  501    0  0.00000000000E+00  0.00000000000E+00 -0.72233943482E+03  0.72233944189E+03  0.10100000352E+00 0.  1.
    10030    2    1    2    0    0  0.00000000000E+00  0.00000000000E+00  0.16130251658E+03  0.16059813991E+04  0.15978603670E+04 0.  0.
        1    1    3    3  502    0 -0.35884587840E+03 -0.10626765587E+03 -0.62878763302E+03  0.73173565349E+03  0.50400001928E-02 0.  1.
       -1    1    3    3    0  502  0.35884587840E+03  0.10626765587E+03  0.79009014960E+03  0.87424574557E+03  0.50400001928E-02 0. -1.
</event>
<event>
 5   0  0.1914170E-04  0.1602448E+04  0.7818609E-02  0.8819045E-01
        2   -1    0    0  501    0  0.00000000000E+00  0.00000000000E+00  0.82196300035E+03  0.82196300036E+03  0.25500000920E-02 0. -1.
       -2   -1    0    0    0  501  0.00000000000E+00  0.00000000000E+00 -0.78100864374E+03  0.78100864375E+03  0.25500000920E-02 0.  1.
    10030    2    1    2    0    0  0.00000000000E+00  0.00000000000E+00  0.40954356609E+02  0.16029716441E+04  0.16024483868E+04 0.  0.
        3    1    3    3  502    0 -0.55574653046E+03 -0.52543386527E+03 -0.21840039016E+03  0.79538273398E+03  0.10100000352E+00 0. -1.
       -3    1    3    3    0  502  0.55574653046E+03  0.52543386527E+03  0.25935474677E+03  0.80758891013E+03  0.10100000352E+00 0.  1.
</event>
<event>
 5   0  0.6838750E-05  0.1609302E+04  0.7818609E-02  0.8814853E-01
        4   -1    0    0  501    0  0.00000000000E+00  0.00000000000E+00  0.10680209357E+04  0.10680216908E+04  0.12699999809E+01 0.  1.
       -4   -1    0    0    0  501  0.00000000000E+00  0.00000000000E+00 -0.60622578481E+03  0.60622711509E+03  0.12699999809E+01 0. -1.
    10030    2    1    2    0    0  0.00000000000E+00  0.00000000000E+00  0.46179515090E+03  0.16742488059E+04  0.16093024273E+04 0.  0.
        5    1    3    3  502    0 -0.62179882325E+03  0.47460842256E+03  0.34728768461E+02  0.78301667206E+03  0.46999998093E+01 0. -1.
       -5    1    3    3    0  502  0.62179882325E+03 -0.47460842256E+03  0.42706638243E+03  0.89123213383E+03  0.46999998093E+01 0.  1.
</event>
<event>
 5   0  0.9673017E-05  0.1602594E+04  0.7818609E-02  0.8818956E-01
       -1   -1    0    0    0  501  0.00000000000E+00  0.00000000000E+00  0.66544138315E+03  0.66544138317E+03  0.50400001928E-02 0. -1.
        1   -1    0    0  501    0  0.00000000000E+00  0.00000000000E+00 -0.96488854296E+03  0.96488854297E+03  0.50400001928E-02 0.  1.
    10030    2    1    2    0    0  0.00000000000E+00  0.00000000000E+00 -0.29944715981E+03  0.16303299261E+04  0.16025938558E+04 0.  0.
        1    1    3    3  502    0  0.47887861896E+03 -0.11259624264E+03 -0.79318462058E+03  0.93335121359E+03  0.50400001928E-02 0.  1.
       -1    1    3    3    0  502 -0.47887861896E+03  0.11259624264E+03  0.49373746077E+03  0.69697871255E+03  0.50400001928E-02 0. -1.
</event>
<event>
 5   0  0.1832646E-04  0.1597730E+04  0.7818609E-02  0.8821944E-01
        2   -1    0    0  501    0  0.00000000000E+00  0.00000000000E+00  0.12811389710E+04  0.12811389710E+04  0.25500000920E-02 0.  1.
       -2   -1    0    0    0  501  0.00000000000E+00  0.00000000000E+00 -0.49813875550E+03  0.49813875551E+03  0.25500000920E-02 0. -1.
    10030    2    1    2    0    0  0.00000000000E+00  0.00000000000E+00  0.78300021550E+03  0.17792777265E+04  0.15977296050E+04 0.  0.
        2    1    3    3  502    0 -0.28519006961E+03  0.53469427928E+03 -0.18817939233E+03  0.63454143427E+03  0.25500000920E-02 0. -1.
       -2    1    3    3    0  502  0.28519006961E+03 -0.53469427928E+03  0.97117960783E+03  0.11447362922E+04  0.25500000920E-02 0.  1.
</event>
<event>
 5   0  0.1835088E-04  0.1596833E+04  0.7818609E-02  0.8822496E-01
       -2   -1    0    0    0  501  0.00000000000E+00  0.00000000000E+00  0.53716757694E+03  0.53716757695E+03  0.25500000920E-02 0.  1.
        2   -1    0    0  501    0  0.00000000000E+00  0.00000000000E+00 -0.11867227026E+04  0.11867227026E+04  0.25500000920E-02 0. -1.
    10030    2    1    2    0    0  0.00000000000E+00  0.00000000000E+00 -0.64955512570E+03  0.17238902796E+04  0.15968330641E+04 0.  0.
        5    1    3    3  502    0 -0.73346991882E+03  0.25446940376E+02  0.14593779411E+02  0.73407134325E+03  0.46999998093E+01 0.  1.
       -5    1    3    3    0  502  0.73346991882E+03 -0.25446940376E+02 -0.66414890511E+03  0.98981893634E+03  0.46999998093E+01 0. -1.
</event>
<event>
 5   0  0.6838750E-05  0.1595252E+04  0.7818609E-02  0.8823470E-01
        4   -1    0    0  501    0  0.00000000000E+00  0.00000000000E+00  0.44868354358E+03  0.44868534094E+03  0.12699999809E+01 0. -1.
       -4   -1    0    0    0  501  0.00000000000E+00  0.00000000000E+00 -0.14179372604E+04  0.14179378292E+04  0.12699999809E+01 0.  1.
    10030    2    1    2    0    0  0.00000000000E+00  0.00000000000E+00 -0.96925371684E+03  0.18666231701E+04  0.15952521091E+04 0.  0.
        3    1    3    3  502    0  0.66245332401E+03 -0.39765354228E+03 -0.25285443904E+03  0.81296255985E+03  0.10100000352E+00 0. -1.
       -3    1    3    3    0  502 -0.66245332401E+03  0.39765354228E+03 -0.71639927781E+03  0.10536606103E+04  0.10100000352E+00 0.  1.
</event>
<event>
 5   0  0.9616567E-05  0.1572944E+04  0.7818609E-02  0.8837344E-01
        1   -1    0    0  501    0  0.00000000000E+00  0.00000000000E+00  0.10797539758E+04  0.10797539759E+04  0.50400001928E-02 0.  1.
       -1   -1    0    0    0  501  0.00000000000E+00  0.00000000000E+00 -0.57285141356E+03  0.57285141359E+03  0.50400001928E-02 0. -1.
    10030    2    1    2    0    0  0.00000000000E+00  0.00000000000E+00  0.50690256228E+03  0.16526053894E+04  0.15729444890E+04 0.  0.
        5    1    3    3  502    0 -0.46856688928E+03  0.18869349224E+03 -0.37986716618E+03  0.63204534464E+03  0.46999998093E+01 0. -1.
       -5    1    3    3    0  502  0.46856688928E+03 -0.18869349224E+03  0.88676972846E+03  0.10205600448E+04  0.46999998093E+01 0.  1.
</event>
<event>
 5   0  0.1858913E-04  0.1602798E+04  0.7818609E-02  0.8818831E-01
        2   -1    0    0  501    0  0.00000000000E+00  0.00000000000E+00  0.11430862298E+04  0.11430862298E+04  0.25500000920E-02 0.  1.
       -2   -1    0    0    0  501  0.00000000000E+00  0.00000000000E+00 -0.56184758424E+03  0.56184758425E+03  0.25500000920E-02 0. -1.
    10030    2    1    2    0    0  0.00000000000E+00  0.00000000000E+00  0.58123864560E+03  0.17049338141E+04  0.16027978498E+04 0.  0.
        4    1    3    3  502    0 -0.32043223808E+03 -0.69173818236E+03  0.27769614416E+02  0.76285732383E+03  0.12699999809E+01 0.  1.
       -4    1    3    3    0  502  0.32043223808E+03  0.69173818236E+03  0.55346903118E+03  0.94207649026E+03  0.12699999809E+01 0. -1.
</event>
<event>
 5   0  0.9939872E-05  0.1602355E+04  0.7818609E-02  0.8819103E-01
       -1   -1    0    0    0  501  0.00000000000E+00  0.00000000000E+00  0.69330048922E+03  0.69330048924E+03  0.50400001928E-02 0.  1.
        1   -1    0    0  501    0  0.00000000000E+00  0.00000000000E+00 -0.92583986347E+03  0.92583986348E+03  0.50400001928E-02 0. -1.
    10030    2    1    2    0    0  0.00000000000E+00  0.00000000000E+00 -0.23253937424E+03  0.16191403527E+04  0.16023548050E+04 0.  0.
        3    1    3    3  502    0 -0.43889922597E+03  0.66343975627E+03 -0.21266492016E+03  0.82341436666E+03  0.10100000352E+00 0. -1.
       -3    1    3    3    0  502  0.43889922597E+03 -0.66343975627E+03 -0.19874454086E+02  0.79572598606E+03  0.10100000352E+00 0.  1.
</event>
<event>
 5   0  0.9726935E-05  0.1600718E+04  0.7818609E-02  0.8820107E-01
       -1   -1    0    0    0  501  0.00000000000E+00  0.00000000000E+00  0.64843851841E+03  0.64843851843E+03  0.50400001928E-02 0. -1.
        1   -1    0    0  501    0  0.00000000000E+00  0.00000000000E+00 -0.98787236492E+03  0.98787236494E+03  0.50400001928E-02 0.  1.
    10030    2    1    2    0    0  0.00000000000E+00  0.00000000000E+00 -0.33943384651E+03  0.16363108834E+04  0.16007179548E+04 0.  0.
        2    1    3    3  502    0 -0.53184941489E+03  0.98746160258E+02  0.43328069130E+03  0.69307053158E+03  0.25500000920E-02 0. -1.
       -2    1    3    3    0  502  0.53184941489E+03 -0.98746160258E+02 -0.77271453782E+03  0.94324035179E+03  0.25500000920E-02 0.  1.
</event>
<event>
 5   0  0.1832646E-04  0.1577464E+04  0.7818609E-02  0.8834513E-01
       -2   -1    0    0    0  501  0.00000000000E+00  0.00000000000E+00  0.87614918512E+03  0.87614918512E+03  0.25500000920E-02 0. -1.
        2   -1    0    0  501    0  0.00000000000E+00  0.00000000000E+00 -0.71003719916E+03  0.71003719916E+03  0.25500000920E-02 0.  1.
    10030    2    1    2    0    0  0.00000000000E+00  0.00000000000E+00  0.16611198596E+03  0.15861863843E+04  0.15774644382E+04 0.  0.
        2    1    3    3  502    0  0.72321072941E+03  0.16576350701E+03 -0.18598122959E+03  0.76491850360E+03  0.25500000920E-02 0.  1.
       -2    1    3    3    0  502 -0.72321072941E+03 -0.16576350701E+03  0.35209321555E+03  0.82126788068E+03  0.25500000920E-02 0. -1.
</event>
<event>
 5   0  0.1835088E-04  0.1600085E+04  0.7818609E-02  0.8820496E-01
       -2   -1    0    0    0  501  0.00000000000E+00  0.00000000000E+00  0.63490428740E+03  0.63490428741E+03  0.25500000920E-02 0.  1.
        2   -1    0    0  501    0  0.00000000000E+00  0.00000000000E+00 -0.10081324823E+04  0.10081324823E+04  0.25500000920E-02 0. -1.
    10030    2    1    2    0    0  0.00000000000E+00  0.00000000000E+00 -0.37322819489E+03  0.16430367697E+04  0.16000845419E+04 0.  0.
        5    1    3    3  502    0 -0.41040190631E+03  0.32722024516E+03 -0.80659537533E+03  0.96235180835E+03  0.46999998093E+01 0. -1.
       -5    1    3    3    0  502  0.41040190631E+03 -0.32722024516E+03  0.43336718043E+03  0.68068496136E+03  0.46999998093E+01 0.  1.
</event>
<event>
 5   0  0.9432152E-05  0.1603421E+04  0.7818609E-02  0.8818449E-01
        1   -1    0    0  501    0  0.00000000000E+00  0.00000000000E+00  0.20419685174E+04  0.20419685174E+04  0.50400001928E-02 0. -1.
       -1   -1    0    0    0  501  0.00000000000E+00  0.00000000000E+00 -0.31476489629E+03  0.31476489633E+03  0.50400001928E-02 0.  1.
    10030    2    1    2    0    0  0.00000000000E+00  0.00000000000E+00  0.17272036212E+04  0.23567334138E+04  0.16034213528E+04 0.  0.
        4    1    3    3  502    0 -0.57236719802E+03  0.53320395133E+03  0.11216694735E+04  0.13674994273E+04  0.12699999809E+01 0.  1.
       -4    1    3    3    0  502  0.57236719802E+03 -0.53320395133E+03  0.60553414769E+03  0.98923398648E+03  0.12699999809E+01 0. -1.
</event>
<event>
 5   0  0.1835088E-04  0.1600110E+04  0.7818609E-02  0.8820480E-01
       -2   -1    0    0    0  501  0.00000000000E+00  0.00000000000E+00  0.29266794505E+03  0.29266794506E+03  0.25500000920E-02 0.  1.
        2   -1    0    0  501    0  0.00000000000E+00  0.00000000000E+00 -0.21870798938E+04  0.21870798938E+04  0.25500000920E-02 0. -1.
    10030    2    1    2    0    0  0.00000000000E+00  0.00000000000E+00 -0.18944119487E+04  0.24797478388E+04  0.16001102189E+04 0.  0.
        5    1    3    3  502    0 -0.11917614020E+03 -0.21358922338E+03  0.23328451910E+03  0.33803411897E+03  0.46999998093E+01 0.  1.
       -5    1    3    3    0  502  0.11917614020E+03  0.21358922338E+03 -0.21276964678E+04  0.21417137199E+04  0.46999998093E+01 0. -1.
</event>
<event>
 5   0  0.9939872E-05  0.1625427E+04  0.7818609E-02  0.8805078E-01
        1   -1    0    0  501    0  0.00000000000E+00  0.00000000000E+00  0.10092465320E+04  0.10092465320E+04  0.50400001928E-02 0.  1.
       -1   -1    0    0    0  501  0.00000000000E+00  0.00000000000E+00 -0.65445147160E+03  0.65445147162E+03  0.50400001928E-02 0. -1.
    10030    2    1    2    0    0  0.00000000000E+00  0.00000000000E+00  0.35479506037E+03  0.16636980036E+04  0.16254265632E+04 0.  0.
        3    1    3    3  502    0 -0.38728342230E+03  0.61253871337E+03 -0.19910966708E+03  0.75155624825E+03  0.10100000352E+00 0. -1.
       -3    1    3    3    0  502  0.38728342230E+03 -0.61253871337E+03  0.55390472746E+03  0.91214175536E+03  0.10100000352E+00 0.  1.
</event>
<event>
 5   0  0.1832646E-04  0.1625767E+04  0.7818609E-02  0.8804873E-01
       -2   -1    0    0    0  501  0.00000000000E+00  0.00000000000E+00  0.43201993127E+03  0.43201993128E+03  0.25500000920E-02 0.  1.
        2   -1    0    0  501    0  0.00000000000E+00  0.00000000000E+00 -0.15295118341E+04  0.15295118341E+04  0.25500000920E-02 0. -1.
    10030    2    1    2    0    0  0.00000000000E+00  0.00000000000E+00 -0.10974919028E+04  0.19615317653E+04  0.16257670158E+04 0.  0.
        2    1    3    3  502    0 -0.61313318605E+03  0.28505858696E+03 -0.43510105043E+01  0.67617278349E+03  0.25500000920E-02 0.  1.
       -2    1    3    3    0  502  0.61313318605E+03 -0.28505858696E+03 -0.10931408923E+04  0.12853589818E+04  0.25500000920E-02 0. -1.
</event>
<event>
 5   0  0.1914170E-04  0.1568650E+04  0.7818609E-02  0.8840043E-01
       -2   -1    0    0    0  501  0.00000000000E+00  0.00000000000E+00  0.76545296219E+03  0.76545296220E+03  0.25500000920E-02 0. -1.
        2   -1    0    0  501    0  0.00000000000E+00  0.00000000000E+00 -0.80366210824E+03  0.80366210825E+03  0.25500000920E-02 0.  1.
    10030    2    1    2    0    0  0.00000000000E+00  0.00000000000E+00 -0.38209146049E+02  0.15691150704E+04  0.15686497906E+04 0.  0.
        3    1    3    3  502    0  0.23388047456E+03 -0.26037068696E+03  0.68300999625E+03  0.76746051116E+03  0.10100000352E+00 0. -1.
       -3    1    3    3    0  502 -0.23388047456E+03  0.26037068696E+03 -0.72121914230E+03  0.80165455929E+03  0.10100000352E+00 0.  1.
</event>
<event>
 5   0  0.1774934E-04  0.1599483E+04  0.7818609E-02  0.8820866E-01
        2   -1    0    0  501    0  0.00000000000E+00  0.00000000000E+00  0.87085108852E+03  0.87085108852E+03  0.25500000920E-02 0.  1.
       -2   -1    0    0    0  501  0.00000000000E+00  0.00000000000E+00 -0.73443856423E+03  0.73443856423E+03  0.25500000920E-02 0. -1.
    10030    2    1    2    0    0  0.00000000000E+00  0.00000000000E+00  0.13641252429E+03  0.16052896528E+04  0.15994831954E+04 0.  0.
        1    1    3    3  502    0  0.25657758689E+02  0.70070021853E+03 -0.31782950891E+03  0.76984070663E+03  0.50400001928E-02 0. -1.
       -1    1    3    3    0  502 -0.25657758689E+02 -0.70070021853E+03  0.45424203320E+03  0.83544894612E+03  0.50400001928E-02 0.  1.
</event>
<event>
 5   0  0.9673017E-05  0.1593692E+04  0.7818609E-02  0.8824432E-01
        1   -1    0    0  501    0  0.00000000000E+00  0.00000000000E+00  0.12322596366E+04  0.12322596366E+04  0.50400001928E-02 0. -1.
       -1   -1    0    0    0  501  0.00000000000E+00  0.00000000000E+00 -0.51528413649E+03  0.51528413652E+03  0.50400001928E-02 0.  1.
    10030    2    1    2    0    0  0.00000000000E+00  0.00000000000E+00  0.71697550014E+03  0.17475437732E+04  0.15936923703E+04 0.  0.
        1    1    3    3  502    0 -0.63320979465E+03 -0.47383820218E+03  0.46528937926E+03  0.91759004592E+03  0.50400001928E-02 0. -1.
       -1    1    3    3    0  502  0.63320979465E+03  0.47383820218E+03  0.25168612087E+03  0.82995372724E+03  0.50400001928E-02 0.  1.
</event>
<event>
 5   0  0.1914170E-04  0.1599805E+04  0.7818609E-02  0.8820668E-01
        2   -1    0    0  501    0  0.00000000000E+00  0.00000000000E+00  0.77670507027E+03  0.77670507028E+03  0.25500000920E-02 0.  1.
       -2   -1    0    0    0  501  0.00000000000E+00  0.00000000000E+00 -0.82379279845E+03  0.82379279846E+03  0.25500000920E-02 0. -1.
    10030    2    1    2    0    0  0.00000000000E+00  0.00000000000E+00 -0.47087728178E+02  0.16004978687E+04  0.15998050424E+04 0.  0.
        3    1    3    3  502    0 -0.76185158583E+03  0.23630575144E+03 -0.83451231618E+02  0.80201144958E+03  0.10100000352E+00 0. -1.
       -3    1    3    3    0  502  0.76185158583E+03 -0.23630575144E+03  0.36363503440E+02  0.79848641916E+03  0.10100000352E+00 0.  1.
</event>
<event>
 5   0  0.9432152E-05  0.1623798E+04  0.7818609E-02  0.8806060E-01
       -1   -1    0    0    0  501  0.00000000000E+00  0.00000000000E+00  0.99769033700E+03  0.99769033701E+03  0.50400001928E-02 0.  1.
        1   -1    0    0  501    0  0.00000000000E+00  0.00000000000E+00 -0.66070586830E+03  0.66070586832E+03  0.50400001928E-02 0. -1.
    10030    2    1    2    0    0  0.00000000000E+00  0.00000000000E+00  0.33698446870E+03  0.16583962053E+04  0.16237978451E+04 0.  0.
        4    1    3    3  502    0 -0.64232786300E+03  0.46350554897E+03  0.35049067148E+03  0.86618000508E+03  0.12699999809E+01 0.  1.
       -4    1    3    3    0  502  0.64232786300E+03 -0.46350554897E+03 -0.13506202773E+02  0.79221620024E+03  0.12699999809E+01 0. -1.
</event>
<event>
 5   0  0.1835088E-04  0.1696548E+04  0.7818609E-02  0.8763336E-01
       -2   -1    0    0    0  501  0.00000000000E+00  0.00000000000E+00  0.54210625651E+03  0.54210625652E+03  0.25500000920E-02 0.  1.
        2   -1    0    0  501    0  0.00000000000E+00  0.00000000000E+00 -0.13273570100E+04  0.13273570100E+04  0.25500000920E-02 0. -1.
    10030    2    1    2    0    0  0.00000000000E+00  0.00000000000E+00 -0.78525075353E+03  0.18694632666E+04  0.16965477179E+04 0.  0.
        5    1    3    3  502    0  0.78066670122E+03  0.32713012021E+03 -0.33135379804E+03  0.90899507337E+03  0.46999998093E+01 0. -1.
       -5    1    3    3    0  502 -0.78066670122E+03 -0.32713012021E+03 -0.45389695549E+03  0.96046819319E+03  0.46999998093E+01 0.  1.
</event>
<event>
 5   0  0.9432152E-05  0.1601627E+04  0.7818609E-02  0.8819549E-01
       -1   -1    0    0    0  501  0.00000000000E+00  0.00000000000E+00  0.32121484422E+03  0.32121484426E+03  0.50400001928E-02 0.  1.
        1   -1    0    0  501    0  0.00000000000E+00  0.00000000000E+00 -0.19964899631E+04  0.19964899631E+04  0.50400001928E-02 0. -1.
    10030    2    1    2    0    0  0.00000000000E+00  0.00000000000E+00 -0.16752751188E+04  0.23177048073E+04  0.16016269385E+04 0.  0.
        4    1    3    3  502    0 -0.24033033542E+03  0.61405923310E+03 -0.18008785293E+03  0.68356467108E+03  0.12699999809E+01 0.  1.
       -4    1    3    3    0  502  0.24033033542E+03 -0.61405923310E+03 -0.14951872659E+04  0.16341401363E+04  0.12699999809E+01 0. -1.
</event>
<event>
 5   0  0.9939872E-05  0.1587412E+04  0.7818609E-02  0.8828319E-01
        1   -1    0    0  501    0  0.00000000000E+00  0.00000000000E+00  0.18690797136E+04  0.18690797136E+04  0.50400001928E-02 0.  1.
       -1   -1    0    0    0  501  0.00000000000E+00  0.00000000000E+00 -0.33704767880E+03  0.33704767884E+03  0.50400001928E-02 0. -1.
    10030    2    1    2    0    0  0.00000000000E+00  0.00000000000E+00  0.15320320348E+04  0.22061273924E+04  0.15874117034E+04 0.  0.
        3    1    3    3  502    0 -0.14835970333E+03 -0.28363350277E+02 -0.31688908320E+03  0.35104669555E+03  0.10100000352E+00 0. -1.
       -3    1    3    3    0  502  0.14835970333E+03  0.28363350277E+02  0.18489211180E+04  0.18550806969E+04  0.10100000352E+00 0.  1.
</event>
<event>
 5   0  0.1774934E-04  0.1609839E+04  0.7818609E-02  0.8814526E-01
       -2   -1    0    0    0  501  0.00000000000E+00  0.00000000000E+00  0.52529896737E+03  0.52529896737E+03  0.25500000920E-02 0.  1.
        2   -1    0    0  501    0  0.00000000000E+00  0.00000000000E+00 -0.12333847869E+04  0.12333847869E+04  0.25500000920E-02 0. -1.
    10030    2    1    2    0    0  0.00000000000E+00  0.00000000000E+00 -0.70808581949E+03  0.17586837542E+04  0.16098394391E+04 0.  0.
        1    1    3    3  502    0 -0.47297229619E+03  0.20160506104E+03 -0.10306168325E+04  0.11517458266E+04  0.50400001928E-02 0. -1.
       -1    1    3    3    0  502  0.47297229619E+03 -0.20160506104E+03  0.32253101303E+03  0.60693792763E+03  0.50400001928E-02 0.  1.
</event>
<event>
 5   0  0.1858913E-04  0.1599902E+04  0.7818609E-02  0.8820608E-01
       -2   -1    0    0    0  501  0.00000000000E+00  0.00000000000E+00  0.41890191705E+03  0.41890191706E+03  0.25500000920E-02 0.  1.
        2   -1    0    0  501    0  0.00000000000E+00  0.00000000000E+00 -0.15276167350E+04  0.15276167350E+04  0.25500000920E-02 0. -1.
    10030    2    1    2    0    0  0.00000000000E+00  0.00000000000E+00 -0.11087148179E+04  0.19465186520E+04  0.15999019705E+04 0.  0.
        4    1    3    3  502    0  0.24098414635E+03  0.56720095843E+03 -0.11748836467E+04  0.13267039920E+04  0.12699999809E+01 0. -1.
       -4    1    3    3    0  502 -0.24098414635E+03 -0.56720095843E+03  0.66168828814E+02  0.61981466007E+03  0.12699999809E+01 0.  1.
</event>
<event>
 5   0  0.1914170E-04  0.1600984E+04  0.7818609E-02  0.8819944E-01
        2   -1    0    0  501    0  0.00000000000E+00  0.00000000000E+00  0.16111958748E+04  0.16111958748E+04  0.25500000920E-02 0. -1.
       -2   -1    0    0    0  501  0.00000000000E+00  0.00000000000E+00 -0.39770900288E+03  0.39770900289E+03  0.25500000920E-02 0.  1.
    10030    2    1    2    0    0  0.00000000000E+00  0.00000000000E+00  0.12134868720E+04  0.20089048777E+04  0.16009835787E+04 0.  0.
        3    1    3    3  502    0  0.18459614510E+03 -0.18831953825E+03  0.15551280586E+04  0.15773278905E+04  0.10100000352E+00 0. -1.
       -3    1    3    3    0  502 -0.18459614510E+03  0.18831953825E+03 -0.34164118666E+03  0.43157698722E+03  0.10100000352E+00 0.  1.
</event>
<event>
 5   0  0.9726935E-05  0.1594794E+04  0.7818609E-02  0.8823753E-01
        1   -1    0    0  501    0  0.00000000000E+00  0.00000000000E+00  0.16374038277E+04  0.16374038278E+04  0.50400001928E-02 0. -1.
       -1   -1    0    0    0  501  0.00000000000E+00  0.00000000000E+00 -0.38832306200E+03  0.38832306203E+03  0.50400001928E-02 0.  1.
    10030    2    1    2    0    0  0.00000000000E+00  0.00000000000E+00  0.12490807657E+04  0.20257268898E+04  0.15947936144E+04 0.  0.
        2    1    3    3  502    0  0.58337011489E+03 -0.14020126423E+03  0.12916917467E+04  0.14242347609E+04  0.25500000920E-02 0. -1.
       -2    1    3    3    0  502 -0.58337011489E+03  0.14020126423E+03 -0.42610981001E+02  0.60149212892E+03  0.25500000920E-02 0.  1.
</event>
<event>
 5   0  0.9726935E-05  0.1610497E+04  0.7818609E-02  0.8814125E-01
       -1   -1    0    0    0  501  0.00000000000E+00  0.00000000000E+00  0.86842763663E+03  0.86842763664E+03  0.50400001928E-02 0.  1.
        1   -1    0    0  501    0  0.00000000000E+00  0.00000000000E+00 -0.74666590682E+03  0.74666590683E+03  0.50400001928E-02 0. -1.
    10030    2    1    2    0    0  0.00000000000E+00  0.00000000000E+00  0.12176172981E+03  0.16150935435E+04  0.16104972013E+04 0.  0.
        2    1    3    3  502    0  0.38743506744E+03 -0.33240835697E+03  0.68541341981E+03  0.85463021438E+03  0.25500000920E-02 0.  1.
       -2    1    3    3    0  502 -0.38743506744E+03  0.33240835697E+03 -0.56365169000E+03  0.76046332910E+03  0.25500000920E-02 0. -1.
</event>
<event>
 5   0  0.1835088E-04  0.1600403E+04  0.7818609E-02  0.8820301E-01
       -2   -1    0    0    0  501  0.00000000000E+00  0.00000000000E+00  0.64693813635E+03  0.64693813635E+03  0.25500000920E-02 0.  1.
        2   -1    0    0  501    0  0.00000000000E+00  0.00000000000E+00 -0.98977361859E+03  0.98977361860E+03  0.25500000920E-02 0. -1.
    10030    2    1    2    0    0  0.00000000000E+00  0.00000000000E+00 -0.34283548224E+03  0.16367117549E+04  0.16004028246E+04 0.  0.
        5    1    3    3  502    0 -0.17074175270E+02 -0.46199093812E+03 -0.83936104808E+03  0.95826729747E+03  0.46999998093E+01 0. -1.
       -5    1    3    3    0  502  0.17074175270E+02  0.46199093812E+03  0.49652556583E+03  0.67844445748E+03  0.46999998093E+01 0.  1.
</event>
<event>
 5   0  0.9673017E-05  0.1598141E+04  0.7818609E-02  0.8821691E-01
       -1   -1    0    0    0  501  0.00000000000E+00  0.00000000000E+00  0.72520734081E+03  0.72520734083E+03  0.50400001928E-02 0. -1.
        1   -1    0    0  501    0  0.00000000000E+00  0.00000000000E+00 -0.88045695398E+03  0.88045695399E+03  0.50400001928E-02 0.  1.
    10030    2    1    2    0    0  0.00000000000E+00  0.00000000000E+00 -0.15524961317E+03  0.16056642948E+04  0.15981412282E+04 0.  0.
        1    1    3    3  502    0  0.58797286654E+03  0.51747366325E+03  0.81305682661E+02  0.78746536305E+03  0.50400001928E-02 0. -1.
       -1    1    3    3    0  502 -0.58797286654E+03 -0.51747366325E+03 -0.23655529583E+03  0.81819893177E+03  0.50400001928E-02 0.  1.
</event>
<event>
 5   0  0.1914170E-04  0.1603502E+04  0.7818609E-02  0.8818400E-01
       -2   -1    0    0    0  501  0.00000000000E+00  0.00000000000E+00  0.42229690110E+03  0.42229690111E+03  0.25500000920E-02 0.  1.
        2   -1    0    0  501    0  0.00000000000E+00  0.00000000000E+00 -0.15221625875E+04  0.15221625875E+04  0.25500000920E-02 0. -1.
    10030    2    1    2    0    0  0.00000000000E+00  0.00000000000E+00 -0.10998656864E+04  0.19444594887E+04  0.16035018475E+04 0.  0.
        3    1    3    3  502    0 -0.84825442708E+02 -0.49570086043E+03 -0.13071150345E+04  0.14005229103E+04  0.10100000352E+00 0. -1.
       -3    1    3    3    0  502  0.84825442708E+02  0.49570086043E+03  0.20724934806E+03  0.54393657832E+03  0.10100000352E+00 0.  1.
</event>
<event>
 5   0  0.9726935E-05  0.1598902E+04  0.7818609E-02  0.8821223E-01
        1   -1    0    0  501    0  0.00000000000E+00  0.00000000000E+00  0.71985544696E+03  0.71985544698E+03  0.50400001928E-02 0. -1.
       -1   -1    0    0    0  501  0.00000000000E+00  0.00000000000E+00 -0.88784790374E+03  0.88784790375E+03  0.50400001928E-02 0.  1.
    10030    2    1    2    0    0  0.00000000000E+00  0.00000000000E+00 -0.16799245678E+03  0.16077033507E+04  0.15989023105E+04 0.  0.
        2    1    3    3  502    0 -0.47219416489E+03  0.35534195773E+03 -0.62537134689E+03  0.86042115142E+03  0.25500000920E-02 0.  1.
       -2    1    3    3    0  502  0.47219416489E+03 -0.35534195773E+03  0.45737889011E+03  0.74728219931E+03  0.25500000920E-02 0. -1.
</event>
<event>
 5   0  0.9432152E-05  0.1603315E+04  0.7818609E-02  0.8818514E-01
       -1   -1    0    0    0  501  0.00000000000E+00  0.00000000000E+00  0.46301279221E+03  0.46301279224E+03  0.50400001928E-02 0. -1.
        1   -1    0    0  501    0  0.00000000000E+00  0.00000000000E+00 -0.13879845998E+04  0.13879845998E+04  0.50400001928E-02 0.  1.
    10030    2    1    2    0    0  0.00000000000E+00  0.00000000000E+00 -0.92497180758E+03  0.18509973920E+04  0.16033148476E+04 0.  0.
        4    1    3    3  502    0  0.79158609564E+03 -0.12311399306E+03 -0.49687725069E+03  0.94268457994E+03  0.12699999809E+01 0.  1.
       -4    1    3    3    0  502 -0.79158609564E+03  0.12311399306E+03 -0.42809455689E+03  0.90831281211E+03  0.12699999809E+01 0. -1.
</event>
<event>
 5   0  0.9616567E-05  0.1598563E+04  0.7818609E-02  0.8821431E-01
       -1   -1    0    0    0  501  0.00000000000E+00  0.00000000000E+00  0.56920578996E+03  0.56920578998E+03  0.50400001928E-02 0.  1.
        1   -1    0    0  501    0  0.00000000000E+00  0.00000000000E+00 -0.11223549023E+04  0.11223549023E+04  0.50400001928E-02 0. -1.
    10030    2    1    2    0    0  0.00000000000E+00  0.00000000000E+00 -0.55314911237E+03  0.16915606923E+04  0.15985629907E+04 0.  0.
        5    1    3    3  502    0 -0.60959852355E+03  0.13589252092E+03 -0.80433986934E+03  0.10183623385E+04  0.46999998093E+01 0. -1.
       -5    1    3    3    0  502  0.60959852355E+03 -0.13589252092E+03  0.25119075697E+03  0.67319835378E+03  0.46999998093E+01 0.  1.
</event>
<event>
 5   0  0.1858913E-04  0.1620510E+04  0.7818609E-02  0.8808046E-01
        2   -1    0    0  501    0  0.00000000000E+00  0.00000000000E+00  0.82212856687E+03  0.82212856687E+03  0.25500000920E-02 0.  1.
       -2   -1    0    0    0  501  0.00000000000E+00  0.00000000000E+00 -0.79855294259E+03  0.79855294259E+03  0.25500000920E-02 0. -1.
    10030    2    1    2    0    0  0.00000000000E+00  0.00000000000E+00  0.23575624281E+02  0.16206815095E+04  0.16205100262E+04 0.  0.
        4    1    3    3  502    0  0.37030021285E+03  0.63439314390E+03  0.35378110769E+03  0.81531564054E+03  0.12699999809E+01 0.  1.
       -4    1    3    3    0  502 -0.37030021285E+03 -0.63439314390E+03 -0.33020548341E+03  0.80536586892E+03  0.12699999809E+01 0. -1.
</event>
<event>
 5   0  0.9616567E-05  0.1598772E+04  0.7818609E-02  0.8821303E-01
        1   -1    0    0  501    0  0.00000000000E+00  0.00000000000E+00  0.94158514514E+03  0.94158514516E+03  0.50400001928E-02 0.  1.
       -1   -1    0    0    0  501  0.00000000000E+00  0.00000000000E+00 -0.67866159860E+03  0.67866159862E+03  0.50400001928E-02 0. -1.
    10030    2    1    2    0    0  0.00000000000E+00  0.00000000000E+00  0.26292354654E+03  0.16202467438E+04  0.15987716283E+04 0.  0.
        5    1    3    3  502    0 -0.34880069155E+03 -0.70280358307E+03 -0.23566173066E+02  0.78496640267E+03  0.46999998093E+01 0.  1.
       -5    1    3    3    0  502  0.34880069155E+03  0.70280358307E+03  0.28648971961E+03  0.83528034111E+03  0.46999998093E+01 0. -1.
</event>
<event>
 5   0  0.1832646E-04  0.1605052E+04  0.7818609E-02  0.8817450E-01
        2   -1    0    0  501    0  0.00000000000E+00  0.00000000000E+00  0.84922367105E+03  0.84922367106E+03  0.25500000920E-02 0.  1.
       -2   -1    0    0    0  501  0.00000000000E+00  0.00000000000E+00 -0.75839657805E+03  0.75839657806E+03  0.25500000920E-02 0. -1.
    10030    2    1    2    0    0  0.00000000000E+00  0.00000000000E+00  0.90827092999E+02  0.16076202491E+04  0.16050524305E+04 0.  0.
        2    1    3    3  502    0  0.46771313393E+03  0.36971264748E+02  0.69755109624E+03  0.84065449617E+03  0.25500000920E-02 0.  1.
       -2    1    3    3    0  502 -0.46771313393E+03 -0.36971264748E+02 -0.60672400324E+03  0.76696575294E+03  0.25500000920E-02 0. -1.
</event>
<event>
 5   0  0.9726935E-05  0.1591900E+04  0.7818609E-02  0.8825540E-01
        1   -1    0    0  501    0  0.00000000000E+00  0.00000000000E+00  0.16572673780E+04  0.16572673780E+04  0.50400001928E-02 0. -1.
       -1   -1    0    0    0  501  0.00000000000E+00  0.00000000000E+00 -0.38227752947E+03  0.38227752950E+03  0.50400001928E-02 0.  1.
    10030    2    1    2    0    0  0.00000000000E+00  0.00000000000E+00  0.12749898485E+04  0.20395449075E+04  0.15918995935E+04 0.  0.
        2    1    3    3  502    0 -0.16837027908E+03 -0.46938466557E+03  0.14323210381E+04  0.15166456644E+04  0.25500000920E-02 0. -1.
       -2    1    3    3    0  502  0.16837027908E+03  0.46938466557E+03 -0.15733118963E+03  0.52289924305E+03  0.25500000920E-02 0.  1.
</event>
<event>
 5   0  0.9673017E-05  0.1589547E+04  0.7818609E-02  0.8826996E-01
        1   -1    0    0  501    0  0.00000000000E+00  0.00000000000E+00  0.53923514251E+03  0.53923514253E+03  0.50400001928E-02 0.  1.
       -1   -1    0    0    0  501  0.00000000000E+00  0.00000000000E+00 -0.11714087754E+04  0.11714087754E+04  0.50400001928E-02 0. -1.
    10030    2    1    2    0    0  0.00000000000E+00  0.00000000000E+00 -0.63217363291E+03  0.17106439180E+04  0.15895468260E+04 0.  0.
        1    1    3    3  502    0 -0.56507268793E+03 -0.11367510350E+03  0.27280838042E+03  0.63769395814E+03  0.50400001928E-02 0.  1.
       -1    1    3    3    0  502  0.56507268793E+03  0.11367510350E+03 -0.90498201333E+03  0.10729499598E+04  0.50400001928E-02 0. -1.
</event>
<event>
 5   0  0.1832646E-04  0.1672038E+04  0.7818609E-02  0.8777475E-01
       -2   -1    0    0    0  501  0.00000000000E+00  0.00000000000E+00  0.64949629791E+03  0.64949629791E+03  0.25500000920E-02 0.  1.
        2   -1    0    0  501    0  0.00000000000E+00  0.00000000000E+00 -0.10761079535E+04  0.10761079535E+04  0.25500000920E-02 0. -1.
    10030    2    1    2    0    0  0.00000000000E+00  0.00000000000E+00 -0.42661165558E+03  0.17256042514E+04  0.16720384349E+04 0.  0.
        2    1    3    3  502    0  0.11300606471E+02  0.58309128089E+03  0.40488731120E+03  0.70996963338E+03  0.25500000920E-02 0.  1.
       -2    1    3    3    0  502 -0.11300606471E+02 -0.58309128089E+03 -0.83149896678E+03  0.10156346180E+04  0.25500000920E-02 0. -1.
</event>
<event>
 5   0  0.1774934E-04  0.1595673E+04  0.7818609E-02  0.8823211E-01
       -2   -1    0    0    0  501  0.00000000000E+00  0.00000000000E+00  0.28244460688E+03  0.28244460689E+03  0.25500000920E-02 0.  1.
        2   -1    0    0  501    0  0.00000000000E+00  0.00000000000E+00 -0.22536921879E+04  0.22536921879E+04  0.25500000920E-02 0. -1.
    10030    2    1    2    0    0  0.00000000000E+00  0.00000000000E+00 -0.19712475810E+04  0.25361367948E+04  0.15956731546E+04 0.  0.
        1    1    3    3  502    0 -0.65420207194E+03 -0.20695927886E+03 -0.16326624529E+04  0.17709881929E+04  0.50400001928E-02 0. -1.
       -1    1    3    3    0  502  0.65420207194E+03  0.20695927886E+03 -0.33858512808E+03  0.76514860192E+03  0.50400001928E-02 0.  1.
</event>
<event>
 5   0  0.9726935E-05  0.1594290E+04  0.7818609E-02  0.8824063E-01
       -1   -1    0    0    0  501  0.00000000000E+00  0.00000000000E+00  0.60681598807E+03  0.60681598809E+03  0.50400001928E-02 0.  1.
        1   -1    0    0  501    0  0.00000000000E+00  0.00000000000E+00 -0.10471713741E+04  0.10471713742E+04  0.50400001928E-02 0. -1.
    10030    2    1    2    0    0  0.00000000000E+00  0.00000000000E+00 -0.44035538607E+03  0.16539873622E+04  0.15942902272E+04 0.  0.
        2    1    3    3  502    0  0.61416700330E+03 -0.49178545273E+03 -0.87375527703E+02  0.79163661001E+03  0.25500000920E-02 0.  1.
       -2    1    3    3    0  502 -0.61416700330E+03  0.49178545273E+03 -0.35297985837E+03  0.86235075223E+03  0.25500000920E-02 0. -1.
</event>
<event>
 5   0  0.9673017E-05  0.1593206E+04  0.7818609E-02  0.8824733E-01
        1   -1    0    0  501    0  0.00000000000E+00  0.00000000000E+00  0.67975810941E+03  0.67975810943E+03  0.50400001928E-02 0.  1.
       -1   -1    0    0    0  501  0.00000000000E+00  0.00000000000E+00 -0.93353241950E+03  0.93353241951E+03  0.50400001928E-02 0. -1.
    10030    2    1    2    0    0  0.00000000000E+00  0.00000000000E+00 -0.25377431008E+03  0.16132905289E+04  0.15932058656E+04 0.  0.
        1    1    3    3  502    0  0.62808138323E+02 -0.59175465088E+03  0.40937166931E+03  0.72229051824E+03  0.50400001928E-02 0.  1.
       -1    1    3    3    0  502 -0.62808138323E+02  0.59175465088E+03 -0.66314597939E+03  0.89100001071E+03  0.50400001928E-02 0. -1.
</event>
<event>
 5   0  0.9432152E-05  0.1635782E+04  0.7818609E-02  0.8798863E-01
       -1   -1    0    0    0  501  0.00000000000E+00  0.00000000000E+00  0.39172464608E+03  0.39172464611E+03  0.50400001928E-02 0. -1.
        1   -1    0    0  501    0  0.00000000000E+00  0.00000000000E+00 -0.17076930906E+04  0.17076930906E+04  0.50400001928E-02 0.  1.
    10030    2    1    2    0    0  0.00000000000E+00  0.00000000000E+00 -0.13159684445E+04  0.20994177367E+04  0.16357817355E+04 0.  0.
        4    1    3    3  502    0  0.32861405103E+03 -0.10849842572E+03  0.29313014938E+03  0.45352618479E+03  0.12699999809E+01 0. -1.
       -4    1    3    3    0  502 -0.32861405103E+03  0.10849842572E+03 -0.16090985939E+04  0.16458915520E+04  0.12699999809E+01 0.  1.
</event>
<event>
 5   0  0.1858913E-04  0.1588466E+04  0.7818609E-02  0.8827665E-01
       -2   -1    0    0    0  501  0.00000000000E+00  0.00000000000E+00  0.63501044749E+03  0.63501044750E+03  0.25500000920E-02 0. -1.
        2   -1    0    0  501    0  0.00000000000E+00  0.00000000000E+00 -0.99337949313E+03  0.99337949314E+03  0.25500000920E-02 0.  1.
    10030    2    1    2    0    0  0.00000000000E+00  0.00000000000E+00 -0.35836904564E+03  0.16283899406E+04  0.15884663754E+04 0.  0.
        4    1    3    3  502    0  0.66682307746E+03 -0.19948912971E+03  0.21299541613E+03  0.72788569824E+03  0.12699999809E+01 0. -1.
       -4    1    3    3    0  502 -0.66682307746E+03  0.19948912971E+03 -0.57136446177E+03  0.90050424240E+03  0.12699999809E+01 0.  1.
</event>
<event>
 5   0  0.9939872E-05  0.1607501E+04  0.7818609E-02  0.8815953E-01
        1   -1    0    0  501    0  0.00000000000E+00  0.00000000000E+00  0.18184913690E+04  0.18184913690E+04  0.50400001928E-02 0. -1.
       -1   -1    0    0    0  501  0.00000000000E+00  0.00000000000E+00 -0.35524782492E+03  0.35524782496E+03  0.50400001928E-02 0.  1.
    10030    2    1    2    0    0  0.00000000000E+00  0.00000000000E+00  0.14632435441E+04  0.21737391940E+04  0.16075012952E+04 0.  0.
        3    1    3    3  502    0 -0.45335887835E+03 -0.59079917764E+03  0.11405220925E+04  0.13621191558E+04  0.10100000352E+00 0.  1.
       -3    1    3    3    0  502  0.45335887835E+03  0.59079917764E+03  0.32272145158E+03  0.81162003819E+03  0.10100000352E+00 0. -1.
</event>
<event>
 5   0  0.9673017E-05  0.1571649E+04  0.7818609E-02  0.8838157E-01
       -1   -1    0    0    0  501  0.00000000000E+00  0.00000000000E+00  0.89535575377E+03  0.89535575379E+03  0.50400001928E-02 0.  1.
        1   -1    0    0  501    0  0.00000000000E+00  0.00000000000E+00 -0.68969242924E+03  0.68969242925E+03  0.50400001928E-02 0. -1.
    10030    2    1    2    0    0  0.00000000000E+00  0.00000000000E+00  0.20566332454E+03  0.15850481830E+04  0.15716489237E+04 0.  0.
        1    1    3    3  502    0  0.48267101145E+03  0.18061388651E+03 -0.49546071811E+03  0.71489440095E+03  0.50400001928E-02 0. -1.
       -1    1    3    3    0  502 -0.48267101145E+03 -0.18061388651E+03  0.70112404265E+03  0.87015378209E+03  0.50400001928E-02 0.  1.
</event>
<event>
 5   0  0.9673017E-05  0.1603470E+04  0.7818609E-02  0.8818419E-01
       -1   -1    0    0    0  501  0.00000000000E+00  0.00000000000E+00  0.39219340002E+03  0.39219340005E+03  0.50400001928E-02 0. -1.
        1   -1    0    0  501    0  0.00000000000E+00  0.00000000000E+00 -0.16389346290E+04  0.16389346290E+04  0.50400001928E-02 0.  1.
    10030    2    1    2    0    0  0.00000000000E+00  0.00000000000E+00 -0.12467412290E+04  0.20311280290E+04  0.16034704170E+04 0.  0.
        1    1    3    3  502    0  0.54196535240E+03  0.33851601064E+03 -0.10017530090E+02  0.63907736902E+03  0.50400001928E-02 0. -1.
       -1    1    3    3    0  502 -0.54196535240E+03 -0.33851601064E+03 -0.12367236989E+04  0.13920506600E+04  0.50400001928E-02 0.  1.
</event>
<event>
 5   0  0.1858913E-04  0.1599913E+04  0.7818609E-02  0.8820602E-01
        2   -1    0    0  501    0  0.00000000000E+00  0.00000000000E+00  0.49065906816E+03  0.49065906816E+03  0.25500000920E-02 0.  1.
       -2   -1    0    0    0  501  0.00000000000E+00  0.00000000000E+00 -0.13042256568E+04  0.13042256568E+04  0.25500000920E-02 0. -1.
    10030    2    1    2    0    0  0.00000000000E+00  0.00000000000E+00 -0.81356658863E+03  0.17948847249E+04  0.15999126794E+04 0.  0.
        4    1    3    3  502    0  0.52561790259E+03 -0.57636210509E+03 -0.60577137952E+03  0.98763760198E+03  0.12699999809E+01 0. -1.
       -4    1    3    3    0  502 -0.52561790259E+03  0.57636210509E+03 -0.20779520911E+03  0.80724712297E+03  0.12699999809E+01 0.  1.
</event>
<event>
 5   0  0.1914170E-04  0.1600511E+04  0.7818609E-02  0.8820234E-01
        2   -1    0    0  501    0  0.00000000000E+00  0.00000000000E+00  0.15305636881E+04  0.15305636881E+04  0.25500000920E-02 0. -1.
       -2   -1    0    0    0  501  0.00000000000E+00  0.00000000000E+00 -0.41841354961E+03  0.41841354962E+03  0.25500000920E-02 0.  1.
    10030    2    1    2    0    0  0.00000000000E+00  0.00000000000E+00  0.11121501385E+04  0.19489772377E+04  0.16005106506E+04 0.  0.
        3    1    3    3  502    0 -0.41920833137E+03  0.53097686466E+03  0.10766231780E+04  0.12715303903E+04  0.10100000352E+00 0. -1.
       -3    1    3    3    0  502  0.41920833137E+03 -0.53097686466E+03  0.35526960450E+02  0.67744684737E+03  0.10100000352E+00 0.  1.
</event>
<event>
 5   0  0.1835088E-04  0.1602050E+04  0.7818609E-02  0.8819290E-01
       -2   -1    0    0    0  501  0.00000000000E+00  0.00000000000E+00  0.37528015538E+03  0.37528015539E+03  0.25500000920E-02 0.  1.
        2   -1    0    0  501    0  0.00000000000E+00  0.00000000000E+00 -0.17097650014E+04  0.17097650014E+04  0.25500000920E-02 0. -1.
    10030    2    1    2    0    0  0.00000000000E+00  0.00000000000E+00 -0.13344848460E+04  0.20850451568E+04  0.16020497812E+04 0.  0.
        5    1    3    3  502    0 -0.34328950772E+03 -0.16192243882E+03  0.25079163569E+03  0.45495614825E+03  0.46999998093E+01 0.  1.
       -5    1    3    3    0  502  0.34328950772E+03  0.16192243882E+03 -0.15852764817E+04  0.16300890085E+04  0.46999998093E+01 0. -1.
</event>
<event>
 5   0  0.1914170E-04  0.1599763E+04  0.7818609E-02  0.8820694E-01
        2   -1    0    0  501    0  0.00000000000E+00  0.00000000000E+00  0.13091327284E+04  0.13091327284E+04  0.25500000920E-02 0. -1.
       -2   -1    0    0    0  501  0.00000000000E+00  0.00000000000E+00 -0.48872851288E+03  0.48872851289E+03  0.25500000920E-02 0.  1.
    10030    2    1    2    0    0  0.00000000000E+00  0.00000000000E+00  0.82040421554E+03  0.17978612413E+04  0.15997630969E+04 0.  0.
        3    1    3    3  502    0  0.29634194240E+03  0.74292198839E+03  0.40158051929E+03  0.89499639739E+03  0.10100000352E+00 0. -1.
       -3    1    3    3    0  502 -0.29634194240E+03 -0.74292198839E+03  0.41882369625E+03  0.90286484393E+03  0.10100000352E+00 0.  1.
</event>
<event>
 5   0  0.9616567E-05  0.1596975E+04  0.7818609E-02  0.8822409E-01
        1   -1    0    0  501    0  0.00000000000E+00  0.00000000000E+00  0.76662457767E+03  0.76662457769E+03  0.50400001928E-02 0.  1.
       -1   -1    0    0    0  501  0.00000000000E+00  0.00000000000E+00 -0.83167434603E+03  0.83167434605E+03  0.50400001928E-02 0. -1.
    10030    2    1    2    0    0  0.00000000000E+00  0.00000000000E+00 -0.65049768363E+02  0.15982989237E+04  0.15969746326E+04 0.  0.
        5    1    3    3  502    0 -0.35929525625E+03 -0.11540759781E+03  0.67172610286E+03  0.77048688637E+03  0.46999998093E+01 0.  1.
       -5    1    3    3    0  502  0.35929525625E+03  0.11540759781E+03 -0.73677587123E+03  0.82781203737E+03  0.46999998093E+01 0. -1.
</event>
<event>
 5   0  0.1835088E-04  0.1598018E+04  0.7818609E-02  0.8821767E-01
        2   -1    0    0  501    0  0.00000000000E+00  0.00000000000E+00  0.99075941038E+03  0.99075941038E+03  0.25500000920E-02 0. -1.
       -2   -1    0    0    0  501  0.00000000000E+00  0.00000000000E+00 -0.64436957240E+03  0.64436957241E+03  0.25500000920E-02 0.  1.
    10030    2    1    2    0    0  0.00000000000E+00  0.00000000000E+00  0.34638983798E+03  0.16351289828E+04  0.15980177942E+04 0.  0.
        5    1    3    3  502    0 -0.61065138576E+03 -0.51441455901E+03  0.20347392933E+03  0.82397887313E+03  0.46999998093E+01 0. -1.
       -5    1    3    3    0  502  0.61065138576E+03  0.51441455901E+03  0.14291590865E+03  0.81115010966E+03  0.46999998093E+01 0.  1.
</event>
<event>
 5   0  0.1832646E-04  0.1602320E+04  0.7818609E-02  0.8819124E-01
        2   -1    0    0  501    0  0.00000000000E+00  0.00000000000E+00  0.91211802080E+03  0.91211802081E+03  0.25500000920E-02 0. -1.
       -2   -1    0    0    0  501  0.00000000000E+00  0.00000000000E+00 -0.70370010883E+03  0.70370010884E+03  0.25500000920E-02 0.  1.
    10030    2    1    2    0    0  0.00000000000E+00  0.00000000000E+00  0.20841791197E+03  0.16158181296E+04  0.16023202558E+04 0.  0.
        2    1    3    3  502    0  0.75692245841E+02  0.17281387675E+02 -0.69989744757E+03  0.70419059889E+03  0.25500000920E-02 0.  1.
       -2    1    3    3    0  502 -0.75692245841E+02 -0.17281387675E+02  0.90831535954E+03  0.91162753075E+03  0.25500000920E-02 0. -1.
</event>
<event>
 5   0  0.1835088E-04  0.1591280E+04  0.7818609E-02  0.8825923E-01
       -2   -1    0    0    0  501  0.00000000000E+00  0.00000000000E+00  0.28496048281E+03  0.28496048282E+03  0.25500000920E-02 0.  1.
        2   -1    0    0  501    0  0.00000000000E+00  0.00000000000E+00 -0.22215116907E+04  0.22215116907E+04  0.25500000920E-02 0. -1.
    10030    2    1    2    0    0  0.00000000000E+00  0.00000000000E+00 -0.19365512079E+04  0.25064721735E+04  0.15912800432E+04 0.  0.
        5    1    3    3  502    0  0.77680936327E+03 -0.11198181019E+02 -0.12386422062E+04  0.14621268040E+04  0.46999998093E+01 0. -1.
       -5    1    3    3    0  502 -0.77680936327E+03  0.11198181019E+02 -0.69790900171E+03  0.10443453695E+04  0.46999998093E+01 0.  1.
</event>
<event>
 5   0  0.9673017E-05  0.1594662E+04  0.7818609E-02  0.8823834E-01
       -1   -1    0    0    0  501  0.00000000000E+00  0.00000000000E+00  0.67152533352E+03  0.67152533354E+03  0.50400001928E-02 0. -1.
        1   -1    0    0  501    0  0.00000000000E+00  0.00000000000E+00 -0.94670552288E+03  0.94670552289E+03  0.50400001928E-02 0.  1.
    10030    2    1    2    0    0  0.00000000000E+00  0.00000000000E+00 -0.27518018936E+03  0.16182308564E+04  0.15946620232E+04 0.  0.
        1    1    3    3  502    0 -0.30804878134E+03  0.72603059635E+03 -0.18716689528E+02  0.78890100330E+03  0.50400001928E-02 0. -1.
       -1    1    3    3    0  502  0.30804878134E+03 -0.72603059635E+03 -0.25646349983E+03  0.82932985313E+03  0.50400001928E-02 0.  1.
</event>
<event>
 5   0  0.1832646E-04  0.1587107E+04  0.7818609E-02  0.8828508E-01
        2   -1    0    0  501    0  0.00000000000E+00  0.00000000000E+00  0.12739277640E+04  0.12739277641E+04  0.25500000920E-02 0.  1.
       -2   -1    0    0    0  501  0.00000000000E+00  0.00000000000E+00 -0.49431934658E+03  0.49431934659E+03  0.25500000920E-02 0. -1.
    10030    2    1    2    0    0  0.00000000000E+00  0.00000000000E+00  0.77960841747E+03  0.17682471106E+04  0.15871069780E+04 0.  0.
        2    1    3    3  502    0  0.22986158990E+02  0.32201062872E+03  0.11974601526E+04  0.12402137016E+04  0.25500000920E-02 0.  1.
       -2    1    3    3    0  502 -0.22986158990E+02 -0.32201062872E+03 -0.41785173513E+03  0.52803340905E+03  0.25500000920E-02 0. -1.
</event>
<event>
 5   0  0.9616567E-05  0.1600878E+04  0.7818609E-02  0.8820009E-01
        1   -1    0    0  501    0  0.00000000000E+00  0.00000000000E+00  0.81108883262E+03  0.81108883263E+03  0.50400001928E-02 0. -1.
       -1   -1    0    0    0  501  0.00000000000E+00  0.00000000000E+00 -0.78992927199E+03  0.78992927200E+03  0.50400001928E-02 0.  1.
    10030    2    1    2    0    0  0.00000000000E+00  0.00000000000E+00  0.21159560632E+02  0.16010181046E+04  0.16008782728E+04 0.  0.
        5    1    3    3  502    0 -0.44712975144E+03  0.11645224330E+03  0.66423811082E+03  0.80914800714E+03  0.46999998093E+01 0. -1.
       -5    1    3    3    0  502  0.44712975144E+03 -0.11645224330E+03 -0.64307855019E+03  0.79187009749E+03  0.46999998093E+01 0.  1.
</event>
<event>
 5   0  0.9939872E-05  0.1600144E+04  0.7818609E-02  0.8820460E-01
       -1   -1    0    0    0  501  0.00000000000E+00  0.00000000000E+00  0.95515506013E+03  0.95515506014E+03  0.50400001928E-02 0.  1.
        1   -1    0    0  501    0  0.00000000000E+00  0.00000000000E+00 -0.67016880214E+03  0.67016880216E+03  0.50400001928E-02 0. -1.
    10030    2    1    2    0    0  0.00000000000E+00  0.00000000000E+00  0.28498625798E+03  0.16253238623E+04  0.16001438967E+04 0.  0.
        3    1    3    3  502    0  0.21395798478E+03 -0.27949065131E+03  0.87228522541E+03  0.94062456278E+03  0.10100000352E+00 0.  1.
       -3    1    3    3    0  502 -0.21395798478E+03  0.27949065131E+03 -0.58729896743E+03  0.68469929952E+03  0.10100000352E+00 0. -1.
</event>
<event>
 5   0  0.1858913E-04  0.1601361E+04  0.7818609E-02  0.8819712E-01
        2   -1    0    0  501    0  0.00000000000E+00  0.00000000000E+00  0.94680262745E+03  0.94680262745E+03  0.25500000920E-02 0. -1.
       -2   -1    0    0    0  501  0.00000000000E+00  0.00000000000E+00 -0.67710964819E+03  0.67710964819E+03  0.25500000920E-02 0.  1.
    10030    2    1    2    0    0  0.00000000000E+00  0.00000000000E+00  0.26969297927E+03  0.16239122756E+04  0.16013609137E+04 0.  0.
        4    1    3    3  502    0  0.12155628023E+03  0.55710877647E+03  0.70484884891E+03  0.90661989323E+03  0.12699999809E+01 0. -1.
       -4    1    3    3    0  502 -0.12155628023E+03 -0.55710877647E+03 -0.43515586964E+03  0.71729238242E+03  0.12699999809E+01 0.  1.
</event>
<event>
 5   0  0.9939872E-05  0.1597532E+04  0.7818609E-02  0.8822065E-01
        1   -1    0    0  501    0  0.00000000000E+00  0.00000000000E+00  0.10068003787E+04  0.10068003787E+04  0.50400001928E-02 0.  1.
       -1   -1    0    0    0  501  0.00000000000E+00  0.00000000000E+00 -0.63371787447E+03  0.63371787449E+03  0.50400001928E-02 0. -1.
    10030    2    1    2    0    0  0.00000000000E+00  0.00000000000E+00  0.37308250419E+03  0.16405182532E+04  0.15975323421E+04 0.  0.
        3    1    3    3  502    0  0.74476278414E+02  0.78511894531E+03  0.56367136180E+02  0.79065525899E+03  0.10100000352E+00 0.  1.
       -3    1    3    3    0  502 -0.74476278414E+02 -0.78511894531E+03  0.31671536801E+03  0.84986299417E+03  0.10100000352E+00 0. -1.
</event>
<event>
 5   0  0.9432152E-05  0.1597392E+04  0.7818609E-02  0.8822152E-01
       -1   -1    0    0    0  501  0.00000000000E+00  0.00000000000E+00  0.15657758660E+04  0.15657758660E+04  0.50400001928E-02 0. -1.
        1   -1    0    0  501    0  0.00000000000E+00  0.00000000000E+00 -0.40741164361E+03  0.40741164364E+03  0.50400001928E-02 0.  1.
    10030    2    1    2    0    0  0.00000000000E+00  0.00000000000E+00  0.11583642224E+04  0.19731875096E+04  0.15973920234E+04 0.  0.
        4    1    3    3  502    0  0.68006697584E+02  0.46498939218E+03  0.13769255263E+04  0.14549108439E+04  0.12699999809E+01 0. -1.
       -4    1    3    3    0  502 -0.68006697584E+02 -0.46498939218E+03 -0.21856130394E+03  0.51827666573E+03  0.12699999809E+01 0.  1.
</event>
<event>
 5   0  0.9939872E-05  0.1627821E+04  0.7818609E-02  0.8803636E-01
        1   -1    0    0  501    0  0.00000000000E+00  0.00000000000E+00  0.18757384554E+04  0.18757384554E+04  0.50400001928E-02 0. -1.
       -1   -1    0    0    0  501  0.00000000000E+00  0.00000000000E+00 -0.35316789920E+03  0.35316789924E+03  0.50400001928E-02 0.  1.
    10030    2    1    2    0    0  0.00000000000E+00  0.00000000000E+00  0.15225705562E+04  0.22289063546E+04  0.16278213781E+04 0.  0.
        3    1    3    3  502    0  0.21575325832E+03 -0.72206972224E+03  0.34032727635E+03  0.82689589277E+03  0.10100000352E+00 0. -1.
       -3    1    3    3    0  502 -0.21575325832E+03  0.72206972224E+03  0.11822432798E+04  0.14020104619E+04  0.10100000352E+00 0.  1.
</event>
<event>
 5   0  0.1835088E-04  0.1598206E+04  0.7818609E-02  0.8821651E-01
       -2   -1    0    0    0  501  0.00000000000E+00  0.00000000000E+00  0.28009571680E+03  0.28009571681E+03  0.25500000920E-02 0.  1.
        2   -1    0    0  501    0  0.00000000000E+00  0.00000000000E+00 -0.22798116148E+04  0.22798116148E+04  0.25500000920E-02 0. -1.
    10030    2    1    2    0    0  0.00000000000E+00  0.00000000000E+00 -0.19997158980E+04  0.25599073316E+04  0.15982058296E+04 0.  0.
        5    1    3    3  502    0 -0.76259949592E+02  0.42347443893E+03  0.78668872024E+02  0.43744378126E+03  0.46999998093E+01 0.  1.
       -5    1    3    3    0  502  0.76259949592E+02 -0.42347443893E+03 -0.20783847700E+04  0.21224635504E+04  0.46999998093E+01 0. -1.
</event>
<event>
 5   0  0.9432152E-05  0.1597902E+04  0.7818609E-02  0.8821838E-01
        1   -1    0    0  501    0  0.00000000000E+00  0.00000000000E+00  0.75947667004E+03  0.75947667005E+03  0.50400001928E-02 0.  1.
       -1   -1    0    0    0  501  0.00000000000E+00  0.00000000000E+00 -0.84047719384E+03  0.84047719385E+03  0.50400001928E-02 0. -1.
    10030    2    1    2    0    0  0.00000000000E+00  0.00000000000E+00 -0.81000523798E+02  0.15999538639E+04  0.15979021502E+04 0.  0.
        4    1    3    3  502    0 -0.30070978443E+03  0.31144216967E+03  0.63185177622E+03  0.76593790840E+03  0.12699999809E+01 0.  1.
       -4    1    3    3    0  502  0.30070978443E+03 -0.31144216967E+03 -0.71285230002E+03  0.83401595551E+03  0.12699999809E+01 0. -1.
</event>
<event>
 5   0  0.9616567E-05  0.1572326E+04  0.7818609E-02  0.8837732E-01
       -1   -1    0    0    0  501  0.00000000000E+00  0.00000000000E+00  0.58615764849E+03  0.58615764851E+03  0.50400001928E-02 0.  1.
        1   -1    0    0  501    0  0.00000000000E+00  0.00000000000E+00 -0.10544126423E+04  0.10544126423E+04  0.50400001928E-02 0. -1.
    10030    2    1    2    0    0  0.00000000000E+00  0.00000000000E+00 -0.46825499384E+03  0.16405702909E+04  0.15723257105E+04 0.  0.
        5    1    3    3  502    0 -0.58262081760E+03 -0.48894711450E+03 -0.44153567906E+03  0.87948402133E+03  0.46999998093E+01 0. -1.
       -5    1    3    3    0  502  0.58262081760E+03  0.48894711450E+03 -0.26719314780E+02  0.76108626953E+03  0.46999998093E+01 0.  1.
</event>
<event>
 5   0  0.1835088E-04  0.1602979E+04  0.7818609E-02  0.8818720E-01
       -2   -1    0    0    0  501  0.00000000000E+00  0.00000000000E+00  0.29277190227E+03  0.29277190228E+03  0.25500000920E-02 0. -1.
        2   -1    0    0  501    0  0.00000000000E+00  0.00000000000E+00 -0.21941505650E+04  0.21941505650E+04  0.25500000920E-02 0.  1.
    10030    2    1    2    0    0  0.00000000000E+00  0.00000000000E+00 -0.19013786627E+04  0.24869224672E+04  0.16029792697E+04 0.  0.
        5    1    3    3  502    0  0.27229502728E+03  0.71704260811E+03 -0.58993799330E+03  0.96764849489E+03  0.46999998093E+01 0. -1.
       -5    1    3    3    0  502 -0.27229502728E+03 -0.71704260811E+03 -0.13114406694E+04  0.15192739723E+04  0.46999998093E+01 0.  1.
</event>
<event>
 5   0  0.9616567E-05  0.1626808E+04  0.7818609E-02  0.8804246E-01
        1   -1    0    0  501    0  0.00000000000E+00  0.00000000000E+00  0.47171024920E+03  0.47171024923E+03  0.50400001928E-02 0.  1.
       -1   -1    0    0    0  501  0.00000000000E+00  0.00000000000E+00 -0.14026107985E+04  0.14026107986E+04  0.50400001928E-02 0. -1.
    10030    2    1    2    0    0  0.00000000000E+00  0.00000000000E+00 -0.93090054934E+03  0.18743210478E+04  0.16268077813E+04 0.  0.
        5    1    3    3  502    0  0.15086808952E+03  0.34108484039E+03  0.36737222032E+03  0.52353078901E+03  0.46999998093E+01 0.  1.
       -5    1    3    3    0  502 -0.15086808952E+03 -0.34108484039E+03 -0.12982727697E+04  0.13507902588E+04  0.46999998093E+01 0. -1.
</event>
<event>
 5   0  0.1858913E-04  0.1591779E+04  0.7818609E-02  0.8825614E-01
       -2   -1    0    0    0  501  0.00000000000E+00  0.00000000000E+00  0.80759132441E+03  0.80759132442E+03  0.25500000920E-02 0.  1.
        2   -1    0    0  501    0  0.00000000000E+00  0.00000000000E+00 -0.78435714961E+03  0.78435714962E+03  0.25500000920E-02 0. -1.
    10030    2    1    2    0    0  0.00000000000E+00  0.00000000000E+00  0.23234174802E+02  0.15919484740E+04  0.15917789159E+04 0.  0.
        4    1    3    3  502    0  0.73419369700E+03 -0.29976752422E+03  0.78984956685E+02  0.79695745781E+03  0.12699999809E+01 0.  1.
       -4    1    3    3    0  502 -0.73419369700E+03  0.29976752422E+03 -0.55750781883E+02  0.79499101622E+03  0.12699999809E+01 0. -1.
</event>
<event>
 5   0  0.9432152E-05  0.1591030E+04  0.7818609E-02  0.8826078E-01
       -1   -1    0    0    0  501  0.00000000000E+00  0.00000000000E+00  0.15700182162E+04  0.15700182162E+04  0.50400001928E-02 0. -1.
        1   -1    0    0  501    0  0.00000000000E+00  0.00000000000E+00 -0.40308059962E+03  0.40308059965E+03  0.50400001928E-02 0.  1.
    10030    2    1    2    0    0  0.00000000000E+00  0.00000000000E+00  0.11669376165E+04  0.19730988158E+04  0.15910297094E+04 0.  0.
        4    1    3    3  502    0  0.19150481403E+03 -0.71716753254E+03  0.93824172495E+03  0.11963705575E+04  0.12699999809E+01 0.  1.
       -4    1    3    3    0  502 -0.19150481403E+03  0.71716753254E+03  0.22869589158E+03  0.77672825831E+03  0.12699999809E+01 0. -1.
</event>
<event>
 5   0  0.9726935E-05  0.1598095E+04  0.7818609E-02  0.8821719E-01
        1   -1    0    0  501    0  0.00000000000E+00  0.00000000000E+00  0.98183098323E+03  0.98183098324E+03  0.50400001928E-02 0.  1.
       -1   -1    0    0    0  501  0.00000000000E+00  0.00000000000E+00 -0.65029177840E+03  0.65029177842E+03  0.50400001928E-02 0. -1.
    10030    2    1    2    0    0  0.00000000000E+00  0.00000000000E+00  0.33153920483E+03  0.16321227617E+04  0.15980946357E+04 0.  0.
        2    1    3    3  502    0  0.68592680926E+03  0.39411145367E+03  0.50869877745E+02  0.79272136974E+03  0.25500000920E-02 0. -1.
       -2    1    3    3    0  502 -0.68592680926E+03 -0.39411145367E+03  0.28066932708E+03  0.83940139192E+03  0.25500000920E-02 0.  1.
</event>
<event>
 5   0  0.9939872E-05  0.1601817E+04  0.7818609E-02  0.8819433E-01
        1   -1    0    0  501    0  0.00000000000E+00  0.00000000000E+00  0.11923553104E+04  0.11923553104E+04  0.50400001928E-02 0. -1.
       -1   -1    0    0    0  501  0.00000000000E+00  0.00000000000E+00 -0.53797235966E+03  0.53797235969E+03  0.50400001928E-02 0.  1.
    10030    2    1    2    0    0  0.00000000000E+00  0.00000000000E+00  0.65438295073E+03  0.17303276701E+04  0.16018167185E+04 0.  0.
        3    1    3    3  502    0 -0.41347686666E+03  0.40356368251E+03  0.92633111713E+03  0.10917491076E+04  0.10100000352E+00 0. -1.
       -3    1    3    3    0  502  0.41347686666E+03 -0.40356368251E+03 -0.27194816641E+03  0.63857856252E+03  0.10100000352E+00 0.  1.
</event>
<event>
 5   0  0.1914170E-04  0.1598810E+04  0.7818609E-02  0.8821280E-01
        2   -1    0    0  501    0  0.00000000000E+00  0.00000000000E+00  0.89939826878E+03  0.89939826878E+03  0.25500000920E-02 0.  1.
       -2   -1    0    0    0  501  0.00000000000E+00  0.00000000000E+00 -0.71052840461E+03  0.71052840461E+03  0.25500000920E-02 0. -1.
    10030    2    1    2    0    0  0.00000000000E+00  0.00000000000E+00  0.18886986417E+03  0.16099266734E+04  0.15988095784E+04 0.  0.
        3    1    3    3  502    0 -0.94309883693E+02  0.57760212513E+03  0.64276651534E+03  0.86929130477E+03  0.10100000352E+00 0.  1.
       -3    1    3    3    0  502  0.94309883693E+02 -0.57760212513E+03 -0.45389665116E+03  0.74063536862E+03  0.10100000352E+00 0. -1.
</event>
<event>
 5   0  0.9726935E-05  0.1592792E+04  0.7818609E-02  0.8824988E-01
        1   -1    0    0  501    0  0.00000000000E+00  0.00000000000E+00  0.88237252062E+03  0.88237252063E+03  0.50400001928E-02 0.  1.
       -1   -1    0    0    0  501  0.00000000000E+00  0.00000000000E+00 -0.71879694406E+03  0.71879694408E+03  0.50400001928E-02 0. -1.
    10030    2    1    2    0    0  0.00000000000E+00  0.00000000000E+00  0.16357557656E+03  0.16011694647E+04  0.15927921037E+04 0.  0.
        2    1    3    3  502    0 -0.52982361243E+03  0.21042798687E+03  0.64081846292E+03  0.85769534240E+03  0.25500000920E-02 0.  1.
       -2    1    3    3    0  502  0.52982361243E+03 -0.21042798687E+03 -0.47724288637E+03  0.74347412231E+03  0.25500000920E-02 0. -1.
</event>
<event>
 5   0  0.9726935E-05  0.1603980E+04  0.7818609E-02  0.8818107E-01
       -1   -1    0    0    0  501  0.00000000000E+00  0.00000000000E+00  0.51745456433E+03  0.51745456435E+03  0.50400001928E-02 0. -1.
        1   -1    0    0  501    0  0.00000000000E+00  0.00000000000E+00 -0.12429848123E+04  0.12429848123E+04  0.50400001928E-02 0.  1.
    10030    2    1    2    0    0  0.00000000000E+00  0.00000000000E+00 -0.72553024799E+03  0.17604393767E+04  0.16039802549E+04 0.  0.
        2    1    3    3  502    0 -0.45294111052E+03  0.63470353195E+03 -0.15689453779E+03  0.79537420065E+03  0.25500000920E-02 0. -1.
       -2    1    3    3    0  502  0.45294111052E+03 -0.63470353195E+03 -0.56863571021E+03  0.96506517603E+03  0.25500000920E-02 0.  1.
</event>
<event>
 5   0  0.1835088E-04  0.1602981E+04  0.7818609E-02  0.8818719E-01
        2   -1    0    0  501    0  0.00000000000E+00  0.00000000000E+00  0.14022410685E+04  0.14022410685E+04  0.25500000920E-02 0. -1.
       -2   -1    0    0    0  501  0.00000000000E+00  0.00000000000E+00 -0.45811457105E+03  0.45811457106E+03  0.25500000920E-02 0.  1.
    10030    2    1    2    0    0  0.00000000000E+00  0.00000000000E+00  0.94412649744E+03  0.18603556395E+04  0.16029810549E+04 0.  0.
        5    1    3    3  502    0 -0.46649488647E+03  0.63920859895E+03  0.61959531674E+03  0.10050500279E+04  0.46999998093E+01 0.  1.
       -5    1    3    3    0  502  0.46649488647E+03 -0.63920859895E+03  0.32453118070E+03  0.85530561165E+03  0.46999998093E+01 0. -1.
</event>
<event>
 5   0  0.1858913E-04  0.1601630E+04  0.7818609E-02  0.8819547E-01
        2   -1    0    0  501    0  0.00000000000E+00  0.00000000000E+00  0.11044920545E+04  0.11044920545E+04  0.25500000920E-02 0.  1.
       -2   -1    0    0    0  501  0.00000000000E+00  0.00000000000E+00 -0.58063326362E+03  0.58063326363E+03  0.25500000920E-02 0. -1.
    10030    2    1    2    0    0  0.00000000000E+00  0.00000000000E+00  0.52385879090E+03  0.16851253182E+04  0.16016302023E+04 0.  0.
        4    1    3    3  502    0  0.19816944746E+03 -0.29061492770E+03 -0.49500217455E+03  0.60725359762E+03  0.12699999809E+01 0. -1.
       -4    1    3    3    0  502 -0.19816944746E+03  0.29061492770E+03  0.10188609655E+04  0.10778717205E+04  0.12699999809E+01 0.  1.
</event>
<event>
 5   0  0.9726935E-05  0.1599559E+04  0.7818609E-02  0.8820819E-01
        1   -1    0    0  501    0  0.00000000000E+00  0.00000000000E+00  0.66355679070E+03  0.66355679072E+03  0.50400001928E-02 0.  1.
       -1   -1    0    0    0  501  0.00000000000E+00  0.00000000000E+00 -0.96396812209E+03  0.96396812211E+03  0.50400001928E-02 0. -1.
    10030    2    1    2    0    0  0.00000000000E+00  0.00000000000E+00 -0.30041133139E+03  0.16275249128E+04  0.15995594312E+04 0.  0.
        2    1    3    3  502    0  0.70882431952E+03  0.33728665790E+03  0.56167947825E+01  0.78500048021E+03  0.25500000920E-02 0.  1.
       -2    1    3    3    0  502 -0.70882431952E+03 -0.33728665790E+03 -0.30602812618E+03  0.84252443262E+03  0.25500000920E-02 0. -1.
</event>
<event>
 5   0  0.9673017E-05  0.1603172E+04  0.7818609E-02  0.8818602E-01
        1   -1    0    0  501    0  0.00000000000E+00  0.00000000000E+00  0.23339068455E+04  0.23339068455E+04  0.50400001928E-02 0. -1.
       -1   -1    0    0    0  501  0.00000000000E+00  0.00000000000E+00 -0.27530650519E+03  0.27530650524E+03  0.50400001928E-02 0.  1.
    10030    2    1    2    0    0  0.00000000000E+00  0.00000000000E+00  0.20586003403E+04  0.26092133508E+04  0.16031715281E+04 0.  0.
        1    1    3    3  502    0  0.77557081862E+02  0.75960775117E+03  0.14263670085E+04  0.16178819115E+04  0.50400001928E-02 0. -1.
       -1    1    3    3    0  502 -0.77557081862E+02 -0.75960775117E+03  0.63223333187E+03  0.99133143930E+03  0.50400001928E-02 0.  1.
</event>
<event>
 5   0  0.9939872E-05  0.1599500E+04  0.7818609E-02  0.8820855E-01
       -1   -1    0    0    0  501  0.00000000000E+00  0.00000000000E+00  0.52303868384E+03  0.52303868387E+03  0.50400001928E-02 0. -1.
        1   -1    0    0  501    0  0.00000000000E+00  0.00000000000E+00 -0.12228541556E+04  0.12228541556E+04  0.50400001928E-02 0.  1.
    10030    2    1    2    0    0  0.00000000000E+00  0.00000000000E+00 -0.69981547171E+03  0.17458928394E+04  0.15994999570E+04 0.  0.
        3    1    3    3  502    0 -0.12640809269E+03 -0.17126147134E+03 -0.11913663340E+04  0.12102327253E+04  0.10100000352E+00 0.  1.
       -3    1    3    3    0  502  0.12640809269E+03  0.17126147134E+03  0.49155086227E+03  0.53566011412E+03  0.10100000352E+00 0. -1.
</event>
<event>
 5   0  0.1832646E-04  0.1600044E+04  0.7818609E-02  0.8820521E-01
       -2   -1    0    0    0  501  0.00000000000E+00  0.00000000000E+00  0.12300988055E+04  0.12300988055E+04  0.25500000920E-02 0.  1.
        2   -1    0    0  501    0  0.00000000000E+00  0.00000000000E+00 -0.52031213910E+03  0.52031213910E+03  0.25500000920E-02 0. -1.
    10030    2    1    2    0    0  0.00000000000E+00  0.00000000000E+00  0.70978666641E+03  0.17504109446E+04  0.16000441754E+04 0.  0.
        2    1    3    3  502    0 -0.54703064948E+02  0.77641904132E+03  0.55725354554E+03  0.95726196365E+03  0.25500000920E-02 0.  1.
       -2    1    3    3    0  502  0.54703064948E+02 -0.77641904132E+03  0.15253312088E+03  0.79314898097E+03  0.25500000920E-02 0. -1.
</event>
<event>
 5   0  0.9673017E-05  0.1601629E+04  0.7818609E-02  0.8819548E-01
       -1   -1    0    0    0  501  0.00000000000E+00  0.00000000000E+00  0.33426824377E+03  0.33426824381E+03  0.50400001928E-02 0. -1.
        1   -1    0    0  501    0  0.00000000000E+00  0.00000000000E+00 -0.19185312884E+04  0.19185312884E+04  0.50400001928E-02 0.  1.
    10030    2    1    2    0    0  0.00000000000E+00  0.00000000000E+00 -0.15842630447E+04  0.22527995322E+04  0.16016292760E+04 0.  0.
        1    1    3    3  502    0 -0.13572773144E+03 -0.77923992875E+03 -0.61607332393E+03  0.10025882625E+04  0.50400001928E-02 0.  1.
       -1    1    3    3    0  502  0.13572773144E+03  0.77923992875E+03 -0.96818972072E+03  0.12502112697E+04  0.50400001928E-02 0. -1.
</event>
<event>
 5   0  0.1835088E-04  0.1600997E+04  0.7818609E-02  0.8819936E-01
       -2   -1    0    0    0  501  0.00000000000E+00  0.00000000000E+00  0.57326788545E+03  0.57326788546E+03  0.25500000920E-02 0. -1.
        2   -1    0    0  501    0  0.00000000000E+00  0.00000000000E+00 -0.11177986838E+04  0.11177986838E+04  0.25500000920E-02 0.  1.
    10030    2    1    2    0    0  0.00000000000E+00  0.00000000000E+00 -0.54453079838E+03  0.16910665693E+04  0.16009972990E+04 0.  0.
        5    1    3    3  502    0  0.11318149464E+03 -0.26133496476E+03 -0.10624637380E+04  0.10999805904E+04  0.46999998093E+01 0.  1.
       -5    1    3    3    0  502 -0.11318149464E+03  0.26133496476E+03  0.51793293965E+03  0.59108597894E+03  0.46999998093E+01 0. -1.
</event>
<event>
 5   0  0.9939872E-05  0.1597809E+04  0.7818609E-02  0.8821895E-01
        1   -1    0    0  501    0  0.00000000000E+00  0.00000000000E+00  0.13012391252E+04  0.13012391252E+04  0.50400001928E-02 0. -1.
       -1   -1    0    0    0  501  0.00000000000E+00  0.00000000000E+00 -0.49049272801E+03  0.49049272803E+03  0.50400001928E-02 0.  1.
    10030    2    1    2    0    0  0.00000000000E+00  0.00000000000E+00  0.81074639717E+03  0.17917318532E+04  0.15978089101E+04 0.  0.
        3    1    3    3  502    0 -0.37663991682E+03 -0.38057331273E+03 -0.25950883266E+03  0.59501135934E+03  0.10100000352E+00 0.  1.
       -3    1    3    3    0  502  0.37663991682E+03  0.38057331273E+03  0.10702552298E+04  0.11967204939E+04  0.10100000352E+00 0. -1.
</event>
<event>
 5   0  0.1832646E-04  0.1608439E+04  0.7818609E-02  0.8815380E-01
       -2   -1    0    0    0  501  0.00000000000E+00  0.00000000000E+00  0.60247641648E+03  0.60247641648E+03  0.25500000920E-02 0.  1.
        2   -1    0    0  501    0  0.00000000000E+00  0.00000000000E+00 -0.10735179688E+04  0.10735179688E+04  0.25500000920E-02 0. -1.
    10030    2    1    2    0    0  0.00000000000E+00  0.00000000000E+00 -0.47104155232E+03  0.16759943853E+04  0.16084393167E+04 0.  0.
        2    1    3    3  502    0 -0.63335546519E+02 -0.79869777047E+03 -0.30801090029E+03  0.85837068607E+03  0.25500000920E-02 0. -1.
       -2    1    3    3    0  502  0.63335546519E+02  0.79869777047E+03 -0.16303065204E+03  0.81762369922E+03  0.25500000920E-02 0.  1.
</event>
<event>
 5   0  0.6838750E-05  0.1595562E+04  0.7818609E-02  0.8823279E-01
        3   -1    0    0  501    0  0.00000000000E+00  0.00000000000E+00  0.38377178687E+03  0.38377180016E+03  0.10100000352E+00 0.  1.
       -3   -1    0    0    0  501  0.00000000000E+00  0.00000000000E+00 -0.16584188701E+04  0.16584188732E+04  0.10100000352E+00 0. -1.
    10030    2    1    2    0    0  0.00000000000E+00  0.00000000000E+00 -0.12746470832E+04  0.20421906733E+04  0.15955618319E+04 0.  0.
        4    1    3    3  502    0 -0.18566733661E+03 -0.25808165469E+03  0.29918426059E+03  0.43656767523E+03  0.12699999809E+01 0.  1.
       -4    1    3    3    0  502  0.18566733661E+03  0.25808165469E+03 -0.15738313438E+04  0.16056229981E+04  0.12699999809E+01 0. -1.
</event>
<event>
 5   0  0.1835088E-04  0.1598049E+04  0.7818609E-02  0.8821748E-01
       -2   -1    0    0    0  501  0.00000000000E+00  0.00000000000E+00  0.89391886986E+03  0.89391886986E+03  0.25500000920E-02 0. -1.
        2   -1    0    0  501    0  0.00000000000E+00  0.00000000000E+00 -0.71420364449E+03  0.71420364449E+03  0.25500000920E-02 0.  1.
    10030    2    1    2    0    0  0.00000000000E+00  0.00000000000E+00  0.17971522537E+03  0.16081225144E+04  0.15980489539E+04 0.  0.
        5    1    3    3  502    0  0.51224925776E+03 -0.29678226591E+02 -0.52648832707E+03  0.73518171070E+03  0.46999998093E+01 0.  1.
       -5    1    3    3    0  502 -0.51224925776E+03  0.29678226591E+02  0.70620355244E+03  0.87294080366E+03  0.46999998093E+01 0. -1.
</event>
<event>
 5   0  0.9673017E-05  0.1592756E+04  0.7818609E-02  0.8825011E-01
       -1   -1    0    0    0  501  0.00000000000E+00  0.00000000000E+00  0.59291328136E+03  0.59291328138E+03  0.50400001928E-02 0. -1.
        1   -1    0    0  501    0  0.00000000000E+00  0.00000000000E+00 -0.10696637558E+04  0.10696637558E+04  0.50400001928E-02 0.  1.
    10030    2    1    2    0    0  0.00000000000E+00  0.00000000000E+00 -0.47675047441E+03  0.16625770372E+04  0.15927559102E+04 0.  0.
        1    1    3    3  502    0 -0.58803036289E+03 -0.21811055501E+03 -0.75067037698E+03  0.97819115555E+03  0.50400001928E-02 0.  1.
       -1    1    3    3    0  502  0.58803036289E+03  0.21811055501E+03  0.27391990257E+03  0.68438588161E+03  0.50400001928E-02 0. -1.
</event>
<event>
 5   0  0.9726935E-05  0.1605763E+04  0.7818609E-02  0.8817016E-01
       -1   -1    0    0    0  501  0.00000000000E+00  0.00000000000E+00  0.58135373211E+03  0.58135373213E+03  0.50400001928E-02 0.  1.
        1   -1    0    0  501    0  0.00000000000E+00  0.00000000000E+00 -0.11088231716E+04  0.11088231716E+04  0.50400001928E-02 0. -1.
    10030    2    1    2    0    0  0.00000000000E+00  0.00000000000E+00 -0.52746943945E+03  0.16901769037E+04  0.16057627335E+04 0.  0.
        2    1    3    3  502    0 -0.12944114221E+03  0.76293159392E+03 -0.38477803044E+02  0.77479040239E+03  0.25500000920E-02 0. -1.
       -2    1    3    3    0  502  0.12944114221E+03 -0.76293159392E+03 -0.48899163640E+03  0.91538650131E+03  0.25500000920E-02 0.  1.
</event>
<event>
 5   0  0.1914170E-04  0.1602074E+04  0.7818609E-02  0.8819275E-01
       -2   -1    0    0    0  501  0.00000000000E+00  0.00000000000E+00  0.73298190350E+03  0.73298190350E+03  0.25500000920E-02 0. -1.
        2   -1    0    0  501    0  0.00000000000E+00  0.00000000000E+00 -0.87541101392E+03  0.87541101392E+03  0.25500000920E-02 0.  1.
    10030    2    1    2    0    0  0.00000000000E+00  0.00000000000E+00 -0.14242911042E+03  0.16083929174E+04  0.16020741947E+04 0.  0.
        3    1    3    3  502    0  0.26042147808E+03  0.13224279909E+03  0.67761799083E+03  0.73788458166E+03  0.10100000352E+00 0. -1.
       -3    1    3    3    0  502 -0.26042147808E+03 -0.13224279909E+03 -0.82004710125E+03  0.87050833576E+03  0.10100000352E+00 0.  1.
</event>
<event>
 5   0  0.9616567E-05  0.1602950E+04  0.7818609E-02  0.8818738E-01
       -1   -1    0    0    0  501  0.00000000000E+00  0.00000000000E+00  0.82276857811E+03  0.82276857812E+03  0.50400001928E-02 0.  1.
        1   -1    0    0  501    0  0.00000000000E+00  0.00000000000E+00 -0.78073232717E+03  0.78073232718E+03  0.50400001928E-02 0. -1.
    10030    2    1    2    0    0  0.00000000000E+00  0.00000000000E+00  0.42036250942E+02  0.16035009053E+04  0.16029498142E+04 0.  0.
        5    1    3    3  502    0 -0.36413269029E+03  0.54477379764E+03  0.48266224351E+03  0.81385258988E+03  0.46999998093E+01 0.  1.
       -5    1    3    3    0  502  0.36413269029E+03 -0.54477379764E+03 -0.44062599257E+03  0.78964831543E+03  0.46999998093E+01 0. -1.
</event>
<event>
 5   0  0.1774934E-04  0.1592731E+04  0.7818609E-02  0.8825026E-01
       -2   -1    0    0    0  501  0.00000000000E+00  0.00000000000E+00  0.12885645723E+04  0.12885645723E+04  0.25500000920E-02 0. -1.
        2   -1    0    0  501    0  0.00000000000E+00  0.00000000000E+00 -0.49217411647E+03  0.49217411648E+03  0.25500000920E-02 0.  1.
    10030    2    1    2    0    0  0.00000000000E+00  0.00000000000E+00  0.79639045583E+03  0.17807386888E+04  0.15927311511E+04 0.  0.
        1    1    3    3  502    0 -0.23069575922E+02 -0.30412437731E+03  0.12206770292E+04  0.12582035813E+04  0.50400001928E-02 0. -1.
       -1    1    3    3    0  502  0.23069575922E+02  0.30412437731E+03 -0.42428657339E+03  0.52253510752E+03  0.50400001928E-02 0.  1.
</event>
<event>
 5   0  0.9673017E-05  0.1598741E+04  0.7818609E-02  0.8821322E-01
       -1   -1    0    0    0  501  0.00000000000E+00  0.00000000000E+00  0.34434536446E+03  0.34434536449E+03  0.50400001928E-02 0.  1.
        1   -1    0    0  501    0  0.00000000000E+00  0.00000000000E+00 -0.18556753485E+04  0.18556753485E+04  0.50400001928E-02 0. -1.
    10030    2    1    2    0    0  0.00000000000E+00  0.00000000000E+00 -0.15113299841E+04  0.22000207130E+04  0.15987410100E+04 0.  0.
        1    1    3    3  502    0  0.57904286822E+03 -0.17388319274E+03 -0.14752817582E+04  0.15943595185E+04  0.50400001928E-02 0. -1.
       -1    1    3    3    0  502 -0.57904286822E+03  0.17388319274E+03 -0.36048225813E+02  0.60566119453E+03  0.50400001928E-02 0.  1.
</event>
<event>
 5   0  0.1832646E-04  0.1603440E+04  0.7818609E-02  0.8818438E-01
        2   -1    0    0  501    0  0.00000000000E+00  0.00000000000E+00  0.11630895627E+04  0.11630895627E+04  0.25500000920E-02 0.  1.
       -2   -1    0    0    0  501  0.00000000000E+00  0.00000000000E+00 -0.55262717839E+03  0.55262717839E+03  0.25500000920E-02 0. -1.
    10030    2    1    2    0    0  0.00000000000E+00  0.00000000000E+00  0.61046238435E+03  0.17157167411E+04  0.16034399312E+04 0.  0.
        2    1    3    3  502    0 -0.20570164175E+03 -0.54524664166E+03  0.89437339116E+03  0.10674787251E+04  0.25500000920E-02 0.  1.
       -2    1    3    3    0  502  0.20570164175E+03  0.54524664166E+03 -0.28391100681E+03  0.64823801605E+03  0.25500000920E-02 0. -1.
</event>
<event>
 5   0  0.9939872E-05  0.1600226E+04  0.7818609E-02  0.8820409E-01
        1   -1    0    0  501    0  0.00000000000E+00  0.00000000000E+00  0.12993484963E+04  0.12993484963E+04  0.50400001928E-02 0. -1.
       -1   -1    0    0    0  501  0.00000000000E+00  0.00000000000E+00 -0.49269397491E+03  0.49269397493E+03  0.50400001928E-02 0.  1.
    10030    2    1    2    0    0  0.00000000000E+00  0.00000000000E+00  0.80665452135E+03  0.17920424712E+04  0.16002264533E+04 0.  0.
        3    1    3    3  502    0 -0.69854504056E+03 -0.34612857084E+03  0.60493773666E+03  0.98677243409E+03  0.10100000352E+00 0. -1.
       -3    1    3    3    0  502  0.69854504056E+03  0.34612857084E+03  0.20171678469E+03  0.80527003711E+03  0.10100000352E+00 0.  1.
</event>
<event>
 5   0  0.1858913E-04  0.1610113E+04  0.7818609E-02  0.8814359E-01
        2   -1    0    0  501    0  0.00000000000E+00  0.00000000000E+00  0.11082283433E+04  0.11082283433E+04  0.25500000920E-02 0. -1.
       -2   -1    0    0    0  501  0.00000000000E+00  0.00000000000E+00 -0.58482167860E+03  0.58482167861E+03  0.25500000920E-02 0.  1.
    10030    2    1    2    0    0  0.00000000000E+00  0.00000000000E+00  0.52340666466E+03  0.16930500219E+04  0.16101129898E+04 0.  0.
        4    1    3    3  502    0  0.59231377878E+03  0.32189875620E+03 -0.20103269735E+03  0.70347009892E+03  0.12699999809E+01 0.  1.
       -4    1    3    3    0  502 -0.59231377878E+03 -0.32189875620E+03  0.72443936201E+03  0.98957992295E+03  0.12699999809E+01 0. -1.
</event>
<event>
 5   0  0.1774934E-04  0.1600017E+04  0.7818609E-02  0.8820538E-01
        2   -1    0    0  501    0  0.00000000000E+00  0.00000000000E+00  0.14675463161E+04  0.14675463161E+04  0.25500000920E-02 0.  1.
       -2   -1    0    0    0  501  0.00000000000E+00  0.00000000000E+00 -0.43611112910E+03  0.43611112911E+03  0.25500000920E-02 0. -1.
    10030    2    1    2    0    0  0.00000000000E+00  0.00000000000E+00  0.10314351870E+04  0.19036574452E+04  0.16000166011E+04 0.  0.
        1    1    3    3  502    0  0.70564990878E+03  0.35899620785E+03  0.65237700572E+03  0.10258732030E+04  0.50400001928E-02 0. -1.
       -1    1    3    3    0  502 -0.70564990878E+03 -0.35899620785E+03  0.37905818124E+03  0.87778424217E+03  0.50400001928E-02 0.  1.
</event>
<event>
 5   0  0.9939872E-05  0.1600980E+04  0.7818609E-02  0.8819946E-01
        1   -1    0    0  501    0  0.00000000000E+00  0.00000000000E+00  0.10445437977E+04  0.10445437977E+04  0.50400001928E-02 0.  1.
       -1   -1    0    0    0  501  0.00000000000E+00  0.00000000000E+00 -0.61345863243E+03  0.61345863245E+03  0.50400001928E-02 0. -1.
    10030    2    1    2    0    0  0.00000000000E+00  0.00000000000E+00  0.43108516527E+03  0.16580024302E+04  0.16009802118E+04 0.  0.
        3    1    3    3  502    0  0.54268182146E+03 -0.29907919224E+03 -0.30929408432E+03  0.69254224663E+03  0.10100000352E+00 0. -1.
       -3    1    3    3    0  502 -0.54268182146E+03  0.29907919224E+03  0.74037924959E+03  0.96546018354E+03  0.10100000352E+00 0.  1.
</event>
<event>
 5   0  0.9616567E-05  0.1596122E+04  0.7818609E-02  0.8822934E-01
       -1   -1    0    0    0  501  0.00000000000E+00  0.00000000000E+00  0.76068400048E+03  0.76068400049E+03  0.50400001928E-02 0.  1.
        1   -1    0    0  501    0  0.00000000000E+00  0.00000000000E+00 -0.83727473859E+03  0.83727473860E+03  0.50400001928E-02 0. -1.
    10030    2    1    2    0    0  0.00000000000E+00  0.00000000000E+00 -0.76590738113E+02  0.15979587391E+04  0.15961221729E+04 0.  0.
        5    1    3    3  502    0  0.54284001788E+02 -0.42530915604E+03 -0.71215586034E+03  0.83127774569E+03  0.46999998093E+01 0. -1.
       -5    1    3    3    0  502 -0.54284001788E+02  0.42530915604E+03  0.63556512223E+03  0.76668099341E+03  0.46999998093E+01 0.  1.
</event>
<event>
 5   0  0.9939872E-05  0.1594432E+04  0.7818609E-02  0.8823976E-01
        1   -1    0    0  501    0  0.00000000000E+00  0.00000000000E+00  0.14361407922E+04  0.14361407922E+04  0.50400001928E-02 0.  1.
       -1   -1    0    0    0  501  0.00000000000E+00  0.00000000000E+00 -0.44254230391E+03  0.44254230394E+03  0.50400001928E-02 0. -1.
    10030    2    1    2    0    0  0.00000000000E+00  0.00000000000E+00  0.99359848830E+03  0.18786830962E+04  0.15944316291E+04 0.  0.
        3    1    3    3  502    0 -0.53142939859E+03  0.64269716615E+02 -0.19928788268E+03  0.57119477636E+03  0.10100000352E+00 0. -1.
       -3    1    3    3    0  502  0.53142939859E+03 -0.64269716615E+02  0.11928863710E+04  0.13074883198E+04  0.10100000352E+00 0.  1.
</event>
<event>
 5   0  0.9616567E-05  0.1602565E+04  0.7818609E-02  0.8818974E-01
        1   -1    0    0  501    0  0.00000000000E+00  0.00000000000E+00  0.13991455460E+04  0.13991455460E+04  0.50400001928E-02 0. -1.
       -1   -1    0    0    0  501  0.00000000000E+00  0.00000000000E+00 -0.45888985945E+03  0.45888985948E+03  0.50400001928E-02 0.  1.
    10030    2    1    2    0    0  0.00000000000E+00  0.00000000000E+00  0.94025568657E+03  0.18580354055E+04  0.16025650726E+04 0.  0.
        5    1    3    3  502    0  0.33177781742E+03 -0.21157151311E+03 -0.33913322554E+03  0.51949250231E+03  0.46999998093E+01 0.  1.
       -5    1    3    3    0  502 -0.33177781742E+03  0.21157151311E+03  0.12793889121E+04  0.13385429032E+04  0.46999998093E+01 0. -1.
</event>
<event>
 5   0  0.1832646E-04  0.1632010E+04  0.7818609E-02  0.8801121E-01
       -2   -1    0    0    0  501  0.00000000000E+00  0.00000000000E+00  0.27831710000E+03  0.27831710001E+03  0.25500000920E-02 0.  1.
        2   -1    0    0  501    0  0.00000000000E+00  0.00000000000E+00 -0.23924659276E+04  0.23924659276E+04  0.25500000920E-02 0. -1.
    10030    2    1    2    0    0  0.00000000000E+00  0.00000000000E+00 -0.21141488276E+04  0.26707830276E+04  0.16320100231E+04 0.  0.
        2    1    3    3  502    0  0.79845108889E+03  0.63833050991E+02 -0.80215123450E+03  0.11335984310E+04  0.25500000920E-02 0. -1.
       -2    1    3    3    0  502 -0.79845108889E+03 -0.63833050991E+02 -0.13119975931E+04  0.15371845966E+04  0.25500000920E-02 0.  1.
</event>
<event>
 5   0  0.9939872E-05  0.1597550E+04  0.7818609E-02  0.8822055E-01
       -1   -1    0    0    0  501  0.00000000000E+00  0.00000000000E+00  0.42565821328E+03  0.42565821331E+03  0.50400001928E-02 0. -1.
        1   -1    0    0  501    0  0.00000000000E+00  0.00000000000E+00 -0.14989524011E+04  0.14989524011E+04  0.50400001928E-02 0.  1.
    10030    2    1    2    0    0  0.00000000000E+00  0.00000000000E+00 -0.10732941878E+04  0.19246106144E+04  0.15975498751E+04 0.  0.
        3    1    3    3  502    0 -0.67789665502E+03 -0.38399336216E+03 -0.32437369722E+03  0.84392717856E+03  0.10100000352E+00 0. -1.
       -3    1    3    3    0  502  0.67789665502E+03  0.38399336216E+03 -0.74892049058E+03  0.10806834358E+04  0.10100000352E+00 0.  1.
</event>
<event>
 5   0  0.1774934E-04  0.1608979E+04  0.7818609E-02  0.8815051E-01
       -2   -1    0    0    0  501  0.00000000000E+00  0.00000000000E+00  0.39568130292E+03  0.39568130292E+03  0.25500000920E-02 0. -1.
        2   -1    0    0  501    0  0.00000000000E+00  0.00000000000E+00 -0.16356683120E+04  0.16356683120E+04  0.25500000920E-02 0.  1.
    10030    2    1    2    0    0  0.00000000000E+00  0.00000000000E+00 -0.12399870091E+04  0.20313496149E+04  0.16089790164E+04 0.  0.
        1    1    3    3  502    0 -0.48341141174E+03 -0.54611603837E+03 -0.19134622792E+03  0.75401770492E+03  0.50400001928E-02 0. -1.
       -1    1    3    3    0  502  0.48341141174E+03  0.54611603837E+03 -0.10486407811E+04  0.12773319100E+04  0.50400001928E-02 0.  1.
</event>
<event>
 5   0  0.1858913E-04  0.1602586E+04  0.7818609E-02  0.8818961E-01
       -2   -1    0    0    0  501  0.00000000000E+00  0.00000000000E+00  0.56803728097E+03  0.56803728098E+03  0.25500000920E-02 0.  1.
        2   -1    0    0  501    0  0.00000000000E+00  0.00000000000E+00 -0.11303316252E+04  0.11303316252E+04  0.25500000920E-02 0. -1.
    10030    2    1    2    0    0  0.00000000000E+00  0.00000000000E+00 -0.56229434426E+03  0.16983689062E+04  0.16025860389E+04 0.  0.
        4    1    3    3  502    0  0.36147848261E+02 -0.50313083601E+03 -0.94095072790E+03  0.10676315799E+04  0.12699999809E+01 0. -1.
       -4    1    3    3    0  502 -0.36147848261E+02  0.50313083601E+03  0.37865638365E+03  0.63073732635E+03  0.12699999809E+01 0.  1.
</event>
<event>
 5   0  0.9939872E-05  0.1593941E+04  0.7818609E-02  0.8824279E-01
        1   -1    0    0  501    0  0.00000000000E+00  0.00000000000E+00  0.15610531819E+04  0.15610531819E+04  0.50400001928E-02 0.  1.
       -1   -1    0    0    0  501  0.00000000000E+00  0.00000000000E+00 -0.40688044243E+03  0.40688044246E+03  0.50400001928E-02 0. -1.
    10030    2    1    2    0    0  0.00000000000E+00  0.00000000000E+00  0.11541727394E+04  0.19679336243E+04  0.15939410395E+04 0.  0.
        3    1    3    3  502    0 -0.47531481915E+03  0.38524693793E+03  0.12076237224E+04  0.13537704552E+04  0.10100000352E+00 0.  1.
       -3    1    3    3    0  502  0.47531481915E+03 -0.38524693793E+03 -0.53450982934E+02  0.61416316909E+03  0.10100000352E+00 0. -1.
</event>
<event>
 5   0  0.1914170E-04  0.1601201E+04  0.7818609E-02  0.8819811E-01
       -2   -1    0    0    0  501  0.00000000000E+00  0.00000000000E+00  0.76635389918E+03  0.76635389919E+03  0.25500000920E-02 0.  1.
        2   -1    0    0  501    0  0.00000000000E+00  0.00000000000E+00 -0.83637741356E+03  0.83637741356E+03  0.25500000920E-02 0. -1.
    10030    2    1    2    0    0  0.00000000000E+00  0.00000000000E+00 -0.70023514374E+02  0.16027313128E+04  0.16012009144E+04 0.  0.
        3    1    3    3  502    0  0.44195984797E+02 -0.40550359637E+03  0.65454044754E+03  0.77123904168E+03  0.10100000352E+00 0.  1.
       -3    1    3    3    0  502 -0.44195984797E+02  0.40550359637E+03 -0.72456396192E+03  0.83149227107E+03  0.10100000352E+00 0. -1.
</event>
<event>
 5   0  0.1774934E-04  0.1598378E+04  0.7818609E-02  0.8821545E-01
        2   -1    0    0  501    0  0.00000000000E+00  0.00000000000E+00  0.16220823626E+04  0.16220823626E+04  0.25500000920E-02 0.  1.
       -2   -1    0    0    0  501  0.00000000000E+00  0.00000000000E+00 -0.39375512546E+03  0.39375512547E+03  0.25500000920E-02 0. -1.
    10030    2    1    2    0    0  0.00000000000E+00  0.00000000000E+00  0.12283272371E+04  0.20158374881E+04  0.15983782333E+04 0.  0.
        1    1    3    3  502    0  0.65389680716E+02 -0.14324769800E+03 -0.37399677093E+03  0.40579465006E+03  0.50400001928E-02 0. -1.
       -1    1    3    3    0  502 -0.65389680716E+02  0.14324769800E+03  0.16023240081E+04  0.16100428380E+04  0.50400001928E-02 0.  1.
</event>
<event>
 5   0  0.9726935E-05  0.1599770E+04  0.7818609E-02  0.8820689E-01
        1   -1    0    0  501    0  0.00000000000E+00  0.00000000000E+00  0.12283564532E+04  0.12283564532E+04  0.50400001928E-02 0. -1.
       -1   -1    0    0    0  501  0.00000000000E+00  0.00000000000E+00 -0.52087186859E+03  0.52087186862E+03  0.50400001928E-02 0.  1.
    10030    2    1    2    0    0  0.00000000000E+00  0.00000000000E+00  0.70748458462E+03  0.17492283218E+04  0.15997703849E+04 0.  0.
        2    1    3    3  502    0 -0.12169736685E+03  0.12908018751E+03  0.12065745066E+04  0.12195466305E+04  0.25500000920E-02 0. -1.
       -2    1    3    3    0  502  0.12169736685E+03 -0.12908018751E+03 -0.49908992200E+03  0.52968169135E+03  0.25500000920E-02 0.  1.
</event>
<event>
 5   0  0.9616567E-05  0.1605139E+04  0.7818609E-02  0.8817397E-01
        1   -1    0    0  501    0  0.00000000000E+00  0.00000000000E+00  0.66003766609E+03  0.66003766611E+03  0.50400001928E-02 0. -1.
       -1   -1    0    0    0  501  0.00000000000E+00  0.00000000000E+00 -0.97588080525E+03  0.97588080526E+03  0.50400001928E-02 0.  1.
    10030    2    1    2    0    0  0.00000000000E+00  0.00000000000E+00 -0.31584313915E+03  0.16359184714E+04  0.16051393573E+04 0.  0.
        5    1    3    3  502    0 -0.57993379313E+03 -0.48789699342E+03  0.11120502924E+03  0.76599956209E+03  0.46999998093E+01 0. -1.
       -5    1    3    3    0  502  0.57993379313E+03  0.48789699342E+03 -0.42704816839E+03  0.86991890928E+03  0.46999998093E+01 0.  1.
</event>
<event>
 5   0  0.9673017E-05  0.1517080E+04  0.7818609E-02  0.8873174E-01
       -1   -1    0    0    0  501  0.00000000000E+00  0.00000000000E+00  0.35902704204E+03  0.35902704208E+03  0.50400001928E-02 0.  1.
        1   -1    0    0  501    0  0.00000000000E+00  0.00000000000E+00 -0.16026166106E+04  0.16026166107E+04  0.50400001928E-02 0. -1.
    10030    2    1    2    0    0  0.00000000000E+00  0.00000000000E+00 -0.12435895686E+04  0.19616436527E+04  0.15170796964E+04 0.  0.
        1    1    3    3  502    0 -0.32350619961E+03 -0.41766811745E+03  0.82027042187E+02  0.53463197922E+03  0.50400001928E-02 0.  1.
       -1    1    3    3    0  502  0.32350619961E+03  0.41766811745E+03 -0.13256166108E+04  0.14270116735E+04  0.50400001928E-02 0. -1.
</event>
<event>
 5   0  0.1835088E-04  0.1597308E+04  0.7818609E-02  0.8822203E-01
       -2   -1    0    0    0  501  0.00000000000E+00  0.00000000000E+00  0.29648069660E+03  0.29648069661E+03  0.25500000920E-02 0. -1.
        2   -1    0    0  501    0  0.00000000000E+00  0.00000000000E+00 -0.21513990282E+04  0.21513990282E+04  0.25500000920E-02 0.  1.
    10030    2    1    2    0    0  0.00000000000E+00  0.00000000000E+00 -0.18549183316E+04  0.24478797248E+04  0.15973080887E+04 0.  0.
        5    1    3    3  502    0  0.58529608526E+03 -0.52880396640E+03 -0.73592048190E+03  0.10787984928E+04  0.46999998093E+01 0.  1.
       -5    1    3    3    0  502 -0.58529608526E+03  0.52880396640E+03 -0.11189978497E+04  0.13690812320E+04  0.46999998093E+01 0. -1.
</event>
<event>
 5   0  0.1914170E-04  0.1590824E+04  0.7818609E-02  0.8826205E-01
       -2   -1    0    0    0  501  0.00000000000E+00  0.00000000000E+00  0.93955246650E+03  0.93955246650E+03  0.25500000920E-02 0.  1.
        2   -1    0    0  501    0  0.00000000000E+00  0.00000000000E+00 -0.67338473150E+03  0.67338473150E+03  0.25500000920E-02 0. -1.
    10030    2    1    2    0    0  0.00000000000E+00  0.00000000000E+00  0.26616773500E+03  0.16129371980E+04  0.15908240448E+04 0.  0.
        3    1    3    3  502    0  0.84333083344E+01  0.77501750489E+03  0.31433405290E+03  0.83637859883E+03  0.10100000352E+00 0.  1.
       -3    1    3    3    0  502 -0.84333083344E+01 -0.77501750489E+03 -0.48166317902E+02  0.77655859917E+03  0.10100000352E+00 0. -1.
</event>
<event>
 5   0  0.1858913E-04  0.1602261E+04  0.7818609E-02  0.8819160E-01
       -2   -1    0    0    0  501  0.00000000000E+00  0.00000000000E+00  0.58523122511E+03  0.58523122512E+03  0.25500000920E-02 0. -1.
        2   -1    0    0  501    0  0.00000000000E+00  0.00000000000E+00 -0.10966772948E+04  0.10966772948E+04  0.25500000920E-02 0.  1.
    10030    2    1    2    0    0  0.00000000000E+00  0.00000000000E+00 -0.51144606969E+03  0.16819085199E+04  0.16022606490E+04 0.  0.
        4    1    3    3  502    0  0.21489536328E+03  0.58249185606E+03 -0.78718245864E+03  0.10025640207E+04  0.12699999809E+01 0.  1.
       -4    1    3    3    0  502 -0.21489536328E+03 -0.58249185606E+03  0.27573638894E+03  0.67934449922E+03  0.12699999809E+01 0. -1.
</event>
<event>
 5   0  0.1914170E-04  0.1598535E+04  0.7818609E-02  0.8821449E-01
       -2   -1    0    0    0  501  0.00000000000E+00  0.00000000000E+00  0.79054853321E+03  0.79054853321E+03  0.25500000920E-02 0.  1.
        2   -1    0    0  501    0  0.00000000000E+00  0.00000000000E+00 -0.80808227116E+03  0.80808227117E+03  0.25500000920E-02 0. -1.
    10030    2    1    2    0    0  0.00000000000E+00  0.00000000000E+00 -0.17533737956E+02  0.15986308044E+04  0.15985346467E+04 0.  0.
        3    1    3    3  502    0 -0.75470747113E+03  0.13797111036E+03 -0.23285366104E+03  0.80177317986E+03  0.10100000352E+00 0. -1.
       -3    1    3    3    0  502  0.75470747113E+03 -0.13797111036E+03  0.21531992309E+03  0.79685762452E+03  0.10100000352E+00 0.  1.
</event>
<event>
 5   0  0.9616567E-05  0.1598038E+04  0.7818609E-02  0.8821754E-01
       -1   -1    0    0    0  501  0.00000000000E+00  0.00000000000E+00  0.41628413934E+03  0.41628413937E+03  0.50400001928E-02 0.  1.
        1   -1    0    0  501    0  0.00000000000E+00  0.00000000000E+00 -0.15336424632E+04  0.15336424632E+04  0.50400001928E-02 0. -1.
    10030    2    1    2    0    0  0.00000000000E+00  0.00000000000E+00 -0.11173583239E+04  0.19499266026E+04  0.15980375877E+04 0.  0.
        5    1    3    3  502    0  0.35987153840E+03  0.64345370473E+03 -0.18284793643E+03  0.75960229866E+03  0.46999998093E+01 0.  1.
       -5    1    3    3    0  502 -0.35987153840E+03 -0.64345370473E+03 -0.93451038745E+03  0.11903243039E+04  0.46999998093E+01 0. -1.
</event>
<event>
 5   0  0.9432152E-05  0.1584488E+04  0.7818609E-02  0.8830135E-01
        1   -1    0    0  501    0  0.00000000000E+00  0.00000000000E+00  0.13746124635E+04  0.13746124635E+04  0.50400001928E-02 0.  1.
       -1   -1    0    0    0  501  0.00000000000E+00  0.00000000000E+00 -0.45660186919E+03  0.45660186922E+03  0.50400001928E-02 0. -1.
    10030    2    1    2    0    0  0.00000000000E+00  0.00000000000E+00  0.91801059435E+03  0.18312143328E+04  0.15844880817E+04 0.  0.
        4    1    3    3  502    0  0.32772459771E+03  0.43318764496E+03  0.11255164887E+04  0.12497375432E+04  0.12699999809E+01 0.  1.
       -4    1    3    3    0  502 -0.32772459771E+03 -0.43318764496E+03 -0.20750589435E+03  0.58147678955E+03  0.12699999809E+01 0. -1.
</event>
<event>
 5   0  0.9616567E-05  0.1614289E+04  0.7818609E-02  0.8811817E-01
        1   -1    0    0  501    0  0.00000000000E+00  0.00000000000E+00  0.16932193305E+04  0.16932193305E+04  0.50400001928E-02 0.  1.
       -1   -1    0    0    0  501  0.00000000000E+00  0.00000000000E+00 -0.38475955334E+03  0.38475955337E+03  0.50400001928E-02 0. -1.
    10030    2    1    2    0    0  0.00000000000E+00  0.00000000000E+00  0.13084597771E+04  0.20779788839E+04  0.16142890861E+04 0.  0.
        5    1    3    3  502    0  0.35351825865E+03  0.37772802625E+03 -0.14324320687E+03  0.53683733787E+03  0.46999998093E+01 0. -1.
       -5    1    3    3    0  502 -0.35351825865E+03 -0.37772802625E+03  0.14517029840E+04  0.15411415460E+04  0.46999998093E+01 0.  1.
</event>
<event>
 5   0  0.9432152E-05  0.1571600E+04  0.7818609E-02  0.8838188E-01
       -1   -1    0    0    0  501  0.00000000000E+00  0.00000000000E+00  0.11201665644E+04  0.11201665644E+04  0.50400001928E-02 0.  1.
        1   -1    0    0  501    0  0.00000000000E+00  0.00000000000E+00 -0.55124062185E+03  0.55124062187E+03  0.50400001928E-02 0. -1.
    10030    2    1    2    0    0  0.00000000000E+00  0.00000000000E+00  0.56892594257E+03  0.16714071863E+04  0.15715995846E+04 0.  0.
        4    1    3    3  502    0  0.18297663152E+03  0.74880930671E+03  0.44674408925E+03  0.89094204058E+03  0.12699999809E+01 0. -1.
       -4    1    3    3    0  502 -0.18297663152E+03 -0.74880930671E+03  0.12218185333E+03  0.78046514572E+03  0.12699999809E+01 0.  1.
</event>
<event>
 5   0  0.1914170E-04  0.1596355E+04  0.7818609E-02  0.8822791E-01
       -2   -1    0    0    0  501  0.00000000000E+00  0.00000000000E+00  0.43244293821E+03  0.43244293822E+03  0.25500000920E-02 0.  1.
        2   -1    0    0  501    0  0.00000000000E+00  0.00000000000E+00 -0.14732283128E+04  0.14732283128E+04  0.25500000920E-02 0. -1.
    10030    2    1    2    0    0  0.00000000000E+00  0.00000000000E+00 -0.10407853745E+04  0.19056712510E+04  0.15963548230E+04 0.  0.
        3    1    3    3  502    0 -0.21371943451E+03  0.66157811149E+03 -0.52343368299E+02  0.69720974799E+03  0.10100000352E+00 0.  1.
       -3    1    3    3    0  502  0.21371943451E+03 -0.66157811149E+03 -0.98844200625E+03  0.12084615030E+04  0.10100000352E+00 0. -1.
</event>
<event>
 5   0  0.9939872E-05  0.1630922E+04  0.7818609E-02  0.8801773E-01
       -1   -1    0    0    0  501  0.00000000000E+00  0.00000000000E+00  0.80577942309E+03  0.80577942311E+03  0.50400001928E-02 0. -1.
        1   -1    0    0  501    0  0.00000000000E+00  0.00000000000E+00 -0.82525902824E+03  0.82525902826E+03  0.50400001928E-02 0.  1.
    10030    2    1    2    0    0  0.00000000000E+00  0.00000000000E+00 -0.19479605150E+02  0.16310384514E+04  0.16309221241E+04 0.  0.
        3    1    3    3  502    0  0.60063363181E+02  0.66961966463E+02  0.80080256547E+03  0.80583886206E+03  0.10100000352E+00 0. -1.
       -3    1    3    3    0  502 -0.60063363181E+02 -0.66961966463E+02 -0.82028217062E+03  0.82519958930E+03  0.10100000352E+00 0.  1.
</event>
<event>
 5   0  0.1835088E-04  0.1616847E+04  0.7818609E-02  0.8810265E-01
        2   -1    0    0  501    0  0.00000000000E+00  0.00000000000E+00  0.11061179158E+04  0.11061179158E+04  0.25500000920E-02 0. -1.
       -2   -1    0    0    0  501  0.00000000000E+00  0.00000000000E+00 -0.59084856902E+03  0.59084856903E+03  0.25500000920E-02 0.  1.
    10030    2    1    2    0    0  0.00000000000E+00  0.00000000000E+00  0.51526934680E+03  0.16969664849E+04  0.16168465453E+04 0.  0.
        5    1    3    3  502    0  0.49415685472E+03 -0.11267625847E+03  0.91863588827E+03  0.10491906030E+04  0.46999998093E+01 0. -1.
       -5    1    3    3    0  502 -0.49415685472E+03  0.11267625847E+03 -0.40336654146E+03  0.64777588181E+03  0.46999998093E+01 0.  1.
</event>
<event>
 5   0  0.1914170E-04  0.1555449E+04  0.7818609E-02  0.8848395E-01
       -2   -1    0    0    0  501  0.00000000000E+00  0.00000000000E+00  0.42284817145E+03  0.42284817145E+03  0.25500000920E-02 0.  1.
        2   -1    0    0  501    0  0.00000000000E+00  0.00000000000E+00 -0.14304320219E+04  0.14304320219E+04  0.25500000920E-02 0. -1.
    10030    2    1    2    0    0  0.00000000000E+00  0.00000000000E+00 -0.10075838504E+04  0.18532801933E+04  0.15554492146E+04 0.  0.
        3    1    3    3  502    0  0.37349535299E+03  0.20314233125E+03  0.27212325486E+03  0.50479368210E+03  0.10100000352E+00 0.  1.
       -3    1    3    3    0  502 -0.37349535299E+03 -0.20314233125E+03 -0.12797071053E+04  0.13484865112E+04  0.10100000352E+00 0. -1.
</event>
<event>
 5   0  0.9939872E-05  0.1601112E+04  0.7818609E-02  0.8819865E-01
       -1   -1    0    0    0  501  0.00000000000E+00  0.00000000000E+00  0.11606119571E+04  0.11606119571E+04  0.50400001928E-02 0. -1.
        1   -1    0    0  501    0  0.00000000000E+00  0.00000000000E+00 -0.55220017800E+03  0.55220017803E+03  0.50400001928E-02 0.  1.
    10030    2    1    2    0    0  0.00000000000E+00  0.00000000000E+00  0.60841177909E+03  0.17128121351E+04  0.16011122751E+04 0.  0.
        3    1    3    3  502    0  0.59821145214E+03  0.21953389892E+03  0.82261445928E+03  0.10405511199E+04  0.10100000352E+00 0. -1.
       -3    1    3    3    0  502 -0.59821145214E+03 -0.21953389892E+03 -0.21420268019E+03  0.67226101526E+03  0.10100000352E+00 0.  1.
</event>
<event>
 5   0  0.1858913E-04  0.1574150E+04  0.7818609E-02  0.8836588E-01
       -2   -1    0    0    0  501  0.00000000000E+00  0.00000000000E+00  0.37360882549E+03  0.37360882550E+03  0.25500000920E-02 0. -1.
        2   -1    0    0  501    0  0.00000000000E+00  0.00000000000E+00 -0.16581157922E+04  0.16581157922E+04  0.25500000920E-02 0.  1.
    10030    2    1    2    0    0  0.00000000000E+00  0.00000000000E+00 -0.12845069667E+04  0.20317246177E+04  0.15741495401E+04 0.  0.
        4    1    3    3  502    0 -0.24576489374E+03 -0.28598844832E+03 -0.15339404879E+04  0.15796090684E+04  0.12699999809E+01 0.  1.
       -4    1    3    3    0  502  0.24576489374E+03  0.28598844832E+03  0.24943352117E+03  0.45211554934E+03  0.12699999809E+01 0. -1.
</event>
<event>
 5   0  0.6838750E-05  0.1599767E+04  0.7818609E-02  0.8820691E-01
        4   -1    0    0  501    0  0.00000000000E+00  0.00000000000E+00  0.63490210113E+03  0.63490337133E+03  0.12699999809E+01 0.  1.
       -4   -1    0    0    0  501  0.00000000000E+00  0.00000000000E+00 -0.10077326683E+04  0.10077334685E+04  0.12699999809E+01 0. -1.
    10030    2    1    2    0    0  0.00000000000E+00  0.00000000000E+00 -0.37283056715E+03  0.16426368399E+04  0.15997665942E+04 0.  0.
        2    1    3    3  502    0  0.43019402215E+03 -0.18442600029E+03 -0.85243709479E+03  0.97248591088E+03  0.25500000920E-02 0. -1.
       -2    1    3    3    0  502 -0.43019402215E+03  0.18442600029E+03  0.47960652764E+03  0.67015092899E+03  0.25500000920E-02 0.  1.
</event>
<event>
 5   0  0.9726935E-05  0.1623031E+04  0.7818609E-02  0.8806523E-01
       -1   -1    0    0    0  501  0.00000000000E+00  0.00000000000E+00  0.13976240237E+04  0.13976240237E+04  0.50400001928E-02 0. -1.
        1   -1    0    0  501    0  0.00000000000E+00  0.00000000000E+00 -0.47119785052E+03  0.47119785055E+03  0.50400001928E-02 0.  1.
    10030    2    1    2    0    0  0.00000000000E+00  0.00000000000E+00  0.92642617317E+03  0.18688218743E+04  0.16230310359E+04 0.  0.
        2    1    3    3  502    0  0.10646876732E+03 -0.80346878634E+03  0.41630345711E+03  0.91115654937E+03  0.25500000920E-02 0.  1.
       -2    1    3    3    0  502 -0.10646876732E+03  0.80346878634E+03  0.51012271606E+03  0.95766532489E+03  0.25500000920E-02 0. -1.
</event>
<event>
 5   0  0.9432152E-05  0.1594618E+04  0.7818609E-02  0.8823861E-01
       -1   -1    0    0    0  501  0.00000000000E+00  0.00000000000E+00  0.86641110239E+03  0.86641110241E+03  0.50400001928E-02 0. -1.
        1   -1    0    0  501    0  0.00000000000E+00  0.00000000000E+00 -0.73371798914E+03  0.73371798916E+03  0.50400001928E-02 0.  1.
    10030    2    1    2    0    0  0.00000000000E+00  0.00000000000E+00  0.13269311325E+03  0.16001290916E+04  0.15946177120E+04 0.  0.
        4    1    3    3  502    0  0.25338424382E+03 -0.12219976593E+03 -0.68226370373E+03  0.73798491322E+03  0.12699999809E+01 0.  1.
       -4    1    3    3    0  502 -0.25338424382E+03  0.12219976593E+03  0.81495681699E+03  0.86214417835E+03  0.12699999809E+01 0. -1.
</event>
<event>
 5   0  0.9939872E-05  0.1575525E+04  0.7818609E-02  0.8835727E-01
       -1   -1    0    0    0  501  0.00000000000E+00  0.00000000000E+00  0.39570706302E+03  0.39570706306E+03  0.50400001928E-02 0. -1.
        1   -1    0    0  501    0  0.00000000000E+00  0.00000000000E+00 -0.15682557348E+04  0.15682557349E+04  0.50400001928E-02 0.  1.
    10030    2    1    2    0    0  0.00000000000E+00  0.00000000000E+00 -0.11725486718E+04  0.19639627979E+04  0.15755251454E+04 0.  0.
        3    1    3    3  502    0  0.81958361753E+02 -0.29060466470E+03 -0.14932602652E+04  0.15234810383E+04  0.10100000352E+00 0.  1.
       -3    1    3    3    0  502 -0.81958361753E+02  0.29060466470E+03  0.32071159339E+03  0.44048175960E+03  0.10100000352E+00 0. -1.
</event>
<event>
 5   0  0.9616567E-05  0.1595725E+04  0.7818609E-02  0.8823178E-01
       -1   -1    0    0    0  501  0.00000000000E+00  0.00000000000E+00  0.64124199767E+03  0.64124199769E+03  0.50400001928E-02 0.  1.
        1   -1    0    0  501    0  0.00000000000E+00  0.00000000000E+00 -0.99273742505E+03  0.99273742506E+03  0.50400001928E-02 0. -1.
    10030    2    1    2    0    0  0.00000000000E+00  0.00000000000E+00 -0.35149542738E+03  0.16339794228E+04  0.15957254521E+04 0.  0.
        5    1    3    3  502    0 -0.10369410698E+03  0.78994051653E+03 -0.13225173950E+03  0.80763302314E+03  0.46999998093E+01 0.  1.
       -5    1    3    3    0  502  0.10369410698E+03 -0.78994051653E+03 -0.21924368787E+03  0.82634639961E+03  0.46999998093E+01 0. -1.
</event>
<event>
 5   0  0.1774934E-04  0.1597639E+04  0.7818609E-02  0.8822000E-01
       -2   -1    0    0    0  501  0.00000000000E+00  0.00000000000E+00  0.37158613630E+03  0.37158613631E+03  0.25500000920E-02 0. -1.
        2   -1    0    0  501    0  0.00000000000E+00  0.00000000000E+00 -0.17172676645E+04  0.17172676645E+04  0.25500000920E-02 0.  1.
    10030    2    1    2    0    0  0.00000000000E+00  0.00000000000E+00 -0.13456815282E+04  0.20888538008E+04  0.15976393291E+04 0.  0.
        1    1    3    3  502    0  0.74829883561E+03 -0.62032701185E+02 -0.31641949937E+03  0.81481317061E+03  0.50400001928E-02 0. -1.
       -1    1    3    3    0  502 -0.74829883561E+03  0.62032701185E+02 -0.10292620288E+04  0.12740406302E+04  0.50400001928E-02 0.  1.
</event>
<event>
 5   0  0.9673017E-05  0.1588123E+04  0.7818609E-02  0.8827878E-01
       -1   -1    0    0    0  501  0.00000000000E+00  0.00000000000E+00  0.29949033118E+03  0.29949033122E+03  0.50400001928E-02 0.  1.
        1   -1    0    0  501    0  0.00000000000E+00  0.00000000000E+00 -0.21053554495E+04  0.21053554495E+04  0.50400001928E-02 0. -1.
    10030    2    1    2    0    0  0.00000000000E+00  0.00000000000E+00 -0.18058651183E+04  0.24048457807E+04  0.15881229183E+04 0.  0.
        1    1    3    3  502    0 -0.57156479794E+03  0.51817955551E+03 -0.61827719338E+03  0.98866731405E+03  0.50400001928E-02 0.  1.
       -1    1    3    3    0  502  0.57156479794E+03 -0.51817955551E+03 -0.11875879249E+04  0.14161784666E+04  0.50400001928E-02 0. -1.
</event>
<event>
 5   0  0.1774934E-04  0.1603837E+04  0.7818609E-02  0.8818194E-01
       -2   -1    0    0    0  501  0.00000000000E+00  0.00000000000E+00  0.55580316961E+03  0.55580316961E+03  0.25500000920E-02 0. -1.
        2   -1    0    0  501    0  0.00000000000E+00  0.00000000000E+00 -0.11570164422E+04  0.11570164422E+04  0.25500000920E-02 0.  1.
    10030    2    1    2    0    0  0.00000000000E+00  0.00000000000E+00 -0.60121327256E+03  0.17128196118E+04  0.16038371561E+04 0.  0.
        1    1    3    3  502    0 -0.29772364055E+00 -0.77281470565E+03 -0.52923485289E+03  0.93666012377E+03  0.50400001928E-02 0.  1.
       -1    1    3    3    0  502  0.29772364055E+00  0.77281470565E+03 -0.71978419668E+02  0.77615948801E+03  0.50400001928E-02 0. -1.
</event>
<event>
 5   0  0.9939872E-05  0.1593708E+04  0.7818609E-02  0.8824423E-01
       -1   -1    0    0    0  501  0.00000000000E+00  0.00000000000E+00  0.42166037719E+03  0.42166037722E+03  0.50400001928E-02 0. -1.
        1   -1    0    0  501    0  0.00000000000E+00  0.00000000000E+00 -0.15058945699E+04  0.15058945699E+04  0.50400001928E-02 0.  1.
    10030    2    1    2    0    0  0.00000000000E+00  0.00000000000E+00 -0.10842341927E+04  0.19275549471E+04  0.15937077177E+04 0.  0.
        3    1    3    3  502    0 -0.25364802090E+03  0.28059202191E+03  0.30616349637E+03  0.48662644603E+03  0.10100000352E+00 0. -1.
       -3    1    3    3    0  502  0.25364802090E+03 -0.28059202191E+03 -0.13903976891E+04  0.14409285011E+04  0.10100000352E+00 0.  1.
</event>
<event>
 5   0  0.9726935E-05  0.1596230E+04  0.7818609E-02  0.8822867E-01
       -1   -1    0    0    0  501  0.00000000000E+00  0.00000000000E+00  0.58630323916E+03  0.58630323918E+03  0.50400001928E-02 0. -1.
        1   -1    0    0  501    0  0.00000000000E+00  0.00000000000E+00 -0.10864477875E+04  0.10864477875E+04  0.50400001928E-02 0.  1.
    10030    2    1    2    0    0  0.00000000000E+00  0.00000000000E+00 -0.50014454833E+03  0.16727510267E+04  0.15962303806E+04 0.  0.
        2    1    3    3  502    0 -0.50191397022E+03 -0.55195059360E+03 -0.54725244956E+03  0.92523096296E+03  0.25500000920E-02 0.  1.
       -2    1    3    3    0  502  0.50191397022E+03  0.55195059360E+03  0.47107901230E+02  0.74752006371E+03  0.25500000920E-02 0. -1.
</event>
<event>
 5   0  0.9616567E-05  0.1619350E+04  0.7818609E-02  0.8808748E-01
       -1   -1    0    0    0  501  0.00000000000E+00  0.00000000000E+00  0.60141727908E+03  0.60141727910E+03  0.50400001928E-02 0.  1.
        1   -1    0    0  501    0  0.00000000000E+00  0.00000000000E+00 -0.10900481976E+04  0.10900481976E+04  0.50400001928E-02 0. -1.
    10030    2    1    2    0    0  0.00000000000E+00  0.00000000000E+00 -0.48863091856E+03  0.16914654767E+04  0.16193502661E+04 0.  0.
        5    1    3    3  502    0  0.42315660455E+03 -0.61211077580E+03  0.88971926214E+02  0.74945260523E+03  0.46999998093E+01 0.  1.
       -5    1    3    3    0  502 -0.42315660455E+03  0.61211077580E+03 -0.57760284477E+03  0.94201287152E+03  0.46999998093E+01 0. -1.
</event>
<event>
 5   0  0.1835088E-04  0.1595892E+04  0.7818609E-02  0.8823076E-01
        2   -1    0    0  501    0  0.00000000000E+00  0.00000000000E+00  0.79443126526E+03  0.79443126527E+03  0.25500000920E-02 0. -1.
       -2   -1    0    0    0  501  0.00000000000E+00  0.00000000000E+00 -0.80147581774E+03  0.80147581775E+03  0.25500000920E-02 0.  1.
    10030    2    1    2    0    0  0.00000000000E+00  0.00000000000E+00 -0.70445524824E+01  0.15959070830E+04  0.15958915351E+04 0.  0.
        5    1    3    3  502    0  0.17923486593E+02  0.31342640549E+03 -0.73710831793E+03  0.80119169079E+03  0.46999998093E+01 0.  1.
       -5    1    3    3    0  502 -0.17923486593E+02 -0.31342640549E+03  0.73006376545E+03  0.79471539223E+03  0.46999998093E+01 0. -1.
</event>
<event>
 5   0  0.1835088E-04  0.1635443E+04  0.7818609E-02  0.8799065E-01
       -2   -1    0    0    0  501  0.00000000000E+00  0.00000000000E+00  0.70418563807E+03  0.70418563807E+03  0.25500000920E-02 0. -1.
        2   -1    0    0  501    0  0.00000000000E+00  0.00000000000E+00 -0.94956239292E+03  0.94956239292E+03  0.25500000920E-02 0.  1.
    10030    2    1    2    0    0  0.00000000000E+00  0.00000000000E+00 -0.24537675485E+03  0.16537480310E+04  0.16354426918E+04 0.  0.
        5    1    3    3  502    0  0.77522257923E+02 -0.43506665704E+03  0.57301925208E+03  0.72364760056E+03  0.46999998093E+01 0. -1.
       -5    1    3    3    0  502 -0.77522257923E+02  0.43506665704E+03 -0.81839600693E+03  0.93010043044E+03  0.46999998093E+01 0.  1.
</event>
<event>
 5   0  0.1835088E-04  0.1599971E+04  0.7818609E-02  0.8820566E-01
       -2   -1    0    0    0  501  0.00000000000E+00  0.00000000000E+00  0.27301693270E+03  0.27301693271E+03  0.25500000920E-02 0. -1.
        2   -1    0    0  501    0  0.00000000000E+00  0.00000000000E+00 -0.23440929713E+04  0.23440929713E+04  0.25500000920E-02 0.  1.
    10030    2    1    2    0    0  0.00000000000E+00  0.00000000000E+00 -0.20710760386E+04  0.26171099040E+04  0.15999713410E+04 0.  0.
        5    1    3    3  502    0  0.39599927393E+03  0.68855096263E+02  0.95832029664E+02  0.41323397385E+03  0.46999998093E+01 0. -1.
       -5    1    3    3    0  502 -0.39599927393E+03 -0.68855096263E+02 -0.21669080682E+04  0.22038759301E+04  0.46999998093E+01 0.  1.
</event>
<event>
 5   0  0.9432152E-05  0.1567868E+04  0.7818609E-02  0.8840535E-01
       -1   -1    0    0    0  501  0.00000000000E+00  0.00000000000E+00  0.46105797528E+03  0.46105797531E+03  0.50400001928E-02 0.  1.
        1   -1    0    0  501    0  0.00000000000E+00  0.00000000000E+00 -0.13329184165E+04  0.13329184165E+04  0.50400001928E-02 0. -1.
    10030    2    1    2    0    0  0.00000000000E+00  0.00000000000E+00 -0.87186044120E+03  0.17939763918E+04  0.15678681913E+04 0.  0.
        4    1    3    3  502    0  0.77784130098E+03  0.21578605526E+02 -0.32708951831E+03  0.84409234780E+03  0.12699999809E+01 0.  1.
       -4    1    3    3    0  502 -0.77784130098E+03 -0.21578605526E+02 -0.54477092289E+03  0.94988404400E+03  0.12699999809E+01 0. -1.
</event>
<event>
 5   0  0.1832646E-04  0.1495911E+04  0.7818609E-02  0.8887177E-01
        2   -1    0    0  501    0  0.00000000000E+00  0.00000000000E+00  0.22725429109E+04  0.22725429109E+04  0.25500000920E-02 0.  1.
       -2   -1    0    0    0  501  0.00000000000E+00  0.00000000000E+00 -0.24617239139E+03  0.24617239140E+03  0.25500000920E-02 0. -1.
    10030    2    1    2    0    0  0.00000000000E+00  0.00000000000E+00  0.20263705195E+04  0.25187153023E+04  0.14959108569E+04 0.  0.
        2    1    3    3  502    0  0.52993947080E+03  0.23362928075E+03  0.21626358682E+03  0.61821389707E+03  0.25500000920E-02 0. -1.
       -2    1    3    3    0  502 -0.52993947080E+03 -0.23362928075E+03  0.18101069327E+04  0.19005014053E+04  0.25500000920E-02 0.  1.
</event>
<event>
 5   0  0.1914170E-04  0.1598775E+04  0.7818609E-02  0.8821301E-01
       -2   -1    0    0    0  501  0.00000000000E+00  0.00000000000E+00  0.28773342532E+03  0.28773342533E+03  0.25500000920E-02 0. -1.
        2   -1    0    0  501    0  0.00000000000E+00  0.00000000000E+00 -0.22208761637E+04  0.22208761637E+04  0.25500000920E-02 0.  1.
    10030    2    1    2    0    0  0.00000000000E+00  0.00000000000E+00 -0.19331427384E+04  0.25086095890E+04  0.15987749132E+04 0.  0.
        3    1    3    3  502    0 -0.12382132029E+03  0.74340002718E+03 -0.13847987272E+04  0.15765921618E+04  0.10100000352E+00 0.  1.
       -3    1    3    3    0  502  0.12382132029E+03 -0.74340002718E+03 -0.54834401120E+03  0.93201742719E+03  0.10100000352E+00 0. -1.
</event>
<event>
 5   0  0.9673017E-05  0.1585022E+04  0.7818609E-02  0.8829803E-01
       -1   -1    0    0    0  501  0.00000000000E+00  0.00000000000E+00  0.93121568994E+03  0.93121568995E+03  0.50400001928E-02 0.  1.
        1   -1    0    0  501    0  0.00000000000E+00  0.00000000000E+00 -0.67446655103E+03  0.67446655105E+03  0.50400001928E-02 0. -1.
    10030    2    1    2    0    0  0.00000000000E+00  0.00000000000E+00  0.25674913891E+03  0.16056822410E+04  0.15850221887E+04 0.  0.
        1    1    3    3  502    0  0.24461970423E+03  0.25838799852E+03  0.84575087717E+03  0.91754983719E+03  0.50400001928E-02 0.  1.
       -1    1    3    3    0  502 -0.24461970423E+03 -0.25838799852E+03 -0.58900173826E+03  0.68813240381E+03  0.50400001928E-02 0. -1.
</event>
<event>
 5   0  0.1914170E-04  0.1591923E+04  0.7818609E-02  0.8825526E-01
        2   -1    0    0  501    0  0.00000000000E+00  0.00000000000E+00  0.77000783905E+03  0.77000783905E+03  0.25500000920E-02 0.  1.
       -2   -1    0    0    0  501  0.00000000000E+00  0.00000000000E+00 -0.82278975704E+03  0.82278975705E+03  0.25500000920E-02 0. -1.
    10030    2    1    2    0    0  0.00000000000E+00  0.00000000000E+00 -0.52781917994E+02  0.15927975961E+04  0.15919228157E+04 0.  0.
        3    1    3    3  502    0 -0.70702981798E+03  0.22370434101E+02  0.33872456001E+03  0.78429964783E+03  0.10100000352E+00 0.  1.
       -3    1    3    3    0  502  0.70702981798E+03 -0.22370434101E+02 -0.39150647801E+03  0.80849794827E+03  0.10100000352E+00 0. -1.
</event>
<event>
 5   0  0.9432152E-05  0.1604325E+04  0.7818609E-02  0.8817895E-01
        1   -1    0    0  501    0  0.00000000000E+00  0.00000000000E+00  0.54215189191E+03  0.54215189193E+03  0.50400001928E-02 0.  1.
       -1   -1    0    0    0  501  0.00000000000E+00  0.00000000000E+00 -0.11868714392E+04  0.11868714392E+04  0.50400001928E-02 0. -1.
    10030    2    1    2    0    0  0.00000000000E+00  0.00000000000E+00 -0.64471954729E+03  0.17290233311E+04  0.16043249001E+04 0.  0.
        4    1    3    3  502    0  0.54681033273E+03 -0.24901301050E+03 -0.89513254815E+03  0.10780876175E+04  0.12699999809E+01 0. -1.
       -4    1    3    3    0  502 -0.54681033273E+03  0.24901301050E+03  0.25041300085E+03  0.65093571363E+03  0.12699999809E+01 0.  1.
</event>
<event>
 5   0  0.1835088E-04  0.1604521E+04  0.7818609E-02  0.8817776E-01
       -2   -1    0    0    0  501  0.00000000000E+00  0.00000000000E+00  0.59277538396E+03  0.59277538397E+03  0.25500000920E-02 0.  1.
        2   -1    0    0  501    0  0.00000000000E+00  0.00000000000E+00 -0.10857767090E+04  0.10857767090E+04  0.25500000920E-02 0. -1.
    10030    2    1    2    0    0  0.00000000000E+00  0.00000000000E+00 -0.49300132503E+03  0.16785520930E+04  0.16045207454E+04 0.  0.
        5    1    3    3  502    0 -0.56749271377E+03 -0.14010005239E+03  0.32832748444E+03  0.67044539815E+03  0.46999998093E+01 0.  1.
       -5    1    3    3    0  502  0.56749271377E+03  0.14010005239E+03 -0.82132880948E+03  0.10081066948E+04  0.46999998093E+01 0. -1.
</event>
<event>
 5   0  0.9939872E-05  0.1602030E+04  0.7818609E-02  0.8819302E-01
       -1   -1    0    0    0  501  0.00000000000E+00  0.00000000000E+00  0.13261809136E+04  0.13261809136E+04  0.50400001928E-02 0.  1.
        1   -1    0    0  501    0  0.00000000000E+00  0.00000000000E+00 -0.48381407966E+03  0.48381407969E+03  0.50400001928E-02 0. -1.
    10030    2    1    2    0    0  0.00000000000E+00  0.00000000000E+00  0.84236683396E+03  0.18099949933E+04  0.16020299600E+04 0.  0.
        3    1    3    3  502    0  0.36594683699E+03  0.12627076936E+02  0.12260900308E+04  0.12795988842E+04  0.10100000352E+00 0.  1.
       -3    1    3    3    0  502 -0.36594683699E+03 -0.12627076936E+02 -0.38372319685E+03  0.53039610913E+03  0.10100000352E+00 0. -1.
</event>
<event>
 5   0  0.1832646E-04  0.1600540E+04  0.7818609E-02  0.8820217E-01
       -2   -1    0    0    0  501  0.00000000000E+00  0.00000000000E+00  0.68128161462E+03  0.68128161462E+03  0.25500000920E-02 0. -1.
        2   -1    0    0  501    0  0.00000000000E+00  0.00000000000E+00 -0.94003981389E+03  0.94003981389E+03  0.25500000920E-02 0.  1.
    10030    2    1    2    0    0  0.00000000000E+00  0.00000000000E+00 -0.25875819927E+03  0.16213214285E+04  0.16005397117E+04 0.  0.
        2    1    3    3  502    0 -0.29453967871E+03 -0.38638164317E+02  0.62336107211E+03  0.69052556528E+03  0.25500000920E-02 0. -1.
       -2    1    3    3    0  502  0.29453967871E+03  0.38638164317E+02 -0.88211927138E+03  0.93079586324E+03  0.25500000920E-02 0.  1.
</event>
<event>
 5   0  0.9616567E-05  0.1581198E+04  0.7818609E-02  0.8832183E-01
        1   -1    0    0  501    0  0.00000000000E+00  0.00000000000E+00  0.10281179415E+04  0.10281179415E+04  0.50400001928E-02 0. -1.
       -1   -1    0    0    0  501  0.00000000000E+00  0.00000000000E+00 -0.60795270536E+03  0.60795270538E+03  0.50400001928E-02 0.  1.
    10030    2    1    2    0    0  0.00000000000E+00  0.00000000000E+00  0.42016523612E+03  0.16360706469E+04  0.15811983860E+04 0.  0.
        5    1    3    3  502    0  0.76048175639E+03  0.20656527786E+03  0.14445211688E+03  0.80118051642E+03  0.46999998093E+01 0. -1.
       -5    1    3    3    0  502 -0.76048175639E+03 -0.20656527786E+03  0.27571311924E+03  0.83489013046E+03  0.46999998093E+01 0.  1.
</event>
<event>
 5   0  0.9726935E-05  0.1603791E+04  0.7818609E-02  0.8818222E-01
        1   -1    0    0  501    0  0.00000000000E+00  0.00000000000E+00  0.10778595359E+04  0.10778595359E+04  0.50400001928E-02 0.  1.
       -1   -1    0    0    0  501  0.00000000000E+00  0.00000000000E+00 -0.59658678231E+03  0.59658678233E+03  0.50400001928E-02 0. -1.
    10030    2    1    2    0    0  0.00000000000E+00  0.00000000000E+00  0.48127275359E+03  0.16744463182E+04  0.16037914482E+04 0.  0.
        2    1    3    3  502    0  0.14966871865E+03 -0.58138532108E+03  0.79568402117E+03  0.99675607772E+03  0.25500000920E-02 0.  1.
       -2    1    3    3    0  502 -0.14966871865E+03  0.58138532108E+03 -0.31441126758E+03  0.67769024053E+03  0.25500000920E-02 0. -1.
</event>
<event>
 5   0  0.9616567E-05  0.1600206E+04  0.7818609E-02  0.8820421E-01
       -1   -1    0    0    0  501  0.00000000000E+00  0.00000000000E+00  0.53906950664E+03  0.53906950667E+03  0.50400001928E-02 0. -1.
        1   -1    0    0  501    0  0.00000000000E+00  0.00000000000E+00 -0.11875371470E+04  0.11875371471E+04  0.50400001928E-02 0.  1.
    10030    2    1    2    0    0  0.00000000000E+00  0.00000000000E+00 -0.64846764040E+03  0.17266066537E+04  0.16002063167E+04 0.  0.
        5    1    3    3  502    0  0.73925275224E+03 -0.22708702394E+03 -0.10289662781E+03  0.78017495099E+03  0.46999998093E+01 0. -1.
       -5    1    3    3    0  502 -0.73925275224E+03  0.22708702394E+03 -0.54557101259E+03  0.94643170272E+03  0.46999998093E+01 0.  1.
</event>
<event>
 5   0  0.1835088E-04  0.1600879E+04  0.7818609E-02  0.8820008E-01
        2   -1    0    0  501    0  0.00000000000E+00  0.00000000000E+00  0.12272187173E+04  0.12272187173E+04  0.25500000920E-02 0. -1.
       -2   -1    0    0    0  501  0.00000000000E+00  0.00000000000E+00 -0.52207776312E+03  0.52207776312E+03  0.25500000920E-02 0.  1.
    10030    2    1    2    0    0  0.00000000000E+00  0.00000000000E+00  0.70514095414E+03  0.17492964804E+04  0.16008792619E+04 0.  0.
        5    1    3    3  502    0 -0.46565811273E+03 -0.10017641268E+03  0.10554884748E+04  0.11579943014E+04  0.46999998093E+01 0. -1.
       -5    1    3    3    0  502  0.46565811273E+03  0.10017641268E+03 -0.35034752068E+03  0.59130217897E+03  0.46999998093E+01 0.  1.
</event>
<event>
 5   0  0.9616567E-05  0.1640225E+04  0.7818609E-02  0.8796210E-01
        1   -1    0    0  501    0  0.00000000000E+00  0.00000000000E+00  0.98773173564E+03  0.98773173565E+03  0.50400001928E-02 0. -1.
       -1   -1    0    0    0  501  0.00000000000E+00  0.00000000000E+00 -0.68093875877E+03  0.68093875878E+03  0.50400001928E-02 0.  1.
    10030    2    1    2    0    0  0.00000000000E+00  0.00000000000E+00  0.30679297687E+03  0.16686704944E+04  0.16402253773E+04 0.  0.
        5    1    3    3  502    0  0.38586136107E+03  0.21287965055E+03  0.85702377192E+03  0.96370045720E+03  0.46999998093E+01 0. -1.
       -5    1    3    3    0  502 -0.38586136107E+03 -0.21287965055E+03 -0.55023079504E+03  0.70497003723E+03  0.46999998093E+01 0.  1.
</event>
<event>
 5   0  0.1774934E-04  0.1596719E+04  0.7818609E-02  0.8822566E-01
       -2   -1    0    0    0  501  0.00000000000E+00  0.00000000000E+00  0.72032574823E+03  0.72032574823E+03  0.25500000920E-02 0.  1.
        2   -1    0    0  501    0  0.00000000000E+00  0.00000000000E+00 -0.88484637673E+03  0.88484637674E+03  0.25500000920E-02 0. -1.
    10030    2    1    2    0    0  0.00000000000E+00  0.00000000000E+00 -0.16452062851E+03  0.16051721250E+04  0.15967186708E+04 0.  0.
        1    1    3    3  502    0 -0.70539238717E+01 -0.79821836135E+03 -0.68949439035E+02  0.80122177667E+03  0.50400001928E-02 0. -1.
       -1    1    3    3    0  502  0.70539238717E+01  0.79821836135E+03 -0.95571189471E+02  0.80395034830E+03  0.50400001928E-02 0.  1.
</event>
<event>
 5   0  0.1835088E-04  0.1594436E+04  0.7818609E-02  0.8823973E-01
       -2   -1    0    0    0  501  0.00000000000E+00  0.00000000000E+00  0.65225984126E+03  0.65225984127E+03  0.25500000920E-02 0. -1.
        2   -1    0    0  501    0  0.00000000000E+00  0.00000000000E+00 -0.97439212747E+03  0.97439212747E+03  0.25500000920E-02 0.  1.
    10030    2    1    2    0    0  0.00000000000E+00  0.00000000000E+00 -0.32213228620E+03  0.16266519687E+04  0.15944363950E+04 0.  0.
        5    1    3    3  502    0  0.29788314682E+03 -0.22861969488E+03 -0.87850562278E+03  0.95540334587E+03  0.46999998093E+01 0.  1.
       -5    1    3    3    0  502 -0.29788314682E+03  0.22861969488E+03  0.55637333658E+03  0.67124862287E+03  0.46999998093E+01 0. -1.
</event>
<event>
 5   0  0.1835088E-04  0.1598329E+04  0.7818609E-02  0.8821575E-01
        2   -1    0    0  501    0  0.00000000000E+00  0.00000000000E+00  0.58926205545E+03  0.58926205546E+03  0.25500000920E-02 0.  1.
       -2   -1    0    0    0  501  0.00000000000E+00  0.00000000000E+00 -0.10838361958E+04  0.10838361958E+04  0.25500000920E-02 0. -1.
    10030    2    1    2    0    0  0.00000000000E+00  0.00000000000E+00 -0.49457414035E+03  0.16730982513E+04  0.15983285576E+04 0.  0.
        5    1    3    3  502    0 -0.39858121904E+03 -0.47317837022E+02 -0.97065327052E+03  0.10503788971E+04  0.46999998093E+01 0. -1.
       -5    1    3    3    0  502  0.39858121904E+03  0.47317837022E+02  0.47607913017E+03  0.62271935417E+03  0.46999998093E+01 0.  1.
</event>
<event>
 5   0  0.9616567E-05  0.1575782E+04  0.7818609E-02  0.8835565E-01
        1   -1    0    0  501    0  0.00000000000E+00  0.00000000000E+00  0.13827213718E+04  0.13827213718E+04  0.50400001928E-02 0. -1.
       -1   -1    0    0    0  501  0.00000000000E+00  0.00000000000E+00 -0.44894982736E+03  0.44894982739E+03  0.50400001928E-02 0.  1.
    10030    2    1    2    0    0  0.00000000000E+00  0.00000000000E+00  0.93377154446E+03  0.18316711992E+04  0.15757823723E+04 0.  0.
        5    1    3    3  502    0 -0.64013148015E+03 -0.59723898764E+02 -0.62499119543E+02  0.64595935314E+03  0.46999998093E+01 0.  1.
       -5    1    3    3    0  502  0.64013148015E+03  0.59723898764E+02  0.99627066400E+03  0.11857118461E+04  0.46999998093E+01 0. -1.
</event>
<event>
 5   0  0.9616567E-05  0.1602383E+04  0.7818609E-02  0.8819086E-01
       -1   -1    0    0    0  501  0.00000000000E+00  0.00000000000E+00  0.65041333732E+03  0.65041333734E+03  0.50400001928E-02 0. -1.
        1   -1    0    0  501    0  0.00000000000E+00  0.00000000000E+00 -0.98692236826E+03  0.98692236827E+03  0.50400001928E-02 0.  1.
    10030    2    1    2    0    0  0.00000000000E+00  0.00000000000E+00 -0.33650903094E+03  0.16373357056E+04  0.16023825651E+04 0.  0.
        5    1    3    3  502    0  0.35024405566E+03 -0.59406281907E+03  0.24844469065E+03  0.73302686570E+03  0.46999998093E+01 0. -1.
       -5    1    3    3    0  502 -0.35024405566E+03  0.59406281907E+03 -0.58495372160E+03  0.90430883991E+03  0.46999998093E+01 0.  1.
</event>
<event>
 5   0  0.1835088E-04  0.1612260E+04  0.7818609E-02  0.8813051E-01
        2   -1    0    0  501    0  0.00000000000E+00  0.00000000000E+00  0.10282083988E+04  0.10282083988E+04  0.25500000920E-02 0. -1.
       -2   -1    0    0    0  501  0.00000000000E+00  0.00000000000E+00 -0.63201762606E+03  0.63201762606E+03  0.25500000920E-02 0.  1.
    10030    2    1    2    0    0  0.00000000000E+00  0.00000000000E+00  0.39619077273E+03  0.16602260249E+04  0.16122603156E+04 0.  0.
        5    1    3    3  502    0  0.19014584108E+03  0.40969617941E+03 -0.48946450084E+03  0.66603602596E+03  0.46999998093E+01 0.  1.
       -5    1    3    3    0  502 -0.19014584108E+03 -0.40969617941E+03  0.88565527357E+03  0.99418999889E+03  0.46999998093E+01 0. -1.
</event>
<event>
 5   0  0.9432152E-05  0.1597624E+04  0.7818609E-02  0.8822009E-01
        1   -1    0    0  501    0  0.00000000000E+00  0.00000000000E+00  0.12217153611E+04  0.12217153611E+04  0.50400001928E-02 0. -1.
       -1   -1    0    0    0  501  0.00000000000E+00  0.00000000000E+00 -0.52229922940E+03  0.52229922943E+03  0.50400001928E-02 0.  1.
    10030    2    1    2    0    0  0.00000000000E+00  0.00000000000E+00  0.69941613166E+03  0.17440145905E+04  0.15976244761E+04 0.  0.
        4    1    3    3  502    0  0.30505773678E+03  0.21390199924E+03  0.11210549105E+04  0.11813466948E+04  0.12699999809E+01 0. -1.
       -4    1    3    3    0  502 -0.30505773678E+03 -0.21390199924E+03 -0.42163877889E+03  0.56266789566E+03  0.12699999809E+01 0.  1.
</event>
<event>
 5   0  0.1774934E-04  0.1576744E+04  0.7818609E-02  0.8834963E-01
        2   -1    0    0  501    0  0.00000000000E+00  0.00000000000E+00  0.12442001778E+04  0.12442001778E+04  0.25500000920E-02 0.  1.
       -2   -1    0    0    0  501  0.00000000000E+00  0.00000000000E+00 -0.49954244926E+03  0.49954244927E+03  0.25500000920E-02 0. -1.
    10030    2    1    2    0    0  0.00000000000E+00  0.00000000000E+00  0.74465772852E+03  0.17437426271E+04  0.15767444995E+04 0.  0.
        1    1    3    3  502    0  0.41647392177E+03 -0.51919755413E+03  0.83958758436E+03  0.10714121240E+04  0.50400001928E-02 0.  1.
       -1    1    3    3    0  502 -0.41647392177E+03  0.51919755413E+03 -0.94929855837E+02  0.67233050301E+03  0.50400001928E-02 0. -1.
</event>
<event>
 5   0  0.9616567E-05  0.1620935E+04  0.7818609E-02  0.8807789E-01
        1   -1    0    0  501    0  0.00000000000E+00  0.00000000000E+00  0.83658279018E+03  0.83658279020E+03  0.50400001928E-02 0. -1.
       -1   -1    0    0    0  501  0.00000000000E+00  0.00000000000E+00 -0.78516765581E+03  0.78516765583E+03  0.50400001928E-02 0.  1.
    10030    2    1    2    0    0  0.00000000000E+00  0.00000000000E+00  0.51415134368E+02  0.16217504460E+04  0.16209352218E+04 0.  0.
        5    1    3    3  502    0 -0.11113913768E+03 -0.72874571582E+03  0.36264604789E+03  0.82155734572E+03  0.46999998093E+01 0. -1.
       -5    1    3    3    0  502  0.11113913768E+03  0.72874571582E+03 -0.31123091352E+03  0.80019310031E+03  0.46999998093E+01 0.  1.
</event>
<event>
 5   0  0.9673017E-05  0.1593157E+04  0.7818609E-02  0.8824763E-01
       -1   -1    0    0    0  501  0.00000000000E+00  0.00000000000E+00  0.41998759711E+03  0.41998759714E+03  0.50400001928E-02 0.  1.
        1   -1    0    0  501    0  0.00000000000E+00  0.00000000000E+00 -0.15108476986E+04  0.15108476986E+04  0.50400001928E-02 0. -1.
    10030    2    1    2    0    0  0.00000000000E+00  0.00000000000E+00 -0.10908601015E+04  0.19308352957E+04  0.15931569848E+04 0.  0.
        1    1    3    3  502    0  0.24197290070E+03 -0.72727838218E+03 -0.80832261788E+03  0.11139435284E+04  0.50400001928E-02 0. -1.
       -1    1    3    3    0  502 -0.24197290070E+03  0.72727838218E+03 -0.28253748359E+03  0.81689176732E+03  0.50400001928E-02 0.  1.
</event>
<event>
 5   0  0.9673017E-05  0.1695162E+04  0.7818609E-02  0.8764128E-01
        1   -1    0    0  501    0  0.00000000000E+00  0.00000000000E+00  0.12849547185E+04  0.12849547185E+04  0.50400001928E-02 0.  1.
       -1   -1    0    0    0  501  0.00000000000E+00  0.00000000000E+00 -0.55908097821E+03  0.55908097824E+03  0.50400001928E-02 0. -1.
    10030    2    1    2    0    0  0.00000000000E+00  0.00000000000E+00  0.72587374032E+03  0.18440356968E+04  0.16951622235E+04 0.  0.
        1    1    3    3  502    0 -0.54953504147E+03 -0.12816875982E+03  0.10509171245E+04  0.11928297429E+04  0.50400001928E-02 0.  1.
       -1    1    3    3    0  502  0.54953504147E+03  0.12816875982E+03 -0.32504338420E+03  0.65120595393E+03  0.50400001928E-02 0. -1.
</event>
<event>
 5   0  0.9432152E-05  0.1594430E+04  0.7818609E-02  0.8823977E-01
       -1   -1    0    0    0  501  0.00000000000E+00  0.00000000000E+00  0.74226048046E+03  0.74226048048E+03  0.50400001928E-02 0. -1.
        1   -1    0    0  501    0  0.00000000000E+00  0.00000000000E+00 -0.85623800892E+03  0.85623800893E+03  0.50400001928E-02 0.  1.
    10030    2    1    2    0    0  0.00000000000E+00  0.00000000000E+00 -0.11397752846E+03  0.15984984894E+04  0.15944298491E+04 0.  0.
        4    1    3    3  502    0  0.49052566225E+03  0.35538302106E+03 -0.57661388389E+03  0.83630000657E+03  0.12699999809E+01 0.  1.
       -4    1    3    3    0  502 -0.49052566225E+03 -0.35538302106E+03  0.46263635544E+03  0.76219848285E+03  0.12699999809E+01 0. -1.
</event>
<event>
 5   0  0.1858913E-04  0.1601874E+04  0.7818609E-02  0.8819398E-01
        2   -1    0    0  501    0  0.00000000000E+00  0.00000000000E+00  0.89019026050E+03  0.89019026050E+03  0.25500000920E-02 0.  1.
       -2   -1    0    0    0  501  0.00000000000E+00  0.00000000000E+00 -0.72063261357E+03  0.72063261357E+03  0.25500000920E-02 0. -1.
    10030    2    1    2    0    0  0.00000000000E+00  0.00000000000E+00  0.16955764693E+03  0.16108228741E+04  0.16018740700E+04 0.  0.
        4    1    3    3  502    0  0.69714161995E+03  0.28045022707E+03  0.36352723209E+03  0.83475291524E+03  0.12699999809E+01 0. -1.
       -4    1    3    3    0  502 -0.69714161995E+03 -0.28045022707E+03 -0.19396958515E+03  0.77606995883E+03  0.12699999809E+01 0.  1.
</event>
<event>
 5   0  0.1774934E-04  0.1600649E+04  0.7818609E-02  0.8820149E-01
       -2   -1    0    0    0  501  0.00000000000E+00  0.00000000000E+00  0.41045916262E+03  0.41045916263E+03  0.25500000920E-02 0.  1.
        2   -1    0    0  501    0  0.00000000000E+00  0.00000000000E+00 -0.15604955030E+04  0.15604955030E+04  0.25500000920E-02 0. -1.
    10030    2    1    2    0    0  0.00000000000E+00  0.00000000000E+00 -0.11500363404E+04  0.19709546656E+04  0.16006494650E+04 0.  0.
        1    1    3    3  502    0 -0.43858741399E+03  0.74406948789E+02 -0.13942334782E+04  0.14634829365E+04  0.50400001928E-02 0. -1.
       -1    1    3    3    0  502  0.43858741399E+03 -0.74406948789E+02  0.24419713779E+03  0.50747172913E+03  0.50400001928E-02 0.  1.
</event>
<event>
 5   0  0.9432152E-05  0.1597093E+04  0.7818609E-02  0.8822336E-01
        1   -1    0    0  501    0  0.00000000000E+00  0.00000000000E+00  0.85607903684E+03  0.85607903685E+03  0.50400001928E-02 0.  1.
       -1   -1    0    0    0  501  0.00000000000E+00  0.00000000000E+00 -0.74488066234E+03  0.74488066236E+03  0.50400001928E-02 0. -1.
    10030    2    1    2    0    0  0.00000000000E+00  0.00000000000E+00  0.11119837450E+03  0.16009596992E+04  0.15970932596E+04 0.  0.
        4    1    3    3  502    0 -0.19748032824E+02 -0.25228119554E+03  0.81482257715E+03  0.85321347362E+03  0.12699999809E+01 0.  1.
       -4    1    3    3    0  502  0.19748032824E+02  0.25228119554E+03 -0.70362420266E+03  0.74774622559E+03  0.12699999809E+01 0. -1.
</event>
<event>
 5   0  0.1835088E-04  0.1593117E+04  0.7818609E-02  0.8824787E-01
       -2   -1    0    0    0  501  0.00000000000E+00  0.00000000000E+00  0.34549011379E+03  0.34549011380E+03  0.25500000920E-02 0. -1.
        2   -1    0    0  501    0  0.00000000000E+00  0.00000000000E+00 -0.18365380332E+04  0.18365380332E+04  0.25500000920E-02 0.  1.
    10030    2    1    2    0    0  0.00000000000E+00  0.00000000000E+00 -0.14910479194E+04  0.21820281470E+04  0.15931173643E+04 0.  0.
        5    1    3    3  502    0 -0.23600846745E+03  0.74625278838E+03 -0.94817071585E+03  0.12294889252E+04  0.46999998093E+01 0.  1.
       -5    1    3    3    0  502  0.23600846745E+03 -0.74625278838E+03 -0.54287720358E+03  0.95253922178E+03  0.46999998093E+01 0. -1.
</event>
<event>
 5   0  0.1914170E-04  0.1597890E+04  0.7818609E-02  0.8821845E-01
        2   -1    0    0  501    0  0.00000000000E+00  0.00000000000E+00  0.11502121611E+04  0.11502121611E+04  0.25500000920E-02 0.  1.
       -2   -1    0    0    0  501  0.00000000000E+00  0.00000000000E+00 -0.55495244887E+03  0.55495244888E+03  0.25500000920E-02 0. -1.
    10030    2    1    2    0    0  0.00000000000E+00  0.00000000000E+00  0.59525971219E+03  0.17051646099E+04  0.15978899280E+04 0.  0.
        3    1    3    3  502    0  0.14112515846E+03  0.70446557429E+03 -0.75295335105E+02  0.72239701923E+03  0.10100000352E+00 0. -1.
       -3    1    3    3    0  502 -0.14112515846E+03 -0.70446557429E+03  0.67055504729E+03  0.98276759071E+03  0.10100000352E+00 0.  1.
</event>
<event>
 5   0  0.1858913E-04  0.1610000E+04  0.7818609E-02  0.8814428E-01
        2   -1    0    0  501    0  0.00000000000E+00  0.00000000000E+00  0.72552281433E+03  0.72552281433E+03  0.25500000920E-02 0. -1.
       -2   -1    0    0    0  501  0.00000000000E+00  0.00000000000E+00 -0.89318346343E+03  0.89318346344E+03  0.25500000920E-02 0.  1.
    10030    2    1    2    0    0  0.00000000000E+00  0.00000000000E+00 -0.16766064910E+03  0.16187062778E+04  0.16099999753E+04 0.  0.
        4    1    3    3  502    0  0.25711298604E+03 -0.51311006591E+02 -0.84905285061E+03  0.88861254943E+03  0.12699999809E+01 0.  1.
       -4    1    3    3    0  502 -0.25711298604E+03  0.51311006591E+02  0.68139220150E+03  0.73009372834E+03  0.12699999809E+01 0. -1.
</event>
<event>
 5   0  0.1832646E-04  0.1603251E+04  0.7818609E-02  0.8818554E-01
        2   -1    0    0  501    0  0.00000000000E+00  0.00000000000E+00  0.14087959125E+04  0.14087959125E+04  0.25500000920E-02 0. -1.
       -2   -1    0    0    0  501  0.00000000000E+00  0.00000000000E+00 -0.45613637277E+03  0.45613637278E+03  0.25500000920E-02 0.  1.
    10030    2    1    2    0    0  0.00000000000E+00  0.00000000000E+00  0.95265953978E+03  0.18649322853E+04  0.16032505201E+04 0.  0.
        2    1    3    3  502    0  0.55356420221E+03  0.56211959103E+03  0.31104083324E+03  0.84803193368E+03  0.25500000920E-02 0. -1.
       -2    1    3    3    0  502 -0.55356420221E+03 -0.56211959103E+03  0.64161870654E+03  0.10169003516E+04  0.25500000920E-02 0.  1.
</event>
<event>
 5   0  0.1832646E-04  0.1605977E+04  0.7818609E-02  0.8816885E-01
        2   -1    0    0  501    0  0.00000000000E+00  0.00000000000E+00  0.81862565879E+03  0.81862565879E+03  0.25500000920E-02 0.  1.
       -2   -1    0    0    0  501  0.00000000000E+00  0.00000000000E+00 -0.78764963263E+03  0.78764963263E+03  0.25500000920E-02 0. -1.
    10030    2    1    2    0    0  0.00000000000E+00  0.00000000000E+00  0.30976026160E+02  0.16062752914E+04  0.16059765869E+04 0.  0.
        2    1    3    3  502    0  0.47166515864E+01 -0.73485531753E+03  0.33920793321E+03  0.80938038428E+03  0.25500000920E-02 0.  1.
       -2    1    3    3    0  502 -0.47166515864E+01  0.73485531753E+03 -0.30823190705E+03  0.79689490714E+03  0.25500000920E-02 0. -1.
</event>
<event>
 5   0  0.1832646E-04  0.1582264E+04  0.7818609E-02  0.8831518E-01
        2   -1    0    0  501    0  0.00000000000E+00  0.00000000000E+00  0.15548020563E+04  0.15548020563E+04  0.25500000920E-02 0. -1.
       -2   -1    0    0    0  501  0.00000000000E+00  0.00000000000E+00 -0.40255287853E+03  0.40255287854E+03  0.25500000920E-02 0.  1.
    10030    2    1    2    0    0  0.00000000000E+00  0.00000000000E+00  0.11522491778E+04  0.19573549349E+04  0.15822642552E+04 0.  0.
        2    1    3    3  502    0 -0.44680877339E+03 -0.65218746286E+03  0.53894119469E+03  0.95678847089E+03  0.25500000920E-02 0. -1.
       -2    1    3    3    0  502  0.44680877339E+03  0.65218746286E+03  0.61330798309E+03  0.10005664640E+04  0.25500000920E-02 0.  1.
</event>
<event>
 5   0  0.1914170E-04  0.1597788E+04  0.7818609E-02  0.8821908E-01
        2   -1    0    0  501    0  0.00000000000E+00  0.00000000000E+00  0.86026905104E+03  0.86026905104E+03  0.25500000920E-02 0. -1.
       -2   -1    0    0    0  501  0.00000000000E+00  0.00000000000E+00 -0.74189746211E+03  0.74189746211E+03  0.25500000920E-02 0.  1.
    10030    2    1    2    0    0  0.00000000000E+00  0.00000000000E+00  0.11837158893E+03  0.16021665132E+04  0.15977877527E+04 0.  0.
        3    1    3    3  502    0 -0.53367515707E+03 -0.38880953332E+03  0.51013971976E+03  0.83440072529E+03  0.10100000352E+00 0. -1.
       -3    1    3    3    0  502  0.53367515707E+03  0.38880953332E+03 -0.39176813083E+03  0.76776578787E+03  0.10100000352E+00 0.  1.
</event>
<event>
 5   0  0.1858913E-04  0.1599142E+04  0.7818609E-02  0.8821075E-01
       -2   -1    0    0    0  501  0.00000000000E+00  0.00000000000E+00  0.49451364095E+03  0.49451364096E+03  0.25500000920E-02 0. -1.
        2   -1    0    0  501    0  0.00000000000E+00  0.00000000000E+00 -0.12928140446E+04  0.12928140446E+04  0.25500000920E-02 0.  1.
    10030    2    1    2    0    0  0.00000000000E+00  0.00000000000E+00 -0.79830040367E+03  0.17873276856E+04  0.15991424956E+04 0.  0.
        4    1    3    3  502    0  0.63725700546E+03  0.21710142829E+03  0.82986754272E+02  0.67831993591E+03  0.12699999809E+01 0. -1.
       -4    1    3    3    0  502 -0.63725700546E+03 -0.21710142829E+03 -0.88128715794E+03  0.11090077497E+04  0.12699999809E+01 0.  1.
</event>
<event>
 5   0  0.1774934E-04  0.1596743E+04  0.7818609E-02  0.8822551E-01
       -2   -1    0    0    0  501  0.00000000000E+00  0.00000000000E+00  0.69436913437E+03  0.69436913438E+03  0.25500000920E-02 0.  1.
        2   -1    0    0  501    0  0.00000000000E+00  0.00000000000E+00 -0.91795158728E+03  0.91795158728E+03  0.25500000920E-02 0. -1.
    10030    2    1    2    0    0  0.00000000000E+00  0.00000000000E+00 -0.22358245290E+03  0.16123207217E+04  0.15967432468E+04 0.  0.
        1    1    3    3  502    0 -0.21031796341E+03  0.76296652138E+03 -0.21791502433E+03  0.82087667547E+03  0.50400001928E-02 0.  1.
       -1    1    3    3    0  502  0.21031796341E+03 -0.76296652138E+03 -0.56674285724E+01  0.79144404619E+03  0.50400001928E-02 0. -1.
</event>
<event>
 5   0  0.9673017E-05  0.1598255E+04  0.7818609E-02  0.8821621E-01
        1   -1    0    0  501    0  0.00000000000E+00  0.00000000000E+00  0.12095381498E+04  0.12095381498E+04  0.50400001928E-02 0.  1.
       -1   -1    0    0    0  501  0.00000000000E+00  0.00000000000E+00 -0.52797380382E+03  0.52797380385E+03  0.50400001928E-02 0. -1.
    10030    2    1    2    0    0  0.00000000000E+00  0.00000000000E+00  0.68156434597E+03  0.17375119536E+04  0.15982546203E+04 0.  0.
        1    1    3    3  502    0  0.49943162754E+03 -0.37228199663E+03 -0.20341194210E+03  0.65528791673E+03  0.50400001928E-02 0. -1.
       -1    1    3    3    0  502 -0.49943162754E+03  0.37228199663E+03  0.88497628807E+03  0.10822240369E+04  0.50400001928E-02 0.  1.
</event>
<event>
 5   0  0.9939872E-05  0.1603991E+04  0.7818609E-02  0.8818100E-01
       -1   -1    0    0    0  501  0.00000000000E+00  0.00000000000E+00  0.13840608589E+04  0.13840608589E+04  0.50400001928E-02 0.  1.
        1   -1    0    0  501    0  0.00000000000E+00  0.00000000000E+00 -0.46471730472E+03  0.46471730474E+03  0.50400001928E-02 0. -1.
    10030    2    1    2    0    0  0.00000000000E+00  0.00000000000E+00  0.91934355419E+03  0.18487781637E+04  0.16039913116E+04 0.  0.
        3    1    3    3  502    0  0.56048772107E+03  0.17197731971E+03  0.10904295311E+04  0.12380465486E+04  0.10100000352E+00 0.  1.
       -3    1    3    3    0  502 -0.56048772107E+03 -0.17197731971E+03 -0.17108597691E+03  0.61073161508E+03  0.10100000352E+00 0. -1.
</event>
<event>
 5   0  0.9673017E-05  0.1619866E+04  0.7818609E-02  0.8808436E-01
        1   -1    0    0  501    0  0.00000000000E+00  0.00000000000E+00  0.14878007456E+04  0.14878007456E+04  0.50400001928E-02 0. -1.
       -1   -1    0    0    0  501  0.00000000000E+00  0.00000000000E+00 -0.44091354633E+03  0.44091354636E+03  0.50400001928E-02 0.  1.
    10030    2    1    2    0    0  0.00000000000E+00  0.00000000000E+00  0.10468871993E+04  0.19287142920E+04  0.16198660476E+04 0.  0.
        1    1    3    3  502    0 -0.45461059064E+03  0.66988912528E+03  0.49503503077E+03  0.94893725346E+03  0.50400001928E-02 0. -1.
       -1    1    3    3    0  502  0.45461059064E+03 -0.66988912528E+03  0.55185216850E+03  0.97977703851E+03  0.50400001928E-02 0.  1.
</event>
<event>
 5   0  0.1858913E-04  0.1599068E+04  0.7818609E-02  0.8821121E-01
        2   -1    0    0  501    0  0.00000000000E+00  0.00000000000E+00  0.53303097115E+03  0.53303097116E+03  0.25500000920E-02 0.  1.
       -2   -1    0    0    0  501  0.00000000000E+00  0.00000000000E+00 -0.11992823802E+04  0.11992823802E+04  0.25500000920E-02 0. -1.
    10030    2    1    2    0    0  0.00000000000E+00  0.00000000000E+00 -0.66625140903E+03  0.17323133513E+04  0.15990680433E+04 0.  0.
        4    1    3    3  502    0  0.18131563593E+03 -0.36228969334E+03 -0.10798545489E+04  0.11533501816E+04  0.12699999809E+01 0. -1.
       -4    1    3    3    0  502 -0.18131563593E+03  0.36228969334E+03  0.41360313986E+03  0.57896316975E+03  0.12699999809E+01 0.  1.
</event>
<event>
 5   0  0.1832646E-04  0.1588254E+04  0.7818609E-02  0.8827797E-01
        2   -1    0    0  501    0  0.00000000000E+00  0.00000000000E+00  0.10485158687E+04  0.10485158687E+04  0.25500000920E-02 0. -1.
       -2   -1    0    0    0  501  0.00000000000E+00  0.00000000000E+00 -0.60145759078E+03  0.60145759079E+03  0.25500000920E-02 0.  1.
    10030    2    1    2    0    0  0.00000000000E+00  0.00000000000E+00  0.44705827792E+03  0.16499734595E+04  0.15882541715E+04 0.  0.
        2    1    3    3  502    0 -0.50231241770E+03  0.20816345582E+03  0.82480200276E+03  0.98790087209E+03  0.25500000920E-02 0. -1.
       -2    1    3    3    0  502  0.50231241770E+03 -0.20816345582E+03 -0.37774372484E+03  0.66207258740E+03  0.25500000920E-02 0.  1.
</event>
<event>
 5   0  0.1832646E-04  0.1595748E+04  0.7818609E-02  0.8823164E-01
       -2   -1    0    0    0  501  0.00000000000E+00  0.00000000000E+00  0.34327230112E+03  0.34327230113E+03  0.25500000920E-02 0. -1.
        2   -1    0    0  501    0  0.00000000000E+00  0.00000000000E+00 -0.18545133649E+04  0.18545133649E+04  0.25500000920E-02 0.  1.
    10030    2    1    2    0    0  0.00000000000E+00  0.00000000000E+00 -0.15112410637E+04  0.21977856660E+04  0.15957481884E+04 0.  0.
        2    1    3    3  502    0 -0.48238865172E+02  0.43384780388E+03  0.16422266869E+03  0.46639038365E+03  0.25500000920E-02 0. -1.
       -2    1    3    3    0  502  0.48238865172E+02 -0.43384780388E+03 -0.16754637324E+04  0.17313952823E+04  0.25500000920E-02 0.  1.
</event>
<event>
 5   0  0.1774934E-04  0.1587690E+04  0.7818609E-02  0.8828146E-01
       -2   -1    0    0    0  501  0.00000000000E+00  0.00000000000E+00  0.15540990900E+04  0.15540990900E+04  0.25500000920E-02 0. -1.
        2   -1    0    0  501    0  0.00000000000E+00  0.00000000000E+00 -0.40550189608E+03  0.40550189609E+03  0.25500000920E-02 0.  1.
    10030    2    1    2    0    0  0.00000000000E+00  0.00000000000E+00  0.11485971939E+04  0.19596009860E+04  0.15876903069E+04 0.  0.
        1    1    3    3  502    0  0.25721971715E+03 -0.71598411279E+03  0.29448948862E+03  0.81579365748E+03  0.50400001928E-02 0.  1.
       -1    1    3    3    0  502 -0.25721971715E+03  0.71598411279E+03  0.85410770526E+03  0.11438073286E+04  0.50400001928E-02 0. -1.
</event>
<event>
 5   0  0.1835088E-04  0.1600198E+04  0.7818609E-02  0.8820427E-01
       -2   -1    0    0    0  501  0.00000000000E+00  0.00000000000E+00  0.43177171323E+03  0.43177171324E+03  0.25500000920E-02 0. -1.
        2   -1    0    0  501    0  0.00000000000E+00  0.00000000000E+00 -0.14826310707E+04  0.14826310707E+04  0.25500000920E-02 0.  1.
    10030    2    1    2    0    0  0.00000000000E+00  0.00000000000E+00 -0.10508593574E+04  0.19144027839E+04  0.16001976846E+04 0.  0.
        5    1    3    3  502    0 -0.39209235259E+03  0.69555787690E+03 -0.58641902752E+03  0.99067983674E+03  0.46999998093E+01 0.  1.
       -5    1    3    3    0  502  0.39209235259E+03 -0.69555787690E+03 -0.46444032989E+03  0.92372294716E+03  0.46999998093E+01 0. -1.
</event>
<event>
 5   0  0.9726935E-05  0.1594105E+04  0.7818609E-02  0.8824178E-01
       -1   -1    0    0    0  501  0.00000000000E+00  0.00000000000E+00  0.60709017452E+03  0.60709017454E+03  0.50400001928E-02 0. -1.
        1   -1    0    0  501    0  0.00000000000E+00  0.00000000000E+00 -0.10464553881E+04  0.10464553881E+04  0.50400001928E-02 0.  1.
    10030    2    1    2    0    0  0.00000000000E+00  0.00000000000E+00 -0.43936521360E+03  0.16535455627E+04  0.15941051210E+04 0.  0.
        2    1    3    3  502    0 -0.15609812569E+03 -0.14860346944E+03 -0.10156568773E+04  0.10382718856E+04  0.25500000920E-02 0.  1.
       -2    1    3    3    0  502  0.15609812569E+03  0.14860346944E+03  0.57629166373E+03  0.61527367705E+03  0.25500000920E-02 0. -1.
</event>
<event>
 5   0  0.9939872E-05  0.1604688E+04  0.7818609E-02  0.8817673E-01
       -1   -1    0    0    0  501  0.00000000000E+00  0.00000000000E+00  0.89760671551E+03  0.89760671553E+03  0.50400001928E-02 0.  1.
        1   -1    0    0  501    0  0.00000000000E+00  0.00000000000E+00 -0.71719120177E+03  0.71719120179E+03  0.50400001928E-02 0. -1.
    10030    2    1    2    0    0  0.00000000000E+00  0.00000000000E+00  0.18041551374E+03  0.16147979173E+04  0.16046876818E+04 0.  0.
        3    1    3    3  502    0  0.73582345636E+03  0.20754243152E+03  0.33514551919E+03  0.83476496635E+03  0.10100000352E+00 0.  1.
       -3    1    3    3    0  502 -0.73582345636E+03 -0.20754243152E+03 -0.15473000545E+03  0.78003295097E+03  0.10100000352E+00 0. -1.
</event>
<event>
 5   0  0.9673017E-05  0.1603800E+04  0.7818609E-02  0.8818217E-01
        1   -1    0    0  501    0  0.00000000000E+00  0.00000000000E+00  0.12335735004E+04  0.12335735004E+04  0.50400001928E-02 0. -1.
       -1   -1    0    0    0  501  0.00000000000E+00  0.00000000000E+00 -0.52128505858E+03  0.52128505860E+03  0.50400001928E-02 0.  1.
    10030    2    1    2    0    0  0.00000000000E+00  0.00000000000E+00  0.71228844182E+03  0.17548585590E+04  0.16037997811E+04 0.  0.
        1    1    3    3  502    0 -0.64274043891E+03  0.47887630249E+03  0.32921631021E+03  0.86649937324E+03  0.50400001928E-02 0. -1.
       -1    1    3    3    0  502  0.64274043891E+03 -0.47887630249E+03  0.38307213162E+03  0.88835918577E+03  0.50400001928E-02 0.  1.
</event>
<event>
 5   0  0.9726935E-05  0.1599903E+04  0.7818609E-02  0.8820607E-01
        1   -1    0    0  501    0  0.00000000000E+00  0.00000000000E+00  0.96511825543E+03  0.96511825544E+03  0.50400001928E-02 0.  1.
       -1   -1    0    0    0  501  0.00000000000E+00  0.00000000000E+00 -0.66305094640E+03  0.66305094642E+03  0.50400001928E-02 0. -1.
    10030    2    1    2    0    0  0.00000000000E+00  0.00000000000E+00  0.30206730903E+03  0.16281692019E+04  0.15999032129E+04 0.  0.
        2    1    3    3  502    0 -0.80356484153E+02  0.46244084443E+03 -0.50818690610E+03  0.69178221333E+03  0.25500000920E-02 0. -1.
       -2    1    3    3    0  502  0.80356484153E+02 -0.46244084443E+03  0.81025421513E+03  0.93638698853E+03  0.25500000920E-02 0.  1.
</event>
<event>
 5   0  0.1914170E-04  0.1595530E+04  0.7818609E-02  0.8823299E-01
        2   -1    0    0  501    0  0.00000000000E+00  0.00000000000E+00  0.18755640066E+04  0.18755640066E+04  0.25500000920E-02 0. -1.
       -2   -1    0    0    0  501  0.00000000000E+00  0.00000000000E+00 -0.33932656079E+03  0.33932656079E+03  0.25500000920E-02 0.  1.
    10030    2    1    2    0    0  0.00000000000E+00  0.00000000000E+00  0.15362374458E+04  0.22148905674E+04  0.15955296097E+04 0.  0.
        3    1    3    3  502    0  0.23270176860E+02 -0.23691462513E+03 -0.28887161535E+03  0.37432186830E+03  0.10100000352E+00 0.  1.
       -3    1    3    3    0  502 -0.23270176860E+02  0.23691462513E+03  0.18251090611E+04  0.18405686991E+04  0.10100000352E+00 0. -1.
</event>
<event>
 5   0  0.9726935E-05  0.1600222E+04  0.7818609E-02  0.8820411E-01
       -1   -1    0    0    0  501  0.00000000000E+00  0.00000000000E+00  0.52185565091E+03  0.52185565094E+03  0.50400001928E-02 0.  1.
        1   -1    0    0  501    0  0.00000000000E+00  0.00000000000E+00 -0.12267338102E+04  0.12267338103E+04  0.50400001928E-02 0. -1.
    10030    2    1    2    0    0  0.00000000000E+00  0.00000000000E+00 -0.70487815934E+03  0.17485894612E+04  0.16002224484E+04 0.  0.
        2    1    3    3  502    0 -0.64120169010E+03  0.32844872575E+03  0.27913852620E+02  0.72096973307E+03  0.25500000920E-02 0.  1.
       -2    1    3    3    0  502  0.64120169010E+03 -0.32844872575E+03 -0.73279201196E+03  0.10276197281E+04  0.25500000920E-02 0. -1.
</event>
<event>
 5   0  0.1835088E-04  0.1615310E+04  0.7818609E-02  0.8811197E-01
       -2   -1    0    0    0  501  0.00000000000E+00  0.00000000000E+00  0.24694981290E+03  0.24694981291E+03  0.25500000920E-02 0.  1.
        2   -1    0    0  501    0  0.00000000000E+00  0.00000000000E+00 -0.26414553316E+04  0.26414553316E+04  0.25500000920E-02 0. -1.
    10030    2    1    2    0    0  0.00000000000E+00  0.00000000000E+00 -0.23945055187E+04  0.28884051445E+04  0.16153103726E+04 0.  0.
        5    1    3    3  502    0 -0.10874242405E+03  0.32682077972E+03  0.10900715822E+03  0.36130511674E+03  0.46999998093E+01 0.  1.
       -5    1    3    3    0  502  0.10874242405E+03 -0.32682077972E+03 -0.25035126769E+04  0.25271000278E+04  0.46999998093E+01 0. -1.
</event>
<event>
 5   0  0.1774934E-04  0.1603660E+04  0.7818609E-02  0.8818303E-01
       -2   -1    0    0    0  501  0.00000000000E+00  0.00000000000E+00  0.86440456273E+03  0.86440456274E+03  0.25500000920E-02 0. -1.
        2   -1    0    0  501    0  0.00000000000E+00  0.00000000000E+00 -0.74378502986E+03  0.74378502986E+03  0.25500000920E-02 0.  1.
    10030    2    1    2    0    0  0.00000000000E+00  0.00000000000E+00  0.12061953287E+03  0.16081895926E+04  0.16036597813E+04 0.  0.
        1    1    3    3  502    0 -0.69645105275E+03 -0.34210766871E+03 -0.14237359758E+03  0.78889287434E+03  0.50400001928E-02 0.  1.
       -1    1    3    3    0  502  0.69645105275E+03  0.34210766871E+03  0.26299313045E+03  0.81929671826E+03  0.50400001928E-02 0. -1.
</event>
<event>
 5   0  0.9616567E-05  0.1599124E+04  0.7818609E-02  0.8821087E-01
        1   -1    0    0  501    0  0.00000000000E+00  0.00000000000E+00  0.11137555135E+04  0.11137555135E+04  0.50400001928E-02 0. -1.
       -1   -1    0    0    0  501  0.00000000000E+00  0.00000000000E+00 -0.57400312483E+03  0.57400312485E+03  0.50400001928E-02 0.  1.
    10030    2    1    2    0    0  0.00000000000E+00  0.00000000000E+00  0.53975238866E+03  0.16877586383E+04  0.15991236914E+04 0.  0.
        5    1    3    3  502    0 -0.31746114476E+03  0.35427945432E+03  0.94813213179E+03  0.10607884518E+04  0.46999998093E+01 0. -1.
       -5    1    3    3    0  502  0.31746114476E+03 -0.35427945432E+03 -0.40837974314E+03  0.62697018652E+03  0.46999998093E+01 0.  1.
</event>
<event>
 5   0  0.9939872E-05  0.1603540E+04  0.7818609E-02  0.8818376E-01
       -1   -1    0    0    0  501  0.00000000000E+00  0.00000000000E+00  0.84834042730E+03  0.84834042732E+03  0.50400001928E-02 0. -1.
        1   -1    0    0  501    0  0.00000000000E+00  0.00000000000E+00 -0.75775631503E+03  0.75775631505E+03  0.50400001928E-02 0.  1.
    10030    2    1    2    0    0  0.00000000000E+00  0.00000000000E+00  0.90584112274E+02  0.16060967424E+04  0.16035402285E+04 0.  0.
        3    1    3    3  502    0 -0.12960428612E+03  0.78421131825E+03 -0.59997579096E+02  0.79711001897E+03  0.10100000352E+00 0. -1.
       -3    1    3    3    0  502  0.12960428612E+03 -0.78421131825E+03  0.15058169137E+03  0.80898672339E+03  0.10100000352E+00 0.  1.
</event>
<event>
 5   0  0.9432152E-05  0.1590049E+04  0.7818609E-02  0.8826685E-01
       -1   -1    0    0    0  501  0.00000000000E+00  0.00000000000E+00  0.39481762063E+03  0.39481762066E+03  0.50400001928E-02 0. -1.
        1   -1    0    0  501    0  0.00000000000E+00  0.00000000000E+00 -0.16009005259E+04  0.16009005259E+04  0.50400001928E-02 0.  1.
    10030    2    1    2    0    0  0.00000000000E+00  0.00000000000E+00 -0.12060829053E+04  0.19957181466E+04  0.15900487245E+04 0.  0.
        4    1    3    3  502    0  0.37498401104E+03  0.59437128845E+03 -0.10695919075E+04  0.12798119778E+04  0.12699999809E+01 0.  1.
       -4    1    3    3    0  502 -0.37498401104E+03 -0.59437128845E+03 -0.13649099775E+03  0.71590616874E+03  0.12699999809E+01 0. -1.
</event>
<event>
 5   0  0.9616567E-05  0.1610571E+04  0.7818609E-02  0.8814080E-01
       -1   -1    0    0    0  501  0.00000000000E+00  0.00000000000E+00  0.65798784631E+03  0.65798784633E+03  0.50400001928E-02 0.  1.
        1   -1    0    0  501    0  0.00000000000E+00  0.00000000000E+00 -0.98555682953E+03  0.98555682954E+03  0.50400001928E-02 0. -1.
    10030    2    1    2    0    0  0.00000000000E+00  0.00000000000E+00 -0.32756898322E+03  0.16435446759E+04  0.16105706016E+04 0.  0.
        5    1    3    3  502    0  0.38046361276E+03 -0.59279596950E+03 -0.56203427914E+03  0.90114607196E+03  0.46999998093E+01 0. -1.
       -5    1    3    3    0  502 -0.38046361276E+03  0.59279596950E+03  0.23446529592E+03  0.74239860390E+03  0.46999998093E+01 0.  1.
</event>
<event>
 5   0  0.1832646E-04  0.1596663E+04  0.7818609E-02  0.8822600E-01
        2   -1    0    0  501    0  0.00000000000E+00  0.00000000000E+00  0.27020374156E+04  0.27020374156E+04  0.25500000920E-02 0.  1.
       -2   -1    0    0    0  501  0.00000000000E+00  0.00000000000E+00 -0.23587147128E+03  0.23587147130E+03  0.25500000920E-02 0. -1.
    10030    2    1    2    0    0  0.00000000000E+00  0.00000000000E+00  0.24661659443E+04  0.29379088869E+04  0.15966634469E+04 0.  0.
        2    1    3    3  502    0  0.19080431505E+03 -0.41938025862E+03  0.24327028374E+04  0.24759501577E+04  0.25500000920E-02 0.  1.
       -2    1    3    3    0  502 -0.19080431505E+03  0.41938025862E+03  0.33463106847E+02  0.46195872920E+03  0.25500000920E-02 0. -1.
</event>
<event>
 5   0  0.9726935E-05  0.1542337E+04  0.7818609E-02  0.8856777E-01
        1   -1    0    0  501    0  0.00000000000E+00  0.00000000000E+00  0.33818075039E+03  0.33818075043E+03  0.50400001928E-02 0.  1.
       -1   -1    0    0    0  501  0.00000000000E+00  0.00000000000E+00 -0.17585295250E+04  0.17585295250E+04  0.50400001928E-02 0. -1.
    10030    2    1    2    0    0  0.00000000000E+00  0.00000000000E+00 -0.14203487746E+04  0.20967102754E+04  0.15423369728E+04 0.  0.
        2    1    3    3  502    0  0.75615395249E+03  0.67778734519E+01 -0.91583210014E+03  0.11876713245E+04  0.25500000920E-02 0. -1.
       -2    1    3    3    0  502 -0.75615395249E+03 -0.67778734519E+01 -0.50451667443E+03  0.90903895088E+03  0.25500000920E-02 0.  1.
</event>
<event>
 5   0  0.1835088E-04  0.1604744E+04  0.7818609E-02  0.8817639E-01
        2   -1    0    0  501    0  0.00000000000E+00  0.00000000000E+00  0.92315716132E+03  0.92315716133E+03  0.25500000920E-02 0.  1.
       -2   -1    0    0    0  501  0.00000000000E+00  0.00000000000E+00 -0.69739046568E+03  0.69739046569E+03  0.25500000920E-02 0. -1.
    10030    2    1    2    0    0  0.00000000000E+00  0.00000000000E+00  0.22576669564E+03  0.16205476270E+04  0.16047442197E+04 0.  0.
        5    1    3    3  502    0 -0.62854669385E+03  0.44471261590E+03 -0.11503522580E+03  0.77852132294E+03  0.46999998093E+01 0. -1.
       -5    1    3    3    0  502  0.62854669385E+03 -0.44471261590E+03  0.34080192145E+03  0.84202630407E+03  0.46999998093E+01 0.  1.
</event>
<event>
 5   0  0.9673017E-05  0.1628931E+04  0.7818609E-02  0.8802969E-01
       -1   -1    0    0    0  501  0.00000000000E+00  0.00000000000E+00  0.17362309293E+04  0.17362309293E+04  0.50400001928E-02 0.  1.
        1   -1    0    0  501    0  0.00000000000E+00  0.00000000000E+00 -0.38206556867E+03  0.38206556870E+03  0.50400001928E-02 0. -1.
    10030    2    1    2    0    0  0.00000000000E+00  0.00000000000E+00  0.13541653607E+04  0.21182964980E+04  0.16289310082E+04 0.  0.
        1    1    3    3  502    0  0.13138289405E+03 -0.65018217612E+03  0.12916686014E+04  0.14520351590E+04  0.50400001928E-02 0.  1.
       -1    1    3    3    0  502 -0.13138289405E+03  0.65018217612E+03  0.62496759252E+02  0.66626133907E+03  0.50400001928E-02 0. -1.
</event>
<event>
 5   0  0.1914170E-04  0.1596500E+04  0.7818609E-02  0.8822701E-01
       -2   -1    0    0    0  501  0.00000000000E+00  0.00000000000E+00  0.70802836918E+03  0.70802836919E+03  0.25500000920E-02 0.  1.
        2   -1    0    0  501    0  0.00000000000E+00  0.00000000000E+00 -0.89996832449E+03  0.89996832449E+03  0.25500000920E-02 0. -1.
    10030    2    1    2    0    0  0.00000000000E+00  0.00000000000E+00 -0.19193995530E+03  0.16079966937E+04  0.15965000534E+04 0.  0.
        3    1    3    3  502    0 -0.78907118860E+03  0.67850247946E+02 -0.19651921768E+03  0.81600049629E+03  0.10100000352E+00 0. -1.
       -3    1    3    3    0  502  0.78907118860E+03 -0.67850247946E+02  0.45792623779E+01  0.79199619739E+03  0.10100000352E+00 0.  1.
</event>
<event>
 5   0  0.1835088E-04  0.1600098E+04  0.7818609E-02  0.8820488E-01
       -2   -1    0    0    0  501  0.00000000000E+00  0.00000000000E+00  0.36349375793E+03  0.36349375794E+03  0.25500000920E-02 0.  1.
        2   -1    0    0  501    0  0.00000000000E+00  0.00000000000E+00 -0.17609060945E+04  0.17609060945E+04  0.25500000920E-02 0. -1.
    10030    2    1    2    0    0  0.00000000000E+00  0.00000000000E+00 -0.13974123366E+04  0.21243998525E+04  0.16000979641E+04 0.  0.
        5    1    3    3  502    0  0.20089619790E+03  0.34727068735E+03 -0.16176792865E+04  0.16666927061E+04  0.46999998093E+01 0. -1.
       -5    1    3    3    0  502 -0.20089619790E+03 -0.34727068735E+03  0.22026694990E+03  0.45770714637E+03  0.46999998093E+01 0.  1.
</event>
<event>
 5   0  0.1835088E-04  0.1574018E+04  0.7818609E-02  0.8836671E-01
        2   -1    0    0  501    0  0.00000000000E+00  0.00000000000E+00  0.68486964345E+03  0.68486964346E+03  0.25500000920E-02 0. -1.
       -2   -1    0    0    0  501  0.00000000000E+00  0.00000000000E+00 -0.90438121626E+03  0.90438121627E+03  0.25500000920E-02 0.  1.
    10030    2    1    2    0    0  0.00000000000E+00  0.00000000000E+00 -0.21951157281E+03  0.15892508597E+04  0.15740180954E+04 0.  0.
        5    1    3    3  502    0  0.46034348335E+03 -0.48910363516E+02 -0.75235258285E+03  0.88338261543E+03  0.46999998093E+01 0.  1.
       -5    1    3    3    0  502 -0.46034348335E+03  0.48910363516E+02  0.53284101004E+03  0.70586824429E+03  0.46999998093E+01 0. -1.
</event>
<event>
 5   0  0.1914170E-04  0.1590093E+04  0.7818609E-02  0.8826658E-01
        2   -1    0    0  501    0  0.00000000000E+00  0.00000000000E+00  0.22556695247E+04  0.22556695247E+04  0.25500000920E-02 0. -1.
       -2   -1    0    0    0  501  0.00000000000E+00  0.00000000000E+00 -0.28022662919E+03  0.28022662921E+03  0.25500000920E-02 0.  1.
    10030    2    1    2    0    0  0.00000000000E+00  0.00000000000E+00  0.19754428955E+04  0.25358961539E+04  0.15900926608E+04 0.  0.
        3    1    3    3  502    0 -0.47122431157E+03 -0.90595223390E+02 -0.23240878949E+02  0.48041648075E+03  0.10100000352E+00 0.  1.
       -3    1    3    3    0  502  0.47122431157E+03  0.90595223390E+02  0.19986837745E+04  0.20554796732E+04  0.10100000352E+00 0. -1.
</event>
<event>
 5   0  0.9673017E-05  0.1601611E+04  0.7818609E-02  0.8819559E-01
       -1   -1    0    0    0  501  0.00000000000E+00  0.00000000000E+00  0.93983617876E+03  0.93983617877E+03  0.50400001928E-02 0.  1.
        1   -1    0    0  501    0  0.00000000000E+00  0.00000000000E+00 -0.68234202409E+03  0.68234202411E+03  0.50400001928E-02 0. -1.
    10030    2    1    2    0    0  0.00000000000E+00  0.00000000000E+00  0.25749415467E+03  0.16221782029E+04  0.16016113393E+04 0.  0.
        1    1    3    3  502    0  0.58087221267E+03  0.44877213218E+03 -0.19548994997E+03  0.75962179710E+03  0.50400001928E-02 0. -1.
       -1    1    3    3    0  502 -0.58087221267E+03 -0.44877213218E+03  0.45298410463E+03  0.86255640578E+03  0.50400001928E-02 0.  1.
</event>
<event>
 5   0  0.9726935E-05  0.1596982E+04  0.7818609E-02  0.8822404E-01
        1   -1    0    0  501    0  0.00000000000E+00  0.00000000000E+00  0.38025411441E+03  0.38025411444E+03  0.50400001928E-02 0.  1.
       -1   -1    0    0    0  501  0.00000000000E+00  0.00000000000E+00 -0.16767421248E+04  0.16767421248E+04  0.50400001928E-02 0. -1.
    10030    2    1    2    0    0  0.00000000000E+00  0.00000000000E+00 -0.12964880104E+04  0.20569962393E+04  0.15969822689E+04 0.  0.
        2    1    3    3  502    0 -0.57693756998E+03 -0.55128102914E+03 -0.61135173399E+03  0.10052455796E+04  0.25500000920E-02 0. -1.
       -2    1    3    3    0  502  0.57693756998E+03  0.55128102914E+03 -0.68513627644E+03  0.10517506596E+04  0.25500000920E-02 0.  1.
</event>
<event>
 5   0  0.9616567E-05  0.1592379E+04  0.7818609E-02  0.8825243E-01
        1   -1    0    0  501    0  0.00000000000E+00  0.00000000000E+00  0.17286485273E+04  0.17286485273E+04  0.50400001928E-02 0.  1.
       -1   -1    0    0    0  501  0.00000000000E+00  0.00000000000E+00 -0.36671298458E+03  0.36671298462E+03  0.50400001928E-02 0. -1.
    10030    2    1    2    0    0  0.00000000000E+00  0.00000000000E+00  0.13619355427E+04  0.20953615119E+04  0.15923791769E+04 0.  0.
        5    1    3    3  502    0  0.98935602089E+02  0.84123149937E+02  0.17145996586E+04  0.17195170941E+04  0.46999998093E+01 0.  1.
       -5    1    3    3    0  502 -0.98935602089E+02 -0.84123149937E+02 -0.35266411591E+03  0.37584441777E+03  0.46999998093E+01 0. -1.
</event>
<event>
 5   0  0.1832646E-04  0.1596651E+04  0.7818609E-02  0.8822608E-01
        2   -1    0    0  501    0  0.00000000000E+00  0.00000000000E+00  0.18306716808E+04  0.18306716808E+04  0.25500000920E-02 0.  1.
       -2   -1    0    0    0  501  0.00000000000E+00  0.00000000000E+00 -0.34813646883E+03  0.34813646884E+03  0.25500000920E-02 0. -1.
    10030    2    1    2    0    0  0.00000000000E+00  0.00000000000E+00  0.14825352119E+04  0.21788081496E+04  0.15966509632E+04 0.  0.
        2    1    3    3  502    0  0.48305720284E+03  0.61255132101E+03  0.50984547001E+03  0.93193657798E+03  0.25500000920E-02 0.  1.
       -2    1    3    3    0  502 -0.48305720284E+03 -0.61255132101E+03  0.97268974191E+03  0.12468715716E+04  0.25500000920E-02 0. -1.
</event>
<event>
 5   0  0.9939872E-05  0.1593337E+04  0.7818609E-02  0.8824652E-01
       -1   -1    0    0    0  501  0.00000000000E+00  0.00000000000E+00  0.48452753084E+03  0.48452753087E+03  0.50400001928E-02 0.  1.
        1   -1    0    0  501    0  0.00000000000E+00  0.00000000000E+00 -0.13098953707E+04  0.13098953707E+04  0.50400001928E-02 0. -1.
    10030    2    1    2    0    0  0.00000000000E+00  0.00000000000E+00 -0.82536783986E+03  0.17944229016E+04  0.15933365867E+04 0.  0.
        3    1    3    3  502    0  0.46323922556E+03  0.49391644513E+03 -0.88533618073E+03  0.11146139233E+04  0.10100000352E+00 0. -1.
       -3    1    3    3    0  502 -0.46323922556E+03 -0.49391644513E+03  0.59968340865E+02  0.67980897830E+03  0.10100000352E+00 0.  1.
</event>
<event>
 5   0  0.9432152E-05  0.1599938E+04  0.7818609E-02  0.8820586E-01
        1   -1    0    0  501    0  0.00000000000E+00  0.00000000000E+00  0.88766299525E+03  0.88766299527E+03  0.50400001928E-02 0.  1.
       -1   -1    0    0    0  501  0.00000000000E+00  0.00000000000E+00 -0.72093869930E+03  0.72093869931E+03  0.50400001928E-02 0. -1.
    10030    2    1    2    0    0  0.00000000000E+00  0.00000000000E+00  0.16672429596E+03  0.16086016946E+04  0.15999382554E+04 0.  0.
        4    1    3    3  502    0 -0.19682384495E+03  0.71145090294E+03 -0.22660413702E+03  0.77217424267E+03  0.12699999809E+01 0. -1.
       -4    1    3    3    0  502  0.19682384495E+03 -0.71145090294E+03  0.39332843297E+03  0.83642745191E+03  0.12699999809E+01 0.  1.
</event>
<event>
 5   0  0.1858913E-04  0.1601366E+04  0.7818609E-02  0.8819709E-01
       -2   -1    0    0    0  501  0.00000000000E+00  0.00000000000E+00  0.52860659970E+03  0.52860659971E+03  0.25500000920E-02 0. -1.
        2   -1    0    0  501    0  0.00000000000E+00  0.00000000000E+00 -0.12127980137E+04  0.12127980137E+04  0.25500000920E-02 0.  1.
    10030    2    1    2    0    0  0.00000000000E+00  0.00000000000E+00 -0.68419141399E+03  0.17414046134E+04  0.16013657098E+04 0.  0.
        4    1    3    3  502    0  0.73873743278E+03 -0.14395340950E+03 -0.63918218548E+03  0.98742648225E+03  0.12699999809E+01 0.  1.
       -4    1    3    3    0  502 -0.73873743278E+03  0.14395340950E+03 -0.45009228507E+02  0.75397813115E+03  0.12699999809E+01 0. -1.
</event>
<event>
 5   0  0.9432152E-05  0.1599659E+04  0.7818609E-02  0.8820757E-01
        1   -1    0    0  501    0  0.00000000000E+00  0.00000000000E+00  0.75746791869E+03  0.75746791870E+03  0.50400001928E-02 0. -1.
       -1   -1    0    0    0  501  0.00000000000E+00  0.00000000000E+00 -0.84456041919E+03  0.84456041921E+03  0.50400001928E-02 0.  1.
    10030    2    1    2    0    0  0.00000000000E+00  0.00000000000E+00 -0.87092500507E+02  0.16020283379E+04  0.15996592424E+04 0.  0.
        4    1    3    3  502    0 -0.35305718361E+03 -0.66666615992E+03 -0.30970792157E+03  0.81548375413E+03  0.12699999809E+01 0.  1.
       -4    1    3    3    0  502  0.35305718361E+03  0.66666615992E+03  0.22261542106E+03  0.78654458378E+03  0.12699999809E+01 0. -1.
</event>
<event>
 5   0  0.9432152E-05  0.1607764E+04  0.7818609E-02  0.8815792E-01
       -1   -1    0    0    0  501  0.00000000000E+00  0.00000000000E+00  0.42525437146E+03  0.42525437149E+03  0.50400001928E-02 0. -1.
        1   -1    0    0  501    0  0.00000000000E+00  0.00000000000E+00 -0.15196231309E+04  0.15196231309E+04  0.50400001928E-02 0.  1.
    10030    2    1    2    0    0  0.00000000000E+00  0.00000000000E+00 -0.10943687594E+04  0.19448775024E+04  0.16077641362E+04 0.  0.
        4    1    3    3  502    0 -0.19098982806E+03 -0.44470279310E+02  0.39587613570E+03  0.44178529613E+03  0.12699999809E+01 0. -1.
       -4    1    3    3    0  502  0.19098982806E+03  0.44470279310E+02 -0.14902448951E+04  0.15030922062E+04  0.12699999809E+01 0.  1.
</event>
<event>
 5   0  0.9673017E-05  0.1596335E+04  0.7818609E-02  0.8822803E-01
        1   -1    0    0  501    0  0.00000000000E+00  0.00000000000E+00  0.10878568206E+04  0.10878568206E+04  0.50400001928E-02 0.  1.
       -1   -1    0    0    0  501  0.00000000000E+00  0.00000000000E+00 -0.58562024122E+03  0.58562024124E+03  0.50400001928E-02 0. -1.
    10030    2    1    2    0    0  0.00000000000E+00  0.00000000000E+00  0.50223657939E+03  0.16734770619E+04  0.15963345185E+04 0.  0.
        1    1    3    3  502    0  0.57278905179E+03 -0.55535872658E+03  0.22630241016E+03  0.82929089825E+03  0.50400001928E-02 0.  1.
       -1    1    3    3    0  502 -0.57278905179E+03  0.55535872658E+03  0.27593416923E+03  0.84418616361E+03  0.50400001928E-02 0. -1.
</event>
<event>
 5   0  0.1774934E-04  0.1588650E+04  0.7818609E-02  0.8827551E-01
        2   -1    0    0  501    0  0.00000000000E+00  0.00000000000E+00  0.15482529198E+04  0.15482529198E+04  0.25500000920E-02 0. -1.
       -2   -1    0    0    0  501  0.00000000000E+00  0.00000000000E+00 -0.40752526990E+03  0.40752526991E+03  0.25500000920E-02 0.  1.
    10030    2    1    2    0    0  0.00000000000E+00  0.00000000000E+00  0.11407276499E+04  0.19557781897E+04  0.15886499791E+04 0.  0.
        1    1    3    3  502    0  0.69992730672E+03  0.23372270873E+03  0.20843953678E+03  0.76679304887E+03  0.50400001928E-02 0.  1.
       -1    1    3    3    0  502 -0.69992730672E+03 -0.23372270873E+03  0.93228811315E+03  0.11889851409E+04  0.50400001928E-02 0. -1.
</event>
<event>
 5   0  0.9939872E-05  0.1599986E+04  0.7818609E-02  0.8820556E-01
       -1   -1    0    0    0  501  0.00000000000E+00  0.00000000000E+00  0.61618679356E+03  0.61618679358E+03  0.50400001928E-02 0. -1.
        1   -1    0    0  501    0  0.00000000000E+00  0.00000000000E+00 -0.10386282515E+04  0.10386282515E+04  0.50400001928E-02 0.  1.
    10030    2    1    2    0    0  0.00000000000E+00  0.00000000000E+00 -0.42244145795E+03  0.16548150451E+04  0.15999862650E+04 0.  0.
        3    1    3    3  502    0 -0.61026781984E+03 -0.46191768401E+03  0.29553379703E+02  0.76594266834E+03  0.10100000352E+00 0. -1.
       -3    1    3    3    0  502  0.61026781984E+03  0.46191768401E+03 -0.45199483766E+03  0.88887237678E+03  0.10100000352E+00 0.  1.
</event>
<event>
 5   0  0.1832646E-04  0.1595025E+04  0.7818609E-02  0.8823610E-01
        2   -1    0    0  501    0  0.00000000000E+00  0.00000000000E+00  0.16554780566E+04  0.16554780566E+04  0.25500000920E-02 0. -1.
       -2   -1    0    0    0  501  0.00000000000E+00  0.00000000000E+00 -0.38419470257E+03  0.38419470258E+03  0.25500000920E-02 0.  1.
    10030    2    1    2    0    0  0.00000000000E+00  0.00000000000E+00  0.12712833540E+04  0.20396727591E+04  0.15950246387E+04 0.  0.
        2    1    3    3  502    0  0.73809431668E+03 -0.13520916817E+02  0.24975783099E+03  0.77932343071E+03  0.25500000920E-02 0.  1.
       -2    1    3    3    0  502 -0.73809431668E+03  0.13520916817E+02  0.10215255230E+04  0.12603493284E+04  0.25500000920E-02 0. -1.
</event>
<event>
 5   0  0.1914170E-04  0.1598541E+04  0.7818609E-02  0.8821445E-01
       -2   -1    0    0    0  501  0.00000000000E+00  0.00000000000E+00  0.44618448375E+03  0.44618448376E+03  0.25500000920E-02 0. -1.
        2   -1    0    0  501    0  0.00000000000E+00  0.00000000000E+00 -0.14317696721E+04  0.14317696721E+04  0.25500000920E-02 0.  1.
    10030    2    1    2    0    0  0.00000000000E+00  0.00000000000E+00 -0.98558518836E+03  0.18779541559E+04  0.15985410999E+04 0.  0.
        3    1    3    3  502    0  0.22606967235E+03 -0.35093522098E+03  0.30793894658E+03  0.51873830695E+03  0.10100000352E+00 0. -1.
       -3    1    3    3    0  502 -0.22606967235E+03  0.35093522098E+03 -0.12935241349E+04  0.13592158489E+04  0.10100000352E+00 0.  1.
</event>
<event>
 5   0  0.6838750E-05  0.1602748E+04  0.7818609E-02  0.8818861E-01
        3   -1    0    0  501    0  0.00000000000E+00  0.00000000000E+00  0.94080942794E+03  0.94080943336E+03  0.10100000352E+00 0. -1.
       -3   -1    0    0    0  501  0.00000000000E+00  0.00000000000E+00 -0.68260440303E+03  0.68260441050E+03  0.10100000352E+00 0.  1.
    10030    2    1    2    0    0  0.00000000000E+00  0.00000000000E+00  0.25820502490E+03  0.16234138439E+04  0.16027484748E+04 0.  0.
        1    1    3    3  502    0 -0.15540494682E+03  0.56588597344E+02 -0.66512997907E+03  0.68538372897E+03  0.50400001928E-02 0.  1.
       -1    1    3    3    0  502  0.15540494682E+03 -0.56588597344E+02  0.92333500398E+03  0.93803011489E+03  0.50400001928E-02 0. -1.
</event>
<event>
 5   0  0.9616567E-05  0.1607513E+04  0.7818609E-02  0.8815946E-01
       -1   -1    0    0    0  501  0.00000000000E+00  0.00000000000E+00  0.50515968155E+03  0.50515968157E+03  0.50400001928E-02 0. -1.
        1   -1    0    0  501    0  0.00000000000E+00  0.00000000000E+00 -0.12788522518E+04  0.12788522518E+04  0.50400001928E-02 0.  1.
    10030    2    1    2    0    0  0.00000000000E+00  0.00000000000E+00 -0.77369257021E+03  0.17840119333E+04  0.16075131057E+04 0.  0.
        5    1    3    3  502    0 -0.21999959309E+03  0.70073091851E+01 -0.12447363930E+04  0.12640568426E+04  0.46999998093E+01 0.  1.
       -5    1    3    3    0  502  0.21999959309E+03 -0.70073091851E+01  0.47104382280E+03  0.51995509070E+03  0.46999998093E+01 0. -1.
</event>
<event>
 5   0  0.1858913E-04  0.1597685E+04  0.7818609E-02  0.8821972E-01
       -2   -1    0    0    0  501  0.00000000000E+00  0.00000000000E+00  0.72739814757E+03  0.72739814757E+03  0.25500000920E-02 0. -1.
        2   -1    0    0  501    0  0.00000000000E+00  0.00000000000E+00 -0.87730394491E+03  0.87730394492E+03  0.25500000920E-02 0.  1.
    10030    2    1    2    0    0  0.00000000000E+00  0.00000000000E+00 -0.14990579735E+03  0.16047020925E+04  0.15976849056E+04 0.  0.
        4    1    3    3  502    0  0.32279315663E+03 -0.68532140883E+03  0.17970912032E+03  0.77856138884E+03  0.12699999809E+01 0. -1.
       -4    1    3    3    0  502 -0.32279315663E+03  0.68532140883E+03 -0.32961491767E+03  0.82614070364E+03  0.12699999809E+01 0.  1.
</event>
<event>
 5   0  0.1858913E-04  0.1594091E+04  0.7818609E-02  0.8824186E-01
        2   -1    0    0  501    0  0.00000000000E+00  0.00000000000E+00  0.13063991368E+04  0.13063991368E+04  0.25500000920E-02 0.  1.
       -2   -1    0    0    0  501  0.00000000000E+00  0.00000000000E+00 -0.48628460728E+03  0.48628460728E+03  0.25500000920E-02 0. -1.
    10030    2    1    2    0    0  0.00000000000E+00  0.00000000000E+00  0.82011452952E+03  0.17926837441E+04  0.15940913289E+04 0.  0.
        4    1    3    3  502    0  0.75394288108E+03  0.18943404719E+03  0.60794842217E+03  0.98687285052E+03  0.12699999809E+01 0.  1.
       -4    1    3    3    0  502 -0.75394288108E+03 -0.18943404719E+03  0.21216610735E+03  0.80581089356E+03  0.12699999809E+01 0. -1.
</event>
<event>
 5   0  0.1832646E-04  0.1607183E+04  0.7818609E-02  0.8816147E-01
       -2   -1    0    0    0  501  0.00000000000E+00  0.00000000000E+00  0.17252092114E+04  0.17252092114E+04  0.25500000920E-02 0. -1.
        2   -1    0    0  501    0  0.00000000000E+00  0.00000000000E+00 -0.37430800262E+03  0.37430800263E+03  0.25500000920E-02 0.  1.
    10030    2    1    2    0    0  0.00000000000E+00  0.00000000000E+00  0.13509012087E+04  0.20995172140E+04  0.16071833922E+04 0.  0.
        2    1    3    3  502    0 -0.20112798815E+03 -0.10939321900E+03 -0.33079944865E+03  0.40230289487E+03  0.25500000920E-02 0.  1.
       -2    1    3    3    0  502  0.20112798815E+03  0.10939321900E+03  0.16817006574E+04  0.16972143191E+04  0.25500000920E-02 0. -1.
</event>
<event>
 5   0  0.9616567E-05  0.1598442E+04  0.7818609E-02  0.8821506E-01
        1   -1    0    0  501    0  0.00000000000E+00  0.00000000000E+00  0.90248551745E+03  0.90248551746E+03  0.50400001928E-02 0.  1.
       -1   -1    0    0    0  501  0.00000000000E+00  0.00000000000E+00 -0.70777215238E+03  0.70777215240E+03  0.50400001928E-02 0. -1.
    10030    2    1    2    0    0  0.00000000000E+00  0.00000000000E+00  0.19471336506E+03  0.16102576699E+04  0.15984418878E+04 0.  0.
        5    1    3    3  502    0  0.54905329213E+03 -0.80361390883E+02  0.67677314471E+03  0.87519223611E+03  0.46999998093E+01 0.  1.
       -5    1    3    3    0  502 -0.54905329213E+03  0.80361390883E+02 -0.48205977964E+03  0.73506543375E+03  0.46999998093E+01 0. -1.
</event>
<event>
 5   0  0.1914170E-04  0.1606673E+04  0.7818609E-02  0.8816459E-01
       -2   -1    0    0    0  501  0.00000000000E+00  0.00000000000E+00  0.26822614294E+03  0.26822614295E+03  0.25500000920E-02 0. -1.
        2   -1    0    0  501    0  0.00000000000E+00  0.00000000000E+00 -0.24059896342E+04  0.24059896342E+04  0.25500000920E-02 0.  1.
    10030    2    1    2    0    0  0.00000000000E+00  0.00000000000E+00 -0.21377634913E+04  0.26742157772E+04  0.16066727353E+04 0.  0.
        3    1    3    3  502    0 -0.37030668150E+03 -0.57240309598E+03 -0.36158737819E+03  0.77169798815E+03  0.10100000352E+00 0. -1.
       -3    1    3    3    0  502  0.37030668150E+03  0.57240309598E+03 -0.17761761131E+04  0.19025177890E+04  0.10100000352E+00 0.  1.
</event>
<event>
 5   0  0.6838750E-05  0.1606982E+04  0.7818609E-02  0.8816270E-01
       -3   -1    0    0    0  501  0.00000000000E+00  0.00000000000E+00  0.69499063317E+03  0.69499064051E+03  0.10100000352E+00 0.  1.
        3   -1    0    0  501    0  0.00000000000E+00  0.00000000000E+00 -0.92893013664E+03  0.92893014213E+03  0.10100000352E+00 0. -1.
    10030    2    1    2    0    0  0.00000000000E+00  0.00000000000E+00 -0.23393950347E+03  0.16239207826E+04  0.16069819591E+04 0.  0.
        2    1    3    3  502    0  0.78956047599E+03 -0.13457744246E+03 -0.52414298906E+02  0.80266063314E+03  0.25500000920E-02 0.  1.
       -2    1    3    3    0  502 -0.78956047599E+03  0.13457744246E+03 -0.18152520456E+03  0.82126014950E+03  0.25500000920E-02 0. -1.
</event>
<event>
 5   0  0.9939872E-05  0.1604006E+04  0.7818609E-02  0.8818091E-01
       -1   -1    0    0    0  501  0.00000000000E+00  0.00000000000E+00  0.92349900039E+03  0.92349900040E+03  0.50400001928E-02 0.  1.
        1   -1    0    0  501    0  0.00000000000E+00  0.00000000000E+00 -0.69649115979E+03  0.69649115981E+03  0.50400001928E-02 0. -1.
    10030    2    1    2    0    0  0.00000000000E+00  0.00000000000E+00  0.22700784060E+03  0.16199901602E+04  0.16040060971E+04 0.  0.
        3    1    3    3  502    0 -0.23912793442E+03  0.15587687317E+03 -0.64345067104E+03  0.70392367830E+03  0.10100000352E+00 0. -1.
       -3    1    3    3    0  502  0.23912793442E+03 -0.15587687317E+03  0.87045851164E+03  0.91606648192E+03  0.10100000352E+00 0.  1.
</event>
<event>
 5   0  0.6838750E-05  0.1539487E+04  0.7818609E-02  0.8858611E-01
        3   -1    0    0  501    0  0.00000000000E+00  0.00000000000E+00  0.13636999056E+04  0.13636999093E+04  0.10100000352E+00 0. -1.
       -3   -1    0    0    0  501  0.00000000000E+00  0.00000000000E+00 -0.43448366849E+03  0.43448368023E+03  0.10100000352E+00 0.  1.
    10030    2    1    2    0    0  0.00000000000E+00  0.00000000000E+00  0.92921623711E+03  0.17981835896E+04  0.15394873843E+04 0.  0.
        4    1    3    3  502    0 -0.56028657269E+03 -0.76561450187E+02 -0.14537415930E+03  0.58388180164E+03  0.12699999809E+01 0.  1.
       -4    1    3    3    0  502  0.56028657269E+03  0.76561450187E+02  0.10745903964E+04  0.12143017879E+04  0.12699999809E+01 0. -1.
</event>
<event>
 5   0  0.1858913E-04  0.1595708E+04  0.7818609E-02  0.8823189E-01
       -2   -1    0    0    0  501  0.00000000000E+00  0.00000000000E+00  0.66127620753E+03  0.66127620753E+03  0.25500000920E-02 0.  1.
        2   -1    0    0  501    0  0.00000000000E+00  0.00000000000E+00 -0.96263965548E+03  0.96263965549E+03  0.25500000920E-02 0. -1.
    10030    2    1    2    0    0  0.00000000000E+00  0.00000000000E+00 -0.30136344796E+03  0.16239158630E+04  0.15957076181E+04 0.  0.
        4    1    3    3  502    0 -0.34234451955E+03 -0.11429465640E+03 -0.87481209683E+03  0.94634077172E+03  0.12699999809E+01 0. -1.
       -4    1    3    3    0  502  0.34234451955E+03  0.11429465640E+03  0.57344864888E+03  0.67757509130E+03  0.12699999809E+01 0.  1.
</event>
<event>
 5   0  0.9432152E-05  0.1609962E+04  0.7818609E-02  0.8814451E-01
        1   -1    0    0  501    0  0.00000000000E+00  0.00000000000E+00  0.19560721800E+04  0.19560721800E+04  0.50400001928E-02 0. -1.
       -1   -1    0    0    0  501  0.00000000000E+00  0.00000000000E+00 -0.33127311592E+03  0.33127311596E+03  0.50400001928E-02 0.  1.
    10030    2    1    2    0    0  0.00000000000E+00  0.00000000000E+00  0.16247990641E+04  0.22873452960E+04  0.16099616468E+04 0.  0.
        4    1    3    3  502    0 -0.27414370699E+03  0.17490954993E+03 -0.23379810326E+03  0.40051378094E+03  0.12699999809E+01 0.  1.
       -4    1    3    3    0  502  0.27414370699E+03 -0.17490954993E+03  0.18585971673E+04  0.18868315150E+04  0.12699999809E+01 0. -1.
</event>
<event>
 5   0  0.9939872E-05  0.1595893E+04  0.7818609E-02  0.8823075E-01
       -1   -1    0    0    0  501  0.00000000000E+00  0.00000000000E+00  0.64251945888E+03  0.64251945890E+03  0.50400001928E-02 0.  1.
        1   -1    0    0  501    0  0.00000000000E+00  0.00000000000E+00 -0.99097190515E+03  0.99097190516E+03  0.50400001928E-02 0. -1.
    10030    2    1    2    0    0  0.00000000000E+00  0.00000000000E+00 -0.34845244627E+03  0.16334913641E+04  0.15958931447E+04 0.  0.
        3    1    3    3  502    0 -0.69119828079E+03  0.73854092163E+02  0.22680693542E+03  0.73119825386E+03  0.10100000352E+00 0.  1.
       -3    1    3    3    0  502  0.69119828079E+03 -0.73854092163E+02 -0.57525938168E+03  0.90229311020E+03  0.10100000352E+00 0. -1.
</event>
<event>
 5   0  0.1832646E-04  0.1596857E+04  0.7818609E-02  0.8822481E-01
        2   -1    0    0  501    0  0.00000000000E+00  0.00000000000E+00  0.68477317957E+03  0.68477317957E+03  0.25500000920E-02 0.  1.
       -2   -1    0    0    0  501  0.00000000000E+00  0.00000000000E+00 -0.93094724684E+03  0.93094724685E+03  0.25500000920E-02 0. -1.
    10030    2    1    2    0    0  0.00000000000E+00  0.00000000000E+00 -0.24617406727E+03  0.16157204264E+04  0.15968565449E+04 0.  0.
        2    1    3    3  502    0 -0.56796885761E+03 -0.46909030606E+03  0.18853394737E+03  0.76038108063E+03  0.25500000920E-02 0.  1.
       -2    1    3    3    0  502  0.56796885761E+03  0.46909030606E+03 -0.43470801464E+03  0.85533934579E+03  0.25500000920E-02 0. -1.
</event>
<event>
 5   0  0.9939872E-05  0.1606438E+04  0.7818609E-02  0.8816603E-01
       -1   -1    0    0    0  501  0.00000000000E+00  0.00000000000E+00  0.56804911682E+03  0.56804911684E+03  0.50400001928E-02 0. -1.
        1   -1    0    0  501    0  0.00000000000E+00  0.00000000000E+00 -0.11357480501E+04  0.11357480501E+04  0.50400001928E-02 0.  1.
    10030    2    1    2    0    0  0.00000000000E+00  0.00000000000E+00 -0.56769893329E+03  0.17037971670E+04  0.16064378940E+04 0.  0.
        3    1    3    3  502    0  0.44396029727E+03  0.34798767767E+03 -0.89031238412E+03  0.10539697913E+04  0.10100000352E+00 0.  1.
       -3    1    3    3    0  502 -0.44396029727E+03 -0.34798767767E+03  0.32261345083E+03  0.64982737571E+03  0.10100000352E+00 0. -1.
</event>
<event>
 5   0  0.1858913E-04  0.1618852E+04  0.7818609E-02  0.8809049E-01
       -2   -1    0    0    0  501  0.00000000000E+00  0.00000000000E+00  0.39087417832E+03  0.39087417833E+03  0.25500000920E-02 0. -1.
        2   -1    0    0  501    0  0.00000000000E+00  0.00000000000E+00 -0.16761679447E+04  0.16761679447E+04  0.25500000920E-02 0.  1.
    10030    2    1    2    0    0  0.00000000000E+00  0.00000000000E+00 -0.12852937664E+04  0.20670421231E+04  0.16188523937E+04 0.  0.
        4    1    3    3  502    0 -0.70599722854E+03  0.32130823872E+03 -0.93797934831E+03  0.12171597848E+04  0.12699999809E+01 0. -1.
       -4    1    3    3    0  502  0.70599722854E+03 -0.32130823872E+03 -0.34731441809E+03  0.84988233826E+03  0.12699999809E+01 0.  1.
</event>
<event>
 5   0  0.1774934E-04  0.1598238E+04  0.7818609E-02  0.8821631E-01
        2   -1    0    0  501    0  0.00000000000E+00  0.00000000000E+00  0.13592909981E+04  0.13592909981E+04  0.25500000920E-02 0.  1.
       -2   -1    0    0    0  501  0.00000000000E+00  0.00000000000E+00 -0.46979718443E+03  0.46979718444E+03  0.25500000920E-02 0. -1.
    10030    2    1    2    0    0  0.00000000000E+00  0.00000000000E+00  0.88949381369E+03  0.18290881826E+04  0.15982378844E+04 0.  0.
        1    1    3    3  502    0  0.15884521220E+03 -0.52519511746E+03 -0.22014187871E+03  0.59120568301E+03  0.50400001928E-02 0. -1.
       -1    1    3    3    0  502 -0.15884521220E+03  0.52519511746E+03  0.11096356924E+04  0.12378824996E+04  0.50400001928E-02 0.  1.
</event>
<event>
 5   0  0.1774934E-04  0.1594686E+04  0.7818609E-02  0.8823819E-01
       -2   -1    0    0    0  501  0.00000000000E+00  0.00000000000E+00  0.23475774522E+04  0.23475774522E+04  0.25500000920E-02 0. -1.
        2   -1    0    0  501    0  0.00000000000E+00  0.00000000000E+00 -0.27081356585E+03  0.27081356586E+03  0.25500000920E-02 0.  1.
    10030    2    1    2    0    0  0.00000000000E+00  0.00000000000E+00  0.20767638864E+04  0.26183910181E+04  0.15946859515E+04 0.  0.
        1    1    3    3  502    0  0.51518790498E+03 -0.49454614924E+03  0.45610052751E+03  0.84736188395E+03  0.50400001928E-02 0.  1.
       -1    1    3    3    0  502 -0.51518790498E+03  0.49454614924E+03  0.16206633589E+04  0.17710291341E+04  0.50400001928E-02 0. -1.
</event>
<event>
 5   0  0.1914170E-04  0.1578868E+04  0.7818609E-02  0.8833636E-01
       -2   -1    0    0    0  501  0.00000000000E+00  0.00000000000E+00  0.25916654458E+03  0.25916654460E+03  0.25500000920E-02 0. -1.
        2   -1    0    0  501    0  0.00000000000E+00  0.00000000000E+00 -0.24046555438E+04  0.24046555438E+04  0.25500000920E-02 0.  1.
    10030    2    1    2    0    0  0.00000000000E+00  0.00000000000E+00 -0.21454889992E+04  0.26638220884E+04  0.15788682886E+04 0.  0.
        3    1    3    3  502    0  0.57697219997E+02  0.24023872709E+03 -0.23377438567E+04  0.23507636982E+04  0.10100000352E+00 0.  1.
       -3    1    3    3    0  502 -0.57697219997E+02 -0.24023872709E+03  0.19225485752E+03  0.31305839013E+03  0.10100000352E+00 0. -1.
</event>
<event>
 5   0  0.1835088E-04  0.1604501E+04  0.7818609E-02  0.8817788E-01
       -2   -1    0    0    0  501  0.00000000000E+00  0.00000000000E+00  0.59669430481E+03  0.59669430482E+03  0.25500000920E-02 0.  1.
        2   -1    0    0  501    0  0.00000000000E+00  0.00000000000E+00 -0.10786190122E+04  0.10786190122E+04  0.25500000920E-02 0. -1.
    10030    2    1    2    0    0  0.00000000000E+00  0.00000000000E+00 -0.48192470743E+03  0.16753133171E+04  0.16045009463E+04 0.  0.
        5    1    3    3  502    0 -0.65398205953E+03 -0.26849902486E+03 -0.63690721194E+03  0.95155512040E+03  0.46999998093E+01 0. -1.
       -5    1    3    3    0  502  0.65398205953E+03  0.26849902486E+03  0.15498250452E+03  0.72375819666E+03  0.46999998093E+01 0.  1.
</event>
<event>
 5   0  0.9939872E-05  0.1604259E+04  0.7818609E-02  0.8817936E-01
        1   -1    0    0  501    0  0.00000000000E+00  0.00000000000E+00  0.81442999962E+03  0.81442999964E+03  0.50400001928E-02 0.  1.
       -1   -1    0    0    0  501  0.00000000000E+00  0.00000000000E+00 -0.79001496725E+03  0.79001496727E+03  0.50400001928E-02 0. -1.
    10030    2    1    2    0    0  0.00000000000E+00  0.00000000000E+00  0.24415032368E+02  0.16044449669E+04  0.16042591929E+04 0.  0.
        3    1    3    3  502    0  0.68593325606E+03 -0.40183260983E+03  0.11916849234E+03  0.80385012151E+03  0.10100000352E+00 0.  1.
       -3    1    3    3    0  502 -0.68593325606E+03  0.40183260983E+03 -0.94753459975E+02  0.80059484539E+03  0.10100000352E+00 0. -1.
</event>
<event>
 5   0  0.9432152E-05  0.1600957E+04  0.7818609E-02  0.8819960E-01
       -1   -1    0    0    0  501  0.00000000000E+00  0.00000000000E+00  0.20081077190E+04  0.20081077190E+04  0.50400001928E-02 0.  1.
        1   -1    0    0  501    0  0.00000000000E+00  0.00000000000E+00 -0.31908952340E+03  0.31908952344E+03  0.50400001928E-02 0. -1.
    10030    2    1    2    0    0  0.00000000000E+00  0.00000000000E+00  0.16890181956E+04  0.23271972425E+04  0.16009573824E+04 0.  0.
        4    1    3    3  502    0  0.25967112080E+03  0.75567937790E+03  0.91398142302E+03  0.12140197971E+04  0.12699999809E+01 0.  1.
       -4    1    3    3    0  502 -0.25967112080E+03 -0.75567937790E+03  0.77503677261E+03  0.11131774454E+04  0.12699999809E+01 0. -1.
</event>
<event>
 5   0  0.1858913E-04  0.1603971E+04  0.7818609E-02  0.8818112E-01
        2   -1    0    0  501    0  0.00000000000E+00  0.00000000000E+00  0.52980651658E+03  0.52980651659E+03  0.25500000920E-02 0. -1.
       -2   -1    0    0    0  501  0.00000000000E+00  0.00000000000E+00 -0.12139918533E+04  0.12139918533E+04  0.25500000920E-02 0.  1.
    10030    2    1    2    0    0  0.00000000000E+00  0.00000000000E+00 -0.68418533673E+03  0.17437983699E+04  0.16039710658E+04 0.  0.
        4    1    3    3  502    0 -0.63635220844E+03 -0.11849989480E+03  0.17267420511E+03  0.66992861729E+03  0.12699999809E+01 0. -1.
       -4    1    3    3    0  502  0.63635220844E+03  0.11849989480E+03 -0.85685954184E+03  0.10738697526E+04  0.12699999809E+01 0.  1.
</event>
<event>
 5   0  0.9939872E-05  0.1601609E+04  0.7818609E-02  0.8819560E-01
       -1   -1    0    0    0  501  0.00000000000E+00  0.00000000000E+00  0.76337307458E+03  0.76337307459E+03  0.50400001928E-02 0.  1.
        1   -1    0    0  501    0  0.00000000000E+00  0.00000000000E+00 -0.84007140688E+03  0.84007140690E+03  0.50400001928E-02 0. -1.
    10030    2    1    2    0    0  0.00000000000E+00  0.00000000000E+00 -0.76698332307E+02  0.16034444815E+04  0.16016090569E+04 0.  0.
        3    1    3    3  502    0  0.12855054071E+03  0.71368012437E+03  0.30178025064E+03  0.78545266650E+03  0.10100000352E+00 0.  1.
       -3    1    3    3    0  502 -0.12855054071E+03 -0.71368012437E+03 -0.37847858295E+03  0.81799181499E+03  0.10100000352E+00 0. -1.
</event>
<event>
 5   0  0.9726935E-05  0.1601042E+04  0.7818609E-02  0.8819908E-01
       -1   -1    0    0    0  501  0.00000000000E+00  0.00000000000E+00  0.62481788673E+03  0.62481788675E+03  0.50400001928E-02 0.  1.
        1   -1    0    0  501    0  0.00000000000E+00  0.00000000000E+00 -0.10256334668E+04  0.10256334668E+04  0.50400001928E-02 0. -1.
    10030    2    1    2    0    0  0.00000000000E+00  0.00000000000E+00 -0.40081558006E+03  0.16504513536E+04  0.16010423296E+04 0.  0.
        2    1    3    3  502    0  0.68882349675E+03 -0.37138841807E+03 -0.26601620486E+02  0.78301648321E+03  0.25500000920E-02 0.  1.
       -2    1    3    3    0  502 -0.68882349675E+03  0.37138841807E+03 -0.37421395957E+03  0.86743487035E+03  0.25500000920E-02 0. -1.
</event>
<event>
 5   0  0.9939872E-05  0.1600631E+04  0.7818609E-02  0.8820161E-01
        1   -1    0    0  501    0  0.00000000000E+00  0.00000000000E+00  0.68898983518E+03  0.68898983520E+03  0.50400001928E-02 0. -1.
       -1   -1    0    0    0  501  0.00000000000E+00  0.00000000000E+00 -0.92962837425E+03  0.92962837427E+03  0.50400001928E-02 0.  1.
    10030    2    1    2    0    0  0.00000000000E+00  0.00000000000E+00 -0.24063853908E+03  0.16186182095E+04  0.16006305012E+04 0.  0.
        3    1    3    3  502    0 -0.33960314764E+03  0.31883192145E+02 -0.85244268918E+03  0.91815324666E+03  0.10100000352E+00 0.  1.
       -3    1    3    3    0  502  0.33960314764E+03 -0.31883192145E+02  0.61180415010E+03  0.70046496280E+03  0.10100000352E+00 0. -1.
</event>
<event>
 5   0  0.9939872E-05  0.1594176E+04  0.7818609E-02  0.8824134E-01
       -1   -1    0    0    0  501  0.00000000000E+00  0.00000000000E+00  0.10959849014E+04  0.10959849014E+04  0.50400001928E-02 0.  1.
        1   -1    0    0  501    0  0.00000000000E+00  0.00000000000E+00 -0.57970637463E+03  0.57970637465E+03  0.50400001928E-02 0. -1.
    10030    2    1    2    0    0  0.00000000000E+00  0.00000000000E+00  0.51627852674E+03  0.16756912760E+04  0.15941761933E+04 0.  0.
        3    1    3    3  502    0  0.75758691785E+03 -0.24474612174E+03  0.29899605492E+03  0.85043356782E+03  0.10100000352E+00 0.  1.
       -3    1    3    3    0  502 -0.75758691785E+03  0.24474612174E+03  0.21728247182E+03  0.82525770822E+03  0.10100000352E+00 0. -1.
</event>
<event>
 5   0  0.9616567E-05  0.1604301E+04  0.7818609E-02  0.8817910E-01
       -1   -1    0    0    0  501  0.00000000000E+00  0.00000000000E+00  0.89848404930E+03  0.89848404932E+03  0.50400001928E-02 0. -1.
        1   -1    0    0  501    0  0.00000000000E+00  0.00000000000E+00 -0.71614605506E+03  0.71614605508E+03  0.50400001928E-02 0.  1.
    10030    2    1    2    0    0  0.00000000000E+00  0.00000000000E+00  0.18233799424E+03  0.16146301044E+04  0.16043014772E+04 0.  0.
        5    1    3    3  502    0  0.31237559366E+03  0.47053004468E+03  0.66443835856E+03  0.87205358596E+03  0.46999998093E+01 0. -1.
       -5    1    3    3    0  502 -0.31237559366E+03 -0.47053004468E+03 -0.48210036432E+03  0.74257651844E+03  0.46999998093E+01 0.  1.
</event>
<event>
 5   0  0.9726935E-05  0.1604649E+04  0.7818609E-02  0.8817697E-01
        1   -1    0    0  501    0  0.00000000000E+00  0.00000000000E+00  0.95650078950E+03  0.95650078951E+03  0.50400001928E-02 0.  1.
       -1   -1    0    0    0  501  0.00000000000E+00  0.00000000000E+00 -0.67299924068E+03  0.67299924070E+03  0.50400001928E-02 0. -1.
    10030    2    1    2    0    0  0.00000000000E+00  0.00000000000E+00  0.28350154882E+03  0.16295000302E+04  0.16046486283E+04 0.  0.
        2    1    3    3  502    0  0.71110773035E+03  0.36124621285E+03  0.22999464632E+03  0.83010274533E+03  0.25500000920E-02 0.  1.
       -2    1    3    3    0  502 -0.71110773035E+03 -0.36124621285E+03  0.53506902496E+02  0.79939728489E+03  0.25500000920E-02 0. -1.
</event>
<event>
 5   0  0.6838750E-05  0.1597448E+04  0.7818609E-02  0.8822117E-01
        3   -1    0    0  501    0  0.00000000000E+00  0.00000000000E+00  0.88904423360E+03  0.88904423934E+03  0.10100000352E+00 0. -1.
       -3   -1    0    0    0  501  0.00000000000E+00  0.00000000000E+00 -0.71757970661E+03  0.71757971372E+03  0.10100000352E+00 0.  1.
    10030    2    1    2    0    0  0.00000000000E+00  0.00000000000E+00  0.17146452699E+03  0.16066239531E+04  0.15974481032E+04 0.  0.
        3    1    3    3  502    0 -0.38774106210E+03 -0.68779764013E+03 -0.35589720076E+02  0.79036407015E+03  0.10100000352E+00 0.  1.
       -3    1    3    3    0  502  0.38774106210E+03  0.68779764013E+03  0.20705424707E+03  0.81625988291E+03  0.10100000352E+00 0. -1.
</event>
<event>
 5   0  0.9726935E-05  0.1597664E+04  0.7818609E-02  0.8821984E-01
       -1   -1    0    0    0  501  0.00000000000E+00  0.00000000000E+00  0.99227536676E+03  0.99227536677E+03  0.50400001928E-02 0.  1.
        1   -1    0    0  501    0  0.00000000000E+00  0.00000000000E+00 -0.64310029122E+03  0.64310029124E+03  0.50400001928E-02 0. -1.
    10030    2    1    2    0    0  0.00000000000E+00  0.00000000000E+00  0.34917507554E+03  0.16353756580E+04  0.15976640164E+04 0.  0.
        2    1    3    3  502    0 -0.25097373464E+03 -0.51650087242E+03 -0.39383235698E+03  0.69632240528E+03  0.25500000920E-02 0. -1.
       -2    1    3    3    0  502  0.25097373464E+03  0.51650087242E+03  0.74300743252E+03  0.93905325273E+03  0.25500000920E-02 0.  1.
</event>
<event>
 5   0  0.1835088E-04  0.1601068E+04  0.7818609E-02  0.8819892E-01
        2   -1    0    0  501    0  0.00000000000E+00  0.00000000000E+00  0.70514588536E+03  0.70514588537E+03  0.25500000920E-02 0.  1.
       -2   -1    0    0    0  501  0.00000000000E+00  0.00000000000E+00 -0.90882546087E+03  0.90882546087E+03  0.25500000920E-02 0. -1.
    10030    2    1    2    0    0  0.00000000000E+00  0.00000000000E+00 -0.20367957550E+03  0.16139713462E+04  0.16010678115E+04 0.  0.
        5    1    3    3  502    0  0.21243007087E+03  0.40329018323E+03  0.56153903369E+03  0.72326874898E+03  0.46999998093E+01 0.  1.
       -5    1    3    3    0  502 -0.21243007087E+03 -0.40329018323E+03 -0.76521860919E+03  0.89070259725E+03  0.46999998093E+01 0. -1.
</event>
<event>
 5   0  0.9939872E-05  0.1599999E+04  0.7818609E-02  0.8820549E-01
       -1   -1    0    0    0  501  0.00000000000E+00  0.00000000000E+00  0.34533741942E+03  0.34533741945E+03  0.50400001928E-02 0.  1.
        1   -1    0    0  501    0  0.00000000000E+00  0.00000000000E+00 -0.18532567710E+04  0.18532567710E+04  0.50400001928E-02 0. -1.
    10030    2    1    2    0    0  0.00000000000E+00  0.00000000000E+00 -0.15079193516E+04  0.21985941905E+04  0.15999986386E+04 0.  0.
        3    1    3    3  502    0 -0.39050838178E+02  0.79899618920E+03 -0.76617487034E+03  0.11076749616E+04  0.10100000352E+00 0. -1.
       -3    1    3    3    0  502  0.39050838178E+02 -0.79899618920E+03 -0.74174448125E+03  0.10909192289E+04  0.10100000352E+00 0.  1.
</event>
<event>
 5   0  0.1835088E-04  0.1611251E+04  0.7818609E-02  0.8813666E-01
        2   -1    0    0  501    0  0.00000000000E+00  0.00000000000E+00  0.12830653961E+04  0.12830653961E+04  0.25500000920E-02 0. -1.
       -2   -1    0    0    0  501  0.00000000000E+00  0.00000000000E+00 -0.50584521598E+03  0.50584521598E+03  0.25500000920E-02 0.  1.
    10030    2    1    2    0    0  0.00000000000E+00  0.00000000000E+00  0.77722018016E+03  0.17889106121E+04  0.16112510573E+04 0.  0.
        5    1    3    3  502    0  0.64234598141E+03  0.47677829284E+03  0.28278808427E+03  0.84847928140E+03  0.46999998093E+01 0. -1.
       -5    1    3    3    0  502 -0.64234598141E+03 -0.47677829284E+03  0.49443209589E+03  0.94043133072E+03  0.46999998093E+01 0.  1.
</event>
<event>
 5   0  0.9939872E-05  0.1503030E+04  0.7818609E-02  0.8882441E-01
        1   -1    0    0  501    0  0.00000000000E+00  0.00000000000E+00  0.35074316616E+03  0.35074316620E+03  0.50400001928E-02 0.  1.
       -1   -1    0    0    0  501  0.00000000000E+00  0.00000000000E+00 -0.16102231565E+04  0.16102231565E+04  0.50400001928E-02 0. -1.
    10030    2    1    2    0    0  0.00000000000E+00  0.00000000000E+00 -0.12594799903E+04  0.19609663227E+04  0.15030299640E+04 0.  0.
        3    1    3    3  502    0  0.41703666961E+03  0.75945689312E+02 -0.14393617437E+04  0.15004831125E+04  0.10100000352E+00 0. -1.
       -3    1    3    3    0  502 -0.41703666961E+03 -0.75945689312E+02  0.17988175331E+03  0.46048321023E+03  0.10100000352E+00 0.  1.
</event>
<event>
 5   0  0.1858913E-04  0.1593133E+04  0.7818609E-02  0.8824778E-01
        2   -1    0    0  501    0  0.00000000000E+00  0.00000000000E+00  0.79062110343E+03  0.79062110343E+03  0.25500000920E-02 0. -1.
       -2   -1    0    0    0  501  0.00000000000E+00  0.00000000000E+00 -0.80255704388E+03  0.80255704388E+03  0.25500000920E-02 0.  1.
    10030    2    1    2    0    0  0.00000000000E+00  0.00000000000E+00 -0.11935940451E+02  0.15931781473E+04  0.15931334352E+04 0.  0.
        4    1    3    3  502    0  0.56289662430E+03 -0.44069769380E+03 -0.35733214767E+03  0.79922146094E+03  0.12699999809E+01 0.  1.
       -4    1    3    3    0  502 -0.56289662430E+03  0.44069769380E+03  0.34539620722E+03  0.79395668637E+03  0.12699999809E+01 0. -1.
</event>
<event>
 5   0  0.9432152E-05  0.1600603E+04  0.7818609E-02  0.8820177E-01
       -1   -1    0    0    0  501  0.00000000000E+00  0.00000000000E+00  0.57067513842E+03  0.57067513845E+03  0.50400001928E-02 0.  1.
        1   -1    0    0  501    0  0.00000000000E+00  0.00000000000E+00 -0.11223245454E+04  0.11223245454E+04  0.50400001928E-02 0. -1.
    10030    2    1    2    0    0  0.00000000000E+00  0.00000000000E+00 -0.55164940695E+03  0.16929996838E+04  0.16006032804E+04 0.  0.
        4    1    3    3  502    0  0.65485016885E+03 -0.27477375622E+03  0.11446291598E+03  0.71932797303E+03  0.12699999809E+01 0.  1.
       -4    1    3    3    0  502 -0.65485016885E+03  0.27477375622E+03 -0.66611232293E+03  0.97367171080E+03  0.12699999809E+01 0. -1.
</event>
<event>
 5   0  0.1858913E-04  0.1604350E+04  0.7818609E-02  0.8817880E-01
        2   -1    0    0  501    0  0.00000000000E+00  0.00000000000E+00  0.13272482167E+04  0.13272482167E+04  0.25500000920E-02 0.  1.
       -2   -1    0    0    0  501  0.00000000000E+00  0.00000000000E+00 -0.48482611379E+03  0.48482611380E+03  0.25500000920E-02 0. -1.
    10030    2    1    2    0    0  0.00000000000E+00  0.00000000000E+00  0.84242210294E+03  0.18120743305E+04  0.16043498309E+04 0.  0.
        4    1    3    3  502    0 -0.53287712461E+03 -0.11764380164E+03 -0.24286395111E+03  0.59731282060E+03  0.12699999809E+01 0. -1.
       -4    1    3    3    0  502  0.53287712461E+03  0.11764380164E+03  0.10852860541E+04  0.12147615099E+04  0.12699999809E+01 0.  1.
</event>
<event>
 5   0  0.1832646E-04  0.1582719E+04  0.7818609E-02  0.8831235E-01
       -2   -1    0    0    0  501  0.00000000000E+00  0.00000000000E+00  0.48097961760E+03  0.48097961761E+03  0.25500000920E-02 0.  1.
        2   -1    0    0  501    0  0.00000000000E+00  0.00000000000E+00 -0.13020293518E+04  0.13020293518E+04  0.25500000920E-02 0. -1.
    10030    2    1    2    0    0  0.00000000000E+00  0.00000000000E+00 -0.82104973416E+03  0.17830089694E+04  0.15827186481E+04 0.  0.
        2    1    3    3  502    0 -0.58285557880E+02  0.85691735034E+02 -0.12943515689E+04  0.12984938443E+04  0.25500000920E-02 0. -1.
       -2    1    3    3    0  502  0.58285557880E+02 -0.85691735034E+02  0.47330183472E+03  0.48451512511E+03  0.25500000920E-02 0.  1.
</event>
<event>
 5   0  0.9673017E-05  0.1595514E+04  0.7818609E-02  0.8823309E-01
       -1   -1    0    0    0  501  0.00000000000E+00  0.00000000000E+00  0.75144931228E+03  0.75144931229E+03  0.50400001928E-02 0. -1.
        1   -1    0    0  501    0  0.00000000000E+00  0.00000000000E+00 -0.84691849148E+03  0.84691849150E+03  0.50400001928E-02 0.  1.
    10030    2    1    2    0    0  0.00000000000E+00  0.00000000000E+00 -0.95469179206E+02  0.15983678038E+04  0.15955141090E+04 0.  0.
        1    1    3    3  502    0 -0.72108412653E+03 -0.34051567726E+03 -0.25265162119E+02  0.79784182169E+03  0.50400001928E-02 0.  1.
       -1    1    3    3    0  502  0.72108412653E+03  0.34051567726E+03 -0.70204017087E+02  0.80052598211E+03  0.50400001928E-02 0. -1.
</event>
<event>
 5   0  0.6838750E-05  0.1603562E+04  0.7818609E-02  0.8818363E-01
       -3   -1    0    0    0  501  0.00000000000E+00  0.00000000000E+00  0.16198463183E+04  0.16198463215E+04  0.10100000352E+00 0. -1.
        3   -1    0    0  501    0  0.00000000000E+00  0.00000000000E+00 -0.39686019039E+03  0.39686020324E+03  0.10100000352E+00 0.  1.
    10030    2    1    2    0    0  0.00000000000E+00  0.00000000000E+00  0.12229861279E+04  0.20167065247E+04  0.16035617037E+04 0.  0.
        4    1    3    3  502    0 -0.15796623861E+03  0.78602472562E+03  0.60153307117E+03  0.10023132497E+04  0.12699999809E+01 0. -1.
       -4    1    3    3    0  502  0.15796623861E+03 -0.78602472562E+03  0.62145305675E+03  0.10143932751E+04  0.12699999809E+01 0.  1.
</event>
<event>
 5   0  0.9673017E-05  0.1592903E+04  0.7818609E-02  0.8824920E-01
        1   -1    0    0  501    0  0.00000000000E+00  0.00000000000E+00  0.82005549172E+03  0.82005549174E+03  0.50400001928E-02 0. -1.
       -1   -1    0    0    0  501  0.00000000000E+00  0.00000000000E+00 -0.77352646898E+03  0.77352646899E+03  0.50400001928E-02 0.  1.
    10030    2    1    2    0    0  0.00000000000E+00  0.00000000000E+00  0.46529022744E+02  0.15935819607E+04  0.15929025443E+04 0.  0.
        1    1    3    3  502    0  0.59615426022E+03 -0.52408013394E+03 -0.42144872301E+02  0.79488117291E+03  0.50400001928E-02 0.  1.
       -1    1    3    3    0  502 -0.59615426022E+03  0.52408013394E+03  0.88673895044E+02  0.79870078781E+03  0.50400001928E-02 0. -1.
</event>
<event>
 5   0  0.1835088E-04  0.1598184E+04  0.7818609E-02  0.8821664E-01
        2   -1    0    0  501    0  0.00000000000E+00  0.00000000000E+00  0.82012269780E+03  0.82012269781E+03  0.25500000920E-02 0.  1.
       -2   -1    0    0    0  501  0.00000000000E+00  0.00000000000E+00 -0.77860056556E+03  0.77860056556E+03  0.25500000920E-02 0. -1.
    10030    2    1    2    0    0  0.00000000000E+00  0.00000000000E+00  0.41522132243E+02  0.15987232634E+04  0.15981839648E+04 0.  0.
        5    1    3    3  502    0  0.10574701837E+03  0.30048995389E+03 -0.71232267532E+03  0.78032193873E+03  0.46999998093E+01 0. -1.
       -5    1    3    3    0  502 -0.10574701837E+03 -0.30048995389E+03  0.75384480757E+03  0.81840132464E+03  0.46999998093E+01 0.  1.
</event>
<event>
 5   0  0.1914170E-04  0.1524096E+04  0.7818609E-02  0.8868586E-01
        2   -1    0    0  501    0  0.00000000000E+00  0.00000000000E+00  0.79988492788E+03  0.79988492788E+03  0.25500000920E-02 0. -1.
       -2   -1    0    0    0  501  0.00000000000E+00  0.00000000000E+00 -0.72600068070E+03  0.72600068070E+03  0.25500000920E-02 0.  1.
    10030    2    1    2    0    0  0.00000000000E+00  0.00000000000E+00  0.73884247178E+02  0.15258856086E+04  0.15240958003E+04 0.  0.
        3    1    3    3  502    0  0.75706670759E+03  0.57570916684E+02  0.10223052655E+03  0.76610410582E+03  0.10100000352E+00 0. -1.
       -3    1    3    3    0  502 -0.75706670759E+03 -0.57570916684E+02 -0.28346279370E+02  0.75978150277E+03  0.10100000352E+00 0.  1.
</event>
<event>
 5   0  0.1835088E-04  0.1592611E+04  0.7818609E-02  0.8825100E-01
       -2   -1    0    0    0  501  0.00000000000E+00  0.00000000000E+00  0.73181800475E+03  0.73181800475E+03  0.25500000920E-02 0. -1.
        2   -1    0    0  501    0  0.00000000000E+00  0.00000000000E+00 -0.86647608666E+03  0.86647608666E+03  0.25500000920E-02 0.  1.
    10030    2    1    2    0    0  0.00000000000E+00  0.00000000000E+00 -0.13465808191E+03  0.15982940914E+04  0.15926114415E+04 0.  0.
        5    1    3    3  502    0 -0.42128236039E+03 -0.31204014230E+03  0.53416991016E+03  0.74847007990E+03  0.46999998093E+01 0. -1.
       -5    1    3    3    0  502  0.42128236039E+03  0.31204014230E+03 -0.66882799207E+03  0.84982401152E+03  0.46999998093E+01 0.  1.
</event>
<event>
 5   0  0.9726935E-05  0.1553846E+04  0.7818609E-02  0.8849415E-01
        1   -1    0    0  501    0  0.00000000000E+00  0.00000000000E+00  0.10124271196E+04  0.10124271196E+04  0.50400001928E-02 0.  1.
       -1   -1    0    0    0  501  0.00000000000E+00  0.00000000000E+00 -0.59620030851E+03  0.59620030853E+03  0.50400001928E-02 0. -1.
    10030    2    1    2    0    0  0.00000000000E+00  0.00000000000E+00  0.41622681113E+03  0.16086274282E+04  0.15538460169E+04 0.  0.
        2    1    3    3  502    0 -0.19400001306E+03  0.63143239008E+03 -0.21528767881E+03  0.69476014060E+03  0.25500000920E-02 0. -1.
       -2    1    3    3    0  502  0.19400001306E+03 -0.63143239008E+03  0.63151448994E+03  0.91386728758E+03  0.25500000920E-02 0.  1.
</event>
<event>
 5   0  0.1858913E-04  0.1615817E+04  0.7818609E-02  0.8810890E-01
       -2   -1    0    0    0  501  0.00000000000E+00  0.00000000000E+00  0.49123926472E+03  0.49123926472E+03  0.25500000920E-02 0.  1.
        2   -1    0    0  501    0  0.00000000000E+00  0.00000000000E+00 -0.13287129469E+04  0.13287129470E+04  0.25500000920E-02 0. -1.
    10030    2    1    2    0    0  0.00000000000E+00  0.00000000000E+00 -0.83747368223E+03  0.18199522117E+04  0.16158167855E+04 0.  0.
        4    1    3    3  502    0 -0.62079094329E+03  0.50178842461E+03 -0.27832229591E+03  0.84536260365E+03  0.12699999809E+01 0. -1.
       -4    1    3    3    0  502  0.62079094329E+03 -0.50178842461E+03 -0.55915138632E+03  0.97458960803E+03  0.12699999809E+01 0.  1.
</event>
<event>
 5   0  0.9673017E-05  0.1589341E+04  0.7818609E-02  0.8827123E-01
        1   -1    0    0  501    0  0.00000000000E+00  0.00000000000E+00  0.12380238846E+04  0.12380238846E+04  0.50400001928E-02 0.  1.
       -1   -1    0    0    0  501  0.00000000000E+00  0.00000000000E+00 -0.51008809529E+03  0.51008809531E+03  0.50400001928E-02 0. -1.
    10030    2    1    2    0    0  0.00000000000E+00  0.00000000000E+00  0.72793578927E+03  0.17481119799E+04  0.15893410524E+04 0.  0.
        1    1    3    3  502    0  0.47681692195E+03 -0.34208934867E+03 -0.22539825802E+03  0.62863652000E+03  0.50400001928E-02 0. -1.
       -1    1    3    3    0  502 -0.47681692195E+03  0.34208934867E+03  0.95333404729E+03  0.11194754599E+04  0.50400001928E-02 0.  1.
</event>
<event>
 5   0  0.1914170E-04  0.1598024E+04  0.7818609E-02  0.8821763E-01
        2   -1    0    0  501    0  0.00000000000E+00  0.00000000000E+00  0.20964375605E+04  0.20964375605E+04  0.25500000920E-02 0. -1.
       -2   -1    0    0    0  501  0.00000000000E+00  0.00000000000E+00 -0.30452616181E+03  0.30452616182E+03  0.25500000920E-02 0.  1.
    10030    2    1    2    0    0  0.00000000000E+00  0.00000000000E+00  0.17919113987E+04  0.24009637223E+04  0.15980238844E+04 0.  0.
        3    1    3    3  502    0 -0.29486230233E+03 -0.10094566324E+03  0.20013464779E+04  0.20254682272E+04  0.10100000352E+00 0. -1.
       -3    1    3    3    0  502  0.29486230233E+03  0.10094566324E+03 -0.20943507925E+03  0.37549549516E+03  0.10100000352E+00 0.  1.
</event>
<event>
 5   0  0.9673017E-05  0.1629970E+04  0.7818609E-02  0.8802345E-01
       -1   -1    0    0    0  501  0.00000000000E+00  0.00000000000E+00  0.43852792092E+03  0.43852792095E+03  0.50400001928E-02 0. -1.
        1   -1    0    0  501    0  0.00000000000E+00  0.00000000000E+00 -0.15146134926E+04  0.15146134926E+04  0.50400001928E-02 0.  1.
    10030    2    1    2    0    0  0.00000000000E+00  0.00000000000E+00 -0.10760855717E+04  0.19531414135E+04  0.16299697003E+04 0.  0.
        1    1    3    3  502    0  0.20878946464E+03  0.66545141366E+03 -0.10432827109E+04  0.12549332410E+04  0.50400001928E-02 0.  1.
       -1    1    3    3    0  502 -0.20878946464E+03 -0.66545141366E+03 -0.32802860764E+02  0.69820817253E+03  0.50400001928E-02 0. -1.
</event>
<event>
 5   0  0.1835088E-04  0.1592591E+04  0.7818609E-02  0.8825113E-01
        2   -1    0    0  501    0  0.00000000000E+00  0.00000000000E+00  0.87128811300E+03  0.87128811301E+03  0.25500000920E-02 0. -1.
       -2   -1    0    0    0  501  0.00000000000E+00  0.00000000000E+00 -0.72775750211E+03  0.72775750211E+03  0.25500000920E-02 0.  1.
    10030    2    1    2    0    0  0.00000000000E+00  0.00000000000E+00  0.14353061090E+03  0.15990456151E+04  0.15925909214E+04 0.  0.
        5    1    3    3  502    0  0.16055864635E+03  0.62180548464E+02  0.85236005329E+03  0.86958912710E+03  0.46999998093E+01 0. -1.
       -5    1    3    3    0  502 -0.16055864635E+03 -0.62180548464E+02 -0.70882944239E+03  0.72945648802E+03  0.46999998093E+01 0.  1.
</event>
<event>
 5   0  0.6838750E-05  0.1549562E+04  0.7818609E-02  0.8852147E-01
        3   -1    0    0  501    0  0.00000000000E+00  0.00000000000E+00  0.56448845959E+03  0.56448846862E+03  0.10100000352E+00 0.  1.
       -3   -1    0    0    0  501  0.00000000000E+00  0.00000000000E+00 -0.10634156642E+04  0.10634156690E+04  0.10100000352E+00 0. -1.
    10030    2    1    2    0    0  0.00000000000E+00  0.00000000000E+00 -0.49892720460E+03  0.16279041376E+04  0.15495623659E+04 0.  0.
        1    1    3    3  502    0  0.11449210749E+03  0.59339793007E+03  0.25987400913E+03  0.65784804228E+03  0.50400001928E-02 0.  1.
       -1    1    3    3    0  502 -0.11449210749E+03 -0.59339793007E+03 -0.75880121373E+03  0.97005609532E+03  0.50400001928E-02 0. -1.
</event>
<event>
 5   0  0.9432152E-05  0.1604127E+04  0.7818609E-02  0.8818017E-01
        1   -1    0    0  501    0  0.00000000000E+00  0.00000000000E+00  0.10198970018E+04  0.10198970018E+04  0.50400001928E-02 0.  1.
       -1   -1    0    0    0  501  0.00000000000E+00  0.00000000000E+00 -0.63075536188E+03  0.63075536190E+03  0.50400001928E-02 0. -1.
    10030    2    1    2    0    0  0.00000000000E+00  0.00000000000E+00  0.38914163995E+03  0.16506523637E+04  0.16041265567E+04 0.  0.
        4    1    3    3  502    0 -0.57557738790E+03 -0.20216999717E+03 -0.34124467521E+03  0.69900756683E+03  0.12699999809E+01 0. -1.
       -4    1    3    3    0  502  0.57557738790E+03  0.20216999717E+03  0.73038631516E+03  0.95164479691E+03  0.12699999809E+01 0.  1.
</event>
<event>
 5   0  0.1832646E-04  0.1608511E+04  0.7818609E-02  0.8815336E-01
        2   -1    0    0  501    0  0.00000000000E+00  0.00000000000E+00  0.15956879664E+04  0.15956879664E+04  0.25500000920E-02 0.  1.
       -2   -1    0    0    0  501  0.00000000000E+00  0.00000000000E+00 -0.40535948968E+03  0.40535948969E+03  0.25500000920E-02 0. -1.
    10030    2    1    2    0    0  0.00000000000E+00  0.00000000000E+00  0.11903284767E+04  0.20010474561E+04  0.16085114358E+04 0.  0.
        2    1    3    3  502    0 -0.37638011907E+03  0.69386711772E+03  0.78673657314E+03  0.11144810481E+04  0.25500000920E-02 0.  1.
       -2    1    3    3    0  502  0.37638011907E+03 -0.69386711772E+03  0.40359190355E+03  0.88656640795E+03  0.25500000920E-02 0. -1.
</event>
<event>
 5   0  0.1914170E-04  0.1591345E+04  0.7818609E-02  0.8825883E-01
       -2   -1    0    0    0  501  0.00000000000E+00  0.00000000000E+00  0.95113830357E+03  0.95113830357E+03  0.25500000920E-02 0. -1.
        2   -1    0    0  501    0  0.00000000000E+00  0.00000000000E+00 -0.66561780433E+03  0.66561780434E+03  0.25500000920E-02 0.  1.
    10030    2    1    2    0    0  0.00000000000E+00  0.00000000000E+00  0.28552049924E+03  0.16167561079E+04  0.15913448266E+04 0.  0.
        3    1    3    3  502    0 -0.61870525500E+03 -0.45125969845E+03  0.36222605977E+03  0.84713590208E+03  0.10100000352E+00 0. -1.
       -3    1    3    3    0  502  0.61870525500E+03  0.45125969845E+03 -0.76705560530E+02  0.76962020584E+03  0.10100000352E+00 0.  1.
</event>
<event>
 5   0  0.9616567E-05  0.1590309E+04  0.7818609E-02  0.8826524E-01
        1   -1    0    0  501    0  0.00000000000E+00  0.00000000000E+00  0.12903442778E+04  0.12903442778E+04  0.50400001928E-02 0. -1.
       -1   -1    0    0    0  501  0.00000000000E+00  0.00000000000E+00 -0.49000158887E+03  0.49000158889E+03  0.50400001928E-02 0.  1.
    10030    2    1    2    0    0  0.00000000000E+00  0.00000000000E+00  0.80034268890E+03  0.17803458667E+04  0.15903090848E+04 0.  0.
        5    1    3    3  502    0 -0.75965554866E+03 -0.22825617452E+03  0.33813038829E+03  0.86228283254E+03  0.46999998093E+01 0. -1.
       -5    1    3    3    0  502  0.75965554866E+03  0.22825617452E+03  0.46221230061E+03  0.91806303413E+03  0.46999998093E+01 0.  1.
</event>
<event>
 5   0  0.6838750E-05  0.1588715E+04  0.7818609E-02  0.8827511E-01
        4   -1    0    0  501    0  0.00000000000E+00  0.00000000000E+00  0.11945464923E+04  0.11945471675E+04  0.12699999809E+01 0. -1.
       -4   -1    0    0    0  501  0.00000000000E+00  0.00000000000E+00 -0.52823532432E+03  0.52823685101E+03  0.12699999809E+01 0.  1.
    10030    2    1    2    0    0  0.00000000000E+00  0.00000000000E+00  0.66631116802E+03  0.17227840185E+04  0.15887146382E+04 0.  0.
        4    1    3    3  502    0  0.25685824450E+02  0.37861495798E+03  0.10898948116E+04  0.11540716448E+04  0.12699999809E+01 0. -1.
       -4    1    3    3    0  502 -0.25685824450E+02 -0.37861495798E+03 -0.42358364359E+03  0.56871237370E+03  0.12699999809E+01 0.  1.
</event>
<event>
 5   0  0.1858913E-04  0.1604840E+04  0.7818609E-02  0.8817580E-01
        2   -1    0    0  501    0  0.00000000000E+00  0.00000000000E+00  0.63523822720E+03  0.63523822720E+03  0.25500000920E-02 0. -1.
       -2   -1    0    0    0  501  0.00000000000E+00  0.00000000000E+00 -0.10136012176E+04  0.10136012176E+04  0.25500000920E-02 0.  1.
    10030    2    1    2    0    0  0.00000000000E+00  0.00000000000E+00 -0.37836299036E+03  0.16488394448E+04  0.16048404787E+04 0.  0.
        4    1    3    3  502    0 -0.16495713816E+03  0.34827327127E+03 -0.91230421409E+03  0.99035636054E+03  0.12699999809E+01 0.  1.
       -4    1    3    3    0  502  0.16495713816E+03 -0.34827327127E+03  0.53394122373E+03  0.65848308422E+03  0.12699999809E+01 0. -1.
</event>
<event>
 5   0  0.1832646E-04  0.1606968E+04  0.7818609E-02  0.8816279E-01
        2   -1    0    0  501    0  0.00000000000E+00  0.00000000000E+00  0.76176876483E+03  0.76176876483E+03  0.25500000920E-02 0.  1.
       -2   -1    0    0    0  501  0.00000000000E+00  0.00000000000E+00 -0.84748325302E+03  0.84748325302E+03  0.25500000920E-02 0. -1.
    10030    2    1    2    0    0  0.00000000000E+00  0.00000000000E+00 -0.85714488189E+02  0.16092520179E+04  0.16069676672E+04 0.  0.
        2    1    3    3  502    0 -0.54031995652E+03  0.58921808837E+03  0.37647703365E+02  0.80033802899E+03  0.25500000920E-02 0. -1.
       -2    1    3    3    0  502  0.54031995652E+03 -0.58921808837E+03 -0.12336219155E+03  0.80891398887E+03  0.25500000920E-02 0.  1.
</event>
<event>
 5   0  0.9726935E-05  0.1605119E+04  0.7818609E-02  0.8817409E-01
       -1   -1    0    0    0  501  0.00000000000E+00  0.00000000000E+00  0.26634592974E+03  0.26634592978E+03  0.50400001928E-02 0. -1.
        1   -1    0    0  501    0  0.00000000000E+00  0.00000000000E+00 -0.24182896137E+04  0.24182896137E+04  0.50400001928E-02 0.  1.
    10030    2    1    2    0    0  0.00000000000E+00  0.00000000000E+00 -0.21519436839E+04  0.26846355435E+04  0.16051188063E+04 0.  0.
        2    1    3    3  502    0 -0.51049956309E+03 -0.44232749117E+02 -0.42864399827E+02  0.51420199998E+03  0.25500000920E-02 0. -1.
       -2    1    3    3    0  502  0.51049956309E+03  0.44232749117E+02 -0.21090792841E+04  0.21704335435E+04  0.25500000920E-02 0.  1.
</event>
<event>
 5   0  0.1832646E-04  0.1597934E+04  0.7818609E-02  0.8821818E-01
       -2   -1    0    0    0  501  0.00000000000E+00  0.00000000000E+00  0.41978749592E+03  0.41978749593E+03  0.25500000920E-02 0.  1.
        2   -1    0    0  501    0  0.00000000000E+00  0.00000000000E+00 -0.15206469537E+04  0.15206469537E+04  0.25500000920E-02 0. -1.
    10030    2    1    2    0    0  0.00000000000E+00  0.00000000000E+00 -0.11008594578E+04  0.19404344496E+04  0.15979343877E+04 0.  0.
        2    1    3    3  502    0 -0.25404794108E+03 -0.38192968451E+03 -0.13448136178E+04  0.14208920813E+04  0.25500000920E-02 0. -1.
       -2    1    3    3    0  502  0.25404794108E+03  0.38192968451E+03  0.24395415998E+03  0.51954236829E+03  0.25500000920E-02 0.  1.
</event>
<event>
 5   0  0.1835088E-04  0.1597069E+04  0.7818609E-02  0.8822350E-01
        2   -1    0    0  501    0  0.00000000000E+00  0.00000000000E+00  0.15223096705E+04  0.15223096705E+04  0.25500000920E-02 0.  1.
       -2   -1    0    0    0  501  0.00000000000E+00  0.00000000000E+00 -0.41887514519E+03  0.41887514520E+03  0.25500000920E-02 0. -1.
    10030    2    1    2    0    0  0.00000000000E+00  0.00000000000E+00  0.11034345253E+04  0.19411848157E+04  0.15970694215E+04 0.  0.
        5    1    3    3  502    0 -0.63750773358E+03 -0.27355262060E+03  0.71049024618E+02  0.69736446748E+03  0.46999998093E+01 0. -1.
       -5    1    3    3    0  502  0.63750773358E+03  0.27355262060E+03  0.10323855006E+04  0.12438203482E+04  0.46999998093E+01 0.  1.
</event>
<event>
 5   0  0.1858913E-04  0.1599715E+04  0.7818609E-02  0.8820723E-01
        2   -1    0    0  501    0  0.00000000000E+00  0.00000000000E+00  0.56880086406E+03  0.56880086407E+03  0.25500000920E-02 0.  1.
       -2   -1    0    0    0  501  0.00000000000E+00  0.00000000000E+00 -0.11247726556E+04  0.11247726556E+04  0.25500000920E-02 0. -1.
    10030    2    1    2    0    0  0.00000000000E+00  0.00000000000E+00 -0.55597179151E+03  0.16935735196E+04  0.15997145475E+04 0.  0.
        4    1    3    3  502    0 -0.13190135645E+03  0.32315911858E+03  0.48392010883E+03  0.59666579288E+03  0.12699999809E+01 0.  1.
       -4    1    3    3    0  502  0.13190135645E+03 -0.32315911858E+03 -0.10398919003E+04  0.10969077268E+04  0.12699999809E+01 0. -1.
</event>
<event>
 5   0  0.1832646E-04  0.1595303E+04  0.7818609E-02  0.8823439E-01
       -2   -1    0    0    0  501  0.00000000000E+00  0.00000000000E+00  0.38305597008E+03  0.38305597009E+03  0.25500000920E-02 0.  1.
        2   -1    0    0  501    0  0.00000000000E+00  0.00000000000E+00 -0.16609787458E+04  0.16609787458E+04  0.25500000920E-02 0. -1.
    10030    2    1    2    0    0  0.00000000000E+00  0.00000000000E+00 -0.12779227757E+04  0.20440347159E+04  0.15953028863E+04 0.  0.
        2    1    3    3  502    0 -0.31314852198E+03  0.18944856207E+03 -0.15470423578E+04  0.15897461468E+04  0.25500000920E-02 0. -1.
       -2    1    3    3    0  502  0.31314852198E+03 -0.18944856207E+03  0.26911958210E+03  0.45428856905E+03  0.25500000920E-02 0.  1.
</event>
<event>
 5   0  0.1835088E-04  0.1599231E+04  0.7818609E-02  0.8821020E-01
        2   -1    0    0  501    0  0.00000000000E+00  0.00000000000E+00  0.14061207716E+04  0.14061207716E+04  0.25500000920E-02 0.  1.
       -2   -1    0    0    0  501  0.00000000000E+00  0.00000000000E+00 -0.45471576309E+03  0.45471576310E+03  0.25500000920E-02 0. -1.
    10030    2    1    2    0    0  0.00000000000E+00  0.00000000000E+00  0.95140500854E+03  0.18608365347E+04  0.15992314150E+04 0.  0.
        5    1    3    3  502    0  0.99199594064E+02 -0.73133124093E+03  0.11767225516E+03  0.74736523404E+03  0.46999998093E+01 0.  1.
       -5    1    3    3    0  502 -0.99199594064E+02  0.73133124093E+03  0.83373275338E+03  0.11134713007E+04  0.46999998093E+01 0. -1.
</event>
<event>
 5   0  0.9673017E-05  0.1624305E+04  0.7818609E-02  0.8805754E-01
        1   -1    0    0  501    0  0.00000000000E+00  0.00000000000E+00  0.11671139563E+04  0.11671139564E+04  0.50400001928E-02 0.  1.
       -1   -1    0    0    0  501  0.00000000000E+00  0.00000000000E+00 -0.56514788975E+03  0.56514788977E+03  0.50400001928E-02 0. -1.
    10030    2    1    2    0    0  0.00000000000E+00  0.00000000000E+00  0.60196606660E+03  0.17322618461E+04  0.16243053771E+04 0.  0.
        1    1    3    3  502    0 -0.44532959358E+03  0.13658380438E+03  0.10104964191E+04  0.11126889033E+04  0.50400001928E-02 0.  1.
       -1    1    3    3    0  502  0.44532959358E+03 -0.13658380438E+03 -0.40853035249E+03  0.61957294281E+03  0.50400001928E-02 0. -1.
</event>
<event>
 5   0  0.1914170E-04  0.1609887E+04  0.7818609E-02  0.8814497E-01
       -2   -1    0    0    0  501  0.00000000000E+00  0.00000000000E+00  0.34202438569E+03  0.34202438570E+03  0.25500000920E-02 0. -1.
        2   -1    0    0  501    0  0.00000000000E+00  0.00000000000E+00 -0.18944084803E+04  0.18944084803E+04  0.25500000920E-02 0.  1.
    10030    2    1    2    0    0  0.00000000000E+00  0.00000000000E+00 -0.15523840946E+04  0.22364328660E+04  0.16098868243E+04 0.  0.
        3    1    3    3  502    0 -0.43959391897E+03  0.42689622596E+02 -0.17110522191E+04  0.17671346650E+04  0.10100000352E+00 0.  1.
       -3    1    3    3    0  502  0.43959391897E+03 -0.42689622596E+02  0.15866812455E+03  0.46929820096E+03  0.10100000352E+00 0. -1.
</event>
<event>
 5   0  0.9673017E-05  0.1598216E+04  0.7818609E-02  0.8821645E-01
        1   -1    0    0  501    0  0.00000000000E+00  0.00000000000E+00  0.52603118474E+03  0.52603118476E+03  0.50400001928E-02 0.  1.
       -1   -1    0    0    0  501  0.00000000000E+00  0.00000000000E+00 -0.12139468023E+04  0.12139468023E+04  0.50400001928E-02 0. -1.
    10030    2    1    2    0    0  0.00000000000E+00  0.00000000000E+00 -0.68791561759E+03  0.17399779871E+04  0.15982163491E+04 0.  0.
        1    1    3    3  502    0  0.58726648980E+03 -0.45578360419E+03 -0.24775113240E+02  0.74379730448E+03  0.50400001928E-02 0. -1.
       -1    1    3    3    0  502 -0.58726648980E+03  0.45578360419E+03 -0.66314050434E+03  0.99618068261E+03  0.50400001928E-02 0.  1.
</event>
<event>
 5   0  0.1832646E-04  0.1598842E+04  0.7818609E-02  0.8821260E-01
       -2   -1    0    0    0  501  0.00000000000E+00  0.00000000000E+00  0.33472486282E+03  0.33472486283E+03  0.25500000920E-02 0.  1.
        2   -1    0    0  501    0  0.00000000000E+00  0.00000000000E+00 -0.19092518577E+04  0.19092518577E+04  0.25500000920E-02 0. -1.
    10030    2    1    2    0    0  0.00000000000E+00  0.00000000000E+00 -0.15745269948E+04  0.22439767205E+04  0.15988421638E+04 0.  0.
        2    1    3    3  502    0  0.28334944133E+03  0.70159351752E+03 -0.11493387523E+04  0.13760450346E+04  0.25500000920E-02 0. -1.
       -2    1    3    3    0  502 -0.28334944133E+03 -0.70159351752E+03 -0.42518824251E+03  0.86793168585E+03  0.25500000920E-02 0.  1.
</event>
<event>
 5   0  0.1835088E-04  0.1607380E+04  0.7818609E-02  0.8816027E-01
       -2   -1    0    0    0  501  0.00000000000E+00  0.00000000000E+00  0.51536746776E+03  0.51536746777E+03  0.25500000920E-02 0.  1.
        2   -1    0    0  501    0  0.00000000000E+00  0.00000000000E+00 -0.12533140227E+04  0.12533140227E+04  0.25500000920E-02 0. -1.
    10030    2    1    2    0    0  0.00000000000E+00  0.00000000000E+00 -0.73794655493E+03  0.17686814905E+04  0.16073795746E+04 0.  0.
        5    1    3    3  502    0  0.28638130938E+03 -0.24188446205E+03 -0.11512080781E+04  0.12107123839E+04  0.46999998093E+01 0. -1.
       -5    1    3    3    0  502 -0.28638130938E+03  0.24188446205E+03  0.41326152319E+03  0.55796910658E+03  0.46999998093E+01 0.  1.
</event>
<event>
 5   0  0.9673017E-05  0.1600047E+04  0.7818609E-02  0.8820519E-01
        1   -1    0    0  501    0  0.00000000000E+00  0.00000000000E+00  0.55969973251E+03  0.55969973253E+03  0.50400001928E-02 0.  1.
       -1   -1    0    0    0  501  0.00000000000E+00  0.00000000000E+00 -0.11435373065E+04  0.11435373065E+04  0.50400001928E-02 0. -1.
    10030    2    1    2    0    0  0.00000000000E+00  0.00000000000E+00 -0.58383757401E+03  0.17032370391E+04  0.16000469051E+04 0.  0.
        1    1    3    3  502    0 -0.33389102782E+03  0.48335211045E+03 -0.87001244474E+03  0.10497781362E+04  0.50400001928E-02 0. -1.
       -1    1    3    3    0  502  0.33389102782E+03 -0.48335211045E+03  0.28617487072E+03  0.65345890291E+03  0.50400001928E-02 0.  1.
</event>
<event>
 5   0  0.9432152E-05  0.1598066E+04  0.7818609E-02  0.8821737E-01
       -1   -1    0    0    0  501  0.00000000000E+00  0.00000000000E+00  0.50513247884E+03  0.50513247887E+03  0.50400001928E-02 0. -1.
        1   -1    0    0  501    0  0.00000000000E+00  0.00000000000E+00 -0.12639331801E+04  0.12639331801E+04  0.50400001928E-02 0.  1.
    10030    2    1    2    0    0  0.00000000000E+00  0.00000000000E+00 -0.75880070127E+03  0.17690656590E+04  0.15980659566E+04 0.  0.
        4    1    3    3  502    0  0.12668933653E+03 -0.45249477888E+03  0.33601077514E+03  0.57767340843E+03  0.12699999809E+01 0. -1.
       -4    1    3    3    0  502 -0.12668933653E+03  0.45249477888E+03 -0.10948114764E+04  0.11913922506E+04  0.12699999809E+01 0.  1.
</event>
<event>
 5   0  0.9616567E-05  0.1599385E+04  0.7818609E-02  0.8820926E-01
       -1   -1    0    0    0  501  0.00000000000E+00  0.00000000000E+00  0.11740012674E+04  0.11740012674E+04  0.50400001928E-02 0. -1.
        1   -1    0    0  501    0  0.00000000000E+00  0.00000000000E+00 -0.54472528573E+03  0.54472528575E+03  0.50400001928E-02 0.  1.
    10030    2    1    2    0    0  0.00000000000E+00  0.00000000000E+00  0.62927598168E+03  0.17187265532E+04  0.15993851017E+04 0.  0.
        5    1    3    3  502    0  0.16029716263E+03 -0.16841451561E+03 -0.50758626380E+03  0.55832296622E+03  0.46999998093E+01 0.  1.
       -5    1    3    3    0  502 -0.16029716263E+03  0.16841451561E+03  0.11368622455E+04  0.11604035869E+04  0.46999998093E+01 0. -1.
</event>
<event>
 5   0  0.6838750E-05  0.1599999E+04  0.7818609E-02  0.8820549E-01
       -3   -1    0    0    0  501  0.00000000000E+00  0.00000000000E+00  0.10267459545E+04  0.10267459595E+04  0.10100000352E+00 0. -1.
        3   -1    0    0  501    0  0.00000000000E+00  0.00000000000E+00 -0.62332753389E+03  0.62332754208E+03  0.10100000352E+00 0.  1.
    10030    2    1    2    0    0  0.00000000000E+00  0.00000000000E+00  0.40341842064E+03  0.16500735016E+04  0.15999987933E+04 0.  0.
        1    1    3    3  502    0  0.27842734523E+03  0.47887652773E+03 -0.39355050092E+03  0.67950460792E+03  0.50400001928E-02 0.  1.
       -1    1    3    3    0  502 -0.27842734523E+03 -0.47887652773E+03  0.79696892156E+03  0.97056889366E+03  0.50400001928E-02 0. -1.
</event>
<event>
 5   0  0.6838750E-05  0.1602260E+04  0.7818609E-02  0.8819161E-01
        3   -1    0    0  501    0  0.00000000000E+00  0.00000000000E+00  0.23264509856E+03  0.23264512049E+03  0.10100000352E+00 0.  1.
       -3   -1    0    0    0  501  0.00000000000E+00  0.00000000000E+00 -0.27587473553E+04  0.27587473572E+04  0.10100000352E+00 0. -1.
    10030    2    1    2    0    0  0.00000000000E+00  0.00000000000E+00 -0.25261022568E+04  0.29913924777E+04  0.16022597617E+04 0.  0.
        2    1    3    3  502    0  0.77763577866E+03 -0.13152834001E+03 -0.15257057609E+04  0.17174967765E+04  0.25500000920E-02 0. -1.
       -2    1    3    3    0  502 -0.77763577866E+03  0.13152834001E+03 -0.10003964958E+04  0.12738957011E+04  0.25500000920E-02 0.  1.
</event>
<event>
 5   0  0.9939872E-05  0.1605060E+04  0.7818609E-02  0.8817445E-01
       -1   -1    0    0    0  501  0.00000000000E+00  0.00000000000E+00  0.57719699892E+03  0.57719699894E+03  0.50400001928E-02 0.  1.
        1   -1    0    0  501    0  0.00000000000E+00  0.00000000000E+00 -0.11158318348E+04  0.11158318348E+04  0.50400001928E-02 0. -1.
    10030    2    1    2    0    0  0.00000000000E+00  0.00000000000E+00 -0.53863483586E+03  0.16930288337E+04  0.16050604803E+04 0.  0.
        3    1    3    3  502    0 -0.51486167734E+03 -0.18644168244E+03  0.34953313728E+03  0.64962794891E+03  0.10100000352E+00 0.  1.
       -3    1    3    3    0  502  0.51486167734E+03  0.18644168244E+03 -0.88816797314E+03  0.10434008848E+04  0.10100000352E+00 0. -1.
</event>
<event>
 5   0  0.1835088E-04  0.1596394E+04  0.7818609E-02  0.8822766E-01
        2   -1    0    0  501    0  0.00000000000E+00  0.00000000000E+00  0.10408394419E+04  0.10408394419E+04  0.25500000920E-02 0. -1.
       -2   -1    0    0    0  501  0.00000000000E+00  0.00000000000E+00 -0.61212007516E+03  0.61212007516E+03  0.25500000920E-02 0.  1.
    10030    2    1    2    0    0  0.00000000000E+00  0.00000000000E+00  0.42871936673E+03  0.16529595171E+04  0.15963943340E+04 0.  0.
        5    1    3    3  502    0  0.74645736598E+03 -0.58856063331E+02  0.50062274437E+03  0.90072629449E+03  0.46999998093E+01 0. -1.
       -5    1    3    3    0  502 -0.74645736598E+03  0.58856063331E+02 -0.71903377632E+02  0.75223322256E+03  0.46999998093E+01 0.  1.
</event>
<event>
 5   0  0.6838750E-05  0.1571959E+04  0.7818609E-02  0.8837962E-01
        3   -1    0    0  501    0  0.00000000000E+00  0.00000000000E+00  0.71351899744E+03  0.71351900458E+03  0.10100000352E+00 0. -1.
       -3   -1    0    0    0  501  0.00000000000E+00  0.00000000000E+00 -0.86579886766E+03  0.86579887355E+03  0.10100000352E+00 0.  1.
    10030    2    1    2    0    0  0.00000000000E+00  0.00000000000E+00 -0.15227987022E+03  0.15793178781E+04  0.15719592238E+04 0.  0.
        2    1    3    3  502    0 -0.67906790264E+03 -0.19955707776E+03 -0.41951125981E+03  0.82276724581E+03  0.25500000920E-02 0.  1.
       -2    1    3    3    0  502  0.67906790264E+03  0.19955707776E+03  0.26723138958E+03  0.75655063232E+03  0.25500000920E-02 0. -1.
</event>
<event>
 5   0  0.1835088E-04  0.1598768E+04  0.7818609E-02  0.8821305E-01
        2   -1    0    0  501    0  0.00000000000E+00  0.00000000000E+00  0.70524504190E+03  0.70524504191E+03  0.25500000920E-02 0. -1.
       -2   -1    0    0    0  501  0.00000000000E+00  0.00000000000E+00 -0.90608923612E+03  0.90608923612E+03  0.25500000920E-02 0.  1.
    10030    2    1    2    0    0  0.00000000000E+00  0.00000000000E+00 -0.20084419422E+03  0.16113342780E+04  0.15987682025E+04 0.  0.
        5    1    3    3  502    0 -0.13965753667E+03 -0.35454258400E+03  0.60780165647E+03  0.71739083840E+03  0.46999998093E+01 0. -1.
       -5    1    3    3    0  502  0.13965753667E+03  0.35454258400E+03 -0.80864585069E+03  0.89394343963E+03  0.46999998093E+01 0.  1.
</event>
<event>
 5   0  0.9432152E-05  0.1600232E+04  0.7818609E-02  0.8820405E-01
        1   -1    0    0  501    0  0.00000000000E+00  0.00000000000E+00  0.14148505400E+04  0.14148505400E+04  0.50400001928E-02 0.  1.
       -1   -1    0    0    0  501  0.00000000000E+00  0.00000000000E+00 -0.45247606624E+03  0.45247606627E+03  0.50400001928E-02 0. -1.
    10030    2    1    2    0    0  0.00000000000E+00  0.00000000000E+00  0.96237447377E+03  0.18673266063E+04  0.16002324915E+04 0.  0.
        4    1    3    3  502    0 -0.29432462460E+03 -0.10282783778E+03 -0.37867852247E+03  0.49050951586E+03  0.12699999809E+01 0. -1.
       -4    1    3    3    0  502  0.29432462460E+03  0.10282783778E+03  0.13410529962E+04  0.13768170904E+04  0.12699999809E+01 0.  1.
</event>
<event>
 5   0  0.9616567E-05  0.1598457E+04  0.7818609E-02  0.8821497E-01
        1   -1    0    0  501    0  0.00000000000E+00  0.00000000000E+00  0.14113583229E+04  0.14113583229E+04  0.50400001928E-02 0. -1.
       -1   -1    0    0    0  501  0.00000000000E+00  0.00000000000E+00 -0.45258940083E+03  0.45258940086E+03  0.50400001928E-02 0.  1.
    10030    2    1    2    0    0  0.00000000000E+00  0.00000000000E+00  0.95876892211E+03  0.18639477238E+04  0.15984565277E+04 0.  0.
        5    1    3    3  502    0  0.26452578087E+03 -0.21911142822E+03 -0.36211088108E+03  0.49912932885E+03  0.46999998093E+01 0.  1.
       -5    1    3    3    0  502 -0.26452578087E+03  0.21911142822E+03  0.13208798032E+04  0.13648183949E+04  0.46999998093E+01 0. -1.
</event>
<event>
 5   0  0.1914170E-04  0.1617096E+04  0.7818609E-02  0.8810114E-01
       -2   -1    0    0    0  501  0.00000000000E+00  0.00000000000E+00  0.54858497808E+03  0.54858497808E+03  0.25500000920E-02 0. -1.
        2   -1    0    0  501    0  0.00000000000E+00  0.00000000000E+00 -0.11917022303E+04  0.11917022303E+04  0.25500000920E-02 0.  1.
    10030    2    1    2    0    0  0.00000000000E+00  0.00000000000E+00 -0.64311725220E+03  0.17402872084E+04  0.16170960910E+04 0.  0.
        3    1    3    3  502    0 -0.29455477062E+03  0.80176794710E+02  0.48418300700E+03  0.57238450868E+03  0.10100000352E+00 0. -1.
       -3    1    3    3    0  502  0.29455477062E+03 -0.80176794710E+02 -0.11273002592E+04  0.11679026997E+04  0.10100000352E+00 0.  1.
</event>
<event>
 5   0  0.1835088E-04  0.1595924E+04  0.7818609E-02  0.8823056E-01
        2   -1    0    0  501    0  0.00000000000E+00  0.00000000000E+00  0.15777297522E+04  0.15777297522E+04  0.25500000920E-02 0. -1.
       -2   -1    0    0    0  501  0.00000000000E+00  0.00000000000E+00 -0.40358215638E+03  0.40358215639E+03  0.25500000920E-02 0.  1.
    10030    2    1    2    0    0  0.00000000000E+00  0.00000000000E+00  0.11741475958E+04  0.19813119086E+04  0.15959242784E+04 0.  0.
        5    1    3    3  502    0  0.37374166357E+03 -0.24065328751E+03 -0.23561290232E+03  0.50312261490E+03  0.46999998093E+01 0.  1.
       -5    1    3    3    0  502 -0.37374166357E+03  0.24065328751E+03  0.14097604981E+04  0.14781892937E+04  0.46999998093E+01 0. -1.
</event>
<event>
 5   0  0.6838750E-05  0.1586720E+04  0.7818609E-02  0.8828748E-01
       -3   -1    0    0    0  501  0.00000000000E+00  0.00000000000E+00  0.75690900653E+03  0.75690901327E+03  0.10100000352E+00 0.  1.
        3   -1    0    0  501    0  0.00000000000E+00  0.00000000000E+00 -0.83156601107E+03  0.83156601720E+03  0.10100000352E+00 0. -1.
    10030    2    1    2    0    0  0.00000000000E+00  0.00000000000E+00 -0.74657004540E+02  0.15884750305E+04  0.15867196520E+04 0.  0.
        4    1    3    3  502    0  0.25442841469E+03  0.72832488343E+03  0.14788224062E+03  0.78553276445E+03  0.12699999809E+01 0.  1.
       -4    1    3    3    0  502 -0.25442841469E+03 -0.72832488343E+03 -0.22253924516E+03  0.80294226602E+03  0.12699999809E+01 0. -1.
</event>
<event>
 5   0  0.1858913E-04  0.1603156E+04  0.7818609E-02  0.8818612E-01
       -2   -1    0    0    0  501  0.00000000000E+00  0.00000000000E+00  0.50876472661E+03  0.50876472661E+03  0.25500000920E-02 0. -1.
        2   -1    0    0  501    0  0.00000000000E+00  0.00000000000E+00 -0.12629161526E+04  0.12629161526E+04  0.25500000920E-02 0.  1.
    10030    2    1    2    0    0  0.00000000000E+00  0.00000000000E+00 -0.75415142598E+03  0.17716808792E+04  0.16031558765E+04 0.  0.
        4    1    3    3  502    0 -0.26022998575E+03 -0.29407403062E+03 -0.11493380367E+04  0.12145693543E+04  0.12699999809E+01 0.  1.
       -4    1    3    3    0  502  0.26022998575E+03  0.29407403062E+03  0.39518661071E+03  0.55711152488E+03  0.12699999809E+01 0. -1.
</event>
<event>
 5   0  0.9673017E-05  0.1595840E+04  0.7818609E-02  0.8823108E-01
       -1   -1    0    0    0  501  0.00000000000E+00  0.00000000000E+00  0.42420264901E+03  0.42420264904E+03  0.50400001928E-02 0.  1.
        1   -1    0    0  501    0  0.00000000000E+00  0.00000000000E+00 -0.15008771471E+04  0.15008771471E+04  0.50400001928E-02 0. -1.
    10030    2    1    2    0    0  0.00000000000E+00  0.00000000000E+00 -0.10766744981E+04  0.19250797961E+04  0.15958396682E+04 0.  0.
        1    1    3    3  502    0  0.12586673468E+03 -0.13933316816E+03 -0.14738471217E+04  0.14857595717E+04  0.50400001928E-02 0. -1.
       -1    1    3    3    0  502 -0.12586673468E+03  0.13933316816E+03  0.39717262362E+03  0.43932022447E+03  0.50400001928E-02 0.  1.
</event>
<event>
 5   0  0.9726935E-05  0.1587892E+04  0.7818609E-02  0.8828021E-01
        1   -1    0    0  501    0  0.00000000000E+00  0.00000000000E+00  0.68828094890E+03  0.68828094892E+03  0.50400001928E-02 0.  1.
       -1   -1    0    0    0  501  0.00000000000E+00  0.00000000000E+00 -0.91583296359E+03  0.91583296360E+03  0.50400001928E-02 0. -1.
    10030    2    1    2    0    0  0.00000000000E+00  0.00000000000E+00 -0.22755201468E+03  0.16041139125E+04  0.15878921641E+04 0.  0.
        2    1    3    3  502    0 -0.61868607925E+02 -0.45096002941E+03 -0.77092724204E+03  0.89527732312E+03  0.25500000920E-02 0. -1.
       -2    1    3    3    0  502  0.61868607925E+02  0.45096002941E+03  0.54337522735E+03  0.70883658940E+03  0.25500000920E-02 0.  1.
</event>
<event>
 5   0  0.9432152E-05  0.1598120E+04  0.7818609E-02  0.8821704E-01
        1   -1    0    0  501    0  0.00000000000E+00  0.00000000000E+00  0.53050005845E+03  0.53050005847E+03  0.50400001928E-02 0. -1.
       -1   -1    0    0    0  501  0.00000000000E+00  0.00000000000E+00 -0.12035756847E+04  0.12035756847E+04  0.50400001928E-02 0.  1.
    10030    2    1    2    0    0  0.00000000000E+00  0.00000000000E+00 -0.67307562627E+03  0.17340757432E+04  0.15981201095E+04 0.  0.
        4    1    3    3  502    0  0.38077012452E+03  0.12696056608E+02  0.42560341653E+03  0.57121533474E+03  0.12699999809E+01 0. -1.
       -4    1    3    3    0  502 -0.38077012452E+03 -0.12696056608E+02 -0.10986790428E+04  0.11628604085E+04  0.12699999809E+01 0.  1.
</event>
<event>
 5   0  0.9432152E-05  0.1604423E+04  0.7818609E-02  0.8817835E-01
       -1   -1    0    0    0  501  0.00000000000E+00  0.00000000000E+00  0.50464971773E+03  0.50464971776E+03  0.50400001928E-02 0. -1.
        1   -1    0    0  501    0  0.00000000000E+00  0.00000000000E+00 -0.12752280424E+04  0.12752280424E+04  0.50400001928E-02 0.  1.
    10030    2    1    2    0    0  0.00000000000E+00  0.00000000000E+00 -0.77057832469E+03  0.17798777602E+04  0.16044232256E+04 0.  0.
        4    1    3    3  502    0 -0.59518211299E+03 -0.47933879926E+03 -0.65596863656E+03  0.10071265547E+04  0.12699999809E+01 0.  1.
       -4    1    3    3    0  502  0.59518211299E+03  0.47933879926E+03 -0.11460968812E+03  0.77275120550E+03  0.12699999809E+01 0. -1.
</event>
<event>
 5   0  0.9673017E-05  0.1583585E+04  0.7818609E-02  0.8830696E-01
       -1   -1    0    0    0  501  0.00000000000E+00  0.00000000000E+00  0.11272109684E+04  0.11272109684E+04  0.50400001928E-02 0.  1.
        1   -1    0    0  501    0  0.00000000000E+00  0.00000000000E+00 -0.55618316017E+03  0.55618316020E+03  0.50400001928E-02 0. -1.
    10030    2    1    2    0    0  0.00000000000E+00  0.00000000000E+00  0.57102780823E+03  0.16833941286E+04  0.15835854996E+04 0.  0.
        1    1    3    3  502    0 -0.16520277967E+03  0.61419510554E+03  0.78683925043E+03  0.10117527327E+04  0.50400001928E-02 0.  1.
       -1    1    3    3    0  502  0.16520277967E+03 -0.61419510554E+03 -0.21581144221E+03  0.67164139591E+03  0.50400001928E-02 0. -1.
</event>
<event>
 5   0  0.9616567E-05  0.1598548E+04  0.7818609E-02  0.8821441E-01
       -1   -1    0    0    0  501  0.00000000000E+00  0.00000000000E+00  0.35066917201E+03  0.35066917204E+03  0.50400001928E-02 0. -1.
        1   -1    0    0  501    0  0.00000000000E+00  0.00000000000E+00 -0.18217705818E+04  0.18217705818E+04  0.50400001928E-02 0.  1.
    10030    2    1    2    0    0  0.00000000000E+00  0.00000000000E+00 -0.14711014098E+04  0.21724397539E+04  0.15985478179E+04 0.  0.
        5    1    3    3  502    0  0.25621957561E+03  0.73414477142E+03 -0.48422720420E+03  0.91603225468E+03  0.46999998093E+01 0. -1.
       -5    1    3    3    0  502 -0.25621957561E+03 -0.73414477142E+03 -0.98687420562E+03  0.12564074992E+04  0.46999998093E+01 0.  1.
</event>
<event>
 5   0  0.1858913E-04  0.1592272E+04  0.7818609E-02  0.8825310E-01
       -2   -1    0    0    0  501  0.00000000000E+00  0.00000000000E+00  0.15519979305E+04  0.15519979305E+04  0.25500000920E-02 0. -1.
        2   -1    0    0  501    0  0.00000000000E+00  0.00000000000E+00 -0.40839764634E+03  0.40839764634E+03  0.25500000920E-02 0.  1.
    10030    2    1    2    0    0  0.00000000000E+00  0.00000000000E+00  0.11436002841E+04  0.19603955768E+04  0.15922717129E+04 0.  0.
        4    1    3    3  502    0  0.53039955410E+03 -0.39108513310E+03  0.11218000938E+04  0.13010412491E+04  0.12699999809E+01 0. -1.
       -4    1    3    3    0  502 -0.53039955410E+03  0.39108513310E+03  0.21800190285E+02  0.65935432775E+03  0.12699999809E+01 0.  1.
</event>
<event>
 5   0  0.9616567E-05  0.1647125E+04  0.7818609E-02  0.8792109E-01
        1   -1    0    0  501    0  0.00000000000E+00  0.00000000000E+00  0.14717037163E+04  0.14717037163E+04  0.50400001928E-02 0. -1.
       -1   -1    0    0    0  501  0.00000000000E+00  0.00000000000E+00 -0.46086382932E+03  0.46086382935E+03  0.50400001928E-02 0.  1.
    10030    2    1    2    0    0  0.00000000000E+00  0.00000000000E+00  0.10108398870E+04  0.19325675457E+04  0.16471247802E+04 0.  0.
        5    1    3    3  502    0  0.14072853439E+02 -0.97736034642E+02  0.14647172302E+04  0.14680493971E+04  0.46999998093E+01 0. -1.
       -5    1    3    3    0  502 -0.14072853439E+02  0.97736034642E+02 -0.45387734324E+03  0.46451814860E+03  0.46999998093E+01 0.  1.
</event>
<event>
 5   0  0.1858913E-04  0.1599610E+04  0.7818609E-02  0.8820788E-01
        2   -1    0    0  501    0  0.00000000000E+00  0.00000000000E+00  0.46872433831E+03  0.46872433831E+03  0.25500000920E-02 0. -1.
       -2   -1    0    0    0  501  0.00000000000E+00  0.00000000000E+00 -0.13647425486E+04  0.13647425486E+04  0.25500000920E-02 0.  1.
    10030    2    1    2    0    0  0.00000000000E+00  0.00000000000E+00 -0.89601821030E+03  0.18334668869E+04  0.15996100125E+04 0.  0.
        4    1    3    3  502    0 -0.46471843047E+03 -0.22636876145E+03  0.25152786090E+03  0.57486860541E+03  0.12699999809E+01 0. -1.
       -4    1    3    3    0  502  0.46471843047E+03  0.22636876145E+03 -0.11475460712E+04  0.12585982815E+04  0.12699999809E+01 0.  1.
</event>
<event>
 5   0  0.9673017E-05  0.1598549E+04  0.7818609E-02  0.8821440E-01
        1   -1    0    0  501    0  0.00000000000E+00  0.00000000000E+00  0.85569838008E+03  0.85569838009E+03  0.50400001928E-02 0.  1.
       -1   -1    0    0    0  501  0.00000000000E+00  0.00000000000E+00 -0.74657093910E+03  0.74657093911E+03  0.50400001928E-02 0. -1.
    10030    2    1    2    0    0  0.00000000000E+00  0.00000000000E+00  0.10912744098E+03  0.16022693192E+04  0.15985487709E+04 0.  0.
        1    1    3    3  502    0  0.50538722864E+03 -0.60981151440E+03 -0.53172303861E+02  0.79379696893E+03  0.50400001928E-02 0.  1.
       -1    1    3    3    0  502 -0.50538722864E+03  0.60981151440E+03  0.16229974484E+03  0.80847235028E+03  0.50400001928E-02 0. -1.
</event>
<event>
 5   0  0.1774934E-04  0.1602072E+04  0.7818609E-02  0.8819276E-01
        2   -1    0    0  501    0  0.00000000000E+00  0.00000000000E+00  0.20602820124E+04  0.20602820124E+04  0.25500000920E-02 0. -1.
       -2   -1    0    0    0  501  0.00000000000E+00  0.00000000000E+00 -0.31144209438E+03  0.31144209439E+03  0.25500000920E-02 0.  1.
    10030    2    1    2    0    0  0.00000000000E+00  0.00000000000E+00  0.17488399180E+04  0.23717241068E+04  0.16020718398E+04 0.  0.
        1    1    3    3  502    0 -0.21203763351E+03 -0.40596150766E+03 -0.98485604045E+02  0.46846997551E+03  0.50400001928E-02 0.  1.
       -1    1    3    3    0  502  0.21203763351E+03  0.40596150766E+03  0.18473255221E+04  0.19032541313E+04  0.50400001928E-02 0. -1.
</event>
<event>
 5   0  0.9939872E-05  0.1616596E+04  0.7818609E-02  0.8810417E-01
        1   -1    0    0  501    0  0.00000000000E+00  0.00000000000E+00  0.25307335435E+04  0.25307335435E+04  0.50400001928E-02 0.  1.
       -1   -1    0    0    0  501  0.00000000000E+00  0.00000000000E+00 -0.25816452049E+03  0.25816452054E+03  0.50400001928E-02 0. -1.
    10030    2    1    2    0    0  0.00000000000E+00  0.00000000000E+00  0.22725690230E+04  0.27888980640E+04  0.16165959444E+04 0.  0.
        3    1    3    3  502    0 -0.61690484660E+03 -0.17363453779E+03  0.19860497924E+04  0.20868910682E+04  0.10100000352E+00 0.  1.
       -3    1    3    3    0  502  0.61690484660E+03  0.17363453779E+03  0.28651923059E+03  0.70200699581E+03  0.10100000352E+00 0. -1.
</event>
<event>
 5   0  0.1832646E-04  0.1604723E+04  0.7818609E-02  0.8817652E-01
        2   -1    0    0  501    0  0.00000000000E+00  0.00000000000E+00  0.14864749711E+04  0.14864749711E+04  0.25500000920E-02 0. -1.
       -2   -1    0    0    0  501  0.00000000000E+00  0.00000000000E+00 -0.43309443651E+03  0.43309443652E+03  0.25500000920E-02 0.  1.
    10030    2    1    2    0    0  0.00000000000E+00  0.00000000000E+00  0.10533805346E+04  0.19195694077E+04  0.16047230789E+04 0.  0.
        2    1    3    3  502    0  0.42046509122E+03  0.36691210656E+03 -0.16293592828E+03  0.58134628545E+03  0.25500000920E-02 0.  1.
       -2    1    3    3    0  502 -0.42046509122E+03 -0.36691210656E+03  0.12163164629E+04  0.13382231222E+04  0.25500000920E-02 0. -1.
</event>
<event>
 5   0  0.9673017E-05  0.1610724E+04  0.7818609E-02  0.8813987E-01
        1   -1    0    0  501    0  0.00000000000E+00  0.00000000000E+00  0.81174696602E+03  0.81174696603E+03  0.50400001928E-02 0.  1.
       -1   -1    0    0    0  501  0.00000000000E+00  0.00000000000E+00 -0.79902715847E+03  0.79902715848E+03  0.50400001928E-02 0. -1.
    10030    2    1    2    0    0  0.00000000000E+00  0.00000000000E+00  0.12719807551E+02  0.16107741245E+04  0.16107239015E+04 0.  0.
        1    1    3    3  502    0  0.51149936628E+03  0.38025528891E+03 -0.48597869983E+03  0.80149920971E+03  0.50400001928E-02 0. -1.
       -1    1    3    3    0  502 -0.51149936628E+03 -0.38025528891E+03  0.49869850738E+03  0.80927491481E+03  0.50400001928E-02 0.  1.
</event>
<event>
 5   0  0.9939872E-05  0.1603213E+04  0.7818609E-02  0.8818577E-01
       -1   -1    0    0    0  501  0.00000000000E+00  0.00000000000E+00  0.36012604587E+03  0.36012604591E+03  0.50400001928E-02 0. -1.
        1   -1    0    0  501    0  0.00000000000E+00  0.00000000000E+00 -0.17842991474E+04  0.17842991474E+04  0.50400001928E-02 0.  1.
    10030    2    1    2    0    0  0.00000000000E+00  0.00000000000E+00 -0.14241731016E+04  0.21444251933E+04  0.16032125207E+04 0.  0.
        3    1    3    3  502    0 -0.79011393700E+03  0.13150615757E+03 -0.75435669699E+03  0.11002853900E+04  0.10100000352E+00 0.  1.
       -3    1    3    3    0  502  0.79011393700E+03 -0.13150615757E+03 -0.66981640457E+03  0.10441398034E+04  0.10100000352E+00 0. -1.
</event>
<event>
 5   0  0.9673017E-05  0.1601183E+04  0.7818609E-02  0.8819821E-01
       -1   -1    0    0    0  501  0.00000000000E+00  0.00000000000E+00  0.37259808819E+03  0.37259808822E+03  0.50400001928E-02 0. -1.
        1   -1    0    0  501    0  0.00000000000E+00  0.00000000000E+00 -0.17202102470E+04  0.17202102470E+04  0.50400001928E-02 0.  1.
    10030    2    1    2    0    0  0.00000000000E+00  0.00000000000E+00 -0.13476121588E+04  0.20928083353E+04  0.16011833741E+04 0.  0.
        1    1    3    3  502    0  0.47512465746E+03  0.13857382929E+03  0.14869499239E+03  0.51677494819E+03  0.50400001928E-02 0. -1.
       -1    1    3    3    0  502 -0.47512465746E+03 -0.13857382929E+03 -0.14963071512E+04  0.15760333871E+04  0.50400001928E-02 0.  1.
</event>
<event>
 5   0  0.1835088E-04  0.1611074E+04  0.7818609E-02  0.8813773E-01
       -2   -1    0    0    0  501  0.00000000000E+00  0.00000000000E+00  0.12824993357E+04  0.12824993357E+04  0.25500000920E-02 0. -1.
        2   -1    0    0  501    0  0.00000000000E+00  0.00000000000E+00 -0.50595746999E+03  0.50595747000E+03  0.25500000920E-02 0.  1.
    10030    2    1    2    0    0  0.00000000000E+00  0.00000000000E+00  0.77654186569E+03  0.17884568057E+04  0.16110743237E+04 0.  0.
        5    1    3    3  502    0 -0.61249416346E+03 -0.10729724697E+03  0.95671060764E+03  0.11410429774E+04  0.46999998093E+01 0. -1.
       -5    1    3    3    0  502  0.61249416346E+03  0.10729724697E+03 -0.18016874195E+03  0.64741382829E+03  0.46999998093E+01 0.  1.
</event>
<event>
 5   0  0.1914170E-04  0.1599990E+04  0.7818609E-02  0.8820554E-01
        2   -1    0    0  501    0  0.00000000000E+00  0.00000000000E+00  0.17999572735E+04  0.17999572735E+04  0.25500000920E-02 0.  1.
       -2   -1    0    0    0  501  0.00000000000E+00  0.00000000000E+00 -0.35555972419E+03  0.35555972420E+03  0.25500000920E-02 0. -1.
    10030    2    1    2    0    0  0.00000000000E+00  0.00000000000E+00  0.14443975493E+04  0.21555169977E+04  0.15999903896E+04 0.  0.
        3    1    3    3  502    0  0.48228377710E+02  0.79038690056E+03  0.87553707669E+03  0.11805094713E+04  0.10100000352E+00 0.  1.
       -3    1    3    3    0  502 -0.48228377710E+02 -0.79038690056E+03  0.56886047262E+03  0.97500752638E+03  0.10100000352E+00 0. -1.
</event>
<event>
 5   0  0.1774934E-04  0.1599512E+04  0.7818609E-02  0.8820848E-01
        2   -1    0    0  501    0  0.00000000000E+00  0.00000000000E+00  0.10752619529E+04  0.10752619529E+04  0.25500000920E-02 0. -1.
       -2   -1    0    0    0  501  0.00000000000E+00  0.00000000000E+00 -0.59484087346E+03  0.59484087347E+03  0.25500000920E-02 0.  1.
    10030    2    1    2    0    0  0.00000000000E+00  0.00000000000E+00  0.48042107941E+03  0.16701028263E+04  0.15995121247E+04 0.  0.
        1    1    3    3  502    0 -0.68697873312E+03  0.33734728293E+03 -0.21245050625E+01  0.76534141571E+03  0.50400001928E-02 0.  1.
       -1    1    3    3    0  502  0.68697873312E+03 -0.33734728293E+03  0.48254558448E+03  0.90476141064E+03  0.50400001928E-02 0. -1.
</event>
<event>
 5   0  0.9726935E-05  0.1599116E+04  0.7818609E-02  0.8821091E-01
       -1   -1    0    0    0  501  0.00000000000E+00  0.00000000000E+00  0.39012961503E+03  0.39012961506E+03  0.50400001928E-02 0.  1.
        1   -1    0    0  501    0  0.00000000000E+00  0.00000000000E+00 -0.16386676762E+04  0.16386676762E+04  0.50400001928E-02 0. -1.
    10030    2    1    2    0    0  0.00000000000E+00  0.00000000000E+00 -0.12485380611E+04  0.20287972912E+04  0.15991157428E+04 0.  0.
        2    1    3    3  502    0  0.52232245002E+03 -0.29386644921E+03  0.47200944250E+02  0.60117065873E+03  0.25500000920E-02 0.  1.
       -2    1    3    3    0  502 -0.52232245002E+03  0.29386644921E+03 -0.12957390054E+04  0.14276266325E+04  0.25500000920E-02 0. -1.
</event>
<event>
 5   0  0.9673017E-05  0.1599760E+04  0.7818609E-02  0.8820695E-01
       -1   -1    0    0    0  501  0.00000000000E+00  0.00000000000E+00  0.44771091078E+03  0.44771091081E+03  0.50400001928E-02 0.  1.
        1   -1    0    0  501    0  0.00000000000E+00  0.00000000000E+00 -0.14290652152E+04  0.14290652152E+04  0.50400001928E-02 0. -1.
    10030    2    1    2    0    0  0.00000000000E+00  0.00000000000E+00 -0.98135430440E+03  0.18767761260E+04  0.15997600934E+04 0.  0.
        1    1    3    3  502    0 -0.48240996196E+03  0.36240493523E+03 -0.11067278574E+04  0.12605170601E+04  0.50400001928E-02 0. -1.
       -1    1    3    3    0  502  0.48240996196E+03 -0.36240493523E+03  0.12537355298E+03  0.61625906589E+03  0.50400001928E-02 0.  1.
</event>
<event>
 5   0  0.1835088E-04  0.1603751E+04  0.7818609E-02  0.8818247E-01
        2   -1    0    0  501    0  0.00000000000E+00  0.00000000000E+00  0.11296198502E+04  0.11296198502E+04  0.25500000920E-02 0. -1.
       -2   -1    0    0    0  501  0.00000000000E+00  0.00000000000E+00 -0.56922173183E+03  0.56922173184E+03  0.25500000920E-02 0.  1.
    10030    2    1    2    0    0  0.00000000000E+00  0.00000000000E+00  0.56039811837E+03  0.16988415821E+04  0.16037508129E+04 0.  0.
        5    1    3    3  502    0  0.39876842586E+03  0.20059225225E+03 -0.42542712534E+03  0.61665536412E+03  0.46999998093E+01 0.  1.
       -5    1    3    3    0  502 -0.39876842586E+03 -0.20059225225E+03  0.98582524372E+03  0.10821862179E+04  0.46999998093E+01 0. -1.
</event>
<event>
 5   0  0.9939872E-05  0.1601203E+04  0.7818609E-02  0.8819810E-01
        1   -1    0    0  501    0  0.00000000000E+00  0.00000000000E+00  0.14683567038E+04  0.14683567038E+04  0.50400001928E-02 0.  1.
       -1   -1    0    0    0  501  0.00000000000E+00  0.00000000000E+00 -0.43651686677E+03  0.43651686680E+03  0.50400001928E-02 0. -1.
    10030    2    1    2    0    0  0.00000000000E+00  0.00000000000E+00  0.10318398370E+04  0.19048735706E+04  0.16012026326E+04 0.  0.
        3    1    3    3  502    0  0.16279347020E+03  0.57332288940E+02 -0.41412132454E+03  0.44864817724E+03  0.10100000352E+00 0. -1.
       -3    1    3    3    0  502 -0.16279347020E+03 -0.57332288940E+02  0.14459611615E+04  0.14562253933E+04  0.10100000352E+00 0.  1.
</event>
<event>
 5   0  0.9432152E-05  0.1597625E+04  0.7818609E-02  0.8822008E-01
       -1   -1    0    0    0  501  0.00000000000E+00  0.00000000000E+00  0.18664430421E+04  0.18664430422E+04  0.50400001928E-02 0.  1.
        1   -1    0    0  501    0  0.00000000000E+00  0.00000000000E+00 -0.34188112334E+03  0.34188112337E+03  0.50400001928E-02 0. -1.
    10030    2    1    2    0    0  0.00000000000E+00  0.00000000000E+00  0.15245619188E+04  0.22083241655E+04  0.15976252927E+04 0.  0.
        4    1    3    3  502    0 -0.25897729754E+03 -0.67506895622E+03  0.12316629886E+04  0.14282096018E+04  0.12699999809E+01 0.  1.
       -4    1    3    3    0  502  0.25897729754E+03  0.67506895622E+03  0.29289893019E+03  0.78011456370E+03  0.12699999809E+01 0. -1.
</event>
<event>
 5   0  0.1835088E-04  0.1602761E+04  0.7818609E-02  0.8818854E-01
       -2   -1    0    0    0  501  0.00000000000E+00  0.00000000000E+00  0.52139769824E+03  0.52139769825E+03  0.25500000920E-02 0.  1.
        2   -1    0    0  501    0  0.00000000000E+00  0.00000000000E+00 -0.12317100507E+04  0.12317100507E+04  0.25500000920E-02 0. -1.
    10030    2    1    2    0    0  0.00000000000E+00  0.00000000000E+00 -0.71031235250E+03  0.17531077490E+04  0.16027610993E+04 0.  0.
        5    1    3    3  502    0  0.67458268613E+03  0.40196617290E+03 -0.18031809164E+03  0.80571416070E+03  0.46999998093E+01 0.  1.
       -5    1    3    3    0  502 -0.67458268613E+03 -0.40196617290E+03 -0.52999426086E+03  0.94739358829E+03  0.46999998093E+01 0. -1.
</event>
<event>
 5   0  0.9616567E-05  0.1600384E+04  0.7818609E-02  0.8820312E-01
       -1   -1    0    0    0  501  0.00000000000E+00  0.00000000000E+00  0.46288444540E+03  0.46288444543E+03  0.50400001928E-02 0. -1.
        1   -1    0    0  501    0  0.00000000000E+00  0.00000000000E+00 -0.13832984969E+04  0.13832984969E+04  0.50400001928E-02 0.  1.
    10030    2    1    2    0    0  0.00000000000E+00  0.00000000000E+00 -0.92041405151E+03  0.18461829424E+04  0.16003841509E+04 0.  0.
        5    1    3    3  502    0 -0.19814720099E+02  0.45766039984E+03 -0.12170514282E+04  0.13004160617E+04  0.46999998093E+01 0.  1.
       -5    1    3    3    0  502  0.19814720099E+02 -0.45766039984E+03  0.29663737670E+03  0.54576688061E+03  0.46999998093E+01 0. -1.
</event>
<event>
 5   0  0.1835088E-04  0.1607414E+04  0.7818609E-02  0.8816006E-01
       -2   -1    0    0    0  501  0.00000000000E+00  0.00000000000E+00  0.43620440758E+03  0.43620440758E+03  0.25500000920E-02 0.  1.
        2   -1    0    0  501    0  0.00000000000E+00  0.00000000000E+00 -0.14808311147E+04  0.14808311147E+04  0.25500000920E-02 0. -1.
    10030    2    1    2    0    0  0.00000000000E+00  0.00000000000E+00 -0.10446267071E+04  0.19170355222E+04  0.16074141459E+04 0.  0.
        5    1    3    3  502    0 -0.11317653838E+03 -0.57309156088E+03  0.13598750472E+03  0.59979793050E+03  0.46999998093E+01 0.  1.
       -5    1    3    3    0  502  0.11317653838E+03  0.57309156088E+03 -0.11806142118E+04  0.13172375917E+04  0.46999998093E+01 0. -1.
</event>
<event>
 5   0  0.1858913E-04  0.1602503E+04  0.7818609E-02  0.8819012E-01
       -2   -1    0    0    0  501  0.00000000000E+00  0.00000000000E+00  0.37070983613E+03  0.37070983614E+03  0.25500000920E-02 0.  1.
        2   -1    0    0  501    0  0.00000000000E+00  0.00000000000E+00 -0.17318237504E+04  0.17318237504E+04  0.25500000920E-02 0. -1.
    10030    2    1    2    0    0  0.00000000000E+00  0.00000000000E+00 -0.13611139143E+04  0.21025335866E+04  0.16025031654E+04 0.  0.
        4    1    3    3  502    0  0.43339530172E+03  0.63356462682E+03 -0.98194407104E+03  0.12463753028E+04  0.12699999809E+01 0. -1.
       -4    1    3    3    0  502 -0.43339530172E+03 -0.63356462682E+03 -0.37916984327E+03  0.85615828376E+03  0.12699999809E+01 0.  1.
</event>
<event>
 5   0  0.1774934E-04  0.1600973E+04  0.7818609E-02  0.8819951E-01
       -2   -1    0    0    0  501  0.00000000000E+00  0.00000000000E+00  0.95465417753E+03  0.95465417753E+03  0.25500000920E-02 0.  1.
        2   -1    0    0  501    0  0.00000000000E+00  0.00000000000E+00 -0.67121540717E+03  0.67121540717E+03  0.25500000920E-02 0. -1.
    10030    2    1    2    0    0  0.00000000000E+00  0.00000000000E+00  0.28343877036E+03  0.16258695847E+04  0.16009729448E+04 0.  0.
        1    1    3    3  502    0 -0.37066649962E+03 -0.12152600987E+03 -0.56816188768E+03  0.68918078590E+03  0.50400001928E-02 0. -1.
       -1    1    3    3    0  502  0.37066649962E+03  0.12152600987E+03  0.85160065804E+03  0.93668879881E+03  0.50400001928E-02 0.  1.
</event>
<event>
 5   0  0.1774934E-04  0.1638614E+04  0.7818609E-02  0.8797171E-01
       -2   -1    0    0    0  501  0.00000000000E+00  0.00000000000E+00  0.11187962073E+04  0.11187962073E+04  0.25500000920E-02 0.  1.
        2   -1    0    0  501    0  0.00000000000E+00  0.00000000000E+00 -0.59998793671E+03  0.59998793671E+03  0.25500000920E-02 0. -1.
    10030    2    1    2    0    0  0.00000000000E+00  0.00000000000E+00  0.51880827055E+03  0.17187841440E+04  0.16386143268E+04 0.  0.
        1    1    3    3  502    0  0.19172005047E+03 -0.37736621702E+03  0.99522538797E+03  0.10814968388E+04  0.50400001928E-02 0.  1.
       -1    1    3    3    0  502 -0.19172005047E+03  0.37736621702E+03 -0.47641711742E+03  0.63728730515E+03  0.50400001928E-02 0. -1.
</event>
<event>
 5   0  0.9726935E-05  0.1601685E+04  0.7818609E-02  0.8819514E-01
        1   -1    0    0  501    0  0.00000000000E+00  0.00000000000E+00  0.73263787925E+03  0.73263787927E+03  0.50400001928E-02 0. -1.
       -1   -1    0    0    0  501  0.00000000000E+00  0.00000000000E+00 -0.87539648246E+03  0.87539648247E+03  0.50400001928E-02 0.  1.
    10030    2    1    2    0    0  0.00000000000E+00  0.00000000000E+00 -0.14275860321E+03  0.16080343617E+04  0.16016848909E+04 0.  0.
        2    1    3    3  502    0  0.58059412779E+03 -0.11764537308E+03  0.46966209474E+03  0.75598442992E+03  0.25500000920E-02 0. -1.
       -2    1    3    3    0  502 -0.58059412779E+03  0.11764537308E+03 -0.61242069795E+03  0.85204993182E+03  0.25500000920E-02 0.  1.
</event>
<event>
 5   0  0.1774934E-04  0.1602486E+04  0.7818609E-02  0.8819022E-01
        2   -1    0    0  501    0  0.00000000000E+00  0.00000000000E+00  0.19644087903E+04  0.19644087903E+04  0.25500000920E-02 0.  1.
       -2   -1    0    0    0  501  0.00000000000E+00  0.00000000000E+00 -0.32681102256E+03  0.32681102257E+03  0.25500000920E-02 0. -1.
    10030    2    1    2    0    0  0.00000000000E+00  0.00000000000E+00  0.16375977678E+04  0.22912198129E+04  0.16024861254E+04 0.  0.
        1    1    3    3  502    0  0.34205606789E+03 -0.34630764299E+03  0.17287785319E+04  0.17959973690E+04  0.50400001928E-02 0.  1.
       -1    1    3    3    0  502 -0.34205606789E+03  0.34630764299E+03 -0.91180764094E+02  0.49522244390E+03  0.50400001928E-02 0. -1.
</event>
<event>
 5   0  0.9616567E-05  0.1602606E+04  0.7818609E-02  0.8818949E-01
       -1   -1    0    0    0  501  0.00000000000E+00  0.00000000000E+00  0.42241808033E+03  0.42241808036E+03  0.50400001928E-02 0.  1.
        1   -1    0    0  501    0  0.00000000000E+00  0.00000000000E+00 -0.15200255379E+04  0.15200255379E+04  0.50400001928E-02 0. -1.
    10030    2    1    2    0    0  0.00000000000E+00  0.00000000000E+00 -0.10976074576E+04  0.19424436183E+04  0.16026057155E+04 0.  0.
        5    1    3    3  502    0  0.20726368498E+02  0.32415681257E+03  0.33902593251E+03  0.46954008817E+03  0.46999998093E+01 0.  1.
       -5    1    3    3    0  502 -0.20726368498E+02 -0.32415681257E+03 -0.14366333901E+04  0.14729035301E+04  0.46999998093E+01 0. -1.
</event>
<event>
 5   0  0.9939872E-05  0.1598031E+04  0.7818609E-02  0.8821759E-01
        1   -1    0    0  501    0  0.00000000000E+00  0.00000000000E+00  0.20232821688E+04  0.20232821688E+04  0.50400001928E-02 0.  1.
       -1   -1    0    0    0  501  0.00000000000E+00  0.00000000000E+00 -0.31553964653E+03  0.31553964657E+03  0.50400001928E-02 0. -1.
    10030    2    1    2    0    0  0.00000000000E+00  0.00000000000E+00  0.17077425223E+04  0.23388218154E+04  0.15980309639E+04 0.  0.
        3    1    3    3  502    0 -0.69377581624E+03  0.17490501899E+03  0.33330885987E+03  0.78931074687E+03  0.10100000352E+00 0. -1.
       -3    1    3    3    0  502  0.69377581624E+03 -0.17490501899E+03  0.13744336624E+04  0.15495110685E+04  0.10100000352E+00 0.  1.
</event>
<event>
 5   0  0.1858913E-04  0.1589465E+04  0.7818609E-02  0.8827046E-01
       -2   -1    0    0    0  501  0.00000000000E+00  0.00000000000E+00  0.46616131075E+03  0.46616131075E+03  0.25500000920E-02 0. -1.
        2   -1    0    0  501    0  0.00000000000E+00  0.00000000000E+00 -0.13548949105E+04  0.13548949105E+04  0.25500000920E-02 0.  1.
    10030    2    1    2    0    0  0.00000000000E+00  0.00000000000E+00 -0.88873359977E+03  0.18210562213E+04  0.15894647998E+04 0.  0.
        4    1    3    3  502    0  0.65579625632E+03  0.37949011708E+03 -0.16959722070E+03  0.77643177997E+03  0.12699999809E+01 0. -1.
       -4    1    3    3    0  502 -0.65579625632E+03 -0.37949011708E+03 -0.71913637906E+03  0.10446244413E+04  0.12699999809E+01 0.  1.
</event>
<event>
 5   0  0.9432152E-05  0.1599673E+04  0.7818609E-02  0.8820749E-01
        1   -1    0    0  501    0  0.00000000000E+00  0.00000000000E+00  0.15068235936E+04  0.15068235936E+04  0.50400001928E-02 0. -1.
       -1   -1    0    0    0  501  0.00000000000E+00  0.00000000000E+00 -0.42456115071E+03  0.42456115074E+03  0.50400001928E-02 0.  1.
    10030    2    1    2    0    0  0.00000000000E+00  0.00000000000E+00  0.10822624429E+04  0.19313847443E+04  0.15996734152E+04 0.  0.
        4    1    3    3  502    0 -0.63858681796E+03  0.47836970705E+03  0.60842413330E+03  0.10034003386E+04  0.12699999809E+01 0. -1.
       -4    1    3    3    0  502  0.63858681796E+03 -0.47836970705E+03  0.47383830958E+03  0.92798440570E+03  0.12699999809E+01 0.  1.
</event>
<event>
 5   0  0.1914170E-04  0.1597405E+04  0.7818609E-02  0.8822144E-01
        2   -1    0    0  501    0  0.00000000000E+00  0.00000000000E+00  0.91178303224E+03  0.91178303225E+03  0.25500000920E-02 0. -1.
       -2   -1    0    0    0  501  0.00000000000E+00  0.00000000000E+00 -0.69964593303E+03  0.69964593304E+03  0.25500000920E-02 0.  1.
    10030    2    1    2    0    0  0.00000000000E+00  0.00000000000E+00  0.21213709921E+03  0.16114289653E+04  0.15974045077E+04 0.  0.
        3    1    3    3  502    0  0.77803497589E+03  0.16172110751E+03  0.25157514919E+02  0.79506292272E+03  0.10100000352E+00 0.  1.
       -3    1    3    3    0  502 -0.77803497589E+03 -0.16172110751E+03  0.18697958429E+03  0.81636604257E+03  0.10100000352E+00 0. -1.
</event>
<event>
 5   0  0.1914170E-04  0.1597102E+04  0.7818609E-02  0.8822330E-01
        2   -1    0    0  501    0  0.00000000000E+00  0.00000000000E+00  0.82909991509E+03  0.82909991510E+03  0.25500000920E-02 0.  1.
       -2   -1    0    0    0  501  0.00000000000E+00  0.00000000000E+00 -0.76912784435E+03  0.76912784435E+03  0.25500000920E-02 0. -1.
    10030    2    1    2    0    0  0.00000000000E+00  0.00000000000E+00  0.59972070748E+02  0.15982277594E+04  0.15971021639E+04 0.  0.
        3    1    3    3  502    0  0.23306703990E+03  0.16622262027E+03  0.77598685614E+03  0.82710689495E+03  0.10100000352E+00 0.  1.
       -3    1    3    3    0  502 -0.23306703990E+03 -0.16622262027E+03 -0.71601478539E+03  0.77112086450E+03  0.10100000352E+00 0. -1.
</event>
<event>
 5   0  0.1914170E-04  0.1602284E+04  0.7818609E-02  0.8819146E-01
       -2   -1    0    0    0  501  0.00000000000E+00  0.00000000000E+00  0.76786585968E+03  0.76786585968E+03  0.25500000920E-02 0.  1.
        2   -1    0    0  501    0  0.00000000000E+00  0.00000000000E+00 -0.83586033434E+03  0.83586033435E+03  0.25500000920E-02 0. -1.
    10030    2    1    2    0    0  0.00000000000E+00  0.00000000000E+00 -0.67994474664E+02  0.16037261940E+04  0.16022841374E+04 0.  0.
        3    1    3    3  502    0  0.13119635871E+03  0.74828969714E+03  0.22055162372E+03  0.79107078337E+03  0.10100000352E+00 0.  1.
       -3    1    3    3    0  502 -0.13119635871E+03 -0.74828969714E+03 -0.28854609839E+03  0.81265541066E+03  0.10100000352E+00 0. -1.
</event>
<event>
 5   0  0.9726935E-05  0.1609911E+04  0.7818609E-02  0.8814482E-01
        1   -1    0    0  501    0  0.00000000000E+00  0.00000000000E+00  0.97697782660E+03  0.97697782661E+03  0.50400001928E-02 0.  1.
       -1   -1    0    0    0  501  0.00000000000E+00  0.00000000000E+00 -0.66322208498E+03  0.66322208499E+03  0.50400001928E-02 0. -1.
    10030    2    1    2    0    0  0.00000000000E+00  0.00000000000E+00  0.31375574162E+03  0.16401999116E+04  0.16099108934E+04 0.  0.
        2    1    3    3  502    0 -0.14233369281E+03  0.37321398767E+03 -0.55513084785E+03  0.68389898299E+03  0.25500000920E-02 0. -1.
       -2    1    3    3    0  502  0.14233369281E+03 -0.37321398767E+03  0.86888658947E+03  0.95630092861E+03  0.25500000920E-02 0.  1.
</event>
<event>
 5   0  0.1835088E-04  0.1596085E+04  0.7818609E-02  0.8822957E-01
       -2   -1    0    0    0  501  0.00000000000E+00  0.00000000000E+00  0.79461656855E+03  0.79461656855E+03  0.25500000920E-02 0.  1.
        2   -1    0    0  501    0  0.00000000000E+00  0.00000000000E+00 -0.80148310891E+03  0.80148310891E+03  0.25500000920E-02 0. -1.
    10030    2    1    2    0    0  0.00000000000E+00  0.00000000000E+00 -0.68665403636E+01  0.15960996775E+04  0.15960849072E+04 0.  0.
        5    1    3    3  502    0 -0.11058075420E+03  0.23603034116E+03  0.75083576148E+03  0.79480491686E+03  0.46999998093E+01 0.  1.
       -5    1    3    3    0  502  0.11058075420E+03 -0.23603034116E+03 -0.75770230185E+03  0.80129476060E+03  0.46999998093E+01 0. -1.
</event>
<event>
 5   0  0.1835088E-04  0.1598979E+04  0.7818609E-02  0.8821176E-01
        2   -1    0    0  501    0  0.00000000000E+00  0.00000000000E+00  0.34439733583E+03  0.34439733584E+03  0.25500000920E-02 0. -1.
       -2   -1    0    0    0  501  0.00000000000E+00  0.00000000000E+00 -0.18559470004E+04  0.18559470004E+04  0.25500000920E-02 0.  1.
    10030    2    1    2    0    0  0.00000000000E+00  0.00000000000E+00 -0.15115496646E+04  0.22003443363E+04  0.15989786770E+04 0.  0.
        5    1    3    3  502    0  0.63079292031E+03  0.11584473614E+03 -0.98927714117E+02  0.64894413768E+03  0.46999998093E+01 0. -1.
       -5    1    3    3    0  502 -0.63079292031E+03 -0.11584473614E+03 -0.14126219505E+04  0.15514001986E+04  0.46999998093E+01 0.  1.
</event>
<event>
 5   0  0.1858913E-04  0.1598350E+04  0.7818609E-02  0.8821562E-01
       -2   -1    0    0    0  501  0.00000000000E+00  0.00000000000E+00  0.50097653066E+03  0.50097653066E+03  0.25500000920E-02 0.  1.
        2   -1    0    0  501    0  0.00000000000E+00  0.00000000000E+00 -0.12748712794E+04  0.12748712794E+04  0.25500000920E-02 0. -1.
    10030    2    1    2    0    0  0.00000000000E+00  0.00000000000E+00 -0.77389474874E+03  0.17758478101E+04  0.15983498873E+04 0.  0.
        4    1    3    3  502    0 -0.47404074654E+03 -0.36191136036E+03  0.20409038239E+03  0.63035621614E+03  0.12699999809E+01 0.  1.
       -4    1    3    3    0  502  0.47404074654E+03  0.36191136036E+03 -0.97798513112E+03  0.11454915939E+04  0.12699999809E+01 0. -1.
</event>
<event>
 5   0  0.1858913E-04  0.1598821E+04  0.7818609E-02  0.8821273E-01
       -2   -1    0    0    0  501  0.00000000000E+00  0.00000000000E+00  0.44306186864E+03  0.44306186865E+03  0.25500000920E-02 0.  1.
        2   -1    0    0  501    0  0.00000000000E+00  0.00000000000E+00 -0.14423655833E+04  0.14423655833E+04  0.25500000920E-02 0. -1.
    10030    2    1    2    0    0  0.00000000000E+00  0.00000000000E+00 -0.99930371468E+03  0.18854274520E+04  0.15988210539E+04 0.  0.
        4    1    3    3  502    0 -0.30569525884E+03 -0.66826099444E+03 -0.87075996195E+03  0.11394063683E+04  0.12699999809E+01 0. -1.
       -4    1    3    3    0  502  0.30569525884E+03  0.66826099444E+03 -0.12854375273E+03  0.74602108364E+03  0.12699999809E+01 0.  1.
</event>
<event>
 5   0  0.9726935E-05  0.1602866E+04  0.7818609E-02  0.8818789E-01
       -1   -1    0    0    0  501  0.00000000000E+00  0.00000000000E+00  0.50046296065E+03  0.50046296068E+03  0.50400001928E-02 0. -1.
        1   -1    0    0  501    0  0.00000000000E+00  0.00000000000E+00 -0.12834012747E+04  0.12834012747E+04  0.50400001928E-02 0.  1.
    10030    2    1    2    0    0  0.00000000000E+00  0.00000000000E+00 -0.78293831408E+03  0.17838642354E+04  0.16028659354E+04 0.  0.
        2    1    3    3  502    0  0.34507342998E+03  0.51696510813E+03  0.17159244976E+03  0.64480428343E+03  0.25500000920E-02 0. -1.
       -2    1    3    3    0  502 -0.34507342998E+03 -0.51696510813E+03 -0.95453076384E+03  0.11390599520E+04  0.25500000920E-02 0.  1.
</event>
<event>
 5   0  0.1914170E-04  0.1584822E+04  0.7818609E-02  0.8829927E-01
        2   -1    0    0  501    0  0.00000000000E+00  0.00000000000E+00  0.11295025227E+04  0.11295025227E+04  0.25500000920E-02 0.  1.
       -2   -1    0    0    0  501  0.00000000000E+00  0.00000000000E+00 -0.55592224264E+03  0.55592224265E+03  0.25500000920E-02 0. -1.
    10030    2    1    2    0    0  0.00000000000E+00  0.00000000000E+00  0.57358028003E+03  0.16854247653E+04  0.15848224828E+04 0.  0.
        3    1    3    3  502    0  0.17736118673E+03 -0.89563887423E+02  0.11025807296E+04  0.11203405536E+04  0.10100000352E+00 0.  1.
       -3    1    3    3    0  502 -0.17736118673E+03  0.89563887423E+02 -0.52900044959E+03  0.56508421174E+03  0.10100000352E+00 0. -1.
</event>
<event>
 5   0  0.9432152E-05  0.1597871E+04  0.7818609E-02  0.8821857E-01
       -1   -1    0    0    0  501  0.00000000000E+00  0.00000000000E+00  0.22989935526E+03  0.22989935532E+03  0.50400001928E-02 0.  1.
        1   -1    0    0  501    0  0.00000000000E+00  0.00000000000E+00 -0.27764229030E+04  0.27764229030E+04  0.50400001928E-02 0. -1.
    10030    2    1    2    0    0  0.00000000000E+00  0.00000000000E+00 -0.25465235477E+04  0.30063222583E+04  0.15978708777E+04 0.  0.
        4    1    3    3  502    0 -0.47792715910E+03  0.51710813002E+03 -0.56307532470E+03  0.90159337937E+03  0.12699999809E+01 0.  1.
       -4    1    3    3    0  502  0.47792715910E+03 -0.51710813002E+03 -0.19834482230E+04  0.21047288789E+04  0.12699999809E+01 0. -1.
</event>
<event>
 5   0  0.1774934E-04  0.1531000E+04  0.7818609E-02  0.8864096E-01
       -2   -1    0    0    0  501  0.00000000000E+00  0.00000000000E+00  0.53507008035E+03  0.53507008035E+03  0.25500000920E-02 0.  1.
        2   -1    0    0  501    0  0.00000000000E+00  0.00000000000E+00 -0.10951648461E+04  0.10951648461E+04  0.25500000920E-02 0. -1.
    10030    2    1    2    0    0  0.00000000000E+00  0.00000000000E+00 -0.56009476575E+03  0.16302349265E+04  0.15309995979E+04 0.  0.
        1    1    3    3  502    0  0.16517352290E+03  0.31143261361E+03  0.44349375146E+03  0.56653267611E+03  0.50400001928E-02 0.  1.
       -1    1    3    3    0  502 -0.16517352290E+03 -0.31143261361E+03 -0.10035885172E+04  0.10637022503E+04  0.50400001928E-02 0. -1.
</event>
<event>
 5   0  0.1832646E-04  0.1603111E+04  0.7818609E-02  0.8818639E-01
        2   -1    0    0  501    0  0.00000000000E+00  0.00000000000E+00  0.11480853655E+04  0.11480853655E+04  0.25500000920E-02 0. -1.
       -2   -1    0    0    0  501  0.00000000000E+00  0.00000000000E+00 -0.55961995599E+03  0.55961995599E+03  0.25500000920E-02 0.  1.
    10030    2    1    2    0    0  0.00000000000E+00  0.00000000000E+00  0.58846540952E+03  0.17077053215E+04  0.16031113270E+04 0.  0.
        2    1    3    3  502    0 -0.31220602095E+03 -0.51424762908E+03  0.85847874120E+03  0.10482885922E+04  0.25500000920E-02 0. -1.
       -2    1    3    3    0  502  0.31220602095E+03  0.51424762908E+03 -0.27001333168E+03  0.65941672926E+03  0.25500000920E-02 0.  1.
</event>
<event>
 5   0  0.9432152E-05  0.1592931E+04  0.7818609E-02  0.8824903E-01
       -1   -1    0    0    0  501  0.00000000000E+00  0.00000000000E+00  0.84210457796E+03  0.84210457797E+03  0.50400001928E-02 0.  1.
        1   -1    0    0  501    0  0.00000000000E+00  0.00000000000E+00 -0.75329962793E+03  0.75329962795E+03  0.50400001928E-02 0. -1.
    10030    2    1    2    0    0  0.00000000000E+00  0.00000000000E+00  0.88804950027E+02  0.15954042059E+04  0.15929307145E+04 0.  0.
        4    1    3    3  502    0 -0.78783806465E+03 -0.60506736522E+02 -0.55780699127E+02  0.79212560909E+03  0.12699999809E+01 0. -1.
       -4    1    3    3    0  502  0.78783806465E+03  0.60506736522E+02  0.14458564915E+03  0.80327859683E+03  0.12699999809E+01 0.  1.
</event>
<event>
 5   0  0.9726935E-05  0.1644979E+04  0.7818609E-02  0.8793383E-01
       -1   -1    0    0    0  501  0.00000000000E+00  0.00000000000E+00  0.73296754435E+03  0.73296754437E+03  0.50400001928E-02 0.  1.
        1   -1    0    0  501    0  0.00000000000E+00  0.00000000000E+00 -0.92294490279E+03  0.92294490280E+03  0.50400001928E-02 0. -1.
    10030    2    1    2    0    0  0.00000000000E+00  0.00000000000E+00 -0.18997735844E+03  0.16559124472E+04  0.16449786126E+04 0.  0.
        2    1    3    3  502    0  0.46854388966E+03 -0.65523780808E+03 -0.26228204160E+03  0.84714923776E+03  0.25500000920E-02 0.  1.
       -2    1    3    3    0  502 -0.46854388966E+03  0.65523780808E+03  0.72304683166E+02  0.80876320941E+03  0.25500000920E-02 0. -1.
</event>
<event>
 5   0  0.1858913E-04  0.1600243E+04  0.7818609E-02  0.8820399E-01
       -2   -1    0    0    0  501  0.00000000000E+00  0.00000000000E+00  0.35454021274E+03  0.35454021275E+03  0.25500000920E-02 0. -1.
        2   -1    0    0  501    0  0.00000000000E+00  0.00000000000E+00 -0.18057031671E+04  0.18057031671E+04  0.25500000920E-02 0.  1.
    10030    2    1    2    0    0  0.00000000000E+00  0.00000000000E+00 -0.14511629544E+04  0.21602433799E+04  0.16002429628E+04 0.  0.
        4    1    3    3  502    0 -0.21695837677E+01  0.47714206586E+03 -0.15926254251E+04  0.16625662741E+04  0.12699999809E+01 0.  1.
       -4    1    3    3    0  502  0.21695837677E+01 -0.47714206586E+03  0.14146247073E+03  0.49767710579E+03  0.12699999809E+01 0. -1.
</event>
<event>
 5   0  0.1858913E-04  0.1582051E+04  0.7818609E-02  0.8831651E-01
        2   -1    0    0  501    0  0.00000000000E+00  0.00000000000E+00  0.23322833447E+04  0.23322833447E+04  0.25500000920E-02 0.  1.
       -2   -1    0    0    0  501  0.00000000000E+00  0.00000000000E+00 -0.26828710916E+03  0.26828710917E+03  0.25500000920E-02 0. -1.
    10030    2    1    2    0    0  0.00000000000E+00  0.00000000000E+00  0.20639962356E+04  0.26005704539E+04  0.15820512714E+04 0.  0.
        4    1    3    3  502    0  0.20565676239E+03  0.52014815680E+03  0.19514538368E+04  0.20300301719E+04  0.12699999809E+01 0.  1.
       -4    1    3    3    0  502 -0.20565676239E+03 -0.52014815680E+03  0.11254239880E+03  0.57054028198E+03  0.12699999809E+01 0. -1.
</event>
<event>
 5   0  0.9432152E-05  0.1602599E+04  0.7818609E-02  0.8818953E-01
       -1   -1    0    0    0  501  0.00000000000E+00  0.00000000000E+00  0.80953502417E+03  0.80953502419E+03  0.50400001928E-02 0. -1.
        1   -1    0    0  501    0  0.00000000000E+00  0.00000000000E+00 -0.79314742531E+03  0.79314742532E+03  0.50400001928E-02 0.  1.
    10030    2    1    2    0    0  0.00000000000E+00  0.00000000000E+00  0.16387598864E+02  0.16026824495E+04  0.16025986648E+04 0.  0.
        4    1    3    3  502    0 -0.54146336690E+03  0.55262888942E+03  0.21676582157E+03  0.80347389591E+03  0.12699999809E+01 0. -1.
       -4    1    3    3    0  502  0.54146336690E+03 -0.55262888942E+03 -0.20037822270E+03  0.79920855360E+03  0.12699999809E+01 0.  1.
</event>
<event>
 5   0  0.9726935E-05  0.1535972E+04  0.7818609E-02  0.8860878E-01
       -1   -1    0    0    0  501  0.00000000000E+00  0.00000000000E+00  0.10613345127E+04  0.10613345127E+04  0.50400001928E-02 0.  1.
        1   -1    0    0  501    0  0.00000000000E+00  0.00000000000E+00 -0.55571792360E+03  0.55571792362E+03  0.50400001928E-02 0. -1.
    10030    2    1    2    0    0  0.00000000000E+00  0.00000000000E+00  0.50561658913E+03  0.16170524364E+04  0.15359721504E+04 0.  0.
        2    1    3    3  502    0 -0.71683626835E+02  0.70496877379E+03  0.56455272478E+03  0.90600181757E+03  0.25500000920E-02 0.  1.
       -2    1    3    3    0  502  0.71683626835E+02 -0.70496877379E+03 -0.58936135652E+02  0.71105061878E+03  0.25500000920E-02 0. -1.
</event>
<event>
 5   0  0.1835088E-04  0.1599961E+04  0.7818609E-02  0.8820572E-01
        2   -1    0    0  501    0  0.00000000000E+00  0.00000000000E+00  0.11527998375E+04  0.11527998375E+04  0.25500000920E-02 0.  1.
       -2   -1    0    0    0  501  0.00000000000E+00  0.00000000000E+00 -0.55514283875E+03  0.55514283875E+03  0.25500000920E-02 0. -1.
    10030    2    1    2    0    0  0.00000000000E+00  0.00000000000E+00  0.59765699874E+03  0.17079426762E+04  0.15999607174E+04 0.  0.
        5    1    3    3  502    0 -0.84649402127E+02  0.79403228565E+03  0.34995329147E+03  0.87186133539E+03  0.46999998093E+01 0. -1.
       -5    1    3    3    0  502  0.84649402127E+02 -0.79403228565E+03  0.24770370727E+03  0.83608134085E+03  0.46999998093E+01 0.  1.
</event>
<event>
 5   0  0.1835088E-04  0.1599817E+04  0.7818609E-02  0.8820660E-01
       -2   -1    0    0    0  501  0.00000000000E+00  0.00000000000E+00  0.62751966556E+03  0.62751966556E+03  0.25500000920E-02 0.  1.
        2   -1    0    0  501    0  0.00000000000E+00  0.00000000000E+00 -0.10196552752E+04  0.10196552752E+04  0.25500000920E-02 0. -1.
    10030    2    1    2    0    0  0.00000000000E+00  0.00000000000E+00 -0.39213560961E+03  0.16471749407E+04  0.15998171611E+04 0.  0.
        5    1    3    3  502    0  0.49742495211E+03  0.62620752881E+03 -0.17933257062E+03  0.81960338762E+03  0.46999998093E+01 0. -1.
       -5    1    3    3    0  502 -0.49742495211E+03 -0.62620752881E+03 -0.21280303900E+03  0.82757155312E+03  0.46999998093E+01 0.  1.
</event>
<event>
 5   0  0.9616567E-05  0.1611056E+04  0.7818609E-02  0.8813784E-01
        1   -1    0    0  501    0  0.00000000000E+00  0.00000000000E+00  0.12529575838E+04  0.12529575838E+04  0.50400001928E-02 0. -1.
       -1   -1    0    0    0  501  0.00000000000E+00  0.00000000000E+00 -0.51787501056E+03  0.51787501059E+03  0.50400001928E-02 0.  1.
    10030    2    1    2    0    0  0.00000000000E+00  0.00000000000E+00  0.73508257325E+03  0.17708325944E+04  0.16110560785E+04 0.  0.
        5    1    3    3  502    0 -0.99670992957E+02  0.68143277820E+03 -0.91709234177E+02  0.69477882212E+03  0.46999998093E+01 0.  1.
       -5    1    3    3    0  502  0.99670992957E+02 -0.68143277820E+03  0.82679180742E+03  0.10760537723E+04  0.46999998093E+01 0. -1.
</event>
<event>
 5   0  0.1832646E-04  0.1606102E+04  0.7818609E-02  0.8816808E-01
        2   -1    0    0  501    0  0.00000000000E+00  0.00000000000E+00  0.93085016229E+03  0.93085016229E+03  0.25500000920E-02 0. -1.
       -2   -1    0    0    0  501  0.00000000000E+00  0.00000000000E+00 -0.69279743856E+03  0.69279743857E+03  0.25500000920E-02 0.  1.
    10030    2    1    2    0    0  0.00000000000E+00  0.00000000000E+00  0.23805272373E+03  0.16236476009E+04  0.16061016258E+04 0.  0.
        2    1    3    3  502    0  0.32218090717E+03 -0.17836965214E+02  0.86243194286E+03  0.92081895634E+03  0.25500000920E-02 0. -1.
       -2    1    3    3    0  502 -0.32218090717E+03  0.17836965214E+02 -0.62437921913E+03  0.70282864452E+03  0.25500000920E-02 0.  1.
</event>
<event>
 5   0  0.9432152E-05  0.1598351E+04  0.7818609E-02  0.8821562E-01
       -1   -1    0    0    0  501  0.00000000000E+00  0.00000000000E+00  0.81473803491E+03  0.81473803492E+03  0.50400001928E-02 0.  1.
        1   -1    0    0  501    0  0.00000000000E+00  0.00000000000E+00 -0.78391010508E+03  0.78391010510E+03  0.50400001928E-02 0. -1.
    10030    2    1    2    0    0  0.00000000000E+00  0.00000000000E+00  0.30827929823E+02  0.15986481400E+04  0.15983508733E+04 0.  0.
        4    1    3    3  502    0 -0.72065677206E+03  0.13089620308E+03  0.33516040357E+03  0.80548998015E+03  0.12699999809E+01 0.  1.
       -4    1    3    3    0  502  0.72065677206E+03 -0.13089620308E+03 -0.30433247374E+03  0.79315815987E+03  0.12699999809E+01 0. -1.
</event>
<event>
 5   0  0.1914170E-04  0.1613854E+04  0.7818609E-02  0.8812082E-01
       -2   -1    0    0    0  501  0.00000000000E+00  0.00000000000E+00  0.56030591158E+03  0.56030591159E+03  0.25500000920E-02 0. -1.
        2   -1    0    0  501    0  0.00000000000E+00  0.00000000000E+00 -0.11620998237E+04  0.11620998237E+04  0.25500000920E-02 0.  1.
    10030    2    1    2    0    0  0.00000000000E+00  0.00000000000E+00 -0.60179391212E+03  0.17224057353E+04  0.16138542698E+04 0.  0.
        3    1    3    3  502    0  0.14188391813E+03 -0.79228815252E+03 -0.36201883314E+03  0.88255833156E+03  0.10100000352E+00 0.  1.
       -3    1    3    3    0  502 -0.14188391813E+03  0.79228815252E+03 -0.23977507898E+03  0.83984740373E+03  0.10100000352E+00 0. -1.
</event>
<event>
 5   0  0.6838750E-05  0.1600157E+04  0.7818609E-02  0.8820452E-01
        4   -1    0    0  501    0  0.00000000000E+00  0.00000000000E+00  0.49552033522E+03  0.49552196270E+03  0.12699999809E+01 0.  1.
       -4   -1    0    0    0  501  0.00000000000E+00  0.00000000000E+00 -0.12918202728E+04  0.12918208971E+04  0.12699999809E+01 0. -1.
    10030    2    1    2    0    0  0.00000000000E+00  0.00000000000E+00 -0.79629993756E+03  0.17873428598E+04  0.16001565260E+04 0.  0.
        2    1    3    3  502    0 -0.28963149060E+03 -0.61874280132E+03 -0.86327012028E+03  0.11008925266E+04  0.25500000920E-02 0. -1.
       -2    1    3    3    0  502  0.28963149060E+03  0.61874280132E+03  0.66970182714E+02  0.68645033317E+03  0.25500000920E-02 0.  1.
</event>
<event>
 5   0  0.1832646E-04  0.1604469E+04  0.7818609E-02  0.8817807E-01
        2   -1    0    0  501    0  0.00000000000E+00  0.00000000000E+00  0.12258365196E+04  0.12258365196E+04  0.25500000920E-02 0. -1.
       -2   -1    0    0    0  501  0.00000000000E+00  0.00000000000E+00 -0.52501334221E+03  0.52501334221E+03  0.25500000920E-02 0.  1.
    10030    2    1    2    0    0  0.00000000000E+00  0.00000000000E+00  0.70082317739E+03  0.17508498618E+04  0.16044694178E+04 0.  0.
        2    1    3    3  502    0 -0.62625476791E+03 -0.36666142028E+03  0.72358277224E+03  0.10247963992E+04  0.25500000920E-02 0. -1.
       -2    1    3    3    0  502  0.62625476791E+03  0.36666142028E+03 -0.22759594855E+02  0.72605346264E+03  0.25500000920E-02 0.  1.
</event>
<event>
 5   0  0.9939872E-05  0.1601622E+04  0.7818609E-02  0.8819552E-01
        1   -1    0    0  501    0  0.00000000000E+00  0.00000000000E+00  0.71577681257E+03  0.71577681259E+03  0.50400001928E-02 0. -1.
       -1   -1    0    0    0  501  0.00000000000E+00  0.00000000000E+00 -0.89594687519E+03  0.89594687521E+03  0.50400001928E-02 0.  1.
    10030    2    1    2    0    0  0.00000000000E+00  0.00000000000E+00 -0.18017006262E+03  0.16117236878E+04  0.16016216764E+04 0.  0.
        3    1    3    3  502    0 -0.12094638507E+02  0.61721283635E+03 -0.60340045764E+03  0.86324393315E+03  0.10100000352E+00 0.  1.
       -3    1    3    3    0  502  0.12094638507E+02 -0.61721283635E+03  0.42323039502E+03  0.74847975464E+03  0.10100000352E+00 0. -1.
</event>
<event>
 5   0  0.1832646E-04  0.1591014E+04  0.7818609E-02  0.8826087E-01
        2   -1    0    0  501    0  0.00000000000E+00  0.00000000000E+00  0.15103179365E+04  0.15103179365E+04  0.25500000920E-02 0. -1.
       -2   -1    0    0    0  501  0.00000000000E+00  0.00000000000E+00 -0.41900545396E+03  0.41900545396E+03  0.25500000920E-02 0.  1.
    10030    2    1    2    0    0  0.00000000000E+00  0.00000000000E+00  0.10913124826E+04  0.19293233905E+04  0.15910140824E+04 0.  0.
        2    1    3    3  502    0  0.43404894588E+02 -0.79019340967E+03  0.44757610368E+03  0.90918313785E+03  0.25500000920E-02 0. -1.
       -2    1    3    3    0  502 -0.43404894588E+02  0.79019340967E+03  0.64373637889E+03  0.10201402526E+04  0.25500000920E-02 0.  1.
</event>
<event>
 5   0  0.9616567E-05  0.1599263E+04  0.7818609E-02  0.8821001E-01
       -1   -1    0    0    0  501  0.00000000000E+00  0.00000000000E+00  0.45729454470E+03  0.45729454473E+03  0.50400001928E-02 0.  1.
        1   -1    0    0  501    0  0.00000000000E+00  0.00000000000E+00 -0.13982458557E+04  0.13982458557E+04  0.50400001928E-02 0. -1.
    10030    2    1    2    0    0  0.00000000000E+00  0.00000000000E+00 -0.94095131100E+03  0.18555404004E+04  0.15992625826E+04 0.  0.
        5    1    3    3  502    0 -0.44242204283E+02  0.78447477288E+03 -0.64268573913E+03  0.10150985623E+04  0.46999998093E+01 0. -1.
       -5    1    3    3    0  502  0.44242204283E+02 -0.78447477288E+03 -0.29826557188E+03  0.84044183814E+03  0.46999998093E+01 0.  1.
</event>
<event>
 5   0  0.9432152E-05  0.1607086E+04  0.7818609E-02  0.8816207E-01
       -1   -1    0    0    0  501  0.00000000000E+00  0.00000000000E+00  0.48446154603E+03  0.48446154606E+03  0.50400001928E-02 0. -1.
        1   -1    0    0  501    0  0.00000000000E+00  0.00000000000E+00 -0.13327807180E+04  0.13327807180E+04  0.50400001928E-02 0.  1.
    10030    2    1    2    0    0  0.00000000000E+00  0.00000000000E+00 -0.84831917192E+03  0.18172422640E+04  0.16070855698E+04 0.  0.
        4    1    3    3  502    0 -0.27870400017E+03 -0.12820541102E+03  0.41563467877E+03  0.51659108222E+03  0.12699999809E+01 0. -1.
       -4    1    3    3    0  502  0.27870400017E+03  0.12820541102E+03 -0.12639538507E+04  0.13006511818E+04  0.12699999809E+01 0.  1.
</event>
<event>
 5   0  0.1914170E-04  0.1602714E+04  0.7818609E-02  0.8818882E-01
        2   -1    0    0  501    0  0.00000000000E+00  0.00000000000E+00  0.17539777818E+04  0.17539777818E+04  0.25500000920E-02 0.  1.
       -2   -1    0    0    0  501  0.00000000000E+00  0.00000000000E+00 -0.36612398390E+03  0.36612398391E+03  0.25500000920E-02 0. -1.
    10030    2    1    2    0    0  0.00000000000E+00  0.00000000000E+00  0.13878537979E+04  0.21201017657E+04  0.16027143640E+04 0.  0.
        3    1    3    3  502    0  0.68990864879E+03  0.37709219502E+03  0.89886086353E+03  0.11942040569E+04  0.10100000352E+00 0.  1.
       -3    1    3    3    0  502 -0.68990864879E+03 -0.37709219502E+03  0.48899293440E+03  0.92589770888E+03  0.10100000352E+00 0. -1.
</event>
<event>
 5   0  0.9939872E-05  0.1599160E+04  0.7818609E-02  0.8821064E-01
       -1   -1    0    0    0  501  0.00000000000E+00  0.00000000000E+00  0.41629424342E+03  0.41629424345E+03  0.50400001928E-02 0. -1.
        1   -1    0    0  501    0  0.00000000000E+00  0.00000000000E+00 -0.15357598321E+04  0.15357598321E+04  0.50400001928E-02 0.  1.
    10030    2    1    2    0    0  0.00000000000E+00  0.00000000000E+00 -0.11194655887E+04  0.19520540756E+04  0.15991597512E+04 0.  0.
        3    1    3    3  502    0  0.61069175342E+03 -0.22003864255E+03 -0.11296278828E+04  0.13028509453E+04  0.10100000352E+00 0.  1.
       -3    1    3    3    0  502 -0.61069175342E+03  0.22003864255E+03  0.10162294113E+02  0.64920313025E+03  0.10100000352E+00 0. -1.
</event>
<event>
 5   0  0.9726935E-05  0.1597381E+04  0.7818609E-02  0.8822159E-01
       -1   -1    0    0    0  501  0.00000000000E+00  0.00000000000E+00  0.80973345163E+03  0.80973345165E+03  0.50400001928E-02 0.  1.
        1   -1    0    0  501    0  0.00000000000E+00  0.00000000000E+00 -0.78779813342E+03  0.78779813344E+03  0.50400001928E-02 0. -1.
    10030    2    1    2    0    0  0.00000000000E+00  0.00000000000E+00  0.21935318212E+02  0.15975315851E+04  0.15973809837E+04 0.  0.
        2    1    3    3  502    0 -0.34253463315E+03  0.67075250942E+03  0.27682650081E+03  0.80241623573E+03  0.25500000920E-02 0.  1.
       -2    1    3    3    0  502  0.34253463315E+03 -0.67075250942E+03 -0.25489118260E+03  0.79511534935E+03  0.25500000920E-02 0. -1.
</event>
<event>
 5   0  0.9726935E-05  0.1596975E+04  0.7818609E-02  0.8822409E-01
        1   -1    0    0  501    0  0.00000000000E+00  0.00000000000E+00  0.56707000644E+03  0.56707000646E+03  0.50400001928E-02 0. -1.
       -1   -1    0    0    0  501  0.00000000000E+00  0.00000000000E+00 -0.11243446614E+04  0.11243446615E+04  0.50400001928E-02 0.  1.
    10030    2    1    2    0    0  0.00000000000E+00  0.00000000000E+00 -0.55727465501E+03  0.16914146679E+04  0.15969748081E+04 0.  0.
        2    1    3    3  502    0  0.46786254859E+03 -0.23737993432E+03  0.35890451175E+03  0.63565481682E+03  0.25500000920E-02 0. -1.
       -2    1    3    3    0  502 -0.46786254859E+03  0.23737993432E+03 -0.91617916676E+03  0.10557598511E+04  0.25500000920E-02 0.  1.
</event>
<event>
 5   0  0.1858913E-04  0.1593786E+04  0.7818609E-02  0.8824375E-01
        2   -1    0    0  501    0  0.00000000000E+00  0.00000000000E+00  0.23187864574E+04  0.23187864574E+04  0.25500000920E-02 0.  1.
       -2   -1    0    0    0  501  0.00000000000E+00  0.00000000000E+00 -0.27386676904E+03  0.27386676905E+03  0.25500000920E-02 0. -1.
    10030    2    1    2    0    0  0.00000000000E+00  0.00000000000E+00  0.20449196883E+04  0.25926532264E+04  0.15937861277E+04 0.  0.
        4    1    3    3  502    0  0.53546326207E+03 -0.46878920788E+03  0.16057102079E+04  0.17563573416E+04  0.12699999809E+01 0.  1.
       -4    1    3    3    0  502 -0.53546326207E+03  0.46878920788E+03  0.43920948037E+03  0.83629588484E+03  0.12699999809E+01 0. -1.
</event>
<event>
 5   0  0.9432152E-05  0.1591888E+04  0.7818609E-02  0.8825547E-01
        1   -1    0    0  501    0  0.00000000000E+00  0.00000000000E+00  0.96141835462E+03  0.96141835463E+03  0.50400001928E-02 0.  1.
       -1   -1    0    0    0  501  0.00000000000E+00  0.00000000000E+00 -0.65894999846E+03  0.65894999848E+03  0.50400001928E-02 0. -1.
    10030    2    1    2    0    0  0.00000000000E+00  0.00000000000E+00  0.30246835616E+03  0.16203683531E+04  0.15918877138E+04 0.  0.
        4    1    3    3  502    0 -0.38835989917E+03  0.29330221156E+03 -0.48985576243E+03  0.69051421381E+03  0.12699999809E+01 0. -1.
       -4    1    3    3    0  502  0.38835989917E+03 -0.29330221156E+03  0.79232411858E+03  0.92985413930E+03  0.12699999809E+01 0.  1.
</event>
<event>
 5   0  0.9673017E-05  0.1592768E+04  0.7818609E-02  0.8825003E-01
        1   -1    0    0  501    0  0.00000000000E+00  0.00000000000E+00  0.11875131660E+04  0.11875131661E+04  0.50400001928E-02 0. -1.
       -1   -1    0    0    0  501  0.00000000000E+00  0.00000000000E+00 -0.53408013202E+03  0.53408013205E+03  0.50400001928E-02 0.  1.
    10030    2    1    2    0    0  0.00000000000E+00  0.00000000000E+00  0.65343303402E+03  0.17215932981E+04  0.15927676397E+04 0.  0.
        1    1    3    3  502    0  0.38469132675E+03  0.11414783960E+03  0.10702578507E+04  0.11430087546E+04  0.50400001928E-02 0. -1.
       -1    1    3    3    0  502 -0.38469132675E+03 -0.11414783960E+03 -0.41682481666E+03  0.57858454349E+03  0.50400001928E-02 0.  1.
</event>
<event>
 5   0  0.1835088E-04  0.1598885E+04  0.7818609E-02  0.8821233E-01
        2   -1    0    0  501    0  0.00000000000E+00  0.00000000000E+00  0.45159684429E+03  0.45159684430E+03  0.25500000920E-02 0.  1.
       -2   -1    0    0    0  501  0.00000000000E+00  0.00000000000E+00 -0.14152190967E+04  0.14152190967E+04  0.25500000920E-02 0. -1.
    10030    2    1    2    0    0  0.00000000000E+00  0.00000000000E+00 -0.96362225238E+03  0.18668159410E+04  0.15988852092E+04 0.  0.
        5    1    3    3  502    0  0.49576362400E+03 -0.64008794329E+02  0.24659723578E+03  0.55741455249E+03  0.46999998093E+01 0.  1.
       -5    1    3    3    0  502 -0.49576362400E+03  0.64008794329E+02 -0.12102194882E+04  0.13094013885E+04  0.46999998093E+01 0. -1.
</event>
<event>
 5   0  0.1774934E-04  0.1599205E+04  0.7818609E-02  0.8821036E-01
       -2   -1    0    0    0  501  0.00000000000E+00  0.00000000000E+00  0.69060849933E+03  0.69060849933E+03  0.25500000920E-02 0. -1.
        2   -1    0    0  501    0  0.00000000000E+00  0.00000000000E+00 -0.92579855253E+03  0.92579855253E+03  0.25500000920E-02 0.  1.
    10030    2    1    2    0    0  0.00000000000E+00  0.00000000000E+00 -0.23519005320E+03  0.16164070519E+04  0.15992052389E+04 0.  0.
        1    1    3    3  502    0  0.15036644185E+03 -0.18046607354E+03  0.65494716731E+03  0.69579728551E+03  0.50400001928E-02 0. -1.
       -1    1    3    3    0  502 -0.15036644185E+03  0.18046607354E+03 -0.89013722051E+03  0.92060976635E+03  0.50400001928E-02 0.  1.
</event>
<event>
 5   0  0.1774934E-04  0.1601314E+04  0.7818609E-02  0.8819741E-01
       -2   -1    0    0    0  501  0.00000000000E+00  0.00000000000E+00  0.12164182960E+04  0.12164182960E+04  0.25500000920E-02 0.  1.
        2   -1    0    0  501    0  0.00000000000E+00  0.00000000000E+00 -0.52699933624E+03  0.52699933624E+03  0.25500000920E-02 0. -1.
    10030    2    1    2    0    0  0.00000000000E+00  0.00000000000E+00  0.68941895972E+03  0.17434176322E+04  0.16013140036E+04 0.  0.
        1    1    3    3  502    0  0.45897674962E+03 -0.32094188876E+03 -0.27824526451E+03  0.62536691621E+03  0.50400001928E-02 0. -1.
       -1    1    3    3    0  502 -0.45897674962E+03  0.32094188876E+03  0.96766422423E+03  0.11180507160E+04  0.50400001928E-02 0.  1.
</event>
<event>
 5   0  0.9939872E-05  0.1600064E+04  0.7818609E-02  0.8820509E-01
       -1   -1    0    0    0  501  0.00000000000E+00  0.00000000000E+00  0.86475865504E+03  0.86475865505E+03  0.50400001928E-02 0.  1.
        1   -1    0    0  501    0  0.00000000000E+00  0.00000000000E+00 -0.74015036734E+03  0.74015036736E+03  0.50400001928E-02 0. -1.
    10030    2    1    2    0    0  0.00000000000E+00  0.00000000000E+00  0.12460828770E+03  0.16049090224E+04  0.16000642940E+04 0.  0.
        3    1    3    3  502    0 -0.50342734629E+03 -0.24177981721E+03  0.63688665145E+03  0.84706622528E+03  0.10100000352E+00 0.  1.
       -3    1    3    3    0  502  0.50342734629E+03  0.24177981721E+03 -0.51227836376E+03  0.75784279714E+03  0.10100000352E+00 0. -1.
</event>
<event>
 5   0  0.1835088E-04  0.1587288E+04  0.7818609E-02  0.8828396E-01
        2   -1    0    0  501    0  0.00000000000E+00  0.00000000000E+00  0.11162837775E+04  0.11162837775E+04  0.25500000920E-02 0.  1.
       -2   -1    0    0    0  501  0.00000000000E+00  0.00000000000E+00 -0.56425687223E+03  0.56425687224E+03  0.25500000920E-02 0. -1.
    10030    2    1    2    0    0  0.00000000000E+00  0.00000000000E+00  0.55202690530E+03  0.16805406498E+04  0.15872879926E+04 0.  0.
        5    1    3    3  502    0 -0.56531342586E+03  0.55642773817E+03  0.24886306486E+03  0.83135191845E+03  0.46999998093E+01 0.  1.
       -5    1    3    3    0  502  0.56531342586E+03 -0.55642773817E+03  0.30316384044E+03  0.84918873132E+03  0.46999998093E+01 0. -1.
</event>
<event>
 5   0  0.1832646E-04  0.1601741E+04  0.7818609E-02  0.8819479E-01
        2   -1    0    0  501    0  0.00000000000E+00  0.00000000000E+00  0.13331109710E+04  0.13331109710E+04  0.25500000920E-02 0.  1.
       -2   -1    0    0    0  501  0.00000000000E+00  0.00000000000E+00 -0.48112548116E+03  0.48112548117E+03  0.25500000920E-02 0. -1.
    10030    2    1    2    0    0  0.00000000000E+00  0.00000000000E+00  0.85198548984E+03  0.18142364522E+04  0.16017411244E+04 0.  0.
        2    1    3    3  502    0 -0.26114580256E+03 -0.72365048317E+03  0.17392318392E+03  0.78874357423E+03  0.25500000920E-02 0.  1.
       -2    1    3    3    0  502  0.26114580256E+03  0.72365048317E+03  0.67806230593E+03  0.10254928779E+04  0.25500000920E-02 0. -1.
</event>
<event>
 5   0  0.9616567E-05  0.1599086E+04  0.7818609E-02  0.8821110E-01
       -1   -1    0    0    0  501  0.00000000000E+00  0.00000000000E+00  0.26732269058E+03  0.26732269063E+03  0.50400001928E-02 0. -1.
        1   -1    0    0  501    0  0.00000000000E+00  0.00000000000E+00 -0.23913743477E+04  0.23913743477E+04  0.50400001928E-02 0.  1.
    10030    2    1    2    0    0  0.00000000000E+00  0.00000000000E+00 -0.21240516571E+04  0.26586970383E+04  0.15990855198E+04 0.  0.
        5    1    3    3  502    0  0.71592607054E+03 -0.66303068150E+02 -0.16434738828E+04  0.17938714359E+04  0.46999998093E+01 0.  1.
       -5    1    3    3    0  502 -0.71592607054E+03  0.66303068150E+02 -0.48057777431E+03  0.86482560235E+03  0.46999998093E+01 0. -1.
</event>
<event>
 5   0  0.1774934E-04  0.1599569E+04  0.7818609E-02  0.8820813E-01
       -2   -1    0    0    0  501  0.00000000000E+00  0.00000000000E+00  0.85043839959E+03  0.85043839959E+03  0.25500000920E-02 0. -1.
        2   -1    0    0  501    0  0.00000000000E+00  0.00000000000E+00 -0.75214754346E+03  0.75214754346E+03  0.25500000920E-02 0.  1.
    10030    2    1    2    0    0  0.00000000000E+00  0.00000000000E+00  0.98290856132E+02  0.16025859431E+04  0.15995688833E+04 0.  0.
        1    1    3    3  502    0  0.33494584334E+03 -0.26275996511E+03  0.72749238730E+03  0.84289779383E+03  0.50400001928E-02 0. -1.
       -1    1    3    3    0  502 -0.33494584334E+03  0.26275996511E+03 -0.62920153117E+03  0.75968814923E+03  0.50400001928E-02 0.  1.
</event>
<event>
 5   0  0.1858913E-04  0.1604668E+04  0.7818609E-02  0.8817685E-01
       -2   -1    0    0    0  501  0.00000000000E+00  0.00000000000E+00  0.57825230854E+03  0.57825230854E+03  0.25500000920E-02 0.  1.
        2   -1    0    0  501    0  0.00000000000E+00  0.00000000000E+00 -0.11132514684E+04  0.11132514684E+04  0.25500000920E-02 0. -1.
    10030    2    1    2    0    0  0.00000000000E+00  0.00000000000E+00 -0.53499915989E+03  0.16915037770E+04  0.16046684787E+04 0.  0.
        4    1    3    3  502    0  0.61043989272E+03 -0.60261950309E+02 -0.81266135236E+03  0.10181789881E+04  0.12699999809E+01 0. -1.
       -4    1    3    3    0  502 -0.61043989272E+03  0.60261950309E+02  0.27766219247E+03  0.67332478887E+03  0.12699999809E+01 0.  1.
</event>
<event>
 5   0  0.1774934E-04  0.1602604E+04  0.7818609E-02  0.8818950E-01
        2   -1    0    0  501    0  0.00000000000E+00  0.00000000000E+00  0.22477491958E+04  0.22477491958E+04  0.25500000920E-02 0. -1.
       -2   -1    0    0    0  501  0.00000000000E+00  0.00000000000E+00 -0.28565698549E+03  0.28565698551E+03  0.25500000920E-02 0.  1.
    10030    2    1    2    0    0  0.00000000000E+00  0.00000000000E+00  0.19620922103E+04  0.25334061813E+04  0.16026044546E+04 0.  0.
        1    1    3    3  502    0  0.79852083052E+03 -0.41932653589E+02  0.10630561818E+04  0.13302188955E+04  0.50400001928E-02 0.  1.
       -1    1    3    3    0  502 -0.79852083052E+03  0.41932653589E+02  0.89903602852E+03  0.12031872858E+04  0.50400001928E-02 0. -1.
</event>
<event>
 5   0  0.1832646E-04  0.1571752E+04  0.7818609E-02  0.8838092E-01
        2   -1    0    0  501    0  0.00000000000E+00  0.00000000000E+00  0.14231508921E+04  0.14231508921E+04  0.25500000920E-02 0. -1.
       -2   -1    0    0    0  501  0.00000000000E+00  0.00000000000E+00 -0.43396743222E+03  0.43396743222E+03  0.25500000920E-02 0.  1.
    10030    2    1    2    0    0  0.00000000000E+00  0.00000000000E+00  0.98918345987E+03  0.18571183243E+04  0.15717520648E+04 0.  0.
        2    1    3    3  502    0  0.13433731862E+03 -0.73915145002E+03  0.22203860002E+03  0.78338529546E+03  0.25500000920E-02 0.  1.
       -2    1    3    3    0  502 -0.13433731862E+03  0.73915145002E+03  0.76714485985E+03  0.10737330289E+04  0.25500000920E-02 0. -1.
</event>
<event>
 5   0  0.9726935E-05  0.1604833E+04  0.7818609E-02  0.8817585E-01
       -1   -1    0    0    0  501  0.00000000000E+00  0.00000000000E+00  0.65653987334E+03  0.65653987336E+03  0.50400001928E-02 0.  1.
        1   -1    0    0  501    0  0.00000000000E+00  0.00000000000E+00 -0.98070491806E+03  0.98070491807E+03  0.50400001928E-02 0. -1.
    10030    2    1    2    0    0  0.00000000000E+00  0.00000000000E+00 -0.32416504472E+03  0.16372447914E+04  0.16048325554E+04 0.  0.
        2    1    3    3  502    0 -0.30053839806E+03 -0.27317312036E+03 -0.86810356594E+03  0.95841049849E+03  0.25500000920E-02 0. -1.
       -2    1    3    3    0  502  0.30053839806E+03  0.27317312036E+03  0.54393852123E+03  0.67883429295E+03  0.25500000920E-02 0.  1.
</event>
<event>
 5   0  0.9726935E-05  0.1599245E+04  0.7818609E-02  0.8821012E-01
       -1   -1    0    0    0  501  0.00000000000E+00  0.00000000000E+00  0.43353009055E+03  0.43353009058E+03  0.50400001928E-02 0.  1.
        1   -1    0    0  501    0  0.00000000000E+00  0.00000000000E+00 -0.14748604356E+04  0.14748604356E+04  0.50400001928E-02 0. -1.
    10030    2    1    2    0    0  0.00000000000E+00  0.00000000000E+00 -0.10413303451E+04  0.19083905262E+04  0.15992452948E+04 0.  0.
        2    1    3    3  502    0  0.55124516649E+03  0.19234867288E+03 -0.11726598871E+04  0.13099620057E+04  0.25500000920E-02 0. -1.
       -2    1    3    3    0  502 -0.55124516649E+03 -0.19234867288E+03  0.13132954205E+03  0.59842852050E+03  0.25500000920E-02 0.  1.
</event>
<event>
 5   0  0.1774934E-04  0.1596911E+04  0.7818609E-02  0.8822448E-01
       -2   -1    0    0    0  501  0.00000000000E+00  0.00000000000E+00  0.28865878958E+03  0.28865878959E+03  0.25500000920E-02 0. -1.
        2   -1    0    0  501    0  0.00000000000E+00  0.00000000000E+00 -0.22085987389E+04  0.22085987389E+04  0.25500000920E-02 0.  1.
    10030    2    1    2    0    0  0.00000000000E+00  0.00000000000E+00 -0.19199399493E+04  0.24972575285E+04  0.15969113171E+04 0.  0.
        1    1    3    3  502    0 -0.63066538609E+03  0.74914500779E+02 -0.20321056603E+03  0.66681747563E+03  0.50400001928E-02 0. -1.
       -1    1    3    3    0  502  0.63066538609E+03 -0.74914500779E+02 -0.17167293833E+04  0.18304400528E+04  0.50400001928E-02 0.  1.
</event>
<event>
 5   0  0.9673017E-05  0.1583161E+04  0.7818609E-02  0.8830960E-01
       -1   -1    0    0    0  501  0.00000000000E+00  0.00000000000E+00  0.66322229547E+03  0.66322229549E+03  0.50400001928E-02 0.  1.
        1   -1    0    0  501    0  0.00000000000E+00  0.00000000000E+00 -0.94478130915E+03  0.94478130917E+03  0.50400001928E-02 0. -1.
    10030    2    1    2    0    0  0.00000000000E+00  0.00000000000E+00 -0.28155901368E+03  0.16080036047E+04  0.15831614303E+04 0.  0.
        1    1    3    3  502    0 -0.22173306774E+03  0.69108108823E+03 -0.46171456320E+03  0.86019704820E+03  0.50400001928E-02 0. -1.
       -1    1    3    3    0  502  0.22173306774E+03 -0.69108108823E+03  0.18015554951E+03  0.74780655646E+03  0.50400001928E-02 0.  1.
</event>
<event>
 5   0  0.9616567E-05  0.1599711E+04  0.7818609E-02  0.8820726E-01
       -1   -1    0    0    0  501  0.00000000000E+00  0.00000000000E+00  0.94760672433E+03  0.94760672435E+03  0.50400001928E-02 0. -1.
        1   -1    0    0  501    0  0.00000000000E+00  0.00000000000E+00 -0.67514134879E+03  0.67514134880E+03  0.50400001928E-02 0.  1.
    10030    2    1    2    0    0  0.00000000000E+00  0.00000000000E+00  0.27246537555E+03  0.16227480731E+04  0.15997105763E+04 0.  0.
        5    1    3    3  502    0 -0.76188735181E+03 -0.12532771091E+03  0.34796571837E+03  0.84692479190E+03  0.46999998093E+01 0. -1.
       -5    1    3    3    0  502  0.76188735181E+03  0.12532771091E+03 -0.75500342819E+02  0.77582328125E+03  0.46999998093E+01 0.  1.
</event>
<event>
 5   0  0.1774934E-04  0.1624753E+04  0.7818609E-02  0.8805484E-01
       -2   -1    0    0    0  501  0.00000000000E+00  0.00000000000E+00  0.31348862180E+03  0.31348862181E+03  0.25500000920E-02 0. -1.
        2   -1    0    0  501    0  0.00000000000E+00  0.00000000000E+00 -0.21051987065E+04  0.21051987065E+04  0.25500000920E-02 0.  1.
    10030    2    1    2    0    0  0.00000000000E+00  0.00000000000E+00 -0.17917100847E+04  0.24186873283E+04  0.16247533242E+04 0.  0.
        1    1    3    3  502    0  0.33094742923E+01  0.44894361510E+03 -0.19037424127E+04  0.19559643391E+04  0.50400001928E-02 0.  1.
       -1    1    3    3    0  502 -0.33094742923E+01 -0.44894361510E+03  0.11203232798E+03  0.46272298916E+03  0.50400001928E-02 0. -1.
</event>
<event>
 5   0  0.9432152E-05  0.1600029E+04  0.7818609E-02  0.8820530E-01
       -1   -1    0    0    0  501  0.00000000000E+00  0.00000000000E+00  0.52538523542E+03  0.52538523545E+03  0.50400001928E-02 0.  1.
        1   -1    0    0  501    0  0.00000000000E+00  0.00000000000E+00 -0.12181979642E+04  0.12181979642E+04  0.50400001928E-02 0. -1.
    10030    2    1    2    0    0  0.00000000000E+00  0.00000000000E+00 -0.69281272882E+03  0.17435831997E+04  0.16000290301E+04 0.  0.
        4    1    3    3  502    0  0.18279595591E+03 -0.10155577873E+03 -0.11878885267E+04  0.12061545102E+04  0.12699999809E+01 0. -1.
       -4    1    3    3    0  502 -0.18279595591E+03  0.10155577873E+03  0.49507579791E+03  0.53742868947E+03  0.12699999809E+01 0.  1.
</event>
<event>
 5   0  0.1832646E-04  0.1606902E+04  0.7818609E-02  0.8816319E-01
       -2   -1    0    0    0  501  0.00000000000E+00  0.00000000000E+00  0.79115474831E+03  0.79115474831E+03  0.25500000920E-02 0.  1.
        2   -1    0    0  501    0  0.00000000000E+00  0.00000000000E+00 -0.81593795659E+03  0.81593795660E+03  0.25500000920E-02 0. -1.
    10030    2    1    2    0    0  0.00000000000E+00  0.00000000000E+00 -0.24783208281E+02  0.16070927049E+04  0.16069016008E+04 0.  0.
        2    1    3    3  502    0 -0.65966955788E+03  0.21941828424E+03 -0.41521100261E+03  0.80975828847E+03  0.25500000920E-02 0. -1.
       -2    1    3    3    0  502  0.65966955788E+03 -0.21941828424E+03  0.39042779433E+03  0.79733441644E+03  0.25500000920E-02 0.  1.
</event>
<event>
 5   0  0.9432152E-05  0.1599795E+04  0.7818609E-02  0.8820674E-01
        1   -1    0    0  501    0  0.00000000000E+00  0.00000000000E+00  0.12514716513E+04  0.12514716513E+04  0.50400001928E-02 0.  1.
       -1   -1    0    0    0  501  0.00000000000E+00  0.00000000000E+00 -0.51126705988E+03  0.51126705990E+03  0.50400001928E-02 0. -1.
    10030    2    1    2    0    0  0.00000000000E+00  0.00000000000E+00  0.74020459141E+03  0.17627387112E+04  0.15997952765E+04 0.  0.
        4    1    3    3  502    0  0.23111225945E+03 -0.76316255113E+03  0.30037440725E+03  0.85208940455E+03  0.12699999809E+01 0. -1.
       -4    1    3    3    0  502 -0.23111225945E+03  0.76316255113E+03  0.43983018417E+03  0.91064930666E+03  0.12699999809E+01 0.  1.
</event>
<event>
 5   0  0.9673017E-05  0.1588187E+04  0.7818609E-02  0.8827838E-01
       -1   -1    0    0    0  501  0.00000000000E+00  0.00000000000E+00  0.46755022559E+03  0.46755022562E+03  0.50400001928E-02 0.  1.
        1   -1    0    0  501    0  0.00000000000E+00  0.00000000000E+00 -0.13486982191E+04  0.13486982191E+04  0.50400001928E-02 0. -1.
    10030    2    1    2    0    0  0.00000000000E+00  0.00000000000E+00 -0.88114799349E+03  0.18162484447E+04  0.15881865843E+04 0.  0.
        1    1    3    3  502    0  0.76079358879E+03  0.65507390677E+02 -0.68977900818E+03  0.10290253559E+04  0.50400001928E-02 0. -1.
       -1    1    3    3    0  502 -0.76079358879E+03 -0.65507390677E+02 -0.19136898531E+03  0.78722308880E+03  0.50400001928E-02 0.  1.
</event>
<event>
 5   0  0.1835088E-04  0.1598983E+04  0.7818609E-02  0.8821173E-01
       -2   -1    0    0    0  501  0.00000000000E+00  0.00000000000E+00  0.70715169473E+03  0.70715169473E+03  0.25500000920E-02 0.  1.
        2   -1    0    0  501    0  0.00000000000E+00  0.00000000000E+00 -0.90388847306E+03  0.90388847306E+03  0.25500000920E-02 0. -1.
    10030    2    1    2    0    0  0.00000000000E+00  0.00000000000E+00 -0.19673677833E+03  0.16110401678E+04  0.15989825084E+04 0.  0.
        5    1    3    3  502    0  0.99215959974E+02  0.40862024464E+03 -0.78345901199E+03  0.88918188495E+03  0.46999998093E+01 0. -1.
       -5    1    3    3    0  502 -0.99215959974E+02 -0.40862024464E+03  0.58672223366E+03  0.72185828285E+03  0.46999998093E+01 0.  1.
</event>
<event>
 5   0  0.9939872E-05  0.1602660E+04  0.7818609E-02  0.8818915E-01
        1   -1    0    0  501    0  0.00000000000E+00  0.00000000000E+00  0.97198953638E+03  0.97198953639E+03  0.50400001928E-02 0. -1.
       -1   -1    0    0    0  501  0.00000000000E+00  0.00000000000E+00 -0.66063462260E+03  0.66063462262E+03  0.50400001928E-02 0.  1.
    10030    2    1    2    0    0  0.00000000000E+00  0.00000000000E+00  0.31135491378E+03  0.16326241590E+04  0.16026602142E+04 0.  0.
        3    1    3    3  502    0 -0.41765879738E+03 -0.19599137266E+03 -0.51176572675E+03  0.68902515083E+03  0.10100000352E+00 0.  1.
       -3    1    3    3    0  502  0.41765879738E+03  0.19599137266E+03  0.82312064053E+03  0.94359900819E+03  0.10100000352E+00 0. -1.
</event>
<event>
 5   0  0.9939872E-05  0.1600362E+04  0.7818609E-02  0.8820326E-01
       -1   -1    0    0    0  501  0.00000000000E+00  0.00000000000E+00  0.36295245038E+03  0.36295245042E+03  0.50400001928E-02 0. -1.
        1   -1    0    0  501    0  0.00000000000E+00  0.00000000000E+00 -0.17641132693E+04  0.17641132693E+04  0.50400001928E-02 0.  1.
    10030    2    1    2    0    0  0.00000000000E+00  0.00000000000E+00 -0.14011608189E+04  0.21270657197E+04  0.16003615015E+04 0.  0.
        3    1    3    3  502    0  0.33344420616E+03 -0.52277029233E+03 -0.13728232122E+04  0.15063589876E+04  0.10100000352E+00 0.  1.
       -3    1    3    3    0  502 -0.33344420616E+03  0.52277029233E+03 -0.28337606663E+02  0.62070673214E+03  0.10100000352E+00 0. -1.
</event>
<event>
 5   0  0.1832646E-04  0.1608068E+04  0.7818609E-02  0.8815607E-01
       -2   -1    0    0    0  501  0.00000000000E+00  0.00000000000E+00  0.26371623621E+03  0.26371623622E+03  0.25500000920E-02 0. -1.
        2   -1    0    0  501    0  0.00000000000E+00  0.00000000000E+00 -0.24513886322E+04  0.24513886322E+04  0.25500000920E-02 0.  1.
    10030    2    1    2    0    0  0.00000000000E+00  0.00000000000E+00 -0.21876723960E+04  0.27151048684E+04  0.16080683861E+04 0.  0.
        2    1    3    3  502    0 -0.49907688989E+01  0.13266836655E+03  0.24508174871E+03  0.27873081425E+03  0.25500000920E-02 0. -1.
       -2    1    3    3    0  502  0.49907688989E+01 -0.13266836655E+03 -0.24327541447E+04  0.24363740542E+04  0.25500000920E-02 0.  1.
</event>
<event>
 5   0  0.1858913E-04  0.1606633E+04  0.7818609E-02  0.8816483E-01
        2   -1    0    0  501    0  0.00000000000E+00  0.00000000000E+00  0.13844715358E+04  0.13844715358E+04  0.25500000920E-02 0.  1.
       -2   -1    0    0    0  501  0.00000000000E+00  0.00000000000E+00 -0.46611095094E+03  0.46611095095E+03  0.25500000920E-02 0. -1.
    10030    2    1    2    0    0  0.00000000000E+00  0.00000000000E+00  0.91836058483E+03  0.18505824867E+04  0.16066329314E+04 0.  0.
        4    1    3    3  502    0 -0.23221710939E+01 -0.67875851105E+03  0.95406537650E+03  0.11708803800E+04  0.12699999809E+01 0.  1.
       -4    1    3    3    0  502  0.23221710939E+01  0.67875851105E+03 -0.35704791666E+02  0.67970210670E+03  0.12699999809E+01 0. -1.
</event>
<event>
 5   0  0.9939872E-05  0.1596177E+04  0.7818609E-02  0.8822900E-01
        1   -1    0    0  501    0  0.00000000000E+00  0.00000000000E+00  0.22669941623E+04  0.22669941623E+04  0.50400001928E-02 0. -1.
       -1   -1    0    0    0  501  0.00000000000E+00  0.00000000000E+00 -0.28096473536E+03  0.28096473541E+03  0.50400001928E-02 0.  1.
    10030    2    1    2    0    0  0.00000000000E+00  0.00000000000E+00  0.19860294269E+04  0.25479588977E+04  0.15961772019E+04 0.  0.
        3    1    3    3  502    0 -0.17999069590E+03  0.76445406002E+03  0.12196581005E+04  0.14506386707E+04  0.10100000352E+00 0.  1.
       -3    1    3    3    0  502  0.17999069590E+03 -0.76445406002E+03  0.76637132637E+03  0.10973202270E+04  0.10100000352E+00 0. -1.
</event>
<event>
 5   0  0.1832646E-04  0.1610340E+04  0.7818609E-02  0.8814221E-01
        2   -1    0    0  501    0  0.00000000000E+00  0.00000000000E+00  0.17397011546E+04  0.17397011546E+04  0.25500000920E-02 0. -1.
       -2   -1    0    0    0  501  0.00000000000E+00  0.00000000000E+00 -0.37264942019E+03  0.37264942020E+03  0.25500000920E-02 0.  1.
    10030    2    1    2    0    0  0.00000000000E+00  0.00000000000E+00  0.13670517344E+04  0.21123505748E+04  0.16103398729E+04 0.  0.
        2    1    3    3  502    0  0.36891735324E+03  0.37347224725E+03  0.14843517594E+04  0.15744464674E+04  0.25500000920E-02 0. -1.
       -2    1    3    3    0  502 -0.36891735324E+03 -0.37347224725E+03 -0.11730002494E+03  0.53790410748E+03  0.25500000920E-02 0.  1.
</event>
<event>
 5   0  0.1858913E-04  0.1598203E+04  0.7818609E-02  0.8821653E-01
       -2   -1    0    0    0  501  0.00000000000E+00  0.00000000000E+00  0.39532801542E+03  0.39532801543E+03  0.25500000920E-02 0. -1.
        2   -1    0    0  501    0  0.00000000000E+00  0.00000000000E+00 -0.16152744252E+04  0.16152744252E+04  0.25500000920E-02 0.  1.
    10030    2    1    2    0    0  0.00000000000E+00  0.00000000000E+00 -0.12199464098E+04  0.20106024407E+04  0.15982030320E+04 0.  0.
        4    1    3    3  502    0  0.74104661276E+03 -0.17008619522E+03 -0.30058188090E+03  0.81757597574E+03  0.12699999809E+01 0. -1.
       -4    1    3    3    0  502 -0.74104661276E+03  0.17008619522E+03 -0.91936452892E+03  0.11930264649E+04  0.12699999809E+01 0.  1.
</event>
<event>
 5   0  0.1914170E-04  0.1594869E+04  0.7818609E-02  0.8823706E-01
        2   -1    0    0  501    0  0.00000000000E+00  0.00000000000E+00  0.81323344224E+03  0.81323344225E+03  0.25500000920E-02 0. -1.
       -2   -1    0    0    0  501  0.00000000000E+00  0.00000000000E+00 -0.78194264357E+03  0.78194264357E+03  0.25500000920E-02 0.  1.
    10030    2    1    2    0    0  0.00000000000E+00  0.00000000000E+00  0.31290798678E+02  0.15951760858E+04  0.15948691579E+04 0.  0.
        3    1    3    3  502    0 -0.35880082685E+03 -0.55118614253E+03  0.46668417720E+03  0.80643556997E+03  0.10100000352E+00 0. -1.
       -3    1    3    3    0  502  0.35880082685E+03  0.55118614253E+03 -0.43539337852E+03  0.78874051584E+03  0.10100000352E+00 0.  1.
</event>
<event>
 5   0  0.9939872E-05  0.1596517E+04  0.7818609E-02  0.8822690E-01
        1   -1    0    0  501    0  0.00000000000E+00  0.00000000000E+00  0.60110125470E+03  0.60110125472E+03  0.50400001928E-02 0. -1.
       -1   -1    0    0    0  501  0.00000000000E+00  0.00000000000E+00 -0.10600826099E+04  0.10600826099E+04  0.50400001928E-02 0.  1.
    10030    2    1    2    0    0  0.00000000000E+00  0.00000000000E+00 -0.45898135522E+03  0.16611838647E+04  0.15965174436E+04 0.  0.
        3    1    3    3  502    0  0.51227561346E+03  0.24430280287E+03  0.35459012573E+03  0.66921172368E+03  0.10100000352E+00 0. -1.
       -3    1    3    3    0  502 -0.51227561346E+03 -0.24430280287E+03 -0.81357148095E+03  0.99197214097E+03  0.10100000352E+00 0.  1.
</event>
<event>
 5   0  0.1832646E-04  0.1591279E+04  0.7818609E-02  0.8825923E-01
       -2   -1    0    0    0  501  0.00000000000E+00  0.00000000000E+00  0.56325357402E+03  0.56325357403E+03  0.25500000920E-02 0. -1.
        2   -1    0    0  501    0  0.00000000000E+00  0.00000000000E+00 -0.11239030060E+04  0.11239030060E+04  0.25500000920E-02 0.  1.
    10030    2    1    2    0    0  0.00000000000E+00  0.00000000000E+00 -0.56064943197E+03  0.16871565800E+04  0.15912792150E+04 0.  0.
        2    1    3    3  502    0 -0.61763156647E+03  0.35617629379E+03  0.94098925448E+02  0.71915569381E+03  0.25500000920E-02 0.  1.
       -2    1    3    3    0  502  0.61763156647E+03 -0.35617629379E+03 -0.65474835742E+03  0.96800088621E+03  0.25500000920E-02 0. -1.
</event>
<event>
 5   0  0.9616567E-05  0.1609034E+04  0.7818609E-02  0.8815017E-01
       -1   -1    0    0    0  501  0.00000000000E+00  0.00000000000E+00  0.82189559797E+03  0.82189559798E+03  0.50400001928E-02 0.  1.
        1   -1    0    0  501    0  0.00000000000E+00  0.00000000000E+00 -0.78750543983E+03  0.78750543985E+03  0.50400001928E-02 0. -1.
    10030    2    1    2    0    0  0.00000000000E+00  0.00000000000E+00  0.34390158132E+02  0.16094010378E+04  0.16090335663E+04 0.  0.
        5    1    3    3  502    0  0.10582123087E+03  0.12974557022E+03  0.80426303914E+03  0.82151882024E+03  0.46999998093E+01 0.  1.
       -5    1    3    3    0  502 -0.10582123087E+03 -0.12974557022E+03 -0.76987288100E+03  0.78788221759E+03  0.46999998093E+01 0. -1.
</event>
<event>
 5   0  0.9432152E-05  0.1588602E+04  0.7818609E-02  0.8827581E-01
        1   -1    0    0  501    0  0.00000000000E+00  0.00000000000E+00  0.60854691446E+03  0.60854691448E+03  0.50400001928E-02 0. -1.
       -1   -1    0    0    0  501  0.00000000000E+00  0.00000000000E+00 -0.10367553924E+04  0.10367553924E+04  0.50400001928E-02 0.  1.
    10030    2    1    2    0    0  0.00000000000E+00  0.00000000000E+00 -0.42820847789E+03  0.16453023068E+04  0.15886022726E+04 0.  0.
        4    1    3    3  502    0  0.18091383677E+03 -0.64270552960E+03  0.23149902445E+03  0.70667787947E+03  0.12699999809E+01 0. -1.
       -4    1    3    3    0  502 -0.18091383677E+03  0.64270552960E+03 -0.65970750234E+03  0.93862442737E+03  0.12699999809E+01 0.  1.
</event>
<event>
 5   0  0.1832646E-04  0.1614940E+04  0.7818609E-02  0.8811422E-01
       -2   -1    0    0    0  501  0.00000000000E+00  0.00000000000E+00  0.25142736151E+03  0.25142736152E+03  0.25500000920E-02 0. -1.
        2   -1    0    0  501    0  0.00000000000E+00  0.00000000000E+00 -0.25932268128E+04  0.25932268128E+04  0.25500000920E-02 0.  1.
    10030    2    1    2    0    0  0.00000000000E+00  0.00000000000E+00 -0.23417994513E+04  0.28446541743E+04  0.16149404637E+04 0.  0.
        2    1    3    3  502    0  0.40974332196E+03 -0.25337826068E+03 -0.29454100492E+02  0.48265689358E+03  0.25500000920E-02 0. -1.
       -2    1    3    3    0  502 -0.40974332196E+03  0.25337826068E+03 -0.23123453508E+04  0.23619972807E+04  0.25500000920E-02 0.  1.
</event>
<event>
 5   0  0.9616567E-05  0.1599965E+04  0.7818609E-02  0.8820570E-01
        1   -1    0    0  501    0  0.00000000000E+00  0.00000000000E+00  0.79611504683E+03  0.79611504684E+03  0.50400001928E-02 0. -1.
       -1   -1    0    0    0  501  0.00000000000E+00  0.00000000000E+00 -0.80386829794E+03  0.80386829796E+03  0.50400001928E-02 0.  1.
    10030    2    1    2    0    0  0.00000000000E+00  0.00000000000E+00 -0.77532511132E+01  0.15999833448E+04  0.15999645592E+04 0.  0.
        5    1    3    3  502    0 -0.50105827701E+02  0.62505117891E+03  0.49286856245E+03  0.79758452848E+03  0.46999998093E+01 0. -1.
       -5    1    3    3    0  502  0.50105827701E+02 -0.62505117891E+03 -0.50062181356E+03  0.80239881632E+03  0.46999998093E+01 0.  1.
</event>
<event>
 5   0  0.9939872E-05  0.1611992E+04  0.7818609E-02  0.8813215E-01
        1   -1    0    0  501    0  0.00000000000E+00  0.00000000000E+00  0.89883778753E+03  0.89883778755E+03  0.50400001928E-02 0. -1.
       -1   -1    0    0    0  501  0.00000000000E+00  0.00000000000E+00 -0.72274348248E+03  0.72274348250E+03  0.50400001928E-02 0.  1.
    10030    2    1    2    0    0  0.00000000000E+00  0.00000000000E+00  0.17609430506E+03  0.16215812700E+04  0.16119915047E+04 0.  0.
        3    1    3    3  502    0  0.18704398154E+03 -0.66131184793E+02  0.87389254048E+03  0.89612887864E+03  0.10100000352E+00 0. -1.
       -3    1    3    3    0  502 -0.18704398154E+03  0.66131184793E+02 -0.69779823542E+03  0.72545239140E+03  0.10100000352E+00 0.  1.
</event>
<event>
 5   0  0.9939872E-05  0.1584090E+04  0.7818609E-02  0.8830382E-01
        1   -1    0    0  501    0  0.00000000000E+00  0.00000000000E+00  0.17743653791E+04  0.17743653791E+04  0.50400001928E-02 0.  1.
       -1   -1    0    0    0  501  0.00000000000E+00  0.00000000000E+00 -0.35355494460E+03  0.35355494463E+03  0.50400001928E-02 0. -1.
    10030    2    1    2    0    0  0.00000000000E+00  0.00000000000E+00  0.14208104345E+04  0.21279203237E+04  0.15840904688E+04 0.  0.
        3    1    3    3  502    0 -0.73758698821E+03  0.16751809295E+03  0.10261217812E+04  0.12747638200E+04  0.10100000352E+00 0. -1.
       -3    1    3    3    0  502  0.73758698821E+03 -0.16751809295E+03  0.39468865323E+03  0.85315650372E+03  0.10100000352E+00 0.  1.
</event>
<event>
 5   0  0.9726935E-05  0.1597802E+04  0.7818609E-02  0.8821900E-01
        1   -1    0    0  501    0  0.00000000000E+00  0.00000000000E+00  0.39599056354E+03  0.39599056357E+03  0.50400001928E-02 0. -1.
       -1   -1    0    0    0  501  0.00000000000E+00  0.00000000000E+00 -0.16117617594E+04  0.16117617594E+04  0.50400001928E-02 0.  1.
    10030    2    1    2    0    0  0.00000000000E+00  0.00000000000E+00 -0.12157711959E+04  0.20077523230E+04  0.15978015489E+04 0.  0.
        2    1    3    3  502    0 -0.41388452624E+03 -0.35449553657E+03 -0.13419590399E+04  0.14483858434E+04  0.25500000920E-02 0.  1.
       -2    1    3    3    0  502  0.41388452624E+03  0.35449553657E+03  0.12618784405E+03  0.55936647960E+03  0.25500000920E-02 0. -1.
</event>
<event>
 5   0  0.1835088E-04  0.1573457E+04  0.7818609E-02  0.8837022E-01
       -2   -1    0    0    0  501  0.00000000000E+00  0.00000000000E+00  0.13838174515E+04  0.13838174515E+04  0.25500000920E-02 0. -1.
        2   -1    0    0  501    0  0.00000000000E+00  0.00000000000E+00 -0.44727131687E+03  0.44727131688E+03  0.25500000920E-02 0.  1.
    10030    2    1    2    0    0  0.00000000000E+00  0.00000000000E+00  0.93654613462E+03  0.18310887684E+04  0.15734571540E+04 0.  0.
        5    1    3    3  502    0  0.55404847622E+03 -0.14135810433E+03 -0.16054072284E+03  0.59392528263E+03  0.46999998093E+01 0.  1.
       -5    1    3    3    0  502 -0.55404847622E+03  0.14135810433E+03  0.10970868575E+04  0.12371634857E+04  0.46999998093E+01 0. -1.
</event>
<event>
 5   0  0.9432152E-05  0.1572702E+04  0.7818609E-02  0.8837496E-01
        1   -1    0    0  501    0  0.00000000000E+00  0.00000000000E+00  0.11678548570E+04  0.11678548570E+04  0.50400001928E-02 0. -1.
       -1   -1    0    0    0  501  0.00000000000E+00  0.00000000000E+00 -0.52947333008E+03  0.52947333010E+03  0.50400001928E-02 0.  1.
    10030    2    1    2    0    0  0.00000000000E+00  0.00000000000E+00  0.63838152687E+03  0.16973281871E+04  0.15727021335E+04 0.  0.
        4    1    3    3  502    0  0.56244607582E+03 -0.18482669029E+03  0.87773423431E+03  0.10587376883E+04  0.12699999809E+01 0. -1.
       -4    1    3    3    0  502 -0.56244607582E+03  0.18482669029E+03 -0.23935270744E+03  0.63859049876E+03  0.12699999809E+01 0.  1.
</event>
<event>
 5   0  0.9939872E-05  0.1605555E+04  0.7818609E-02  0.8817143E-01
       -1   -1    0    0    0  501  0.00000000000E+00  0.00000000000E+00  0.92170619774E+03  0.92170619775E+03  0.50400001928E-02 0.  1.
        1   -1    0    0  501    0  0.00000000000E+00  0.00000000000E+00 -0.69919412297E+03  0.69919412298E+03  0.50400001928E-02 0. -1.
    10030    2    1    2    0    0  0.00000000000E+00  0.00000000000E+00  0.22251207477E+03  0.16209003207E+04  0.16055548033E+04 0.  0.
        3    1    3    3  502    0  0.50889229011E+03 -0.32017519112E+03  0.64828766065E+03  0.88417216485E+03  0.10100000352E+00 0.  1.
       -3    1    3    3    0  502 -0.50889229011E+03  0.32017519112E+03 -0.42577558588E+03  0.73672815589E+03  0.10100000352E+00 0. -1.
</event>
<event>
 5   0  0.1832646E-04  0.1600363E+04  0.7818609E-02  0.8820325E-01
       -2   -1    0    0    0  501  0.00000000000E+00  0.00000000000E+00  0.55961147254E+03  0.55961147255E+03  0.25500000920E-02 0.  1.
        2   -1    0    0  501    0  0.00000000000E+00  0.00000000000E+00 -0.11441698636E+04  0.11441698636E+04  0.25500000920E-02 0. -1.
    10030    2    1    2    0    0  0.00000000000E+00  0.00000000000E+00 -0.58455839104E+03  0.17037813361E+04  0.16003631865E+04 0.  0.
        2    1    3    3  502    0  0.70475028858E+03 -0.32774187940E+03 -0.49484532263E+03  0.92139003799E+03  0.25500000920E-02 0.  1.
       -2    1    3    3    0  502 -0.70475028858E+03  0.32774187940E+03 -0.89713068407E+02  0.78239129814E+03  0.25500000920E-02 0. -1.
</event>
<event>
 5   0  0.9726935E-05  0.1606713E+04  0.7818609E-02  0.8816435E-01
       -1   -1    0    0    0  501  0.00000000000E+00  0.00000000000E+00  0.11699748621E+04  0.11699748621E+04  0.50400001928E-02 0. -1.
        1   -1    0    0  501    0  0.00000000000E+00  0.00000000000E+00 -0.55161997828E+03  0.55161997830E+03  0.50400001928E-02 0.  1.
    10030    2    1    2    0    0  0.00000000000E+00  0.00000000000E+00  0.61835488383E+03  0.17215948404E+04  0.16067128033E+04 0.  0.
        2    1    3    3  502    0 -0.28360311555E+03  0.30050894290E+03  0.10473828535E+04  0.11259428022E+04  0.25500000920E-02 0. -1.
       -2    1    3    3    0  502  0.28360311555E+03 -0.30050894290E+03 -0.42902796967E+03  0.59565203826E+03  0.25500000920E-02 0.  1.
</event>
<event>
 5   0  0.1835088E-04  0.1603131E+04  0.7818609E-02  0.8818627E-01
        2   -1    0    0  501    0  0.00000000000E+00  0.00000000000E+00  0.13198264388E+04  0.13198264388E+04  0.25500000920E-02 0. -1.
       -2   -1    0    0    0  501  0.00000000000E+00  0.00000000000E+00 -0.48681164396E+03  0.48681164397E+03  0.25500000920E-02 0.  1.
    10030    2    1    2    0    0  0.00000000000E+00  0.00000000000E+00  0.83301479483E+03  0.18066380828E+04  0.16031305354E+04 0.  0.
        5    1    3    3  502    0 -0.37340152869E+03  0.33137267784E+03 -0.29019353676E+03  0.57746942086E+03  0.46999998093E+01 0.  1.
       -5    1    3    3    0  502  0.37340152869E+03 -0.33137267784E+03  0.11232083316E+04  0.12291686619E+04  0.46999998093E+01 0. -1.
</event>
<event>
 5   0  0.9673017E-05  0.1601151E+04  0.7818609E-02  0.8819841E-01
       -1   -1    0    0    0  501  0.00000000000E+00  0.00000000000E+00  0.97918109201E+03  0.97918109203E+03  0.50400001928E-02 0.  1.
        1   -1    0    0  501    0  0.00000000000E+00  0.00000000000E+00 -0.65454799102E+03  0.65454799104E+03  0.50400001928E-02 0. -1.
    10030    2    1    2    0    0  0.00000000000E+00  0.00000000000E+00  0.32463310099E+03  0.16337290831E+04  0.16011508569E+04 0.  0.
        1    1    3    3  502    0 -0.26024734227E+03  0.21562772274E+03 -0.57818883237E+03  0.66972107617E+03  0.50400001928E-02 0. -1.
       -1    1    3    3    0  502  0.26024734227E+03 -0.21562772274E+03  0.90282193336E+03  0.96400800689E+03  0.50400001928E-02 0.  1.
</event>
<event>
 5   0  0.1914170E-04  0.1596203E+04  0.7818609E-02  0.8822884E-01
        2   -1    0    0  501    0  0.00000000000E+00  0.00000000000E+00  0.10028859315E+04  0.10028859315E+04  0.25500000920E-02 0. -1.
       -2   -1    0    0    0  501  0.00000000000E+00  0.00000000000E+00 -0.63513285448E+03  0.63513285449E+03  0.25500000920E-02 0.  1.
    10030    2    1    2    0    0  0.00000000000E+00  0.00000000000E+00  0.36775307699E+03  0.16380187860E+04  0.15962027495E+04 0.  0.
        3    1    3    3  502    0  0.45494286054E+03 -0.51495266837E+03 -0.23273492547E+03  0.72547557695E+03  0.10100000352E+00 0. -1.
       -3    1    3    3    0  502 -0.45494286054E+03  0.51495266837E+03  0.60048800246E+03  0.91254320901E+03  0.10100000352E+00 0.  1.
</event>
<event>
 5   0  0.1835088E-04  0.1595621E+04  0.7818609E-02  0.8823243E-01
        2   -1    0    0  501    0  0.00000000000E+00  0.00000000000E+00  0.97248480537E+03  0.97248480538E+03  0.25500000920E-02 0. -1.
       -2   -1    0    0    0  501  0.00000000000E+00  0.00000000000E+00 -0.65451075237E+03  0.65451075237E+03  0.25500000920E-02 0.  1.
    10030    2    1    2    0    0  0.00000000000E+00  0.00000000000E+00  0.31797405301E+03  0.16269955577E+04  0.15956212102E+04 0.  0.
        5    1    3    3  502    0 -0.37973001338E+03  0.14213865843E+03  0.85957875715E+03  0.95041886083E+03  0.46999998093E+01 0. -1.
       -5    1    3    3    0  502  0.37973001338E+03 -0.14213865843E+03 -0.54160470414E+03  0.67657669692E+03  0.46999998093E+01 0.  1.
</event>
<event>
 5   0  0.9673017E-05  0.1595815E+04  0.7818609E-02  0.8823123E-01
       -1   -1    0    0    0  501  0.00000000000E+00  0.00000000000E+00  0.45681315475E+03  0.45681315478E+03  0.50400001928E-02 0. -1.
        1   -1    0    0  501    0  0.00000000000E+00  0.00000000000E+00 -0.13936912908E+04  0.13936912908E+04  0.50400001928E-02 0.  1.
    10030    2    1    2    0    0  0.00000000000E+00  0.00000000000E+00 -0.93687813602E+03  0.18505044456E+04  0.15958151714E+04 0.  0.
        1    1    3    3  502    0 -0.28553607890E+03  0.16908035260E+03  0.37299907612E+03  0.49924676143E+03  0.50400001928E-02 0. -1.
       -1    1    3    3    0  502  0.28553607890E+03 -0.16908035260E+03 -0.13098772121E+04  0.13512576841E+04  0.50400001928E-02 0.  1.
</event>
<event>
 5   0  0.1832646E-04  0.1580101E+04  0.7818609E-02  0.8832867E-01
        2   -1    0    0  501    0  0.00000000000E+00  0.00000000000E+00  0.90857134996E+03  0.90857134996E+03  0.25500000920E-02 0.  1.
       -2   -1    0    0    0  501  0.00000000000E+00  0.00000000000E+00 -0.68699027492E+03  0.68699027492E+03  0.25500000920E-02 0. -1.
    10030    2    1    2    0    0  0.00000000000E+00  0.00000000000E+00  0.22158107504E+03  0.15955616249E+04  0.15801008594E+04 0.  0.
        2    1    3    3  502    0 -0.51166316104E+03  0.55260797828E+03  0.35188371375E+03  0.83126224264E+03  0.25500000920E-02 0.  1.
       -2    1    3    3    0  502  0.51166316104E+03 -0.55260797828E+03 -0.13030263872E+03  0.76429938224E+03  0.25500000920E-02 0. -1.
</event>
<event>
 5   0  0.1835088E-04  0.1600816E+04  0.7818609E-02  0.8820047E-01
       -2   -1    0    0    0  501  0.00000000000E+00  0.00000000000E+00  0.39846642792E+03  0.39846642792E+03  0.25500000920E-02 0. -1.
        2   -1    0    0  501    0  0.00000000000E+00  0.00000000000E+00 -0.16077965781E+04  0.16077965781E+04  0.25500000920E-02 0.  1.
    10030    2    1    2    0    0  0.00000000000E+00  0.00000000000E+00 -0.12093301502E+04  0.20062630060E+04  0.16008159911E+04 0.  0.
        5    1    3    3  502    0  0.50918613420E+03 -0.17076628410E+03  0.13910833793E+03  0.55480164268E+03  0.46999998093E+01 0. -1.
       -5    1    3    3    0  502 -0.50918613420E+03  0.17076628410E+03 -0.13484384881E+04  0.14514613633E+04  0.46999998093E+01 0.  1.
</event>
<event>
 5   0  0.9726935E-05  0.1595255E+04  0.7818609E-02  0.8823468E-01
       -1   -1    0    0    0  501  0.00000000000E+00  0.00000000000E+00  0.74136204902E+03  0.74136204904E+03  0.50400001928E-02 0. -1.
        1   -1    0    0  501    0  0.00000000000E+00  0.00000000000E+00 -0.85816315475E+03  0.85816315477E+03  0.50400001928E-02 0.  1.
    10030    2    1    2    0    0  0.00000000000E+00  0.00000000000E+00 -0.11680110573E+03  0.15995252038E+04  0.15952549575E+04 0.  0.
        2    1    3    3  502    0 -0.36629691820E+03 -0.16444428655E+03  0.63264258059E+03  0.74930100123E+03  0.25500000920E-02 0. -1.
       -2    1    3    3    0  502  0.36629691820E+03  0.16444428655E+03 -0.74944368632E+03  0.85022420257E+03  0.25500000920E-02 0.  1.
</event>
<event>
 5   0  0.1835088E-04  0.1588513E+04  0.7818609E-02  0.8827636E-01
        2   -1    0    0  501    0  0.00000000000E+00  0.00000000000E+00  0.57713486507E+03  0.57713486508E+03  0.25500000920E-02 0. -1.
       -2   -1    0    0    0  501  0.00000000000E+00  0.00000000000E+00 -0.10930603279E+04  0.10930603279E+04  0.25500000920E-02 0.  1.
    10030    2    1    2    0    0  0.00000000000E+00  0.00000000000E+00 -0.51592546284E+03  0.16701951930E+04  0.15885127949E+04 0.  0.
        5    1    3    3  502    0  0.68774866067E+03  0.23292873719E+03  0.80403845403E+02  0.73057572175E+03  0.46999998093E+01 0. -1.
       -5    1    3    3    0  502 -0.68774866067E+03 -0.23292873719E+03 -0.59632930824E+03  0.93961947124E+03  0.46999998093E+01 0.  1.
</event>
<event>
 5   0  0.9432152E-05  0.1604790E+04  0.7818609E-02  0.8817611E-01
       -1   -1    0    0    0  501  0.00000000000E+00  0.00000000000E+00  0.14083780279E+04  0.14083780279E+04  0.50400001928E-02 0.  1.
        1   -1    0    0  501    0  0.00000000000E+00  0.00000000000E+00 -0.45714847431E+03  0.45714847434E+03  0.50400001928E-02 0. -1.
    10030    2    1    2    0    0  0.00000000000E+00  0.00000000000E+00  0.95122955361E+03  0.18655265023E+04  0.16047901629E+04 0.  0.
        4    1    3    3  502    0 -0.24960218766E+03  0.57223360098E+03 -0.11035009171E+03  0.63398052163E+03  0.12699999809E+01 0. -1.
       -4    1    3    3    0  502  0.24960218766E+03 -0.57223360098E+03  0.10615796453E+04  0.12315459806E+04  0.12699999809E+01 0.  1.
</event>
<event>
 5   0  0.9616567E-05  0.1609034E+04  0.7818609E-02  0.8815017E-01
        1   -1    0    0  501    0  0.00000000000E+00  0.00000000000E+00  0.18956899785E+04  0.18956899785E+04  0.50400001928E-02 0.  1.
       -1   -1    0    0    0  501  0.00000000000E+00  0.00000000000E+00 -0.34143114508E+03  0.34143114512E+03  0.50400001928E-02 0. -1.
    10030    2    1    2    0    0  0.00000000000E+00  0.00000000000E+00  0.15542588334E+04  0.22371211236E+04  0.16090339961E+04 0.  0.
        5    1    3    3  502    0  0.77245336094E+03 -0.21046313180E+03  0.88701624063E+03  0.11949053627E+04  0.46999998093E+01 0. -1.
       -5    1    3    3    0  502 -0.77245336094E+03  0.21046313180E+03  0.66724259276E+03  0.10422157609E+04  0.46999998093E+01 0.  1.
</event>
<event>
 5   0  0.9616567E-05  0.1597407E+04  0.7818609E-02  0.8822143E-01
        1   -1    0    0  501    0  0.00000000000E+00  0.00000000000E+00  0.10088974567E+04  0.10088974567E+04  0.50400001928E-02 0. -1.
       -1   -1    0    0    0  501  0.00000000000E+00  0.00000000000E+00 -0.63230107898E+03  0.63230107900E+03  0.50400001928E-02 0.  1.
    10030    2    1    2    0    0  0.00000000000E+00  0.00000000000E+00  0.37659637769E+03  0.16411985357E+04  0.15974065863E+04 0.  0.
        5    1    3    3  502    0 -0.11200331199E+03 -0.33668965590E+03 -0.54685985401E+03  0.65190678491E+03  0.46999998093E+01 0.  1.
       -5    1    3    3    0  502  0.11200331199E+03  0.33668965590E+03  0.92345623170E+03  0.98929175078E+03  0.46999998093E+01 0. -1.
</event>
<event>
 5   0  0.6838750E-05  0.1583051E+04  0.7818609E-02  0.8831028E-01
       -3   -1    0    0    0  501  0.00000000000E+00  0.00000000000E+00  0.19393242705E+04  0.19393242731E+04  0.10100000352E+00 0.  1.
        3   -1    0    0  501    0  0.00000000000E+00  0.00000000000E+00 -0.32305732484E+03  0.32305734063E+03  0.10100000352E+00 0. -1.
    10030    2    1    2    0    0  0.00000000000E+00  0.00000000000E+00  0.16162669456E+04  0.22623816137E+04  0.15830513973E+04 0.  0.
        2    1    3    3  502    0  0.75503222543E+02  0.77920703077E+03  0.64117253634E+03  0.10119123256E+04  0.25500000920E-02 0.  1.
       -2    1    3    3    0  502 -0.75503222543E+02 -0.77920703077E+03  0.97509440930E+03  0.12504692881E+04  0.25500000920E-02 0. -1.
</event>
<event>
 5   0  0.1914170E-04  0.1561736E+04  0.7818609E-02  0.8844406E-01
        2   -1    0    0  501    0  0.00000000000E+00  0.00000000000E+00  0.12182730349E+04  0.12182730349E+04  0.25500000920E-02 0. -1.
       -2   -1    0    0    0  501  0.00000000000E+00  0.00000000000E+00 -0.50050750892E+03  0.50050750893E+03  0.25500000920E-02 0.  1.
    10030    2    1    2    0    0  0.00000000000E+00  0.00000000000E+00  0.71776552596E+03  0.17187805438E+04  0.15617359596E+04 0.  0.
        3    1    3    3  502    0 -0.63766561573E+03  0.25431690827E+03 -0.50637501428E+02  0.68837394930E+03  0.10100000352E+00 0.  1.
       -3    1    3    3    0  502  0.63766561573E+03 -0.25431690827E+03  0.76840302739E+03  0.10304065945E+04  0.10100000352E+00 0. -1.
</event>
<event>
 5   0  0.9616567E-05  0.1608680E+04  0.7818609E-02  0.8815233E-01
        1   -1    0    0  501    0  0.00000000000E+00  0.00000000000E+00  0.11630301212E+04  0.11630301212E+04  0.50400001928E-02 0.  1.
       -1   -1    0    0    0  501  0.00000000000E+00  0.00000000000E+00 -0.55627333209E+03  0.55627333211E+03  0.50400001928E-02 0. -1.
    10030    2    1    2    0    0  0.00000000000E+00  0.00000000000E+00  0.60675678906E+03  0.17193034533E+04  0.16086797579E+04 0.  0.
        5    1    3    3  502    0 -0.64374623255E+03 -0.45230874555E+03  0.48205157779E+03  0.92270701031E+03  0.46999998093E+01 0.  1.
       -5    1    3    3    0  502  0.64374623255E+03  0.45230874555E+03  0.12470521127E+03  0.79659644296E+03  0.46999998093E+01 0. -1.
</event>
<event>
 5   0  0.9616567E-05  0.1600327E+04  0.7818609E-02  0.8820347E-01
        1   -1    0    0  501    0  0.00000000000E+00  0.00000000000E+00  0.25324746334E+04  0.25324746334E+04  0.50400001928E-02 0.  1.
       -1   -1    0    0    0  501  0.00000000000E+00  0.00000000000E+00 -0.25282065196E+03  0.25282065201E+03  0.50400001928E-02 0. -1.
    10030    2    1    2    0    0  0.00000000000E+00  0.00000000000E+00  0.22796539815E+04  0.27852952854E+04  0.16003273265E+04 0.  0.
        5    1    3    3  502    0 -0.79179426905E+03  0.53236034723E+02  0.13178946757E+04  0.15383889970E+04  0.46999998093E+01 0.  1.
       -5    1    3    3    0  502  0.79179426905E+03 -0.53236034723E+02  0.96175930578E+03  0.12469062884E+04  0.46999998093E+01 0. -1.
</event>
<event>
 5   0  0.1914170E-04  0.1598547E+04  0.7818609E-02  0.8821441E-01
       -2   -1    0    0    0  501  0.00000000000E+00  0.00000000000E+00  0.55674847767E+03  0.55674847768E+03  0.25500000920E-02 0.  1.
        2   -1    0    0  501    0  0.00000000000E+00  0.00000000000E+00 -0.11474444791E+04  0.11474444791E+04  0.25500000920E-02 0. -1.
    10030    2    1    2    0    0  0.00000000000E+00  0.00000000000E+00 -0.59069600139E+03  0.17041929567E+04  0.15985467987E+04 0.  0.
        3    1    3    3  502    0  0.23311495010E+03  0.65453682990E+03  0.12582715706E+03  0.70611155302E+03  0.10100000352E+00 0.  1.
       -3    1    3    3    0  502 -0.23311495010E+03 -0.65453682990E+03 -0.71652315845E+03  0.99808140372E+03  0.10100000352E+00 0. -1.
</event>
<event>
 5   0  0.1774934E-04  0.1605764E+04  0.7818609E-02  0.8817015E-01
       -2   -1    0    0    0  501  0.00000000000E+00  0.00000000000E+00  0.10489333569E+04  0.10489333569E+04  0.25500000920E-02 0.  1.
        2   -1    0    0  501    0  0.00000000000E+00  0.00000000000E+00 -0.61454790407E+03  0.61454790408E+03  0.25500000920E-02 0. -1.
    10030    2    1    2    0    0  0.00000000000E+00  0.00000000000E+00  0.43438545287E+03  0.16634812610E+04  0.16057643613E+04 0.  0.
        1    1    3    3  502    0  0.18564181785E+03  0.77563197582E+03  0.31299342219E+03  0.85675710024E+03  0.50400001928E-02 0. -1.
       -1    1    3    3    0  502 -0.18564181785E+03 -0.77563197582E+03  0.12139203068E+03  0.80672416078E+03  0.50400001928E-02 0.  1.
</event>
<event>
 5   0  0.1858913E-04  0.1597057E+04  0.7818609E-02  0.8822358E-01
       -2   -1    0    0    0  501  0.00000000000E+00  0.00000000000E+00  0.78697723995E+03  0.78697723996E+03  0.25500000920E-02 0. -1.
        2   -1    0    0  501    0  0.00000000000E+00  0.00000000000E+00 -0.81024947338E+03  0.81024947339E+03  0.25500000920E-02 0.  1.
    10030    2    1    2    0    0  0.00000000000E+00  0.00000000000E+00 -0.23272233428E+02  0.15972267133E+04  0.15970571615E+04 0.  0.
        4    1    3    3  502    0  0.70822735444E+03 -0.36513427553E+03  0.40688235508E+02  0.79785096989E+03  0.12699999809E+01 0. -1.
       -4    1    3    3    0  502 -0.70822735444E+03  0.36513427553E+03 -0.63960468936E+02  0.79937574346E+03  0.12699999809E+01 0.  1.
</event>
<event>
 5   0  0.9726935E-05  0.1593764E+04  0.7818609E-02  0.8824388E-01
       -1   -1    0    0    0  501  0.00000000000E+00  0.00000000000E+00  0.44159664048E+03  0.44159664051E+03  0.50400001928E-02 0. -1.
        1   -1    0    0  501    0  0.00000000000E+00  0.00000000000E+00 -0.14380111251E+04  0.14380111251E+04  0.50400001928E-02 0.  1.
    10030    2    1    2    0    0  0.00000000000E+00  0.00000000000E+00 -0.99641448458E+03  0.18796077656E+04  0.15937639497E+04 0.  0.
        2    1    3    3  502    0 -0.72971894648E+03  0.23021857300E+03 -0.23573716132E+03  0.80066368810E+03  0.25500000920E-02 0. -1.
       -2    1    3    3    0  502  0.72971894648E+03 -0.23021857300E+03 -0.76067732326E+03  0.10789440775E+04  0.25500000920E-02 0.  1.
</event>
<event>
 5   0  0.1835088E-04  0.1593005E+04  0.7818609E-02  0.8824857E-01
       -2   -1    0    0    0  501  0.00000000000E+00  0.00000000000E+00  0.42165790019E+03  0.42165790020E+03  0.25500000920E-02 0.  1.
        2   -1    0    0  501    0  0.00000000000E+00  0.00000000000E+00 -0.15045752391E+04  0.15045752391E+04  0.25500000920E-02 0. -1.
    10030    2    1    2    0    0  0.00000000000E+00  0.00000000000E+00 -0.10829173389E+04  0.19262331393E+04  0.15930047533E+04 0.  0.
        5    1    3    3  502    0 -0.12641818255E+03  0.24542607713E+03  0.36193762204E+03  0.45523230165E+03  0.46999998093E+01 0.  1.
       -5    1    3    3    0  502  0.12641818255E+03 -0.24542607713E+03 -0.14448549610E+04  0.14710008377E+04  0.46999998093E+01 0. -1.
</event>
<event>
 5   0  0.9432152E-05  0.1603860E+04  0.7818609E-02  0.8818180E-01
        1   -1    0    0  501    0  0.00000000000E+00  0.00000000000E+00  0.12523057325E+04  0.12523057325E+04  0.50400001928E-02 0. -1.
       -1   -1    0    0    0  501  0.00000000000E+00  0.00000000000E+00 -0.51352620120E+03  0.51352620122E+03  0.50400001928E-02 0.  1.
    10030    2    1    2    0    0  0.00000000000E+00  0.00000000000E+00  0.73877953126E+03  0.17658319337E+04  0.16038601006E+04 0.  0.
        4    1    3    3  502    0  0.24804688758E+03 -0.24565023059E+03  0.11642540073E+04  0.12154671121E+04  0.12699999809E+01 0. -1.
       -4    1    3    3    0  502 -0.24804688758E+03  0.24565023059E+03 -0.42547447601E+03  0.55036482160E+03  0.12699999809E+01 0.  1.
</event>
<event>
 5   0  0.1774934E-04  0.1596945E+04  0.7818609E-02  0.8822427E-01
       -2   -1    0    0    0  501  0.00000000000E+00  0.00000000000E+00  0.40212455009E+03  0.40212455009E+03  0.25500000920E-02 0.  1.
        2   -1    0    0  501    0  0.00000000000E+00  0.00000000000E+00 -0.15854756395E+04  0.15854756395E+04  0.25500000920E-02 0. -1.
    10030    2    1    2    0    0  0.00000000000E+00  0.00000000000E+00 -0.11833510894E+04  0.19876001896E+04  0.15969454320E+04 0.  0.
        1    1    3    3  502    0  0.60444399408E+03 -0.46760222147E+03 -0.87970448148E+03  0.11652829503E+04  0.50400001928E-02 0. -1.
       -1    1    3    3    0  502 -0.60444399408E+03  0.46760222147E+03 -0.30364660793E+03  0.82231723929E+03  0.50400001928E-02 0.  1.
</event>
<event>
 5   0  0.1835088E-04  0.1595601E+04  0.7818609E-02  0.8823255E-01
       -2   -1    0    0    0  501  0.00000000000E+00  0.00000000000E+00  0.47431154527E+03  0.47431154528E+03  0.25500000920E-02 0.  1.
        2   -1    0    0  501    0  0.00000000000E+00  0.00000000000E+00 -0.13419147765E+04  0.13419147765E+04  0.25500000920E-02 0. -1.
    10030    2    1    2    0    0  0.00000000000E+00  0.00000000000E+00 -0.86760323126E+03  0.18162263218E+04  0.15956010420E+04 0.  0.
        5    1    3    3  502    0  0.68263564964E+01  0.79539041535E+03 -0.36390149713E+03  0.87472218537E+03  0.46999998093E+01 0. -1.
       -5    1    3    3    0  502 -0.68263564964E+01 -0.79539041535E+03 -0.50370173413E+03  0.94150413644E+03  0.46999998093E+01 0.  1.
</event>
<event>
 5   0  0.1832646E-04  0.1609068E+04  0.7818609E-02  0.8814997E-01
       -2   -1    0    0    0  501  0.00000000000E+00  0.00000000000E+00  0.12377606267E+04  0.12377606267E+04  0.25500000920E-02 0. -1.
        2   -1    0    0  501    0  0.00000000000E+00  0.00000000000E+00 -0.52294029137E+03  0.52294029138E+03  0.25500000920E-02 0.  1.
    10030    2    1    2    0    0  0.00000000000E+00  0.00000000000E+00  0.71482033530E+03  0.17607009181E+04  0.16090679324E+04 0.  0.
        2    1    3    3  502    0  0.50527566087E+03 -0.31332482156E+02 -0.32680683311E+03  0.60256777551E+03  0.25500000920E-02 0.  1.
       -2    1    3    3    0  502 -0.50527566087E+03  0.31332482156E+02  0.10416271684E+04  0.11581331426E+04  0.25500000920E-02 0. -1.
</event>
<event>
 5   0  0.9673017E-05  0.1585556E+04  0.7818609E-02  0.8829471E-01
       -1   -1    0    0    0  501  0.00000000000E+00  0.00000000000E+00  0.49296212622E+03  0.49296212625E+03  0.50400001928E-02 0. -1.
        1   -1    0    0  501    0  0.00000000000E+00  0.00000000000E+00 -0.12749391791E+04  0.12749391791E+04  0.50400001928E-02 0.  1.
    10030    2    1    2    0    0  0.00000000000E+00  0.00000000000E+00 -0.78197705287E+03  0.17679013054E+04  0.15855557115E+04 0.  0.
        1    1    3    3  502    0  0.77581651060E+03  0.21424733958E+02 -0.21069385739E+03  0.80420282200E+03  0.50400001928E-02 0. -1.
       -1    1    3    3    0  502 -0.77581651060E+03 -0.21424733958E+02 -0.57128319548E+03  0.96369848335E+03  0.50400001928E-02 0.  1.
</event>
<event>
 5   0  0.9432152E-05  0.1601633E+04  0.7818609E-02  0.8819545E-01
        1   -1    0    0  501    0  0.00000000000E+00  0.00000000000E+00  0.10625697910E+04  0.10625697910E+04  0.50400001928E-02 0.  1.
       -1   -1    0    0    0  501  0.00000000000E+00  0.00000000000E+00 -0.60354380655E+03  0.60354380657E+03  0.50400001928E-02 0. -1.
    10030    2    1    2    0    0  0.00000000000E+00  0.00000000000E+00  0.45902598447E+03  0.16661135976E+04  0.16016334367E+04 0.  0.
        4    1    3    3  502    0 -0.17608651023E+03 -0.57557225797E+03  0.77899816008E+03  0.98444381736E+03  0.12699999809E+01 0.  1.
       -4    1    3    3    0  502  0.17608651023E+03  0.57557225797E+03 -0.31997217562E+03  0.68166978024E+03  0.12699999809E+01 0. -1.
</event>
<event>
 5   0  0.1832646E-04  0.1602242E+04  0.7818609E-02  0.8819172E-01
       -2   -1    0    0    0  501  0.00000000000E+00  0.00000000000E+00  0.66911430753E+03  0.66911430753E+03  0.25500000920E-02 0.  1.
        2   -1    0    0  501    0  0.00000000000E+00  0.00000000000E+00 -0.95917025918E+03  0.95917025918E+03  0.25500000920E-02 0. -1.
    10030    2    1    2    0    0  0.00000000000E+00  0.00000000000E+00 -0.29005595165E+03  0.16282845667E+04  0.16022416095E+04 0.  0.
        2    1    3    3  502    0  0.51031438043E+03 -0.18606201571E+03  0.45340219455E+03  0.70754038089E+03  0.25500000920E-02 0.  1.
       -2    1    3    3    0  502 -0.51031438043E+03  0.18606201571E+03 -0.74345814620E+03  0.92074418582E+03  0.25500000920E-02 0. -1.
</event>
<event>
 5   0  0.1835088E-04  0.1660905E+04  0.7818609E-02  0.8783981E-01
        2   -1    0    0  501    0  0.00000000000E+00  0.00000000000E+00  0.63857945708E+03  0.63857945708E+03  0.25500000920E-02 0. -1.
       -2   -1    0    0    0  501  0.00000000000E+00  0.00000000000E+00 -0.10799768882E+04  0.10799768882E+04  0.25500000920E-02 0.  1.
    10030    2    1    2    0    0  0.00000000000E+00  0.00000000000E+00 -0.44139743110E+03  0.17185563453E+04  0.16609046389E+04 0.  0.
        5    1    3    3  502    0  0.32833184330E+03  0.33906338137E+03  0.48629229817E+03  0.67769319398E+03  0.46999998093E+01 0. -1.
       -5    1    3    3    0  502 -0.32833184330E+03 -0.33906338137E+03 -0.92768972927E+03  0.10408631513E+04  0.46999998093E+01 0.  1.
</event>
<event>
 5   0  0.9432152E-05  0.1606296E+04  0.7818609E-02  0.8816690E-01
        1   -1    0    0  501    0  0.00000000000E+00  0.00000000000E+00  0.76518636548E+03  0.76518636549E+03  0.50400001928E-02 0. -1.
       -1   -1    0    0    0  501  0.00000000000E+00  0.00000000000E+00 -0.84299244450E+03  0.84299244452E+03  0.50400001928E-02 0.  1.
    10030    2    1    2    0    0  0.00000000000E+00  0.00000000000E+00 -0.77806079027E+02  0.16081788100E+04  0.16062955205E+04 0.  0.
        4    1    3    3  502    0  0.20660201244E+03  0.26138700887E+03 -0.77053829153E+03  0.83948700500E+03  0.12699999809E+01 0.  1.
       -4    1    3    3    0  502 -0.20660201244E+03 -0.26138700887E+03  0.69273221251E+03  0.76869180501E+03  0.12699999809E+01 0. -1.
</event>
<event>
 5   0  0.9726935E-05  0.1611122E+04  0.7818609E-02  0.8813745E-01
        1   -1    0    0  501    0  0.00000000000E+00  0.00000000000E+00  0.14726785276E+04  0.14726785277E+04  0.50400001928E-02 0. -1.
       -1   -1    0    0    0  501  0.00000000000E+00  0.00000000000E+00 -0.44064482595E+03  0.44064482598E+03  0.50400001928E-02 0.  1.
    10030    2    1    2    0    0  0.00000000000E+00  0.00000000000E+00  0.10320337017E+04  0.19133233536E+04  0.16111215640E+04 0.  0.
        2    1    3    3  502    0  0.21084665011E+03 -0.66401030247E+03  0.35729101152E+02  0.69759770665E+03  0.25500000920E-02 0.  1.
       -2    1    3    3    0  502 -0.21084665011E+03  0.66401030247E+03  0.99630460055E+03  0.12157256470E+04  0.25500000920E-02 0. -1.
</event>
<event>
 5   0  0.1858913E-04  0.1647760E+04  0.7818609E-02  0.8791733E-01
        2   -1    0    0  501    0  0.00000000000E+00  0.00000000000E+00  0.76034263705E+03  0.76034263705E+03  0.25500000920E-02 0. -1.
       -2   -1    0    0    0  501  0.00000000000E+00  0.00000000000E+00 -0.89272681377E+03  0.89272681377E+03  0.25500000920E-02 0.  1.
    10030    2    1    2    0    0  0.00000000000E+00  0.00000000000E+00 -0.13238417672E+03  0.16530694508E+04  0.16477600065E+04 0.  0.
        4    1    3    3  502    0 -0.31367767285E+03  0.72387778346E+03 -0.30441019674E+03  0.84561215023E+03  0.12699999809E+01 0.  1.
       -4    1    3    3    0  502  0.31367767285E+03 -0.72387778346E+03  0.17202602002E+03  0.80745730060E+03  0.12699999809E+01 0. -1.
</event>
<event>
 5   0  0.9616567E-05  0.1603684E+04  0.7818609E-02  0.8818288E-01
       -1   -1    0    0    0  501  0.00000000000E+00  0.00000000000E+00  0.37734884547E+03  0.37734884551E+03  0.50400001928E-02 0.  1.
        1   -1    0    0  501    0  0.00000000000E+00  0.00000000000E+00 -0.17038623777E+04  0.17038623777E+04  0.50400001928E-02 0. -1.
    10030    2    1    2    0    0  0.00000000000E+00  0.00000000000E+00 -0.13265135322E+04  0.20812112232E+04  0.16036838854E+04 0.  0.
        5    1    3    3  502    0  0.49844551777E+03 -0.40442500182E+03 -0.12868896537E+04  0.14380940814E+04  0.46999998093E+01 0. -1.
       -5    1    3    3    0  502 -0.49844551777E+03  0.40442500182E+03 -0.39623878532E+02  0.64311714177E+03  0.46999998093E+01 0.  1.
</event>
<event>
 5   0  0.1858913E-04  0.1603963E+04  0.7818609E-02  0.8818117E-01
        2   -1    0    0  501    0  0.00000000000E+00  0.00000000000E+00  0.92916013243E+03  0.92916013243E+03  0.25500000920E-02 0.  1.
       -2   -1    0    0    0  501  0.00000000000E+00  0.00000000000E+00 -0.69221057319E+03  0.69221057320E+03  0.25500000920E-02 0. -1.
    10030    2    1    2    0    0  0.00000000000E+00  0.00000000000E+00  0.23694955924E+03  0.16213707056E+04  0.16039631765E+04 0.  0.
        4    1    3    3  502    0  0.24859404440E+03  0.67097415437E+03 -0.24762638938E+03  0.75718277606E+03  0.12699999809E+01 0. -1.
       -4    1    3    3    0  502 -0.24859404440E+03 -0.67097415437E+03  0.48457594862E+03  0.86418792957E+03  0.12699999809E+01 0.  1.
</event>
<event>
 5   0  0.1858913E-04  0.1620184E+04  0.7818609E-02  0.8808243E-01
       -2   -1    0    0    0  501  0.00000000000E+00  0.00000000000E+00  0.36292481471E+03  0.36292481471E+03  0.25500000920E-02 0. -1.
        2   -1    0    0  501    0  0.00000000000E+00  0.00000000000E+00 -0.18082233686E+04  0.18082233686E+04  0.25500000920E-02 0.  1.
    10030    2    1    2    0    0  0.00000000000E+00  0.00000000000E+00 -0.14452985538E+04  0.21711481833E+04  0.16201841019E+04 0.  0.
        4    1    3    3  502    0 -0.76478313177E+03  0.24813558008E+03 -0.85519368878E+03  0.11738067826E+04  0.12699999809E+01 0.  1.
       -4    1    3    3    0  502  0.76478313177E+03 -0.24813558008E+03 -0.59010486507E+03  0.99734140063E+03  0.12699999809E+01 0. -1.
</event>
<event>
 5   0  0.1914170E-04  0.1601682E+04  0.7818609E-02  0.8819515E-01
       -2   -1    0    0    0  501  0.00000000000E+00  0.00000000000E+00  0.14911772386E+04  0.14911772386E+04  0.25500000920E-02 0. -1.
        2   -1    0    0  501    0  0.00000000000E+00  0.00000000000E+00 -0.43009383352E+03  0.43009383353E+03  0.25500000920E-02 0.  1.
    10030    2    1    2    0    0  0.00000000000E+00  0.00000000000E+00  0.10610834051E+04  0.19212710722E+04  0.16016817849E+04 0.  0.
        3    1    3    3  502    0  0.91782170544E+02 -0.76188851190E+03  0.80525336329E+03  0.11123538379E+04  0.10100000352E+00 0. -1.
       -3    1    3    3    0  502 -0.91782170544E+02  0.76188851190E+03  0.25583004182E+03  0.80891723427E+03  0.10100000352E+00 0.  1.
</event>
<event>
 5   0  0.9726935E-05  0.1574722E+04  0.7818609E-02  0.8836229E-01
       -1   -1    0    0    0  501  0.00000000000E+00  0.00000000000E+00  0.42976375205E+03  0.42976375208E+03  0.50400001928E-02 0.  1.
        1   -1    0    0  501    0  0.00000000000E+00  0.00000000000E+00 -0.14425078008E+04  0.14425078008E+04  0.50400001928E-02 0. -1.
    10030    2    1    2    0    0  0.00000000000E+00  0.00000000000E+00 -0.10127440488E+04  0.18722715529E+04  0.15747222801E+04 0.  0.
        2    1    3    3  502    0  0.57782133834E+03  0.27190473554E+03 -0.10539724071E+04  0.12323422898E+04  0.25500000920E-02 0. -1.
       -2    1    3    3    0  502 -0.57782133834E+03 -0.27190473554E+03  0.41228358343E+02  0.63992926311E+03  0.25500000920E-02 0.  1.
</event>
<event>
 5   0  0.9432152E-05  0.1601015E+04  0.7818609E-02  0.8819925E-01
       -1   -1    0    0    0  501  0.00000000000E+00  0.00000000000E+00  0.45906417486E+03  0.45906417489E+03  0.50400001928E-02 0.  1.
        1   -1    0    0  501    0  0.00000000000E+00  0.00000000000E+00 -0.13959097909E+04  0.13959097909E+04  0.50400001928E-02 0. -1.
    10030    2    1    2    0    0  0.00000000000E+00  0.00000000000E+00 -0.93684561601E+03  0.18549739658E+04  0.16010148986E+04 0.  0.
        4    1    3    3  502    0  0.46945444810E+03  0.15183981346E+03 -0.11987857967E+04  0.12963532725E+04  0.12699999809E+01 0. -1.
       -4    1    3    3    0  502 -0.46945444810E+03 -0.15183981346E+03  0.26194018070E+03  0.55862069328E+03  0.12699999809E+01 0.  1.
</event>
<event>
 5   0  0.9616567E-05  0.1599604E+04  0.7818609E-02  0.8820791E-01
        1   -1    0    0  501    0  0.00000000000E+00  0.00000000000E+00  0.90325922888E+03  0.90325922890E+03  0.50400001928E-02 0.  1.
       -1   -1    0    0    0  501  0.00000000000E+00  0.00000000000E+00 -0.70819496524E+03  0.70819496526E+03  0.50400001928E-02 0. -1.
    10030    2    1    2    0    0  0.00000000000E+00  0.00000000000E+00  0.19506426365E+03  0.16114541942E+04  0.15996044989E+04 0.  0.
        5    1    3    3  502    0  0.20232254597E+03  0.34771399206E+03  0.79389959567E+03  0.89002139911E+03  0.46999998093E+01 0.  1.
       -5    1    3    3    0  502 -0.20232254597E+03 -0.34771399206E+03 -0.59883533202E+03  0.72143279504E+03  0.46999998093E+01 0. -1.
</event>
<event>
 5   0  0.1774934E-04  0.1595073E+04  0.7818609E-02  0.8823581E-01
       -2   -1    0    0    0  501  0.00000000000E+00  0.00000000000E+00  0.46482810356E+03  0.46482810356E+03  0.25500000920E-02 0. -1.
        2   -1    0    0  501    0  0.00000000000E+00  0.00000000000E+00 -0.13683862416E+04  0.13683862416E+04  0.25500000920E-02 0.  1.
    10030    2    1    2    0    0  0.00000000000E+00  0.00000000000E+00 -0.90355813809E+03  0.18332143452E+04  0.15950728907E+04 0.  0.
        1    1    3    3  502    0 -0.36404964635E+03  0.53412236344E+03 -0.98869389848E+03  0.11812427647E+04  0.50400001928E-02 0.  1.
       -1    1    3    3    0  502  0.36404964635E+03 -0.53412236344E+03  0.85135760392E+02  0.65197158056E+03  0.50400001928E-02 0. -1.
</event>
<event>
 5   0  0.1835088E-04  0.1602995E+04  0.7818609E-02  0.8818710E-01
        2   -1    0    0  501    0  0.00000000000E+00  0.00000000000E+00  0.21683136417E+04  0.21683136417E+04  0.25500000920E-02 0.  1.
       -2   -1    0    0    0  501  0.00000000000E+00  0.00000000000E+00 -0.29626628110E+03  0.29626628111E+03  0.25500000920E-02 0. -1.
    10030    2    1    2    0    0  0.00000000000E+00  0.00000000000E+00  0.18720473606E+04  0.24645799228E+04  0.16029949706E+04 0.  0.
        5    1    3    3  502    0 -0.72838976971E+03  0.70577204988E+02  0.14385796718E+04  0.16140217969E+04  0.46999998093E+01 0.  1.
       -5    1    3    3    0  502  0.72838976971E+03 -0.70577204988E+02  0.43346768878E+03  0.85055812599E+03  0.46999998093E+01 0. -1.
</event>
<event>
 5   0  0.1858913E-04  0.1594197E+04  0.7818609E-02  0.8824121E-01
        2   -1    0    0  501    0  0.00000000000E+00  0.00000000000E+00  0.61061948332E+03  0.61061948333E+03  0.25500000920E-02 0.  1.
       -2   -1    0    0    0  501  0.00000000000E+00  0.00000000000E+00 -0.10405273510E+04  0.10405273510E+04  0.25500000920E-02 0. -1.
    10030    2    1    2    0    0  0.00000000000E+00  0.00000000000E+00 -0.42990786764E+03  0.16511468343E+04  0.15941973196E+04 0.  0.
        4    1    3    3  502    0 -0.61137165286E+03  0.49615619006E+03 -0.86347337875E+02  0.79208821384E+03  0.12699999809E+01 0. -1.
       -4    1    3    3    0  502  0.61137165286E+03 -0.49615619006E+03 -0.34356052977E+03  0.85905862045E+03  0.12699999809E+01 0.  1.
</event>
<event>
 5   0  0.9616567E-05  0.1600145E+04  0.7818609E-02  0.8820459E-01
       -1   -1    0    0    0  501  0.00000000000E+00  0.00000000000E+00  0.80602848635E+03  0.80602848636E+03  0.50400001928E-02 0.  1.
        1   -1    0    0  501    0  0.00000000000E+00  0.00000000000E+00 -0.79416094222E+03  0.79416094224E+03  0.50400001928E-02 0. -1.
    10030    2    1    2    0    0  0.00000000000E+00  0.00000000000E+00  0.11867544125E+02  0.16001894286E+04  0.16001454211E+04 0.  0.
        5    1    3    3  502    0 -0.57968705814E+03  0.11459888215E+03  0.54532256074E+03  0.80409500335E+03  0.46999998093E+01 0.  1.
       -5    1    3    3    0  502  0.57968705814E+03 -0.11459888215E+03 -0.53345501661E+03  0.79609442525E+03  0.46999998093E+01 0. -1.
</event>
<event>
 5   0  0.9673017E-05  0.1598897E+04  0.7818609E-02  0.8821226E-01
       -1   -1    0    0    0  501  0.00000000000E+00  0.00000000000E+00  0.89255012774E+03  0.89255012775E+03  0.50400001928E-02 0.  1.
        1   -1    0    0  501    0  0.00000000000E+00  0.00000000000E+00 -0.71605846890E+03  0.71605846892E+03  0.50400001928E-02 0. -1.
    10030    2    1    2    0    0  0.00000000000E+00  0.00000000000E+00  0.17649165884E+03  0.16086085967E+04  0.15988972174E+04 0.  0.
        1    1    3    3  502    0  0.65182958795E+03  0.40784609900E+03 -0.13193917500E+03  0.78014626713E+03  0.50400001928E-02 0. -1.
       -1    1    3    3    0  502 -0.65182958795E+03 -0.40784609900E+03  0.30843083383E+03  0.82846232955E+03  0.50400001928E-02 0.  1.
</event>
<event>
 5   0  0.9726935E-05  0.1595765E+04  0.7818609E-02  0.8823154E-01
       -1   -1    0    0    0  501  0.00000000000E+00  0.00000000000E+00  0.82398959639E+03  0.82398959640E+03  0.50400001928E-02 0. -1.
        1   -1    0    0  501    0  0.00000000000E+00  0.00000000000E+00 -0.77260237612E+03  0.77260237614E+03  0.50400001928E-02 0.  1.
    10030    2    1    2    0    0  0.00000000000E+00  0.00000000000E+00  0.51387220268E+02  0.15965919725E+04  0.15957647948E+04 0.  0.
        2    1    3    3  502    0  0.68937779727E+03 -0.39053767672E+03  0.11984284369E+03  0.80132623287E+03  0.25500000920E-02 0.  1.
       -2    1    3    3    0  502 -0.68937779727E+03  0.39053767672E+03 -0.68455623418E+02  0.79526573967E+03  0.25500000920E-02 0. -1.
</event>
<event>
 5   0  0.9726935E-05  0.1598995E+04  0.7818609E-02  0.8821166E-01
       -1   -1    0    0    0  501  0.00000000000E+00  0.00000000000E+00  0.93818175969E+03  0.93818175971E+03  0.50400001928E-02 0. -1.
        1   -1    0    0  501    0  0.00000000000E+00  0.00000000000E+00 -0.68131361638E+03  0.68131361640E+03  0.50400001928E-02 0.  1.
    10030    2    1    2    0    0  0.00000000000E+00  0.00000000000E+00  0.25686814331E+03  0.16194953761E+04  0.15989946936E+04 0.  0.
        2    1    3    3  502    0 -0.47218053875E+03  0.56783060338E+03  0.43864503848E+03  0.85895024600E+03  0.25500000920E-02 0. -1.
       -2    1    3    3    0  502  0.47218053875E+03 -0.56783060338E+03 -0.18177689517E+03  0.76054513011E+03  0.25500000920E-02 0.  1.
</event>
<event>
 5   0  0.9616567E-05  0.1600855E+04  0.7818609E-02  0.8820023E-01
        1   -1    0    0  501    0  0.00000000000E+00  0.00000000000E+00  0.23182076934E+04  0.23182076934E+04  0.50400001928E-02 0. -1.
       -1   -1    0    0    0  501  0.00000000000E+00  0.00000000000E+00 -0.27637060800E+03  0.27637060804E+03  0.50400001928E-02 0.  1.
    10030    2    1    2    0    0  0.00000000000E+00  0.00000000000E+00  0.20418370854E+04  0.25945783014E+04  0.16008553585E+04 0.  0.
        5    1    3    3  502    0 -0.22898261867E+01 -0.33196931054E+03  0.22013434177E+04  0.22262398341E+04  0.46999998093E+01 0. -1.
       -5    1    3    3    0  502  0.22898261867E+01  0.33196931054E+03 -0.15950633231E+03  0.36833846729E+03  0.46999998093E+01 0.  1.
</event>
<event>
 5   0  0.1774934E-04  0.1594885E+04  0.7818609E-02  0.8823696E-01
       -2   -1    0    0    0  501  0.00000000000E+00  0.00000000000E+00  0.78353835615E+03  0.78353835615E+03  0.25500000920E-02 0. -1.
        2   -1    0    0  501    0  0.00000000000E+00  0.00000000000E+00 -0.81159362914E+03  0.81159362914E+03  0.25500000920E-02 0.  1.
    10030    2    1    2    0    0  0.00000000000E+00  0.00000000000E+00 -0.28055272989E+02  0.15951319853E+04  0.15948852473E+04 0.  0.
        1    1    3    3  502    0  0.71420832215E+02  0.18360469836E+03 -0.78687165851E+03  0.81115881770E+03  0.50400001928E-02 0.  1.
       -1    1    3    3    0  502 -0.71420832215E+02 -0.18360469836E+03  0.75881638553E+03  0.78397316759E+03  0.50400001928E-02 0. -1.
</event>
<event>
 5   0  0.9726935E-05  0.1602954E+04  0.7818609E-02  0.8818735E-01
        1   -1    0    0  501    0  0.00000000000E+00  0.00000000000E+00  0.12646768882E+04  0.12646768882E+04  0.50400001928E-02 0. -1.
       -1   -1    0    0    0  501  0.00000000000E+00  0.00000000000E+00 -0.50792828555E+03  0.50792828557E+03  0.50400001928E-02 0.  1.
    10030    2    1    2    0    0  0.00000000000E+00  0.00000000000E+00  0.75674860269E+03  0.17726051738E+04  0.16029537282E+04 0.  0.
        2    1    3    3  502    0  0.26394263034E+03 -0.39719822649E+03 -0.33395371429E+03  0.58220033196E+03  0.25500000920E-02 0.  1.
       -2    1    3    3    0  502 -0.26394263034E+03  0.39719822649E+03  0.10907023170E+04  0.11904048419E+04  0.25500000920E-02 0. -1.
</event>
<event>
 5   0  0.9673017E-05  0.1605016E+04  0.7818609E-02  0.8817473E-01
        1   -1    0    0  501    0  0.00000000000E+00  0.00000000000E+00  0.37641337439E+03  0.37641337442E+03  0.50400001928E-02 0.  1.
       -1   -1    0    0    0  501  0.00000000000E+00  0.00000000000E+00 -0.17109348616E+04  0.17109348616E+04  0.50400001928E-02 0. -1.
    10030    2    1    2    0    0  0.00000000000E+00  0.00000000000E+00 -0.13345214872E+04  0.20873482360E+04  0.16050155945E+04 0.  0.
        1    1    3    3  502    0 -0.75016041169E+03 -0.28355747095E+03 -0.70569273695E+03  0.10682451599E+04  0.50400001928E-02 0. -1.
       -1    1    3    3    0  502  0.75016041169E+03  0.28355747095E+03 -0.62882875023E+03  0.10191030761E+04  0.50400001928E-02 0.  1.
</event>
<event>
 5   0  0.1858913E-04  0.1607652E+04  0.7818609E-02  0.8815861E-01
       -2   -1    0    0    0  501  0.00000000000E+00  0.00000000000E+00  0.88925920784E+03  0.88925920784E+03  0.25500000920E-02 0.  1.
        2   -1    0    0  501    0  0.00000000000E+00  0.00000000000E+00 -0.72660043172E+03  0.72660043173E+03  0.25500000920E-02 0. -1.
    10030    2    1    2    0    0  0.00000000000E+00  0.00000000000E+00  0.16265877612E+03  0.16158596396E+04  0.16076518583E+04 0.  0.
        4    1    3    3  502    0 -0.55735247271E+03 -0.22139391664E+03  0.61929790433E+03  0.86208384301E+03  0.12699999809E+01 0.  1.
       -4    1    3    3    0  502  0.55735247271E+03  0.22139391664E+03 -0.45663912822E+03  0.75377579656E+03  0.12699999809E+01 0. -1.
</event>
<event>
 5   0  0.9616567E-05  0.1614101E+04  0.7818609E-02  0.8811932E-01
       -1   -1    0    0    0  501  0.00000000000E+00  0.00000000000E+00  0.42736688147E+03  0.42736688150E+03  0.50400001928E-02 0.  1.
        1   -1    0    0  501    0  0.00000000000E+00  0.00000000000E+00 -0.15240537949E+04  0.15240537949E+04  0.50400001928E-02 0. -1.
    10030    2    1    2    0    0  0.00000000000E+00  0.00000000000E+00 -0.10966869134E+04  0.19514206764E+04  0.16141005143E+04 0.  0.
        5    1    3    3  502    0  0.64828622690E+03 -0.33369814838E+03 -0.13010065994E+03  0.74066035261E+03  0.46999998093E+01 0.  1.
       -5    1    3    3    0  502 -0.64828622690E+03  0.33369814838E+03 -0.96658625347E+03  0.12107603238E+04  0.46999998093E+01 0. -1.
</event>
<event>
 5   0  0.9616567E-05  0.1601337E+04  0.7818609E-02  0.8819727E-01
        1   -1    0    0  501    0  0.00000000000E+00  0.00000000000E+00  0.17774025254E+04  0.17774025254E+04  0.50400001928E-02 0. -1.
       -1   -1    0    0    0  501  0.00000000000E+00  0.00000000000E+00 -0.36067801756E+03  0.36067801759E+03  0.50400001928E-02 0.  1.
    10030    2    1    2    0    0  0.00000000000E+00  0.00000000000E+00  0.14167245078E+04  0.21380805430E+04  0.16013369655E+04 0.  0.
        5    1    3    3  502    0 -0.49130040048E+03  0.12355751963E+03  0.15361825382E+04  0.16175665132E+04  0.46999998093E+01 0. -1.
       -5    1    3    3    0  502  0.49130040048E+03 -0.12355751963E+03 -0.11945803033E+03  0.52051402976E+03  0.46999998093E+01 0.  1.
</event>
<event>
 5   0  0.9726935E-05  0.1589323E+04  0.7818609E-02  0.8827134E-01
       -1   -1    0    0    0  501  0.00000000000E+00  0.00000000000E+00  0.30785059657E+03  0.30785059661E+03  0.50400001928E-02 0. -1.
        1   -1    0    0  501    0  0.00000000000E+00  0.00000000000E+00 -0.20512780010E+04  0.20512780010E+04  0.50400001928E-02 0.  1.
    10030    2    1    2    0    0  0.00000000000E+00  0.00000000000E+00 -0.17434274045E+04  0.23591285976E+04  0.15893233232E+04 0.  0.
        2    1    3    3  502    0  0.26432300465E+03 -0.56843498344E+03 -0.14680129885E+03  0.64384439311E+03  0.25500000920E-02 0. -1.
       -2    1    3    3    0  502 -0.26432300465E+03  0.56843498344E+03 -0.15966261056E+04  0.17152842045E+04  0.25500000920E-02 0.  1.
</event>
<event>
 5   0  0.1774934E-04  0.1603275E+04  0.7818609E-02  0.8818538E-01
       -2   -1    0    0    0  501  0.00000000000E+00  0.00000000000E+00  0.88567886997E+03  0.88567886997E+03  0.25500000920E-02 0.  1.
        2   -1    0    0  501    0  0.00000000000E+00  0.00000000000E+00 -0.72557112144E+03  0.72557112144E+03  0.25500000920E-02 0. -1.
    10030    2    1    2    0    0  0.00000000000E+00  0.00000000000E+00  0.16010774853E+03  0.16112499914E+04  0.16032754111E+04 0.  0.
        1    1    3    3  502    0  0.94756859996E+02 -0.37962156883E+03 -0.62309157032E+03  0.73575437686E+03  0.50400001928E-02 0. -1.
       -1    1    3    3    0  502 -0.94756859996E+02  0.37962156883E+03  0.78319931885E+03  0.87549561455E+03  0.50400001928E-02 0.  1.
</event>
<event>
 5   0  0.9726935E-05  0.1618633E+04  0.7818609E-02  0.8809182E-01
        1   -1    0    0  501    0  0.00000000000E+00  0.00000000000E+00  0.70986908548E+03  0.70986908550E+03  0.50400001928E-02 0.  1.
       -1   -1    0    0    0  501  0.00000000000E+00  0.00000000000E+00 -0.92269552772E+03  0.92269552773E+03  0.50400001928E-02 0. -1.
    10030    2    1    2    0    0  0.00000000000E+00  0.00000000000E+00 -0.21282644223E+03  0.16325646132E+04  0.16186327940E+04 0.  0.
        2    1    3    3  502    0 -0.77003397539E+02 -0.46210547963E+03  0.55920792248E+03  0.72950976560E+03  0.25500000920E-02 0.  1.
       -2    1    3    3    0  502  0.77003397539E+02  0.46210547963E+03 -0.77203436471E+03  0.90305484763E+03  0.25500000920E-02 0. -1.
</event>
<event>
 5   0  0.1774934E-04  0.1593583E+04  0.7818609E-02  0.8824500E-01
       -2   -1    0    0    0  501  0.00000000000E+00  0.00000000000E+00  0.95055077886E+03  0.95055077886E+03  0.25500000920E-02 0. -1.
        2   -1    0    0  501    0  0.00000000000E+00  0.00000000000E+00 -0.66790409646E+03  0.66790409646E+03  0.25500000920E-02 0.  1.
    10030    2    1    2    0    0  0.00000000000E+00  0.00000000000E+00  0.28264668240E+03  0.16184548753E+04  0.15935830811E+04 0.  0.
        1    1    3    3  502    0  0.49031875039E+03 -0.13886795527E+03 -0.48075589963E+03  0.70058762552E+03  0.50400001928E-02 0. -1.
       -1    1    3    3    0  502 -0.49031875039E+03  0.13886795527E+03  0.76340258203E+03  0.91786724980E+03  0.50400001928E-02 0.  1.
</event>
<event>
 5   0  0.1914170E-04  0.1598394E+04  0.7818609E-02  0.8821535E-01
       -2   -1    0    0    0  501  0.00000000000E+00  0.00000000000E+00  0.66127119837E+03  0.66127119837E+03  0.25500000920E-02 0.  1.
        2   -1    0    0  501    0  0.00000000000E+00  0.00000000000E+00 -0.96589059542E+03  0.96589059543E+03  0.25500000920E-02 0. -1.
    10030    2    1    2    0    0  0.00000000000E+00  0.00000000000E+00 -0.30461939705E+03  0.16271617938E+04  0.15983937331E+04 0.  0.
        3    1    3    3  502    0  0.39969117473E+02 -0.43461321879E+03 -0.83385881581E+03  0.94117305274E+03  0.10100000352E+00 0. -1.
       -3    1    3    3    0  502 -0.39969117473E+02  0.43461321879E+03  0.52923941875E+03  0.68598874106E+03  0.10100000352E+00 0.  1.
</event>
<event>
 5   0  0.1914170E-04  0.1576228E+04  0.7818609E-02  0.8835287E-01
       -2   -1    0    0    0  501  0.00000000000E+00  0.00000000000E+00  0.14639121187E+04  0.14639121187E+04  0.25500000920E-02 0.  1.
        2   -1    0    0  501    0  0.00000000000E+00  0.00000000000E+00 -0.42429016853E+03  0.42429016853E+03  0.25500000920E-02 0. -1.
    10030    2    1    2    0    0  0.00000000000E+00  0.00000000000E+00  0.10396219502E+04  0.18882022872E+04  0.15762278002E+04 0.  0.
        3    1    3    3  502    0 -0.46608624804E+03 -0.57013474856E+03  0.85615592050E+03  0.11292887109E+04  0.10100000352E+00 0.  1.
       -3    1    3    3    0  502  0.46608624804E+03  0.57013474856E+03  0.18346602969E+03  0.75891357636E+03  0.10100000352E+00 0. -1.
</event>
<event>
 5   0  0.9673017E-05  0.1583229E+04  0.7818609E-02  0.8830918E-01
        1   -1    0    0  501    0  0.00000000000E+00  0.00000000000E+00  0.68362199549E+03  0.68362199551E+03  0.50400001928E-02 0. -1.
       -1   -1    0    0    0  501  0.00000000000E+00  0.00000000000E+00 -0.91666694047E+03  0.91666694048E+03  0.50400001928E-02 0.  1.
    10030    2    1    2    0    0  0.00000000000E+00  0.00000000000E+00 -0.23304494498E+03  0.16002889360E+04  0.15832292103E+04 0.  0.
        1    1    3    3  502    0 -0.23314720836E+03  0.22147459263E+02 -0.88084875335E+03  0.91145085278E+03  0.50400001928E-02 0.  1.
       -1    1    3    3    0  502  0.23314720836E+03 -0.22147459263E+02  0.64780380837E+03  0.68883808321E+03  0.50400001928E-02 0. -1.
</event>
<event>
 5   0  0.9616567E-05  0.1592821E+04  0.7818609E-02  0.8824971E-01
       -1   -1    0    0    0  501  0.00000000000E+00  0.00000000000E+00  0.96959084825E+03  0.96959084826E+03  0.50400001928E-02 0. -1.
        1   -1    0    0  501    0  0.00000000000E+00  0.00000000000E+00 -0.65416214247E+03  0.65416214249E+03  0.50400001928E-02 0.  1.
    10030    2    1    2    0    0  0.00000000000E+00  0.00000000000E+00  0.31542870578E+03  0.16237529908E+04  0.15928209273E+04 0.  0.
        5    1    3    3  502    0 -0.71602805956E+03 -0.30647893640E+03 -0.11711896935E+02  0.77896391384E+03  0.46999998093E+01 0.  1.
       -5    1    3    3    0  502  0.71602805956E+03  0.30647893640E+03  0.32714060271E+03  0.84478907692E+03  0.46999998093E+01 0. -1.
</event>
<event>
 5   0  0.1914170E-04  0.1605304E+04  0.7818609E-02  0.8817296E-01
       -2   -1    0    0    0  501  0.00000000000E+00  0.00000000000E+00  0.46893391063E+03  0.46893391064E+03  0.25500000920E-02 0. -1.
        2   -1    0    0  501    0  0.00000000000E+00  0.00000000000E+00 -0.13738620313E+04  0.13738620313E+04  0.25500000920E-02 0.  1.
    10030    2    1    2    0    0  0.00000000000E+00  0.00000000000E+00 -0.90492812063E+03  0.18427959419E+04  0.16053043263E+04 0.  0.
        3    1    3    3  502    0 -0.36048254547E+03  0.38387186407E+03  0.24291319779E+03  0.57992422391E+03  0.10100000352E+00 0. -1.
       -3    1    3    3    0  502  0.36048254547E+03 -0.38387186407E+03 -0.11478413184E+04  0.12628717180E+04  0.10100000352E+00 0.  1.
</event>
<event>
 5   0  0.9616567E-05  0.1600378E+04  0.7818609E-02  0.8820316E-01
       -1   -1    0    0    0  501  0.00000000000E+00  0.00000000000E+00  0.49361522429E+03  0.49361522432E+03  0.50400001928E-02 0.  1.
        1   -1    0    0  501    0  0.00000000000E+00  0.00000000000E+00 -0.12971694067E+04  0.12971694067E+04  0.50400001928E-02 0. -1.
    10030    2    1    2    0    0  0.00000000000E+00  0.00000000000E+00 -0.80355418242E+03  0.17907846310E+04  0.16003781649E+04 0.  0.
        5    1    3    3  502    0 -0.51364224014E+03 -0.13828385462E+03 -0.10706680103E+04  0.11955345472E+04  0.46999998093E+01 0. -1.
       -5    1    3    3    0  502  0.51364224014E+03  0.13828385462E+03  0.26711382785E+03  0.59525008386E+03  0.46999998093E+01 0.  1.
</event>
<event>
 5   0  0.1832646E-04  0.1596936E+04  0.7818609E-02  0.8822432E-01
        2   -1    0    0  501    0  0.00000000000E+00  0.00000000000E+00  0.15749499026E+04  0.15749499026E+04  0.25500000920E-02 0. -1.
       -2   -1    0    0    0  501  0.00000000000E+00  0.00000000000E+00 -0.40480743309E+03  0.40480743310E+03  0.25500000920E-02 0.  1.
    10030    2    1    2    0    0  0.00000000000E+00  0.00000000000E+00  0.11701424695E+04  0.19797573357E+04  0.15969363511E+04 0.  0.
        2    1    3    3  502    0 -0.57917807243E+03  0.25547127378E+03 -0.18252778541E+02  0.63328190819E+03  0.25500000920E-02 0.  1.
       -2    1    3    3    0  502  0.57917807243E+03 -0.25547127378E+03  0.11883952481E+04  0.13464754275E+04  0.25500000920E-02 0. -1.
</event>
<event>
 5   0  0.9673017E-05  0.1607550E+04  0.7818609E-02  0.8815923E-01
       -1   -1    0    0    0  501  0.00000000000E+00  0.00000000000E+00  0.82425572025E+03  0.82425572026E+03  0.50400001928E-02 0.  1.
        1   -1    0    0  501    0  0.00000000000E+00  0.00000000000E+00 -0.78380269152E+03  0.78380269154E+03  0.50400001928E-02 0. -1.
    10030    2    1    2    0    0  0.00000000000E+00  0.00000000000E+00  0.40453028728E+02  0.16080584118E+04  0.16075495041E+04 0.  0.
        1    1    3    3  502    0 -0.64079506777E+03 -0.13630492528E+03 -0.44559944488E+03  0.79231068201E+03  0.50400001928E-02 0. -1.
       -1    1    3    3    0  502  0.64079506777E+03  0.13630492528E+03  0.48605247360E+03  0.81574772979E+03  0.50400001928E-02 0.  1.
</event>
<event>
 5   0  0.9673017E-05  0.1596023E+04  0.7818609E-02  0.8822995E-01
        1   -1    0    0  501    0  0.00000000000E+00  0.00000000000E+00  0.10616834564E+04  0.10616834564E+04  0.50400001928E-02 0. -1.
       -1   -1    0    0    0  501  0.00000000000E+00  0.00000000000E+00 -0.59982296860E+03  0.59982296862E+03  0.50400001928E-02 0.  1.
    10030    2    1    2    0    0  0.00000000000E+00  0.00000000000E+00  0.46186048776E+03  0.16615064250E+04  0.15960227098E+04 0.  0.
        1    1    3    3  502    0 -0.62281575520E+03 -0.20347356830E+03 -0.24330536029E+03  0.69892664586E+03  0.50400001928E-02 0.  1.
       -1    1    3    3    0  502  0.62281575520E+03  0.20347356830E+03  0.70516584805E+03  0.96257977914E+03  0.50400001928E-02 0. -1.
</event>
<event>
 5   0  0.9432152E-05  0.1578525E+04  0.7818609E-02  0.8833851E-01
        1   -1    0    0  501    0  0.00000000000E+00  0.00000000000E+00  0.80368909091E+03  0.80368909093E+03  0.50400001928E-02 0.  1.
       -1   -1    0    0    0  501  0.00000000000E+00  0.00000000000E+00 -0.77509494432E+03  0.77509494434E+03  0.50400001928E-02 0. -1.
    10030    2    1    2    0    0  0.00000000000E+00  0.00000000000E+00  0.28594146589E+02  0.15787840353E+04  0.15785250726E+04 0.  0.
        4    1    3    3  502    0 -0.34218010101E+03  0.77808002600E+02 -0.69277889888E+03  0.77658581137E+03  0.12699999809E+01 0. -1.
       -4    1    3    3    0  502  0.34218010101E+03 -0.77808002600E+02  0.72137304547E+03  0.80219822390E+03  0.12699999809E+01 0.  1.
</event>
<event>
 5   0  0.1858913E-04  0.1613949E+04  0.7818609E-02  0.8812024E-01
        2   -1    0    0  501    0  0.00000000000E+00  0.00000000000E+00  0.13463422960E+04  0.13463422960E+04  0.25500000920E-02 0.  1.
       -2   -1    0    0    0  501  0.00000000000E+00  0.00000000000E+00 -0.48368640956E+03  0.48368640957E+03  0.25500000920E-02 0. -1.
    10030    2    1    2    0    0  0.00000000000E+00  0.00000000000E+00  0.86265588645E+03  0.18300287056E+04  0.16139485385E+04 0.  0.
        4    1    3    3  502    0  0.22699784820E+03 -0.12822444101E+02  0.13092736790E+04  0.13288685479E+04  0.12699999809E+01 0.  1.
       -4    1    3    3    0  502 -0.22699784820E+03  0.12822444101E+02 -0.44661779253E+03  0.50116015770E+03  0.12699999809E+01 0. -1.
</event>
<event>
 5   0  0.9939872E-05  0.1603546E+04  0.7818609E-02  0.8818373E-01
       -1   -1    0    0    0  501  0.00000000000E+00  0.00000000000E+00  0.60636407826E+03  0.60636407828E+03  0.50400001928E-02 0. -1.
        1   -1    0    0  501    0  0.00000000000E+00  0.00000000000E+00 -0.10601546791E+04  0.10601546791E+04  0.50400001928E-02 0.  1.
    10030    2    1    2    0    0  0.00000000000E+00  0.00000000000E+00 -0.45379060081E+03  0.16665187574E+04  0.16035457147E+04 0.  0.
        3    1    3    3  502    0  0.62072596148E+03  0.50747959636E+03 -0.22496643972E+03  0.83273415276E+03  0.10100000352E+00 0.  1.
       -3    1    3    3    0  502 -0.62072596148E+03 -0.50747959636E+03 -0.22882416109E+03  0.83378460460E+03  0.10100000352E+00 0. -1.
</event>
<event>
 5   0  0.9616567E-05  0.1601410E+04  0.7818609E-02  0.8819682E-01
       -1   -1    0    0    0  501  0.00000000000E+00  0.00000000000E+00  0.78699965342E+03  0.78699965343E+03  0.50400001928E-02 0. -1.
        1   -1    0    0  501    0  0.00000000000E+00  0.00000000000E+00 -0.81464870189E+03  0.81464870190E+03  0.50400001928E-02 0.  1.
    10030    2    1    2    0    0  0.00000000000E+00  0.00000000000E+00 -0.27649048472E+02  0.16016483553E+04  0.16014096866E+04 0.  0.
        5    1    3    3  502    0  0.23653965146E+02 -0.33013063689E+03 -0.74301507846E+03  0.81341209992E+03  0.46999998093E+01 0.  1.
       -5    1    3    3    0  502 -0.23653965146E+02  0.33013063689E+03  0.71536602999E+03  0.78823625541E+03  0.46999998093E+01 0. -1.
</event>
<event>
 5   0  0.9432152E-05  0.1620929E+04  0.7818609E-02  0.8807793E-01
       -1   -1    0    0    0  501  0.00000000000E+00  0.00000000000E+00  0.42349277463E+03  0.42349277466E+03  0.50400001928E-02 0. -1.
        1   -1    0    0  501    0  0.00000000000E+00  0.00000000000E+00 -0.15510361256E+04  0.15510361257E+04  0.50400001928E-02 0.  1.
    10030    2    1    2    0    0  0.00000000000E+00  0.00000000000E+00 -0.11275433510E+04  0.19745289003E+04  0.16209288602E+04 0.  0.
        4    1    3    3  502    0  0.50293910307E+03 -0.32818030173E+03 -0.12267399512E+04  0.13658486639E+04  0.12699999809E+01 0.  1.
       -4    1    3    3    0  502 -0.50293910307E+03  0.32818030173E+03  0.99196600193E+02  0.60868023644E+03  0.12699999809E+01 0. -1.
</event>
<event>
 5   0  0.1832646E-04  0.1642904E+04  0.7818609E-02  0.8794615E-01
        2   -1    0    0  501    0  0.00000000000E+00  0.00000000000E+00  0.38119397382E+03  0.38119397383E+03  0.25500000920E-02 0.  1.
       -2   -1    0    0    0  501  0.00000000000E+00  0.00000000000E+00 -0.17701841325E+04  0.17701841325E+04  0.25500000920E-02 0. -1.
    10030    2    1    2    0    0  0.00000000000E+00  0.00000000000E+00 -0.13889901586E+04  0.21513781063E+04  0.16429041650E+04 0.  0.
        2    1    3    3  502    0 -0.20191802896E+03 -0.77859041669E+03 -0.47612061254E+03  0.93470036112E+03  0.25500000920E-02 0.  1.
       -2    1    3    3    0  502  0.20191802896E+03  0.77859041669E+03 -0.91286954610E+03  0.12166777452E+04  0.25500000920E-02 0. -1.
</event>
<event>
 5   0  0.1858913E-04  0.1600237E+04  0.7818609E-02  0.8820403E-01
        2   -1    0    0  501    0  0.00000000000E+00  0.00000000000E+00  0.21333076977E+04  0.21333076977E+04  0.25500000920E-02 0.  1.
       -2   -1    0    0    0  501  0.00000000000E+00  0.00000000000E+00 -0.30009240702E+03  0.30009240704E+03  0.25500000920E-02 0. -1.
    10030    2    1    2    0    0  0.00000000000E+00  0.00000000000E+00  0.18332152907E+04  0.24334001048E+04  0.16002367849E+04 0.  0.
        4    1    3    3  502    0 -0.32622688629E+03 -0.34550264500E+03 -0.62284477613E+02  0.47924631255E+03  0.12699999809E+01 0. -1.
       -4    1    3    3    0  502  0.32622688629E+03  0.34550264500E+03  0.18954997683E+04  0.19541537922E+04  0.12699999809E+01 0.  1.
</event>
<event>
 5   0  0.1858913E-04  0.1607127E+04  0.7818609E-02  0.8816182E-01
        2   -1    0    0  501    0  0.00000000000E+00  0.00000000000E+00  0.15838283237E+04  0.15838283237E+04  0.25500000920E-02 0. -1.
       -2   -1    0    0    0  501  0.00000000000E+00  0.00000000000E+00 -0.40769198030E+03  0.40769198031E+03  0.25500000920E-02 0.  1.
    10030    2    1    2    0    0  0.00000000000E+00  0.00000000000E+00  0.11761363434E+04  0.19915203040E+04  0.16071267601E+04 0.  0.
        4    1    3    3  502    0  0.11164290523E+03 -0.64808754983E+03  0.15852618630E+02  0.65782560679E+03  0.12699999809E+01 0.  1.
       -4    1    3    3    0  502 -0.11164290523E+03  0.64808754983E+03  0.11602837248E+04  0.13336946972E+04  0.12699999809E+01 0. -1.
</event>
<event>
 5   0  0.9432152E-05  0.1599389E+04  0.7818609E-02  0.8820924E-01
        1   -1    0    0  501    0  0.00000000000E+00  0.00000000000E+00  0.11630082695E+04  0.11630082695E+04  0.50400001928E-02 0. -1.
       -1   -1    0    0    0  501  0.00000000000E+00  0.00000000000E+00 -0.54987675705E+03  0.54987675707E+03  0.50400001928E-02 0.  1.
    10030    2    1    2    0    0  0.00000000000E+00  0.00000000000E+00  0.61313151242E+03  0.17128850266E+04  0.15993889029E+04 0.  0.
        4    1    3    3  502    0  0.29973143622E+03 -0.73793358518E+03  0.22989882993E+03  0.82899939378E+03  0.12699999809E+01 0. -1.
       -4    1    3    3    0  502 -0.29973143622E+03  0.73793358518E+03  0.38323268249E+03  0.88388563277E+03  0.12699999809E+01 0.  1.
</event>
<event>
 5   0  0.1832646E-04  0.1580385E+04  0.7818609E-02  0.8832689E-01
        2   -1    0    0  501    0  0.00000000000E+00  0.00000000000E+00  0.70151445461E+03  0.70151445461E+03  0.25500000920E-02 0. -1.
       -2   -1    0    0    0  501  0.00000000000E+00  0.00000000000E+00 -0.89008079005E+03  0.89008079005E+03  0.25500000920E-02 0.  1.
    10030    2    1    2    0    0  0.00000000000E+00  0.00000000000E+00 -0.18856633544E+03  0.15915952447E+04  0.15803854466E+04 0.  0.
        2    1    3    3  502    0 -0.16075572398E+03  0.77365869230E+03 -0.98100173768E+02  0.79624984713E+03  0.25500000920E-02 0.  1.
       -2    1    3    3    0  502  0.16075572398E+03 -0.77365869230E+03 -0.90466161672E+02  0.79534539753E+03  0.25500000920E-02 0. -1.
</event>
<event>
 5   0  0.1858913E-04  0.1603707E+04  0.7818609E-02  0.8818274E-01
       -2   -1    0    0    0  501  0.00000000000E+00  0.00000000000E+00  0.11441037762E+04  0.11441037762E+04  0.25500000920E-02 0. -1.
        2   -1    0    0  501    0  0.00000000000E+00  0.00000000000E+00 -0.56198468337E+03  0.56198468338E+03  0.25500000920E-02 0.  1.
    10030    2    1    2    0    0  0.00000000000E+00  0.00000000000E+00  0.58211909281E+03  0.17060884596E+04  0.16037067044E+04 0.  0.
        4    1    3    3  502    0  0.44064968053E+02 -0.48744297106E+02 -0.55911456143E+03  0.56296397186E+03  0.12699999809E+01 0.  1.
       -4    1    3    3    0  502 -0.44064968053E+02  0.48744297106E+02  0.11412336542E+04  0.11431244877E+04  0.12699999809E+01 0. -1.
</event>
<event>
 5   0  0.1835088E-04  0.1600710E+04  0.7818609E-02  0.8820112E-01
        2   -1    0    0  501    0  0.00000000000E+00  0.00000000000E+00  0.17675584281E+04  0.17675584282E+04  0.25500000920E-02 0. -1.
       -2   -1    0    0    0  501  0.00000000000E+00  0.00000000000E+00 -0.36240275835E+03  0.36240275836E+03  0.25500000920E-02 0.  1.
    10030    2    1    2    0    0  0.00000000000E+00  0.00000000000E+00  0.14051556698E+04  0.21299611865E+04  0.16007099049E+04 0.  0.
        5    1    3    3  502    0 -0.48294460960E+02  0.31265741989E+03  0.16808065587E+04  0.17103273941E+04  0.46999998093E+01 0. -1.
       -5    1    3    3    0  502  0.48294460960E+02 -0.31265741989E+03 -0.27565088893E+03  0.41963379241E+03  0.46999998093E+01 0.  1.
</event>
<event>
 5   0  0.6838750E-05  0.1594747E+04  0.7818609E-02  0.8823781E-01
        4   -1    0    0  501    0  0.00000000000E+00  0.00000000000E+00  0.13460924675E+04  0.13460930666E+04  0.12699999809E+01 0. -1.
       -4   -1    0    0    0  501  0.00000000000E+00  0.00000000000E+00 -0.47233211010E+03  0.47233381747E+03  0.12699999809E+01 0.  1.
    10030    2    1    2    0    0  0.00000000000E+00  0.00000000000E+00  0.87376035745E+03  0.18184268841E+04  0.15947473689E+04 0.  0.
        1    1    3    3  502    0 -0.61353594668E+03 -0.72814350962E+02  0.10116397374E+04  0.11853873822E+04  0.50400001928E-02 0. -1.
       -1    1    3    3    0  502  0.61353594668E+03  0.72814350962E+02 -0.13787937993E+03  0.63303950194E+03  0.50400001928E-02 0.  1.
</event>
<event>
 5   0  0.1835088E-04  0.1609193E+04  0.7818609E-02  0.8814920E-01
        2   -1    0    0  501    0  0.00000000000E+00  0.00000000000E+00  0.88886659896E+03  0.88886659897E+03  0.25500000920E-02 0. -1.
       -2   -1    0    0    0  501  0.00000000000E+00  0.00000000000E+00 -0.72831568956E+03  0.72831568957E+03  0.25500000920E-02 0.  1.
    10030    2    1    2    0    0  0.00000000000E+00  0.00000000000E+00  0.16055090940E+03  0.16171822885E+04  0.16091929530E+04 0.  0.
        5    1    3    3  502    0  0.71381822211E+03 -0.17017506619E+03 -0.25129804872E+03  0.77567313132E+03  0.46999998093E+01 0. -1.
       -5    1    3    3    0  502 -0.71381822211E+03  0.17017506619E+03  0.41184895812E+03  0.84150915721E+03  0.46999998093E+01 0.  1.
</event>
<event>
 5   0  0.9616567E-05  0.1568222E+04  0.7818609E-02  0.8840312E-01
        1   -1    0    0  501    0  0.00000000000E+00  0.00000000000E+00  0.63157488829E+03  0.63157488831E+03  0.50400001928E-02 0. -1.
       -1   -1    0    0    0  501  0.00000000000E+00  0.00000000000E+00 -0.97348718881E+03  0.97348718883E+03  0.50400001928E-02 0.  1.
    10030    2    1    2    0    0  0.00000000000E+00  0.00000000000E+00 -0.34191230052E+03  0.16050620771E+04  0.15682220028E+04 0.  0.
        5    1    3    3  502    0 -0.20138897177E+03 -0.63239625057E+03 -0.59828741876E+03  0.89356167170E+03  0.46999998093E+01 0.  1.
       -5    1    3    3    0  502  0.20138897177E+03  0.63239625057E+03  0.25637511824E+03  0.71150040544E+03  0.46999998093E+01 0. -1.
</event>
<event>
 5   0  0.9726935E-05  0.1600593E+04  0.7818609E-02  0.8820184E-01
       -1   -1    0    0    0  501  0.00000000000E+00  0.00000000000E+00  0.67923299013E+03  0.67923299015E+03  0.50400001928E-02 0. -1.
        1   -1    0    0  501    0  0.00000000000E+00  0.00000000000E+00 -0.94293817015E+03  0.94293817016E+03  0.50400001928E-02 0.  1.
    10030    2    1    2    0    0  0.00000000000E+00  0.00000000000E+00 -0.26370518002E+03  0.16221711603E+04  0.16005932811E+04 0.  0.
        2    1    3    3  502    0  0.27944289080E+03 -0.67180762918E+03  0.20589811725E+03  0.75617977660E+03  0.25500000920E-02 0.  1.
       -2    1    3    3    0  502 -0.27944289080E+03  0.67180762918E+03 -0.46960329727E+03  0.86599138371E+03  0.25500000920E-02 0. -1.
</event>
<event>
 5   0  0.1774934E-04  0.1659581E+04  0.7818609E-02  0.8784759E-01
        2   -1    0    0  501    0  0.00000000000E+00  0.00000000000E+00  0.21833962967E+04  0.21833962967E+04  0.25500000920E-02 0.  1.
       -2   -1    0    0    0  501  0.00000000000E+00  0.00000000000E+00 -0.31535825221E+03  0.31535825222E+03  0.25500000920E-02 0. -1.
    10030    2    1    2    0    0  0.00000000000E+00  0.00000000000E+00  0.18680380445E+04  0.24987545489E+04  0.16595807182E+04 0.  0.
        1    1    3    3  502    0  0.28781289308E+03 -0.71506940484E+03  0.13966042058E+04  0.15952002454E+04  0.50400001928E-02 0. -1.
       -1    1    3    3    0  502 -0.28781289308E+03  0.71506940484E+03  0.47143383869E+03  0.90355430355E+03  0.50400001928E-02 0.  1.
</event>
<event>
 5   0  0.9432152E-05  0.1509244E+04  0.7818609E-02  0.8878329E-01
       -1   -1    0    0    0  501  0.00000000000E+00  0.00000000000E+00  0.50674103685E+03  0.50674103688E+03  0.50400001928E-02 0.  1.
        1   -1    0    0  501    0  0.00000000000E+00  0.00000000000E+00 -0.11237575582E+04  0.11237575582E+04  0.50400001928E-02 0. -1.
    10030    2    1    2    0    0  0.00000000000E+00  0.00000000000E+00 -0.61701652133E+03  0.16304985951E+04  0.15092436122E+04 0.  0.
        4    1    3    3  502    0  0.51978894474E+03  0.47899658289E+03 -0.59400103006E+03  0.92328603916E+03  0.12699999809E+01 0. -1.
       -4    1    3    3    0  502 -0.51978894474E+03 -0.47899658289E+03 -0.23015491270E+02  0.70721255591E+03  0.12699999809E+01 0.  1.
</event>
<event>
 5   0  0.1914170E-04  0.1599198E+04  0.7818609E-02  0.8821041E-01
        2   -1    0    0  501    0  0.00000000000E+00  0.00000000000E+00  0.59031586623E+03  0.59031586624E+03  0.25500000920E-02 0. -1.
       -2   -1    0    0    0  501  0.00000000000E+00  0.00000000000E+00 -0.10830781799E+04  0.10830781799E+04  0.25500000920E-02 0.  1.
    10030    2    1    2    0    0  0.00000000000E+00  0.00000000000E+00 -0.49276231370E+03  0.16733940462E+04  0.15991975913E+04 0.  0.
        3    1    3    3  502    0  0.27153260052E+03 -0.16359936937E+03 -0.10145124939E+04  0.10628877256E+04  0.10100000352E+00 0.  1.
       -3    1    3    3    0  502 -0.27153260052E+03  0.16359936937E+03  0.52175018015E+03  0.61050632060E+03  0.10100000352E+00 0. -1.
</event>
<event>
 5   0  0.9616567E-05  0.1601674E+04  0.7818609E-02  0.8819520E-01
       -1   -1    0    0    0  501  0.00000000000E+00  0.00000000000E+00  0.76393544796E+03  0.76393544798E+03  0.50400001928E-02 0. -1.
        1   -1    0    0  501    0  0.00000000000E+00  0.00000000000E+00 -0.83952125276E+03  0.83952125278E+03  0.50400001928E-02 0.  1.
    10030    2    1    2    0    0  0.00000000000E+00  0.00000000000E+00 -0.75585804800E+02  0.16034567008E+04  0.16016741795E+04 0.  0.
        5    1    3    3  502    0  0.42796959980E+03  0.45272748639E+02  0.63831813866E+03  0.76985695831E+03  0.46999998093E+01 0.  1.
       -5    1    3    3    0  502 -0.42796959980E+03 -0.45272748639E+02 -0.71390394346E+03  0.83359974244E+03  0.46999998093E+01 0. -1.
</event>
<event>
 5   0  0.9939872E-05  0.1597828E+04  0.7818609E-02  0.8821883E-01
       -1   -1    0    0    0  501  0.00000000000E+00  0.00000000000E+00  0.83714958157E+03  0.83714958158E+03  0.50400001928E-02 0. -1.
        1   -1    0    0  501    0  0.00000000000E+00  0.00000000000E+00 -0.76242514996E+03  0.76242514998E+03  0.50400001928E-02 0.  1.
    10030    2    1    2    0    0  0.00000000000E+00  0.00000000000E+00  0.74724431602E+02  0.15995747316E+04  0.15978283954E+04 0.  0.
        3    1    3    3  502    0 -0.45648539455E+03 -0.41688699083E+03  0.54396886468E+03  0.82345358977E+03  0.10100000352E+00 0. -1.
       -3    1    3    3    0  502  0.45648539455E+03  0.41688699083E+03 -0.46924443308E+03  0.77612114179E+03  0.10100000352E+00 0.  1.
</event>
<event>
 5   0  0.6838750E-05  0.1590400E+04  0.7818609E-02  0.8826467E-01
       -3   -1    0    0    0  501  0.00000000000E+00  0.00000000000E+00  0.64361034211E+03  0.64361035003E+03  0.10100000352E+00 0.  1.
        3   -1    0    0  501    0  0.00000000000E+00  0.00000000000E+00 -0.98249419026E+03  0.98249419545E+03  0.10100000352E+00 0. -1.
    10030    2    1    2    0    0  0.00000000000E+00  0.00000000000E+00 -0.33888384815E+03  0.16261045455E+04  0.15904004937E+04 0.  0.
        2    1    3    3  502    0 -0.40275112669E+03  0.58475786765E+03 -0.53552061868E+03  0.88934389685E+03  0.25500000920E-02 0.  1.
       -2    1    3    3    0  502  0.40275112669E+03 -0.58475786765E+03  0.19663677052E+03  0.73676064863E+03  0.25500000920E-02 0. -1.
</event>
<event>
 5   0  0.1832646E-04  0.1591886E+04  0.7818609E-02  0.8825548E-01
       -2   -1    0    0    0  501  0.00000000000E+00  0.00000000000E+00  0.50710970657E+03  0.50710970658E+03  0.25500000920E-02 0.  1.
        2   -1    0    0  501    0  0.00000000000E+00  0.00000000000E+00 -0.12492868709E+04  0.12492868709E+04  0.25500000920E-02 0. -1.
    10030    2    1    2    0    0  0.00000000000E+00  0.00000000000E+00 -0.74217716428E+03  0.17563965774E+04  0.15918863006E+04 0.  0.
        2    1    3    3  502    0  0.22806760619E+03  0.68157151276E+03  0.62659097567E+01  0.71874461503E+03  0.25500000920E-02 0.  1.
       -2    1    3    3    0  502 -0.22806760619E+03 -0.68157151276E+03 -0.74844307404E+03  0.10376519624E+04  0.25500000920E-02 0. -1.
</event>
<event>
 5   0  0.1835088E-04  0.1578064E+04  0.7818609E-02  0.8834139E-01
        2   -1    0    0  501    0  0.00000000000E+00  0.00000000000E+00  0.14678950692E+04  0.14678950692E+04  0.25500000920E-02 0. -1.
       -2   -1    0    0    0  501  0.00000000000E+00  0.00000000000E+00 -0.42412526993E+03  0.42412526994E+03  0.25500000920E-02 0.  1.
    10030    2    1    2    0    0  0.00000000000E+00  0.00000000000E+00  0.10437697992E+04  0.18920203391E+04  0.15780638675E+04 0.  0.
        5    1    3    3  502    0  0.36445178355E+03 -0.69282941878E+03  0.40373141425E+03  0.88082850255E+03  0.46999998093E+01 0.  1.
       -5    1    3    3    0  502 -0.36445178355E+03  0.69282941878E+03  0.64003838500E+03  0.10111918366E+04  0.46999998093E+01 0. -1.
</event>
<event>
 5   0  0.9432152E-05  0.1603383E+04  0.7818609E-02  0.8818472E-01
        1   -1    0    0  501    0  0.00000000000E+00  0.00000000000E+00  0.29600069198E+03  0.29600069202E+03  0.50400001928E-02 0.  1.
       -1   -1    0    0    0  501  0.00000000000E+00  0.00000000000E+00 -0.21713112444E+04  0.21713112444E+04  0.50400001928E-02 0. -1.
    10030    2    1    2    0    0  0.00000000000E+00  0.00000000000E+00 -0.18753105525E+04  0.24673119365E+04  0.16033834612E+04 0.  0.
        4    1    3    3  502    0  0.29173765079E+03 -0.67716523803E+03 -0.45336959751E+03  0.86556872710E+03  0.12699999809E+01 0.  1.
       -4    1    3    3    0  502 -0.29173765079E+03  0.67716523803E+03 -0.14219409550E+04  0.16017432094E+04  0.12699999809E+01 0. -1.
</event>
<event>
 5   0  0.1858913E-04  0.1593846E+04  0.7818609E-02  0.8824337E-01
       -2   -1    0    0    0  501  0.00000000000E+00  0.00000000000E+00  0.39611161668E+03  0.39611161669E+03  0.25500000920E-02 0.  1.
        2   -1    0    0  501    0  0.00000000000E+00  0.00000000000E+00 -0.16033016534E+04  0.16033016534E+04  0.25500000920E-02 0. -1.
    10030    2    1    2    0    0  0.00000000000E+00  0.00000000000E+00 -0.12071900367E+04  0.19994132700E+04  0.15938461782E+04 0.  0.
        4    1    3    3  502    0  0.12392891609E+03 -0.60531798040E+03  0.27780820585E+02  0.61849949113E+03  0.12699999809E+01 0.  1.
       -4    1    3    3    0  502 -0.12392891609E+03  0.60531798040E+03 -0.12349708573E+04  0.13809137789E+04  0.12699999809E+01 0. -1.
</event>
<event>
 5   0  0.9616567E-05  0.1607333E+04  0.7818609E-02  0.8816056E-01
        1   -1    0    0  501    0  0.00000000000E+00  0.00000000000E+00  0.64160977657E+03  0.64160977659E+03  0.50400001928E-02 0.  1.
       -1   -1    0    0    0  501  0.00000000000E+00  0.00000000000E+00 -0.10066554439E+04  0.10066554439E+04  0.50400001928E-02 0. -1.
    10030    2    1    2    0    0  0.00000000000E+00  0.00000000000E+00 -0.36504566728E+03  0.16482652205E+04  0.16073331633E+04 0.  0.
        5    1    3    3  502    0 -0.24320562754E+01  0.78865467431E+03 -0.34097563484E+03  0.85922557211E+03  0.46999998093E+01 0. -1.
       -5    1    3    3    0  502  0.24320562754E+01 -0.78865467431E+03 -0.24070032436E+02  0.78903964835E+03  0.46999998093E+01 0.  1.
</event>
<event>
 5   0  0.1832646E-04  0.1603878E+04  0.7818609E-02  0.8818169E-01
       -2   -1    0    0    0  501  0.00000000000E+00  0.00000000000E+00  0.60000745189E+03  0.60000745189E+03  0.25500000920E-02 0. -1.
        2   -1    0    0  501    0  0.00000000000E+00  0.00000000000E+00 -0.10718307238E+04  0.10718307238E+04  0.25500000920E-02 0.  1.
    10030    2    1    2    0    0  0.00000000000E+00  0.00000000000E+00 -0.47182327190E+03  0.16718381757E+04  0.16038783264E+04 0.  0.
        2    1    3    3  502    0 -0.12343588817E+03 -0.58169519204E+02 -0.10596404926E+04  0.10683904179E+04  0.25500000920E-02 0.  1.
       -2    1    3    3    0  502  0.12343588817E+03  0.58169519204E+02  0.58781722070E+03  0.60344775781E+03  0.25500000920E-02 0. -1.
</event>
<event>
 5   0  0.1914170E-04  0.1589904E+04  0.7818609E-02  0.8826774E-01
       -2   -1    0    0    0  501  0.00000000000E+00  0.00000000000E+00  0.58883668822E+03  0.58883668822E+03  0.25500000920E-02 0.  1.
        2   -1    0    0  501    0  0.00000000000E+00  0.00000000000E+00 -0.10732155535E+04  0.10732155535E+04  0.25500000920E-02 0. -1.
    10030    2    1    2    0    0  0.00000000000E+00  0.00000000000E+00 -0.48437886528E+03  0.16620522417E+04  0.15899040125E+04 0.  0.
        3    1    3    3  502    0 -0.57000801983E+03  0.49141872337E+03  0.25450408534E+02  0.75302671788E+03  0.10100000352E+00 0.  1.
       -3    1    3    3    0  502  0.57000801983E+03 -0.49141872337E+03 -0.50982927382E+03  0.90902552384E+03  0.10100000352E+00 0. -1.
</event>
<event>
 5   0  0.9726935E-05  0.1600214E+04  0.7818609E-02  0.8820416E-01
       -1   -1    0    0    0  501  0.00000000000E+00  0.00000000000E+00  0.48305236813E+03  0.48305236815E+03  0.50400001928E-02 0.  1.
        1   -1    0    0  501    0  0.00000000000E+00  0.00000000000E+00 -0.13252633418E+04  0.13252633418E+04  0.50400001928E-02 0. -1.
    10030    2    1    2    0    0  0.00000000000E+00  0.00000000000E+00 -0.84221097364E+03  0.18083157099E+04  0.16002144802E+04 0.  0.
        2    1    3    3  502    0  0.19922056799E+03 -0.57394442976E+03  0.16724650734E+03  0.63013684020E+03  0.25500000920E-02 0.  1.
       -2    1    3    3    0  502 -0.19922056799E+03  0.57394442976E+03 -0.10094574810E+04  0.11781788697E+04  0.25500000920E-02 0. -1.
</event>
<event>
 5   0  0.9616567E-05  0.1604708E+04  0.7818609E-02  0.8817661E-01
        1   -1    0    0  501    0  0.00000000000E+00  0.00000000000E+00  0.62435397736E+03  0.62435397738E+03  0.50400001928E-02 0.  1.
       -1   -1    0    0    0  501  0.00000000000E+00  0.00000000000E+00 -0.10311011060E+04  0.10311011060E+04  0.50400001928E-02 0. -1.
    10030    2    1    2    0    0  0.00000000000E+00  0.00000000000E+00 -0.40674712864E+03  0.16554550834E+04  0.16047081686E+04 0.  0.
        5    1    3    3  502    0  0.66095768107E+02  0.92275143149E+01 -0.10282186593E+04  0.10303928857E+04  0.46999998093E+01 0. -1.
       -5    1    3    3    0  502 -0.66095768107E+02 -0.92275143149E+01  0.62147153065E+03  0.62506219769E+03  0.46999998093E+01 0.  1.
</event>
<event>
 5   0  0.1914170E-04  0.1598206E+04  0.7818609E-02  0.8821651E-01
        2   -1    0    0  501    0  0.00000000000E+00  0.00000000000E+00  0.16627501822E+04  0.16627501822E+04  0.25500000920E-02 0. -1.
       -2   -1    0    0    0  501  0.00000000000E+00  0.00000000000E+00 -0.38404200742E+03  0.38404200743E+03  0.25500000920E-02 0.  1.
    10030    2    1    2    0    0  0.00000000000E+00  0.00000000000E+00  0.12787081748E+04  0.20467921897E+04  0.15982063920E+04 0.  0.
        3    1    3    3  502    0  0.10856588392E+03  0.46533467166E+03 -0.18092469372E+03  0.51093704387E+03  0.10100000352E+00 0.  1.
       -3    1    3    3    0  502 -0.10856588392E+03 -0.46533467166E+03  0.14596328685E+04  0.15358551458E+04  0.10100000352E+00 0. -1.
</event>
<event>
 5   0  0.1914170E-04  0.1598934E+04  0.7818609E-02  0.8821203E-01
        2   -1    0    0  501    0  0.00000000000E+00  0.00000000000E+00  0.88690552410E+03  0.88690552411E+03  0.25500000920E-02 0. -1.
       -2   -1    0    0    0  501  0.00000000000E+00  0.00000000000E+00 -0.72064859496E+03  0.72064859496E+03  0.25500000920E-02 0.  1.
    10030    2    1    2    0    0  0.00000000000E+00  0.00000000000E+00  0.16625692915E+03  0.16075541191E+04  0.15989336694E+04 0.  0.
        3    1    3    3  502    0 -0.20743873423E+03 -0.36507978858E+03  0.76711471837E+03  0.87451648459E+03  0.10100000352E+00 0.  1.
       -3    1    3    3    0  502  0.20743873423E+03  0.36507978858E+03 -0.60085778922E+03  0.73303763447E+03  0.10100000352E+00 0. -1.
</event>
<event>
 5   0  0.1832646E-04  0.1597637E+04  0.7818609E-02  0.8822001E-01
        2   -1    0    0  501    0  0.00000000000E+00  0.00000000000E+00  0.14851463268E+04  0.14851463268E+04  0.25500000920E-02 0.  1.
       -2   -1    0    0    0  501  0.00000000000E+00  0.00000000000E+00 -0.42966182500E+03  0.42966182501E+03  0.25500000920E-02 0. -1.
    10030    2    1    2    0    0  0.00000000000E+00  0.00000000000E+00  0.10554845018E+04  0.19148081518E+04  0.15976366060E+04 0.  0.
        2    1    3    3  502    0 -0.56217011999E+03 -0.46400727805E+03  0.13611099672E+03  0.74152828761E+03  0.25500000920E-02 0. -1.
       -2    1    3    3    0  502  0.56217011999E+03  0.46400727805E+03  0.91937350507E+03  0.11732798642E+04  0.25500000920E-02 0.  1.
</event>
<event>
 5   0  0.9673017E-05  0.1605230E+04  0.7818609E-02  0.8817342E-01
       -1   -1    0    0    0  501  0.00000000000E+00  0.00000000000E+00  0.83256963358E+03  0.83256963360E+03  0.50400001928E-02 0. -1.
        1   -1    0    0  501    0  0.00000000000E+00  0.00000000000E+00 -0.77373771233E+03  0.77373771234E+03  0.50400001928E-02 0.  1.
    10030    2    1    2    0    0  0.00000000000E+00  0.00000000000E+00  0.58831921255E+02  0.16063073459E+04  0.16052296081E+04 0.  0.
        1    1    3    3  502    0 -0.13459634411E+03 -0.25651831591E+02 -0.76194768014E+03  0.77416952899E+03  0.50400001928E-02 0.  1.
       -1    1    3    3    0  502  0.13459634411E+03  0.25651831591E+02  0.82077960140E+03  0.83213781695E+03  0.50400001928E-02 0. -1.
</event>
<event>
 5   0  0.1858913E-04  0.1599782E+04  0.7818609E-02  0.8820682E-01
        2   -1    0    0  501    0  0.00000000000E+00  0.00000000000E+00  0.94878129023E+03  0.94878129023E+03  0.25500000920E-02 0.  1.
       -2   -1    0    0    0  501  0.00000000000E+00  0.00000000000E+00 -0.67436548474E+03  0.67436548475E+03  0.25500000920E-02 0. -1.
    10030    2    1    2    0    0  0.00000000000E+00  0.00000000000E+00  0.27441580548E+03  0.16231467750E+04  0.15997816785E+04 0.  0.
        4    1    3    3  502    0  0.23639334022E+03  0.63275027794E+03 -0.29749922855E+03  0.73808002914E+03  0.12699999809E+01 0. -1.
       -4    1    3    3    0  502 -0.23639334022E+03 -0.63275027794E+03  0.57191503403E+03  0.88506674583E+03  0.12699999809E+01 0.  1.
</event>
<event>
 5   0  0.1914170E-04  0.1590941E+04  0.7818609E-02  0.8826133E-01
        2   -1    0    0  501    0  0.00000000000E+00  0.00000000000E+00  0.80020569912E+03  0.80020569913E+03  0.25500000920E-02 0.  1.
       -2   -1    0    0    0  501  0.00000000000E+00  0.00000000000E+00 -0.79076314872E+03  0.79076314872E+03  0.25500000920E-02 0. -1.
    10030    2    1    2    0    0  0.00000000000E+00  0.00000000000E+00  0.94425504084E+01  0.15909688478E+04  0.15909408264E+04 0.  0.
        3    1    3    3  502    0  0.33912361833E+03  0.71383760629E+03  0.95299972548E+02  0.79602201705E+03  0.10100000352E+00 0.  1.
       -3    1    3    3    0  502 -0.33912361833E+03 -0.71383760629E+03 -0.85857422139E+02  0.79494683080E+03  0.10100000352E+00 0. -1.
</event>
<event>
 5   0  0.9726935E-05  0.1599779E+04  0.7818609E-02  0.8820684E-01
        1   -1    0    0  501    0  0.00000000000E+00  0.00000000000E+00  0.17182503292E+04  0.17182503292E+04  0.50400001928E-02 0.  1.
       -1   -1    0    0    0  501  0.00000000000E+00  0.00000000000E+00 -0.37236912868E+03  0.37236912871E+03  0.50400001928E-02 0. -1.
    10030    2    1    2    0    0  0.00000000000E+00  0.00000000000E+00  0.13458812005E+04  0.20906194579E+04  0.15997792072E+04 0.  0.
        2    1    3    3  502    0  0.69348732877E+02 -0.62164315741E+03  0.13244830515E+04  0.14647541827E+04  0.25500000920E-02 0.  1.
       -2    1    3    3    0  502 -0.69348732877E+02  0.62164315741E+03  0.21398148955E+02  0.62586527520E+03  0.25500000920E-02 0. -1.
</event>
<event>
 5   0  0.9673017E-05  0.1603042E+04  0.7818609E-02  0.8818681E-01
       -1   -1    0    0    0  501  0.00000000000E+00  0.00000000000E+00  0.59980662319E+03  0.59980662322E+03  0.50400001928E-02 0. -1.
        1   -1    0    0  501    0  0.00000000000E+00  0.00000000000E+00 -0.10710718091E+04  0.10710718091E+04  0.50400001928E-02 0.  1.
    10030    2    1    2    0    0  0.00000000000E+00  0.00000000000E+00 -0.47126518590E+03  0.16708784323E+04  0.16030420644E+04 0.  0.
        1    1    3    3  502    0  0.15444005114E+03  0.10598710988E+03 -0.10479388503E+04  0.10645472422E+04  0.50400001928E-02 0.  1.
       -1    1    3    3    0  502 -0.15444005114E+03 -0.10598710988E+03  0.57667366441E+03  0.60633119012E+03  0.50400001928E-02 0. -1.
</event>
<event>
 5   0  0.1774934E-04  0.1594247E+04  0.7818609E-02  0.8824090E-01
        2   -1    0    0  501    0  0.00000000000E+00  0.00000000000E+00  0.44845304903E+03  0.44845304904E+03  0.25500000920E-02 0.  1.
       -2   -1    0    0    0  501  0.00000000000E+00  0.00000000000E+00 -0.14168831042E+04  0.14168831042E+04  0.25500000920E-02 0. -1.
    10030    2    1    2    0    0  0.00000000000E+00  0.00000000000E+00 -0.96843005521E+03  0.18653361533E+04  0.15942465910E+04 0.  0.
        1    1    3    3  502    0 -0.26795119780E+02 -0.75784332178E+03 -0.77167678305E+03  0.10819101332E+04  0.50400001928E-02 0. -1.
       -1    1    3    3    0  502  0.26795119780E+02  0.75784332178E+03 -0.19675327216E+03  0.78342602008E+03  0.50400001928E-02 0.  1.
</event>
<event>
 5   0  0.9616567E-05  0.1599650E+04  0.7818609E-02  0.8820763E-01
       -1   -1    0    0    0  501  0.00000000000E+00  0.00000000000E+00  0.74583798358E+03  0.74583798360E+03  0.50400001928E-02 0.  1.
        1   -1    0    0  501    0  0.00000000000E+00  0.00000000000E+00 -0.85772011963E+03  0.85772011964E+03  0.50400001928E-02 0. -1.
    10030    2    1    2    0    0  0.00000000000E+00  0.00000000000E+00 -0.11188213604E+03  0.16035581032E+04  0.15996502674E+04 0.  0.
        5    1    3    3  502    0  0.48956983951E+03 -0.53155594688E+03  0.28763197326E+03  0.77780755619E+03  0.46999998093E+01 0.  1.
       -5    1    3    3    0  502 -0.48956983951E+03  0.53155594688E+03 -0.39951410931E+03  0.82575054705E+03  0.46999998093E+01 0. -1.
</event>
<event>
 5   0  0.9432152E-05  0.1597758E+04  0.7818609E-02  0.8821927E-01
        1   -1    0    0  501    0  0.00000000000E+00  0.00000000000E+00  0.72105248406E+03  0.72105248408E+03  0.50400001928E-02 0. -1.
       -1   -1    0    0    0  501  0.00000000000E+00  0.00000000000E+00 -0.88510565029E+03  0.88510565030E+03  0.50400001928E-02 0.  1.
    10030    2    1    2    0    0  0.00000000000E+00  0.00000000000E+00 -0.16405316623E+03  0.16061581344E+04  0.15977579639E+04 0.  0.
        4    1    3    3  502    0  0.17605065911E+03 -0.14595412367E+03  0.68744503924E+03  0.72448515214E+03  0.12699999809E+01 0. -1.
       -4    1    3    3    0  502 -0.17605065911E+03  0.14595412367E+03 -0.85149820547E+03  0.88167298224E+03  0.12699999809E+01 0.  1.
</event>
<event>
 5   0  0.1914170E-04  0.1602398E+04  0.7818609E-02  0.8819076E-01
       -2   -1    0    0    0  501  0.00000000000E+00  0.00000000000E+00  0.43775123899E+03  0.43775123899E+03  0.25500000920E-02 0. -1.
        2   -1    0    0  501    0  0.00000000000E+00  0.00000000000E+00 -0.14664025199E+04  0.14664025199E+04  0.25500000920E-02 0.  1.
    10030    2    1    2    0    0  0.00000000000E+00  0.00000000000E+00 -0.10286512809E+04  0.19041537589E+04  0.16023976035E+04 0.  0.
        3    1    3    3  502    0 -0.66953391482E+03  0.19249984733E+03 -0.44095472262E+02  0.69805177114E+03  0.10100000352E+00 0. -1.
       -3    1    3    3    0  502  0.66953391482E+03 -0.19249984733E+03 -0.98455580865E+03  0.12061019878E+04  0.10100000352E+00 0.  1.
</event>
<event>
 5   0  0.9432152E-05  0.1601941E+04  0.7818609E-02  0.8819357E-01
       -1   -1    0    0    0  501  0.00000000000E+00  0.00000000000E+00  0.37269207461E+03  0.37269207464E+03  0.50400001928E-02 0. -1.
        1   -1    0    0  501    0  0.00000000000E+00  0.00000000000E+00 -0.17214038644E+04  0.17214038644E+04  0.50400001928E-02 0.  1.
    10030    2    1    2    0    0  0.00000000000E+00  0.00000000000E+00 -0.13487117898E+04  0.20940959391E+04  0.16019407948E+04 0.  0.
        4    1    3    3  502    0 -0.76346447236E+03  0.15247618397E+03 -0.92039543368E+03  0.12055108272E+04  0.12699999809E+01 0.  1.
       -4    1    3    3    0  502  0.76346447236E+03 -0.15247618397E+03 -0.42831635615E+03  0.88858511190E+03  0.12699999809E+01 0. -1.
</event>
<event>
 5   0  0.9673017E-05  0.1596780E+04  0.7818609E-02  0.8822529E-01
       -1   -1    0    0    0  501  0.00000000000E+00  0.00000000000E+00  0.67517869032E+03  0.67517869034E+03  0.50400001928E-02 0. -1.
        1   -1    0    0  501    0  0.00000000000E+00  0.00000000000E+00 -0.94408541026E+03  0.94408541027E+03  0.50400001928E-02 0.  1.
    10030    2    1    2    0    0  0.00000000000E+00  0.00000000000E+00 -0.26890671994E+03  0.16192641006E+04  0.15967796979E+04 0.  0.
        1    1    3    3  502    0  0.45655935843E+03  0.65970242307E+02 -0.79526382583E+03  0.91937102050E+03  0.50400001928E-02 0.  1.
       -1    1    3    3    0  502 -0.45655935843E+03 -0.65970242307E+02  0.52635710589E+03  0.69989308011E+03  0.50400001928E-02 0. -1.
</event>
<event>
 5   0  0.9726935E-05  0.1597769E+04  0.7818609E-02  0.8821920E-01
       -1   -1    0    0    0  501  0.00000000000E+00  0.00000000000E+00  0.41549233166E+03  0.41549233169E+03  0.50400001928E-02 0.  1.
        1   -1    0    0  501    0  0.00000000000E+00  0.00000000000E+00 -0.15360482600E+04  0.15360482600E+04  0.50400001928E-02 0. -1.
    10030    2    1    2    0    0  0.00000000000E+00  0.00000000000E+00 -0.11205559284E+04  0.19515405917E+04  0.15977687857E+04 0.  0.
        2    1    3    3  502    0 -0.26423340487E+02  0.60624228471E+03 -0.11949307445E+04  0.13401818476E+04  0.25500000920E-02 0. -1.
       -2    1    3    3    0  502  0.26423340487E+02 -0.60624228471E+03  0.74374816077E+02  0.61135874409E+03  0.25500000920E-02 0.  1.
</event>
<event>
 5   0  0.1774934E-04  0.1605124E+04  0.7818609E-02  0.8817406E-01
       -2   -1    0    0    0  501  0.00000000000E+00  0.00000000000E+00  0.61669184405E+03  0.61669184405E+03  0.25500000920E-02 0. -1.
        2   -1    0    0  501    0  0.00000000000E+00  0.00000000000E+00 -0.10444536491E+04  0.10444536491E+04  0.25500000920E-02 0.  1.
    10030    2    1    2    0    0  0.00000000000E+00  0.00000000000E+00 -0.42776180510E+03  0.16611454932E+04  0.16051243527E+04 0.  0.
        1    1    3    3  502    0  0.10871078684E+03  0.57591557555E+03 -0.78129505895E+03  0.97668764429E+03  0.50400001928E-02 0.  1.
       -1    1    3    3    0  502 -0.10871078684E+03 -0.57591557555E+03  0.35353325386E+03  0.68445784892E+03  0.50400001928E-02 0. -1.
</event>
<event>
 5   0  0.6838750E-05  0.1602242E+04  0.7818609E-02  0.8819172E-01
        3   -1    0    0  501    0  0.00000000000E+00  0.00000000000E+00  0.58086965920E+03  0.58086966798E+03  0.10100000352E+00 0.  1.
       -3   -1    0    0    0  501  0.00000000000E+00  0.00000000000E+00 -0.11048856286E+04  0.11048856332E+04  0.10100000352E+00 0. -1.
    10030    2    1    2    0    0  0.00000000000E+00  0.00000000000E+00 -0.52401596936E+03  0.16857553012E+04  0.16022416170E+04 0.  0.
        2    1    3    3  502    0 -0.68262378121E+03  0.41498435987E+03 -0.19881659448E+03  0.82323464690E+03  0.25500000920E-02 0. -1.
       -2    1    3    3    0  502  0.68262378121E+03 -0.41498435987E+03 -0.32519937489E+03  0.86252065427E+03  0.25500000920E-02 0.  1.
</event>
<event>
 5   0  0.1914170E-04  0.1596312E+04  0.7818609E-02  0.8822817E-01
       -2   -1    0    0    0  501  0.00000000000E+00  0.00000000000E+00  0.58912999087E+03  0.58912999088E+03  0.25500000920E-02 0.  1.
        2   -1    0    0  501    0  0.00000000000E+00  0.00000000000E+00 -0.10813453179E+04  0.10813453179E+04  0.25500000920E-02 0. -1.
    10030    2    1    2    0    0  0.00000000000E+00  0.00000000000E+00 -0.49221532707E+03  0.16704753088E+04  0.15963119461E+04 0.  0.
        3    1    3    3  502    0  0.30798189727E+03  0.70185954962E+03 -0.47914938108E+03  0.90390476048E+03  0.10100000352E+00 0. -1.
       -3    1    3    3    0  502 -0.30798189727E+03 -0.70185954962E+03 -0.13065945986E+02  0.76657054834E+03  0.10100000352E+00 0.  1.
</event>
<event>
 5   0  0.1832646E-04  0.1598012E+04  0.7818609E-02  0.8821770E-01
        2   -1    0    0  501    0  0.00000000000E+00  0.00000000000E+00  0.10347853947E+04  0.10347853947E+04  0.25500000920E-02 0.  1.
       -2   -1    0    0    0  501  0.00000000000E+00  0.00000000000E+00 -0.61694959581E+03  0.61694959582E+03  0.25500000920E-02 0. -1.
    10030    2    1    2    0    0  0.00000000000E+00  0.00000000000E+00  0.41783579887E+03  0.16517349905E+04  0.15980118035E+04 0.  0.
        2    1    3    3  502    0  0.51825538982E+03 -0.18995075762E+02  0.83718550681E+03  0.98479898193E+03  0.25500000920E-02 0.  1.
       -2    1    3    3    0  502 -0.51825538982E+03  0.18995075762E+02 -0.41934970794E+03  0.66693600858E+03  0.25500000920E-02 0. -1.
</event>
<event>
 5   0  0.1858913E-04  0.1585097E+04  0.7818609E-02  0.8829756E-01
       -2   -1    0    0    0  501  0.00000000000E+00  0.00000000000E+00  0.59932360212E+03  0.59932360212E+03  0.25500000920E-02 0. -1.
        2   -1    0    0  501    0  0.00000000000E+00  0.00000000000E+00 -0.10480701050E+04  0.10480701051E+04  0.25500000920E-02 0.  1.
    10030    2    1    2    0    0  0.00000000000E+00  0.00000000000E+00 -0.44874650293E+03  0.16473937072E+04  0.15850970325E+04 0.  0.
        4    1    3    3  502    0  0.25838004945E+03  0.74458402880E+03 -0.31111547220E+03  0.84732524796E+03  0.12699999809E+01 0.  1.
       -4    1    3    3    0  502 -0.25838004945E+03 -0.74458402880E+03 -0.13763103074E+03  0.80006845921E+03  0.12699999809E+01 0. -1.
</event>
<event>
 5   0  0.1914170E-04  0.1598134E+04  0.7818609E-02  0.8821695E-01
       -2   -1    0    0    0  501  0.00000000000E+00  0.00000000000E+00  0.84171578805E+03  0.84171578806E+03  0.25500000920E-02 0.  1.
        2   -1    0    0  501    0  0.00000000000E+00  0.00000000000E+00 -0.75857874163E+03  0.75857874163E+03  0.25500000920E-02 0. -1.
    10030    2    1    2    0    0  0.00000000000E+00  0.00000000000E+00  0.83137046428E+02  0.16002945297E+04  0.15981335405E+04 0.  0.
        3    1    3    3  502    0  0.37652348670E+03 -0.62770937336E+03  0.36249948004E+03  0.81681997812E+03  0.10100000352E+00 0.  1.
       -3    1    3    3    0  502 -0.37652348670E+03  0.62770937336E+03 -0.27936243361E+03  0.78347455156E+03  0.10100000352E+00 0. -1.
</event>
<event>
 5   0  0.9673017E-05  0.1580141E+04  0.7818609E-02  0.8832842E-01
       -1   -1    0    0    0  501  0.00000000000E+00  0.00000000000E+00  0.12760590566E+04  0.12760590566E+04  0.50400001928E-02 0. -1.
        1   -1    0    0  501    0  0.00000000000E+00  0.00000000000E+00 -0.48917130403E+03  0.48917130405E+03  0.50400001928E-02 0.  1.
    10030    2    1    2    0    0  0.00000000000E+00  0.00000000000E+00  0.78688775260E+03  0.17652303607E+04  0.15801410985E+04 0.  0.
        1    1    3    3  502    0  0.59204975105E+03 -0.52056302543E+03  0.45152092886E+03  0.90850422145E+03  0.50400001928E-02 0.  1.
       -1    1    3    3    0  502 -0.59204975105E+03  0.52056302543E+03  0.33536682374E+03  0.85672613924E+03  0.50400001928E-02 0. -1.
</event>
<event>
 5   0  0.9616567E-05  0.1594088E+04  0.7818609E-02  0.8824188E-01
        1   -1    0    0  501    0  0.00000000000E+00  0.00000000000E+00  0.15240062547E+04  0.15240062547E+04  0.50400001928E-02 0. -1.
       -1   -1    0    0    0  501  0.00000000000E+00  0.00000000000E+00 -0.41684807458E+03  0.41684807461E+03  0.50400001928E-02 0.  1.
    10030    2    1    2    0    0  0.00000000000E+00  0.00000000000E+00  0.11071581801E+04  0.19408543293E+04  0.15940879185E+04 0.  0.
        5    1    3    3  502    0  0.26126901984E+03 -0.52106603449E+03 -0.10825461762E+03  0.59288486678E+03  0.46999998093E+01 0.  1.
       -5    1    3    3    0  502 -0.26126901984E+03  0.52106603449E+03  0.12154127977E+04  0.13479694625E+04  0.46999998093E+01 0. -1.
</event>
<event>
 5   0  0.6838750E-05  0.1584558E+04  0.7818609E-02  0.8830091E-01
        3   -1    0    0  501    0  0.00000000000E+00  0.00000000000E+00  0.97547374641E+03  0.97547375164E+03  0.10100000352E+00 0. -1.
       -3   -1    0    0    0  501  0.00000000000E+00  0.00000000000E+00 -0.64348843942E+03  0.64348844734E+03  0.10100000352E+00 0.  1.
    10030    2    1    2    0    0  0.00000000000E+00  0.00000000000E+00  0.33198530700E+03  0.16189621990E+04  0.15845580954E+04 0.  0.
        1    1    3    3  502    0  0.42373445876E+03 -0.33985641208E+03 -0.42329066171E+03  0.68864232856E+03  0.50400001928E-02 0.  1.
       -1    1    3    3    0  502 -0.42373445876E+03  0.33985641208E+03  0.75527596870E+03  0.93031987042E+03  0.50400001928E-02 0. -1.
</event>
<event>
 5   0  0.1858913E-04  0.1591393E+04  0.7818609E-02  0.8825853E-01
        2   -1    0    0  501    0  0.00000000000E+00  0.00000000000E+00  0.20637644495E+04  0.20637644495E+04  0.25500000920E-02 0. -1.
       -2   -1    0    0    0  501  0.00000000000E+00  0.00000000000E+00 -0.30678534986E+03  0.30678534987E+03  0.25500000920E-02 0.  1.
    10030    2    1    2    0    0  0.00000000000E+00  0.00000000000E+00  0.17569790996E+04  0.23705497994E+04  0.15913927217E+04 0.  0.
        4    1    3    3  502    0  0.13497480396E+03  0.73799461107E+03  0.48359800513E+03  0.89259334926E+03  0.12699999809E+01 0.  1.
       -4    1    3    3    0  502 -0.13497480396E+03 -0.73799461107E+03  0.12733810945E+04  0.14779564501E+04  0.12699999809E+01 0. -1.
</event>
<event>
 5   0  0.1832646E-04  0.1599881E+04  0.7818609E-02  0.8820621E-01
        2   -1    0    0  501    0  0.00000000000E+00  0.00000000000E+00  0.99418194452E+03  0.99418194452E+03  0.25500000920E-02 0.  1.
       -2   -1    0    0    0  501  0.00000000000E+00  0.00000000000E+00 -0.64364998769E+03  0.64364998770E+03  0.25500000920E-02 0. -1.
    10030    2    1    2    0    0  0.00000000000E+00  0.00000000000E+00  0.35053195683E+03  0.16378319322E+04  0.15998814911E+04 0.  0.
        2    1    3    3  502    0 -0.29564047405E+03  0.46477875966E+03  0.76909693360E+03  0.94600881529E+03  0.25500000920E-02 0.  1.
       -2    1    3    3    0  502  0.29564047405E+03 -0.46477875966E+03 -0.41856497678E+03  0.69182311693E+03  0.25500000920E-02 0. -1.
</event>
<event>
 5   0  0.9726935E-05  0.1598966E+04  0.7818609E-02  0.8821184E-01
       -1   -1    0    0    0  501  0.00000000000E+00  0.00000000000E+00  0.81883714185E+03  0.81883714187E+03  0.50400001928E-02 0.  1.
        1   -1    0    0  501    0  0.00000000000E+00  0.00000000000E+00 -0.78058597952E+03  0.78058597954E+03  0.50400001928E-02 0. -1.
    10030    2    1    2    0    0  0.00000000000E+00  0.00000000000E+00  0.38251162330E+02  0.15994231214E+04  0.15989656563E+04 0.  0.
        2    1    3    3  502    0 -0.20377385742E+03 -0.62724932110E+03  0.47114788270E+03  0.81052194490E+03  0.25500000920E-02 0.  1.
       -2    1    3    3    0  502  0.20377385742E+03  0.62724932110E+03 -0.43289672037E+03  0.78890117651E+03  0.25500000920E-02 0. -1.
</event>
<event>
 5   0  0.6838750E-05  0.1595919E+04  0.7818609E-02  0.8823059E-01
       -4   -1    0    0    0  501  0.00000000000E+00  0.00000000000E+00  0.60526253241E+03  0.60526386481E+03  0.12699999809E+01 0.  1.
        4   -1    0    0  501    0  0.00000000000E+00  0.00000000000E+00 -0.10520024543E+04  0.10520032209E+04  0.12699999809E+01 0. -1.
    10030    2    1    2    0    0  0.00000000000E+00  0.00000000000E+00 -0.44673992187E+03  0.16572670857E+04  0.15959190567E+04 0.  0.
        3    1    3    3  502    0  0.74134089967E+03 -0.18777265894E+02 -0.52931450758E+03  0.91110524824E+03  0.10100000352E+00 0. -1.
       -3    1    3    3    0  502 -0.74134089967E+03  0.18777265894E+02  0.82574585715E+02  0.74616183744E+03  0.10100000352E+00 0.  1.
</event>
<event>
 5   0  0.1774934E-04  0.1591187E+04  0.7818609E-02  0.8825981E-01
        2   -1    0    0  501    0  0.00000000000E+00  0.00000000000E+00  0.15310739703E+04  0.15310739703E+04  0.25500000920E-02 0.  1.
       -2   -1    0    0    0  501  0.00000000000E+00  0.00000000000E+00 -0.41341495039E+03  0.41341495040E+03  0.25500000920E-02 0. -1.
    10030    2    1    2    0    0  0.00000000000E+00  0.00000000000E+00  0.11176590200E+04  0.19444889208E+04  0.15911868143E+04 0.  0.
        1    1    3    3  502    0 -0.65275762484E+03  0.15580548668E+03  0.36630696022E+02  0.67209350122E+03  0.50400001928E-02 0.  1.
       -1    1    3    3    0  502  0.65275762484E+03 -0.15580548668E+03  0.10810283239E+04  0.12723954195E+04  0.50400001928E-02 0. -1.
</event>
<event>
 5   0  0.9432152E-05  0.1605215E+04  0.7818609E-02  0.8817350E-01
        1   -1    0    0  501    0  0.00000000000E+00  0.00000000000E+00  0.65793134295E+03  0.65793134297E+03  0.50400001928E-02 0. -1.
       -1   -1    0    0    0  501  0.00000000000E+00  0.00000000000E+00 -0.97909781874E+03  0.97909781876E+03  0.50400001928E-02 0.  1.
    10030    2    1    2    0    0  0.00000000000E+00  0.00000000000E+00 -0.32116647579E+03  0.16370291617E+04  0.16052154283E+04 0.  0.
        4    1    3    3  502    0  0.57890576832E+03  0.18602220984E+03  0.37367089064E+03  0.71370000599E+03  0.12699999809E+01 0. -1.
       -4    1    3    3    0  502 -0.57890576832E+03 -0.18602220984E+03 -0.69483736643E+03  0.92332915573E+03  0.12699999809E+01 0.  1.
</event>
<event>
 5   0  0.9616567E-05  0.1607966E+04  0.7818609E-02  0.8815669E-01
       -1   -1    0    0    0  501  0.00000000000E+00  0.00000000000E+00  0.71252550579E+03  0.71252550581E+03  0.50400001928E-02 0.  1.
        1   -1    0    0  501    0  0.00000000000E+00  0.00000000000E+00 -0.90717945060E+03  0.90717945061E+03  0.50400001928E-02 0. -1.
    10030    2    1    2    0    0  0.00000000000E+00  0.00000000000E+00 -0.19465394481E+03  0.16197049564E+04  0.16079657918E+04 0.  0.
        5    1    3    3  502    0  0.46611204875E+03  0.46082710011E+03 -0.56628394481E+03  0.86621109109E+03  0.46999998093E+01 0. -1.
       -5    1    3    3    0  502 -0.46611204875E+03 -0.46082710011E+03  0.37163000000E+03  0.75349386533E+03  0.46999998093E+01 0.  1.
</event>
<event>
 5   0  0.9673017E-05  0.1575182E+04  0.7818609E-02  0.8835942E-01
       -1   -1    0    0    0  501  0.00000000000E+00  0.00000000000E+00  0.36981325141E+03  0.36981325144E+03  0.50400001928E-02 0. -1.
        1   -1    0    0  501    0  0.00000000000E+00  0.00000000000E+00 -0.16773312117E+04  0.16773312117E+04  0.50400001928E-02 0.  1.
    10030    2    1    2    0    0  0.00000000000E+00  0.00000000000E+00 -0.13075179603E+04  0.20471444631E+04  0.15751816519E+04 0.  0.
        1    1    3    3  502    0  0.34021723870E+03  0.28180673771E+03  0.19362850206E+03  0.48234303536E+03  0.50400001928E-02 0. -1.
       -1    1    3    3    0  502 -0.34021723870E+03 -0.28180673771E+03 -0.15011464623E+04  0.15648014278E+04  0.50400001928E-02 0.  1.
</event>
<event>
 5   0  0.9939872E-05  0.1701630E+04  0.7818609E-02  0.8760435E-01
       -1   -1    0    0    0  501  0.00000000000E+00  0.00000000000E+00  0.99799994406E+03  0.99799994407E+03  0.50400001928E-02 0.  1.
        1   -1    0    0  501    0  0.00000000000E+00  0.00000000000E+00 -0.72533690913E+03  0.72533690915E+03  0.50400001928E-02 0. -1.
    10030    2    1    2    0    0  0.00000000000E+00  0.00000000000E+00  0.27266303493E+03  0.17233368532E+04  0.17016300359E+04 0.  0.
        3    1    3    3  502    0 -0.58904762615E+03  0.41078056442E+03 -0.32574344997E+03  0.78855981598E+03  0.10100000352E+00 0. -1.
       -3    1    3    3    0  502  0.58904762615E+03 -0.41078056442E+03  0.59840648490E+03  0.93477703724E+03  0.10100000352E+00 0.  1.
</event>
<event>
 5   0  0.1774934E-04  0.1607524E+04  0.7818609E-02  0.8815939E-01
       -2   -1    0    0    0  501  0.00000000000E+00  0.00000000000E+00  0.13144623520E+04  0.13144623520E+04  0.25500000920E-02 0.  1.
        2   -1    0    0  501    0  0.00000000000E+00  0.00000000000E+00 -0.49148084590E+03  0.49148084590E+03  0.25500000920E-02 0. -1.
    10030    2    1    2    0    0  0.00000000000E+00  0.00000000000E+00  0.82298150612E+03  0.18059431979E+04  0.16075236467E+04 0.  0.
        1    1    3    3  502    0  0.70709363896E+02 -0.60119476707E+03  0.10055282087E+04  0.11736788064E+04  0.50400001928E-02 0.  1.
       -1    1    3    3    0  502 -0.70709363896E+02  0.60119476707E+03 -0.18254670261E+03  0.63226439149E+03  0.50400001928E-02 0. -1.
</event>
<event>
 5   0  0.1774934E-04  0.1608608E+04  0.7818609E-02  0.8815277E-01
        2   -1    0    0  501    0  0.00000000000E+00  0.00000000000E+00  0.22364345701E+04  0.22364345701E+04  0.25500000920E-02 0.  1.
       -2   -1    0    0    0  501  0.00000000000E+00  0.00000000000E+00 -0.28925711377E+03  0.28925711378E+03  0.25500000920E-02 0. -1.
    10030    2    1    2    0    0  0.00000000000E+00  0.00000000000E+00  0.19471774563E+04  0.25256916839E+04  0.16086076077E+04 0.  0.
        1    1    3    3  502    0  0.37512521155E+03  0.69177548531E+03  0.71258949916E+03  0.10616289563E+04  0.50400001928E-02 0. -1.
       -1    1    3    3    0  502 -0.37512521155E+03 -0.69177548531E+03  0.12345879572E+04  0.14640627276E+04  0.50400001928E-02 0.  1.
</event>
<event>
 5   0  0.6838750E-05  0.1593097E+04  0.7818609E-02  0.8824800E-01
       -3   -1    0    0    0  501  0.00000000000E+00  0.00000000000E+00  0.12111662767E+04  0.12111662810E+04  0.10100000352E+00 0. -1.
        3   -1    0    0  501    0  0.00000000000E+00  0.00000000000E+00 -0.52386643124E+03  0.52386644097E+03  0.10100000352E+00 0.  1.
    10030    2    1    2    0    0  0.00000000000E+00  0.00000000000E+00  0.68729984551E+03  0.17350327219E+04  0.15930968171E+04 0.  0.
        4    1    3    3  502    0 -0.12493677159E+03  0.16660735544E+03 -0.49369333430E+03  0.53581893305E+03  0.12699999809E+01 0.  1.
       -4    1    3    3    0  502  0.12493677159E+03 -0.16660735544E+03  0.11809931798E+04  0.11992137889E+04  0.12699999809E+01 0. -1.
</event>
<event>
 5   0  0.1858913E-04  0.1610070E+04  0.7818609E-02  0.8814385E-01
        2   -1    0    0  501    0  0.00000000000E+00  0.00000000000E+00  0.21484859318E+04  0.21484859318E+04  0.25500000920E-02 0. -1.
       -2   -1    0    0    0  501  0.00000000000E+00  0.00000000000E+00 -0.30164569990E+03  0.30164569991E+03  0.25500000920E-02 0.  1.
    10030    2    1    2    0    0  0.00000000000E+00  0.00000000000E+00  0.18468402319E+04  0.24501316318E+04  0.16100702378E+04 0.  0.
        4    1    3    3  502    0 -0.64186974211E+03 -0.16026965090E+03  0.22540606800E+03  0.69892248156E+03  0.12699999809E+01 0.  1.
       -4    1    3    3    0  502  0.64186974211E+03  0.16026965090E+03  0.16214341639E+04  0.17512091502E+04  0.12699999809E+01 0. -1.
</event>
<event>
 5   0  0.9726935E-05  0.1596606E+04  0.7818609E-02  0.8822636E-01
        1   -1    0    0  501    0  0.00000000000E+00  0.00000000000E+00  0.75091563881E+03  0.75091563882E+03  0.50400001928E-02 0. -1.
       -1   -1    0    0    0  501  0.00000000000E+00  0.00000000000E+00 -0.84868102596E+03  0.84868102597E+03  0.50400001928E-02 0.  1.
    10030    2    1    2    0    0  0.00000000000E+00  0.00000000000E+00 -0.97765387150E+02  0.15995966648E+04  0.15966062192E+04 0.  0.
        2    1    3    3  502    0 -0.24463876640E+03  0.56653448374E+03 -0.55626822357E+03  0.83080911397E+03  0.25500000920E-02 0.  1.
       -2    1    3    3    0  502  0.24463876640E+03 -0.56653448374E+03  0.45850283642E+03  0.76878755083E+03  0.25500000920E-02 0. -1.
</event>
<event>
 5   0  0.1835088E-04  0.1569505E+04  0.7818609E-02  0.8839504E-01
       -2   -1    0    0    0  501  0.00000000000E+00  0.00000000000E+00  0.49643913454E+03  0.49643913455E+03  0.25500000920E-02 0.  1.
        2   -1    0    0  501    0  0.00000000000E+00  0.00000000000E+00 -0.12405079276E+04  0.12405079276E+04  0.25500000920E-02 0. -1.
    10030    2    1    2    0    0  0.00000000000E+00  0.00000000000E+00 -0.74406879310E+03  0.17369470622E+04  0.15695052494E+04 0.  0.
        5    1    3    3  502    0 -0.10785830081E+03  0.68897811943E+03 -0.77027219509E+03  0.10390695870E+04  0.46999998093E+01 0.  1.
       -5    1    3    3    0  502  0.10785830081E+03 -0.68897811943E+03  0.26203401997E+02  0.69787747519E+03  0.46999998093E+01 0. -1.
</event>
<event>
 5   0  0.1835088E-04  0.1601755E+04  0.7818609E-02  0.8819470E-01
        2   -1    0    0  501    0  0.00000000000E+00  0.00000000000E+00  0.39938621057E+03  0.39938621058E+03  0.25500000920E-02 0. -1.
       -2   -1    0    0    0  501  0.00000000000E+00  0.00000000000E+00 -0.16059770224E+04  0.16059770224E+04  0.25500000920E-02 0.  1.
    10030    2    1    2    0    0  0.00000000000E+00  0.00000000000E+00 -0.12065908118E+04  0.20053632330E+04  0.16017553836E+04 0.  0.
        5    1    3    3  502    0  0.61514208022E+03  0.37827750882E+03 -0.10367934386E+04  0.12635095476E+04  0.46999998093E+01 0. -1.
       -5    1    3    3    0  502 -0.61514208022E+03 -0.37827750882E+03 -0.16979737321E+03  0.74185368536E+03  0.46999998093E+01 0.  1.
</event>
<event>
 5   0  0.1914170E-04  0.1588884E+04  0.7818609E-02  0.8827406E-01
        2   -1    0    0  501    0  0.00000000000E+00  0.00000000000E+00  0.11666940595E+04  0.11666940595E+04  0.25500000920E-02 0.  1.
       -2   -1    0    0    0  501  0.00000000000E+00  0.00000000000E+00 -0.54096299802E+03  0.54096299803E+03  0.25500000920E-02 0. -1.
    10030    2    1    2    0    0  0.00000000000E+00  0.00000000000E+00  0.62573106149E+03  0.17076570575E+04  0.15888842830E+04 0.  0.
        3    1    3    3  502    0  0.59583191289E+03 -0.52336986930E+03  0.36335164176E+03  0.87232798550E+03  0.10100000352E+00 0. -1.
       -3    1    3    3    0  502 -0.59583191289E+03  0.52336986930E+03  0.26237941973E+03  0.83532907205E+03  0.10100000352E+00 0.  1.
</event>
<event>
 5   0  0.1835088E-04  0.1546967E+04  0.7818609E-02  0.8853807E-01
       -2   -1    0    0    0  501  0.00000000000E+00  0.00000000000E+00  0.74185584362E+03  0.74185584363E+03  0.25500000920E-02 0.  1.
        2   -1    0    0  501    0  0.00000000000E+00  0.00000000000E+00 -0.80645981909E+03  0.80645981910E+03  0.25500000920E-02 0. -1.
    10030    2    1    2    0    0  0.00000000000E+00  0.00000000000E+00 -0.64603975467E+02  0.15483156627E+04  0.15469672646E+04 0.  0.
        5    1    3    3  502    0 -0.51671987731E+03  0.25185370878E+03 -0.55027130605E+03  0.79577026992E+03  0.46999998093E+01 0. -1.
       -5    1    3    3    0  502  0.51671987731E+03 -0.25185370878E+03  0.48566733059E+03  0.75254539280E+03  0.46999998093E+01 0.  1.
</event>
<event>
 5   0  0.1832646E-04  0.1566329E+04  0.7818609E-02  0.8841505E-01
        2   -1    0    0  501    0  0.00000000000E+00  0.00000000000E+00  0.13895514718E+04  0.13895514718E+04  0.25500000920E-02 0. -1.
       -2   -1    0    0    0  501  0.00000000000E+00  0.00000000000E+00 -0.44139898987E+03  0.44139898988E+03  0.25500000920E-02 0.  1.
    10030    2    1    2    0    0  0.00000000000E+00  0.00000000000E+00  0.94815248188E+03  0.18309504616E+04  0.15663289770E+04 0.  0.
        2    1    3    3  502    0 -0.28760999281E+03 -0.66277008388E+03  0.82740468980E+03  0.10984453618E+04  0.25500000920E-02 0. -1.
       -2    1    3    3    0  502  0.28760999281E+03  0.66277008388E+03  0.12074779208E+03  0.73250509988E+03  0.25500000920E-02 0.  1.
</event>
<event>
 5   0  0.1835088E-04  0.1597977E+04  0.7818609E-02  0.8821792E-01
        2   -1    0    0  501    0  0.00000000000E+00  0.00000000000E+00  0.16884541860E+04  0.16884541860E+04  0.25500000920E-02 0.  1.
       -2   -1    0    0    0  501  0.00000000000E+00  0.00000000000E+00 -0.37808699729E+03  0.37808699730E+03  0.25500000920E-02 0. -1.
    10030    2    1    2    0    0  0.00000000000E+00  0.00000000000E+00  0.13103671887E+04  0.20665411833E+04  0.15979769376E+04 0.  0.
        5    1    3    3  502    0  0.14804621344E+03 -0.27643096565E+03 -0.29516292252E+03  0.43066808671E+03  0.46999998093E+01 0. -1.
       -5    1    3    3    0  502 -0.14804621344E+03  0.27643096565E+03  0.16055301112E+04  0.16358730966E+04  0.46999998093E+01 0.  1.
</event>
<event>
 5   0  0.1832646E-04  0.1598163E+04  0.7818609E-02  0.8821678E-01
       -2   -1    0    0    0  501  0.00000000000E+00  0.00000000000E+00  0.42951130232E+03  0.42951130233E+03  0.25500000920E-02 0. -1.
        2   -1    0    0  501    0  0.00000000000E+00  0.00000000000E+00 -0.14866450771E+04  0.14866450771E+04  0.25500000920E-02 0.  1.
    10030    2    1    2    0    0  0.00000000000E+00  0.00000000000E+00 -0.10571337748E+04  0.19161563794E+04  0.15981625238E+04 0.  0.
        2    1    3    3  502    0  0.16992095469E+03 -0.45364379895E+03 -0.12905198028E+04  0.13784437561E+04  0.25500000920E-02 0.  1.
       -2    1    3    3    0  502 -0.16992095469E+03  0.45364379895E+03  0.23338602808E+03  0.53771262332E+03  0.25500000920E-02 0. -1.
</event>
<event>
 5   0  0.1858913E-04  0.1610341E+04  0.7818609E-02  0.8814220E-01
        2   -1    0    0  501    0  0.00000000000E+00  0.00000000000E+00  0.12292680937E+04  0.12292680937E+04  0.25500000920E-02 0. -1.
       -2   -1    0    0    0  501  0.00000000000E+00  0.00000000000E+00 -0.52738682372E+03  0.52738682373E+03  0.25500000920E-02 0.  1.
    10030    2    1    2    0    0  0.00000000000E+00  0.00000000000E+00  0.70188126995E+03  0.17566549174E+04  0.16103413246E+04 0.  0.
        4    1    3    3  502    0  0.38480893205E+03  0.54654519474E+03 -0.13874270711E+03  0.68267174818E+03  0.12699999809E+01 0.  1.
       -4    1    3    3    0  502 -0.38480893205E+03 -0.54654519474E+03  0.84062397706E+03  0.10739831692E+04  0.12699999809E+01 0. -1.
</event>
<event>
 5   0  0.1774934E-04  0.1602389E+04  0.7818609E-02  0.8819082E-01
       -2   -1    0    0    0  501  0.00000000000E+00  0.00000000000E+00  0.40158335338E+03  0.40158335339E+03  0.25500000920E-02 0.  1.
        2   -1    0    0  501    0  0.00000000000E+00  0.00000000000E+00 -0.15984533827E+04  0.15984533827E+04  0.25500000920E-02 0. -1.
    10030    2    1    2    0    0  0.00000000000E+00  0.00000000000E+00 -0.11968700293E+04  0.20000367361E+04  0.16023885542E+04 0.  0.
        1    1    3    3  502    0 -0.78781869312E+02 -0.70271791368E+03 -0.10686007348E+04  0.12813768297E+04  0.50400001928E-02 0. -1.
       -1    1    3    3    0  502  0.78781869312E+02  0.70271791368E+03 -0.12826929449E+03  0.71865990641E+03  0.50400001928E-02 0.  1.
</event>
<event>
 5   0  0.9673017E-05  0.1600001E+04  0.7818609E-02  0.8820548E-01
       -1   -1    0    0    0  501  0.00000000000E+00  0.00000000000E+00  0.76895145659E+03  0.76895145661E+03  0.50400001928E-02 0. -1.
        1   -1    0    0  501    0  0.00000000000E+00  0.00000000000E+00 -0.83230307335E+03  0.83230307337E+03  0.50400001928E-02 0.  1.
    10030    2    1    2    0    0  0.00000000000E+00  0.00000000000E+00 -0.63351616761E+02  0.16012545300E+04  0.16000008258E+04 0.  0.
        1    1    3    3  502    0 -0.93515051143E+01 -0.22346252848E+03  0.73702611173E+03  0.77021454263E+03  0.50400001928E-02 0. -1.
       -1    1    3    3    0  502  0.93515051143E+01  0.22346252848E+03 -0.80037772849E+03  0.83103998734E+03  0.50400001928E-02 0.  1.
</event>
<event>
 5   0  0.9616567E-05  0.1607867E+04  0.7818609E-02  0.8815730E-01
        1   -1    0    0  501    0  0.00000000000E+00  0.00000000000E+00  0.10816843506E+04  0.10816843506E+04  0.50400001928E-02 0.  1.
       -1   -1    0    0    0  501  0.00000000000E+00  0.00000000000E+00 -0.59750221401E+03  0.59750221403E+03  0.50400001928E-02 0. -1.
    10030    2    1    2    0    0  0.00000000000E+00  0.00000000000E+00  0.48418213658E+03  0.16791865646E+04  0.16078666541E+04 0.  0.
        5    1    3    3  502    0 -0.38922082670E+03 -0.33053407423E+03  0.89055264980E+03  0.10265728120E+04  0.46999998093E+01 0.  1.
       -5    1    3    3    0  502  0.38922082670E+03  0.33053407423E+03 -0.40637051322E+03  0.65261375268E+03  0.46999998093E+01 0. -1.
</event>
<event>
 5   0  0.9726935E-05  0.1587671E+04  0.7818609E-02  0.8828158E-01
       -1   -1    0    0    0  501  0.00000000000E+00  0.00000000000E+00  0.87341605547E+03  0.87341605548E+03  0.50400001928E-02 0.  1.
        1   -1    0    0  501    0  0.00000000000E+00  0.00000000000E+00 -0.72150564331E+03  0.72150564333E+03  0.50400001928E-02 0. -1.
    10030    2    1    2    0    0  0.00000000000E+00  0.00000000000E+00  0.15191041216E+03  0.15949216988E+04  0.15876707631E+04 0.  0.
        2    1    3    3  502    0  0.55736359793E+03  0.56302886215E+03  0.25537017860E+02  0.79265870284E+03  0.25500000920E-02 0. -1.
       -2    1    3    3    0  502 -0.55736359793E+03 -0.56302886215E+03  0.12637339430E+03  0.80226299597E+03  0.25500000920E-02 0.  1.
</event>
<event>
 5   0  0.9616567E-05  0.1599851E+04  0.7818609E-02  0.8820639E-01
        1   -1    0    0  501    0  0.00000000000E+00  0.00000000000E+00  0.14408225358E+04  0.14408225358E+04  0.50400001928E-02 0. -1.
       -1   -1    0    0    0  501  0.00000000000E+00  0.00000000000E+00 -0.44410808560E+03  0.44410808562E+03  0.50400001928E-02 0.  1.
    10030    2    1    2    0    0  0.00000000000E+00  0.00000000000E+00  0.99671445021E+03  0.18849306214E+04  0.15998511657E+04 0.  0.
        5    1    3    3  502    0 -0.71673215543E+02  0.39465101961E+03  0.13137578104E+04  0.13736331940E+04  0.46999998093E+01 0. -1.
       -5    1    3    3    0  502  0.71673215543E+02 -0.39465101961E+03 -0.31704336020E+03  0.51129742749E+03  0.46999998093E+01 0.  1.
</event>
<event>
 5   0  0.1774934E-04  0.1601008E+04  0.7818609E-02  0.8819929E-01
        2   -1    0    0  501    0  0.00000000000E+00  0.00000000000E+00  0.66467891529E+03  0.66467891530E+03  0.25500000920E-02 0.  1.
       -2   -1    0    0    0  501  0.00000000000E+00  0.00000000000E+00 -0.96408423714E+03  0.96408423714E+03  0.25500000920E-02 0. -1.
    10030    2    1    2    0    0  0.00000000000E+00  0.00000000000E+00 -0.29940532185E+03  0.16287631524E+04  0.16010077639E+04 0.  0.
        1    1    3    3  502    0 -0.25788530478E+03  0.68263271590E+03 -0.48451944096E+03  0.87592884639E+03  0.50400001928E-02 0. -1.
       -1    1    3    3    0  502  0.25788530478E+03 -0.68263271590E+03  0.18511411911E+03  0.75283430605E+03  0.50400001928E-02 0.  1.
</event>
<event>
 5   0  0.1858913E-04  0.1619753E+04  0.7818609E-02  0.8808504E-01
        2   -1    0    0  501    0  0.00000000000E+00  0.00000000000E+00  0.69471854216E+03  0.69471854216E+03  0.25500000920E-02 0. -1.
       -2   -1    0    0    0  501  0.00000000000E+00  0.00000000000E+00 -0.94412330512E+03  0.94412330512E+03  0.25500000920E-02 0.  1.
    10030    2    1    2    0    0  0.00000000000E+00  0.00000000000E+00 -0.24940476297E+03  0.16388418473E+04  0.16197530258E+04 0.  0.
        4    1    3    3  502    0  0.38982079506E+03 -0.91968071352E+02  0.58749651844E+03  0.71103596989E+03  0.12699999809E+01 0. -1.
       -4    1    3    3    0  502 -0.38982079506E+03  0.91968071352E+02 -0.83690128140E+03  0.92780587739E+03  0.12699999809E+01 0.  1.
</event>
<event>
 5   0  0.9432152E-05  0.1606335E+04  0.7818609E-02  0.8816666E-01
       -1   -1    0    0    0  501  0.00000000000E+00  0.00000000000E+00  0.50275162204E+03  0.50275162206E+03  0.50400001928E-02 0. -1.
        1   -1    0    0  501    0  0.00000000000E+00  0.00000000000E+00 -0.12830944484E+04  0.12830944484E+04  0.50400001928E-02 0.  1.
    10030    2    1    2    0    0  0.00000000000E+00  0.00000000000E+00 -0.78034282636E+03  0.17858460705E+04  0.16063347287E+04 0.  0.
        4    1    3    3  502    0 -0.27937047137E+03 -0.12869201299E+03 -0.12150186097E+04  0.12533480479E+04  0.12699999809E+01 0.  1.
       -4    1    3    3    0  502  0.27937047137E+03  0.12869201299E+03  0.43467578333E+03  0.53249802253E+03  0.12699999809E+01 0. -1.
</event>
<event>
 5   0  0.9726935E-05  0.1599917E+04  0.7818609E-02  0.8820599E-01
        1   -1    0    0  501    0  0.00000000000E+00  0.00000000000E+00  0.28015060343E+03  0.28015060348E+03  0.50400001928E-02 0. -1.
       -1   -1    0    0    0  501  0.00000000000E+00  0.00000000000E+00 -0.22842489810E+04  0.22842489810E+04  0.50400001928E-02 0.  1.
    10030    2    1    2    0    0  0.00000000000E+00  0.00000000000E+00 -0.20040983776E+04  0.25643995845E+04  0.15999171610E+04 0.  0.
        2    1    3    3  502    0  0.56273472366E+03  0.55028810019E+03 -0.12312395179E+04  0.14613138311E+04  0.25500000920E-02 0. -1.
       -2    1    3    3    0  502 -0.56273472366E+03 -0.55028810019E+03 -0.77285885970E+03  0.11030857534E+04  0.25500000920E-02 0.  1.
</event>
<event>
 5   0  0.9726935E-05  0.1647520E+04  0.7818609E-02  0.8791875E-01
       -1   -1    0    0    0  501  0.00000000000E+00  0.00000000000E+00  0.77256086292E+03  0.77256086294E+03  0.50400001928E-02 0. -1.
        1   -1    0    0  501    0  0.00000000000E+00  0.00000000000E+00 -0.87835232603E+03  0.87835232604E+03  0.50400001928E-02 0.  1.
    10030    2    1    2    0    0  0.00000000000E+00  0.00000000000E+00 -0.10579146311E+03  0.16509131890E+04  0.16475201133E+04 0.  0.
        2    1    3    3  502    0 -0.40015321092E+03  0.66886616941E+03  0.21425432128E+03  0.80833746603E+03  0.25500000920E-02 0. -1.
       -2    1    3    3    0  502  0.40015321092E+03 -0.66886616941E+03 -0.32004578439E+03  0.84257572295E+03  0.25500000920E-02 0.  1.
</event>
<event>
 5   0  0.1832646E-04  0.1600550E+04  0.7818609E-02  0.8820210E-01
       -2   -1    0    0    0  501  0.00000000000E+00  0.00000000000E+00  0.18629933492E+04  0.18629933492E+04  0.25500000920E-02 0. -1.
        2   -1    0    0  501    0  0.00000000000E+00  0.00000000000E+00 -0.34376920911E+03  0.34376920912E+03  0.25500000920E-02 0.  1.
    10030    2    1    2    0    0  0.00000000000E+00  0.00000000000E+00  0.15192241401E+04  0.22067625583E+04  0.16005495934E+04 0.  0.
        2    1    3    3  502    0 -0.27996348614E+03  0.42093468455E+03 -0.95741877801E+02  0.51452120403E+03  0.25500000920E-02 0.  1.
       -2    1    3    3    0  502  0.27996348614E+03 -0.42093468455E+03  0.16149660179E+04  0.16922413543E+04  0.25500000920E-02 0. -1.
</event>
<event>
 5   0  0.9673017E-05  0.1597039E+04  0.7818609E-02  0.8822369E-01
        1   -1    0    0  501    0  0.00000000000E+00  0.00000000000E+00  0.15412242116E+04  0.15412242116E+04  0.50400001928E-02 0. -1.
       -1   -1    0    0    0  501  0.00000000000E+00  0.00000000000E+00 -0.41371879879E+03  0.41371879883E+03  0.50400001928E-02 0.  1.
    10030    2    1    2    0    0  0.00000000000E+00  0.00000000000E+00  0.11275054128E+04  0.19549430104E+04  0.15970390471E+04 0.  0.
        1    1    3    3  502    0 -0.20670788242E+03 -0.74156664020E+03  0.30412647902E+03  0.82773313682E+03  0.50400001928E-02 0.  1.
       -1    1    3    3    0  502  0.20670788242E+03  0.74156664020E+03  0.82337893374E+03  0.11272098736E+04  0.50400001928E-02 0. -1.
</event>
<event>
 5   0  0.9726935E-05  0.1601084E+04  0.7818609E-02  0.8819882E-01
        1   -1    0    0  501    0  0.00000000000E+00  0.00000000000E+00  0.87364189130E+03  0.87364189132E+03  0.50400001928E-02 0. -1.
       -1   -1    0    0    0  501  0.00000000000E+00  0.00000000000E+00 -0.73355854328E+03  0.73355854330E+03  0.50400001928E-02 0.  1.
    10030    2    1    2    0    0  0.00000000000E+00  0.00000000000E+00  0.14008334802E+03  0.16072004346E+04  0.16010839743E+04 0.  0.
        2    1    3    3  502    0 -0.38810197695E+03 -0.27652553657E+03  0.71575478653E+03  0.85988047503E+03  0.25500000920E-02 0. -1.
       -2    1    3    3    0  502  0.38810197695E+03  0.27652553657E+03 -0.57567143851E+03  0.74731995959E+03  0.25500000920E-02 0.  1.
</event>
<event>
 5   0  0.9939872E-05  0.1601488E+04  0.7818609E-02  0.8819634E-01
        1   -1    0    0  501    0  0.00000000000E+00  0.00000000000E+00  0.14290168188E+04  0.14290168189E+04  0.50400001928E-02 0.  1.
       -1   -1    0    0    0  501  0.00000000000E+00  0.00000000000E+00 -0.44869391283E+03  0.44869391286E+03  0.50400001928E-02 0. -1.
    10030    2    1    2    0    0  0.00000000000E+00  0.00000000000E+00  0.98032290602E+03  0.18777107317E+04  0.16014882428E+04 0.  0.
        3    1    3    3  502    0  0.50902364865E+03 -0.92553191085E+02 -0.22641386748E+03  0.56474278893E+03  0.10100000352E+00 0. -1.
       -3    1    3    3    0  502 -0.50902364865E+03  0.92553191085E+02  0.12067367735E+04  0.13129679428E+04  0.10100000352E+00 0.  1.
</event>
<event>
 5   0  0.9432152E-05  0.1487115E+04  0.7818609E-02  0.8893067E-01
        1   -1    0    0  501    0  0.00000000000E+00  0.00000000000E+00  0.79899069954E+03  0.79899069955E+03  0.50400001928E-02 0. -1.
       -1   -1    0    0    0  501  0.00000000000E+00  0.00000000000E+00 -0.69197037765E+03  0.69197037766E+03  0.50400001928E-02 0.  1.
    10030    2    1    2    0    0  0.00000000000E+00  0.00000000000E+00  0.10702032189E+03  0.14909610772E+04  0.14871151887E+04 0.  0.
        4    1    3    3  502    0 -0.51174036259E+03  0.23226032746E+03 -0.43463010173E+03  0.71044211350E+03  0.12699999809E+01 0.  1.
       -4    1    3    3    0  502  0.51174036259E+03 -0.23226032746E+03  0.54165042361E+03  0.78051896371E+03  0.12699999809E+01 0. -1.
</event>
<event>
 5   0  0.1858913E-04  0.1599383E+04  0.7818609E-02  0.8820927E-01
       -2   -1    0    0    0  501  0.00000000000E+00  0.00000000000E+00  0.78859869287E+03  0.78859869287E+03  0.25500000920E-02 0.  1.
        2   -1    0    0  501    0  0.00000000000E+00  0.00000000000E+00 -0.81094076637E+03  0.81094076638E+03  0.25500000920E-02 0. -1.
    10030    2    1    2    0    0  0.00000000000E+00  0.00000000000E+00 -0.22342073503E+02  0.15995394593E+04  0.15993834166E+04 0.  0.
        4    1    3    3  502    0  0.38143747611E+03  0.15545425549E+03 -0.69669005637E+03  0.80934493343E+03  0.12699999809E+01 0. -1.
       -4    1    3    3    0  502 -0.38143747611E+03 -0.15545425549E+03  0.67434798287E+03  0.79019452582E+03  0.12699999809E+01 0.  1.
</event>
<event>
 5   0  0.1832646E-04  0.1615486E+04  0.7818609E-02  0.8811090E-01
       -2   -1    0    0    0  501  0.00000000000E+00  0.00000000000E+00  0.10365173986E+04  0.10365173986E+04  0.25500000920E-02 0.  1.
        2   -1    0    0  501    0  0.00000000000E+00  0.00000000000E+00 -0.62946276460E+03  0.62946276460E+03  0.25500000920E-02 0. -1.
    10030    2    1    2    0    0  0.00000000000E+00  0.00000000000E+00  0.40705463396E+03  0.16659801632E+04  0.16154864373E+04 0.  0.
        2    1    3    3  502    0 -0.63686507755E+03  0.34578447652E+03  0.57144888957E+03  0.92288561838E+03  0.25500000920E-02 0.  1.
       -2    1    3    3    0  502  0.63686507755E+03 -0.34578447652E+03 -0.16439425560E+03  0.74309454479E+03  0.25500000920E-02 0. -1.
</event>
<event>
 5   0  0.1835088E-04  0.1599135E+04  0.7818609E-02  0.8821080E-01
       -2   -1    0    0    0  501  0.00000000000E+00  0.00000000000E+00  0.72323253932E+03  0.72323253932E+03  0.25500000920E-02 0.  1.
        2   -1    0    0  501    0  0.00000000000E+00  0.00000000000E+00 -0.88395888005E+03  0.88395888005E+03  0.25500000920E-02 0. -1.
    10030    2    1    2    0    0  0.00000000000E+00  0.00000000000E+00 -0.16072634073E+03  0.16071914194E+04  0.15991345478E+04 0.  0.
        5    1    3    3  502    0 -0.55023681333E+03  0.71089517804E+02  0.49827312714E+03  0.74572948816E+03  0.46999998093E+01 0.  1.
       -5    1    3    3    0  502  0.55023681333E+03 -0.71089517804E+02 -0.65899946786E+03  0.86146193121E+03  0.46999998093E+01 0. -1.
</event>
<event>
 5   0  0.1914170E-04  0.1598697E+04  0.7818609E-02  0.8821349E-01
        2   -1    0    0  501    0  0.00000000000E+00  0.00000000000E+00  0.98522888509E+03  0.98522888509E+03  0.25500000920E-02 0. -1.
       -2   -1    0    0    0  501  0.00000000000E+00  0.00000000000E+00 -0.64853798246E+03  0.64853798246E+03  0.25500000920E-02 0.  1.
    10030    2    1    2    0    0  0.00000000000E+00  0.00000000000E+00  0.33669090263E+03  0.16337668676E+04  0.15986974115E+04 0.  0.
        3    1    3    3  502    0  0.62513135433E+03 -0.26460538548E+03  0.59968624446E+03  0.90577526031E+03  0.10100000352E+00 0. -1.
       -3    1    3    3    0  502 -0.62513135433E+03  0.26460538548E+03 -0.26299534183E+03  0.72799160724E+03  0.10100000352E+00 0.  1.
</event>
<event>
 5   0  0.1774934E-04  0.1595153E+04  0.7818609E-02  0.8823532E-01
       -2   -1    0    0    0  501  0.00000000000E+00  0.00000000000E+00  0.62496131293E+03  0.62496131294E+03  0.25500000920E-02 0.  1.
        2   -1    0    0  501    0  0.00000000000E+00  0.00000000000E+00 -0.10178676113E+04  0.10178676113E+04  0.25500000920E-02 0. -1.
    10030    2    1    2    0    0  0.00000000000E+00  0.00000000000E+00 -0.39290629837E+03  0.16428289242E+04  0.15951525053E+04 0.  0.
        1    1    3    3  502    0 -0.74850583756E+03 -0.23444248576E+03 -0.47551062082E+02  0.78580237434E+03  0.50400001928E-02 0. -1.
       -1    1    3    3    0  502  0.74850583756E+03  0.23444248576E+03 -0.34535523629E+03  0.85702654991E+03  0.50400001928E-02 0.  1.
</event>
<event>
 5   0  0.9939872E-05  0.1585561E+04  0.7818609E-02  0.8829468E-01
       -1   -1    0    0    0  501  0.00000000000E+00  0.00000000000E+00  0.10781499653E+04  0.10781499653E+04  0.50400001928E-02 0.  1.
        1   -1    0    0  501    0  0.00000000000E+00  0.00000000000E+00 -0.58294415926E+03  0.58294415928E+03  0.50400001928E-02 0. -1.
    10030    2    1    2    0    0  0.00000000000E+00  0.00000000000E+00  0.49520580600E+03  0.16610941246E+04  0.15855613833E+04 0.  0.
        3    1    3    3  502    0 -0.49629353842E+03 -0.37776028740E+03 -0.26508831105E+03  0.67770342619E+03  0.10100000352E+00 0. -1.
       -3    1    3    3    0  502  0.49629353842E+03  0.37776028740E+03  0.76029411705E+03  0.98339069837E+03  0.10100000352E+00 0.  1.
</event>
<event>
 5   0  0.9939872E-05  0.1604683E+04  0.7818609E-02  0.8817676E-01
       -1   -1    0    0    0  501  0.00000000000E+00  0.00000000000E+00  0.45222249383E+03  0.45222249386E+03  0.50400001928E-02 0. -1.
        1   -1    0    0  501    0  0.00000000000E+00  0.00000000000E+00 -0.14235299931E+04  0.14235299931E+04  0.50400001928E-02 0.  1.
    10030    2    1    2    0    0  0.00000000000E+00  0.00000000000E+00 -0.97130749923E+03  0.18757524869E+04  0.16046834997E+04 0.  0.
        3    1    3    3  502    0  0.41328288175E+03  0.26755106237E+03  0.25489970729E+03  0.55440074161E+03  0.10100000352E+00 0. -1.
       -3    1    3    3    0  502 -0.41328288175E+03 -0.26755106237E+03 -0.12262072065E+04  0.13213517453E+04  0.10100000352E+00 0.  1.
</event>
<event>
 5   0  0.1835088E-04  0.1597488E+04  0.7818609E-02  0.8822092E-01
        2   -1    0    0  501    0  0.00000000000E+00  0.00000000000E+00  0.95390512683E+03  0.95390512683E+03  0.25500000920E-02 0.  1.
       -2   -1    0    0    0  501  0.00000000000E+00  0.00000000000E+00 -0.66882155490E+03  0.66882155490E+03  0.25500000920E-02 0. -1.
    10030    2    1    2    0    0  0.00000000000E+00  0.00000000000E+00  0.28508357193E+03  0.16227266817E+04  0.15974884164E+04 0.  0.
        5    1    3    3  502    0  0.67329635090E+03  0.42792519428E+03  0.10290907258E+03  0.80440059377E+03  0.46999998093E+01 0. -1.
       -5    1    3    3    0  502 -0.67329635090E+03 -0.42792519428E+03  0.18217449935E+03  0.81832608797E+03  0.46999998093E+01 0.  1.
</event>
<event>
 5   0  0.9432152E-05  0.1599002E+04  0.7818609E-02  0.8821161E-01
       -1   -1    0    0    0  501  0.00000000000E+00  0.00000000000E+00  0.15699146538E+04  0.15699146538E+04  0.50400001928E-02 0.  1.
        1   -1    0    0  501    0  0.00000000000E+00  0.00000000000E+00 -0.40715716226E+03  0.40715716229E+03  0.50400001928E-02 0. -1.
    10030    2    1    2    0    0  0.00000000000E+00  0.00000000000E+00  0.11627574915E+04  0.19770718161E+04  0.15990021832E+04 0.  0.
        4    1    3    3  502    0 -0.42870930894E+03  0.62744856409E+03  0.27421084570E+03  0.80788400959E+03  0.12699999809E+01 0.  1.
       -4    1    3    3    0  502  0.42870930894E+03 -0.62744856409E+03  0.88854664583E+03  0.11691878065E+04  0.12699999809E+01 0. -1.
</event>
<event>
 5   0  0.1774934E-04  0.1607019E+04  0.7818609E-02  0.8816248E-01
       -2   -1    0    0    0  501  0.00000000000E+00  0.00000000000E+00  0.34268195446E+03  0.34268195447E+03  0.25500000920E-02 0. -1.
        2   -1    0    0  501    0  0.00000000000E+00  0.00000000000E+00 -0.18840427640E+04  0.18840427640E+04  0.25500000920E-02 0.  1.
    10030    2    1    2    0    0  0.00000000000E+00  0.00000000000E+00 -0.15413608095E+04  0.22267247184E+04  0.16070189254E+04 0.  0.
        1    1    3    3  502    0 -0.14893852621E+03 -0.26502213721E+03  0.25991874536E+03  0.39997146401E+03  0.50400001928E-02 0. -1.
       -1    1    3    3    0  502  0.14893852621E+03  0.26502213721E+03 -0.18012795549E+04  0.18267532544E+04  0.50400001928E-02 0.  1.
</event>
<event>
 5   0  0.1914170E-04  0.1598463E+04  0.7818609E-02  0.8821493E-01
        2   -1    0    0  501    0  0.00000000000E+00  0.00000000000E+00  0.55970602808E+03  0.55970602809E+03  0.25500000920E-02 0. -1.
       -2   -1    0    0    0  501  0.00000000000E+00  0.00000000000E+00 -0.11412616938E+04  0.11412616938E+04  0.25500000920E-02 0.  1.
    10030    2    1    2    0    0  0.00000000000E+00  0.00000000000E+00 -0.58155566571E+03  0.17009677219E+04  0.15984630739E+04 0.  0.
        3    1    3    3  502    0  0.29929637290E+03 -0.41644548859E+03 -0.94308497449E+03  0.10735056791E+04  0.10100000352E+00 0.  1.
       -3    1    3    3    0  502 -0.29929637290E+03  0.41644548859E+03  0.36152930878E+03  0.62746204276E+03  0.10100000352E+00 0. -1.
</event>
<event>
 5   0  0.9673017E-05  0.1594646E+04  0.7818609E-02  0.8823844E-01
        1   -1    0    0  501    0  0.00000000000E+00  0.00000000000E+00  0.64603972275E+03  0.64603972277E+03  0.50400001928E-02 0. -1.
       -1   -1    0    0    0  501  0.00000000000E+00  0.00000000000E+00 -0.98403276657E+03  0.98403276658E+03  0.50400001928E-02 0.  1.
    10030    2    1    2    0    0  0.00000000000E+00  0.00000000000E+00 -0.33799304382E+03  0.16300724894E+04  0.15946463630E+04 0.  0.
        1    1    3    3  502    0  0.24339104860E+03 -0.83649093415E+02 -0.94040565253E+03  0.97498675104E+03  0.50400001928E-02 0.  1.
       -1    1    3    3    0  502 -0.24339104860E+03  0.83649093415E+02  0.60241260872E+03  0.65508573831E+03  0.50400001928E-02 0. -1.
</event>
<event>
 5   0  0.1914170E-04  0.1599906E+04  0.7818609E-02  0.8820606E-01
       -2   -1    0    0    0  501  0.00000000000E+00  0.00000000000E+00  0.36656067061E+03  0.36656067061E+03  0.25500000920E-02 0. -1.
        2   -1    0    0  501    0  0.00000000000E+00  0.00000000000E+00 -0.17457535134E+04  0.17457535134E+04  0.25500000920E-02 0.  1.
    10030    2    1    2    0    0  0.00000000000E+00  0.00000000000E+00 -0.13791928428E+04  0.21123141840E+04  0.15999057205E+04 0.  0.
        3    1    3    3  502    0 -0.60364122972E+03  0.13025244182E+03 -0.13609608769E+04  0.14945109405E+04  0.10100000352E+00 0.  1.
       -3    1    3    3    0  502  0.60364122972E+03 -0.13025244182E+03 -0.18231965879E+02  0.61780324343E+03  0.10100000352E+00 0. -1.
</event>
<event>
 5   0  0.1774934E-04  0.1603227E+04  0.7818609E-02  0.8818568E-01
        2   -1    0    0  501    0  0.00000000000E+00  0.00000000000E+00  0.15373036798E+04  0.15373036798E+04  0.25500000920E-02 0.  1.
       -2   -1    0    0    0  501  0.00000000000E+00  0.00000000000E+00 -0.41799451367E+03  0.41799451368E+03  0.25500000920E-02 0. -1.
    10030    2    1    2    0    0  0.00000000000E+00  0.00000000000E+00  0.11193091661E+04  0.19552981935E+04  0.16032273750E+04 0.  0.
        1    1    3    3  502    0  0.27884435719E+03 -0.48983533218E+03  0.12548184195E+04  0.13755951781E+04  0.50400001928E-02 0.  1.
       -1    1    3    3    0  502 -0.27884435719E+03  0.48983533218E+03 -0.13550925339E+03  0.57970301532E+03  0.50400001928E-02 0. -1.
</event>
<event>
 5   0  0.9726935E-05  0.1600779E+04  0.7818609E-02  0.8820070E-01
       -1   -1    0    0    0  501  0.00000000000E+00  0.00000000000E+00  0.39846474450E+03  0.39846474453E+03  0.50400001928E-02 0.  1.
        1   -1    0    0  501    0  0.00000000000E+00  0.00000000000E+00 -0.16077289906E+04  0.16077289906E+04  0.50400001928E-02 0. -1.
    10030    2    1    2    0    0  0.00000000000E+00  0.00000000000E+00 -0.12092642461E+04  0.20061937352E+04  0.16007789623E+04 0.  0.
        2    1    3    3  502    0  0.78634395467E+03  0.14670500895E+03 -0.56998797336E+03  0.98221457150E+03  0.25500000920E-02 0.  1.
       -2    1    3    3    0  502 -0.78634395467E+03 -0.14670500895E+03 -0.63927627278E+03  0.10239791637E+04  0.25500000920E-02 0. -1.
</event>
<event>
 5   0  0.1858913E-04  0.1605762E+04  0.7818609E-02  0.8817016E-01
       -2   -1    0    0    0  501  0.00000000000E+00  0.00000000000E+00  0.15538217447E+04  0.15538217447E+04  0.25500000920E-02 0. -1.
        2   -1    0    0  501    0  0.00000000000E+00  0.00000000000E+00 -0.41485945877E+03  0.41485945878E+03  0.25500000920E-02 0.  1.
    10030    2    1    2    0    0  0.00000000000E+00  0.00000000000E+00  0.11389622859E+04  0.19686812035E+04  0.16057616860E+04 0.  0.
        4    1    3    3  502    0 -0.22258701290E+03  0.58183006830E+02  0.15125423377E+04  0.15299399259E+04  0.12699999809E+01 0. -1.
       -4    1    3    3    0  502  0.22258701290E+03 -0.58183006830E+02 -0.37358005182E+03  0.43874127754E+03  0.12699999809E+01 0.  1.
</event>
<event>
 5   0  0.1832646E-04  0.1506962E+04  0.7818609E-02  0.8879836E-01
       -2   -1    0    0    0  501  0.00000000000E+00  0.00000000000E+00  0.55681005949E+03  0.55681005950E+03  0.25500000920E-02 0. -1.
        2   -1    0    0  501    0  0.00000000000E+00  0.00000000000E+00 -0.10196180386E+04  0.10196180386E+04  0.25500000920E-02 0.  1.
    10030    2    1    2    0    0  0.00000000000E+00  0.00000000000E+00 -0.46280797913E+03  0.15764280981E+04  0.15069619514E+04 0.  0.
        2    1    3    3  502    0  0.15521148634E+03 -0.68724643102E+03 -0.51080256128E+03  0.87023992040E+03  0.25500000920E-02 0.  1.
       -2    1    3    3    0  502 -0.15521148634E+03  0.68724643102E+03  0.47994582154E+02  0.70618817773E+03  0.25500000920E-02 0. -1.
</event>
<event>
 5   0  0.9939872E-05  0.1600716E+04  0.7818609E-02  0.8820108E-01
        1   -1    0    0  501    0  0.00000000000E+00  0.00000000000E+00  0.15194076696E+04  0.15194076696E+04  0.50400001928E-02 0. -1.
       -1   -1    0    0    0  501  0.00000000000E+00  0.00000000000E+00 -0.42159398353E+03  0.42159398356E+03  0.50400001928E-02 0.  1.
    10030    2    1    2    0    0  0.00000000000E+00  0.00000000000E+00  0.10978136860E+04  0.19410016531E+04  0.16007162548E+04 0.  0.
        3    1    3    3  502    0 -0.37988324754E+03  0.70344380568E+03  0.59473947850E+03  0.99642336735E+03  0.10100000352E+00 0. -1.
       -3    1    3    3    0  502  0.37988324754E+03 -0.70344380568E+03  0.50307420753E+03  0.94457828579E+03  0.10100000352E+00 0.  1.
</event>
<event>
 5   0  0.9432152E-05  0.1597811E+04  0.7818609E-02  0.8821894E-01
        1   -1    0    0  501    0  0.00000000000E+00  0.00000000000E+00  0.67949045911E+03  0.67949045913E+03  0.50400001928E-02 0.  1.
       -1   -1    0    0    0  501  0.00000000000E+00  0.00000000000E+00 -0.93930721652E+03  0.93930721654E+03  0.50400001928E-02 0. -1.
    10030    2    1    2    0    0  0.00000000000E+00  0.00000000000E+00 -0.25981675742E+03  0.16187976757E+04  0.15978113679E+04 0.  0.
        4    1    3    3  502    0 -0.37467147742E+03 -0.44685166112E+03 -0.68315171597E+03  0.89819430135E+03  0.12699999809E+01 0. -1.
       -4    1    3    3    0  502  0.37467147742E+03  0.44685166112E+03  0.42333495856E+03  0.72060337432E+03  0.12699999809E+01 0.  1.
</event>
<event>
 5   0  0.9616567E-05  0.1601945E+04  0.7818609E-02  0.8819354E-01
       -1   -1    0    0    0  501  0.00000000000E+00  0.00000000000E+00  0.68195634040E+03  0.68195634041E+03  0.50400001928E-02 0. -1.
        1   -1    0    0  501    0  0.00000000000E+00  0.00000000000E+00 -0.94075907950E+03  0.94075907951E+03  0.50400001928E-02 0.  1.
    10030    2    1    2    0    0  0.00000000000E+00  0.00000000000E+00 -0.25880273910E+03  0.16227154199E+04  0.16019445921E+04 0.  0.
        5    1    3    3  502    0 -0.41765386609E+03 -0.33492478201E+03 -0.73288190979E+03  0.90760528048E+03  0.46999998093E+01 0.  1.
       -5    1    3    3    0  502  0.41765386609E+03  0.33492478201E+03  0.47407917069E+03  0.71511013945E+03  0.46999998093E+01 0. -1.
</event>
<event>
 5   0  0.9432152E-05  0.1601066E+04  0.7818609E-02  0.8819893E-01
       -1   -1    0    0    0  501  0.00000000000E+00  0.00000000000E+00  0.29424430978E+03  0.29424430982E+03  0.50400001928E-02 0. -1.
        1   -1    0    0  501    0  0.00000000000E+00  0.00000000000E+00 -0.21779623725E+04  0.21779623726E+04  0.50400001928E-02 0.  1.
    10030    2    1    2    0    0  0.00000000000E+00  0.00000000000E+00 -0.18837180628E+04  0.24722066824E+04  0.16010659388E+04 0.  0.
        4    1    3    3  502    0 -0.32341978035E+03 -0.17438164671E+03 -0.20400630976E+04  0.20728888943E+04  0.12699999809E+01 0.  1.
       -4    1    3    3    0  502  0.32341978035E+03  0.17438164671E+03  0.15634503485E+03  0.39931778805E+03  0.12699999809E+01 0. -1.
</event>
<event>
 5   0  0.9673017E-05  0.1596202E+04  0.7818609E-02  0.8822885E-01
        1   -1    0    0  501    0  0.00000000000E+00  0.00000000000E+00  0.88625582064E+03  0.88625582066E+03  0.50400001928E-02 0.  1.
       -1   -1    0    0    0  501  0.00000000000E+00  0.00000000000E+00 -0.71871446114E+03  0.71871446115E+03  0.50400001928E-02 0. -1.
    10030    2    1    2    0    0  0.00000000000E+00  0.00000000000E+00  0.16754135951E+03  0.16049702818E+04  0.15962015845E+04 0.  0.
        1    1    3    3  502    0 -0.27353876239E+02  0.70417130407E+03 -0.29293314673E+03  0.76316137776E+03  0.50400001928E-02 0. -1.
       -1    1    3    3    0  502  0.27353876239E+02 -0.70417130407E+03  0.46047450623E+03  0.84180890405E+03  0.50400001928E-02 0.  1.
</event>
<event>
 5   0  0.1835088E-04  0.1601300E+04  0.7818609E-02  0.8819750E-01
       -2   -1    0    0    0  501  0.00000000000E+00  0.00000000000E+00  0.64080879902E+03  0.64080879903E+03  0.25500000920E-02 0.  1.
        2   -1    0    0  501    0  0.00000000000E+00  0.00000000000E+00 -0.10003612279E+04  0.10003612279E+04  0.25500000920E-02 0. -1.
    10030    2    1    2    0    0  0.00000000000E+00  0.00000000000E+00 -0.35955242886E+03  0.16411700269E+04  0.16012998183E+04 0.  0.
        5    1    3    3  502    0 -0.35502789936E+03  0.68051037535E+03 -0.41321700683E+03  0.87172791915E+03  0.46999998093E+01 0. -1.
       -5    1    3    3    0  502  0.35502789936E+03 -0.68051037535E+03  0.53664577964E+02  0.76944210777E+03  0.46999998093E+01 0.  1.
</event>
<event>
 5   0  0.9432152E-05  0.1601689E+04  0.7818609E-02  0.8819511E-01
       -1   -1    0    0    0  501  0.00000000000E+00  0.00000000000E+00  0.48607663448E+03  0.48607663450E+03  0.50400001928E-02 0. -1.
        1   -1    0    0  501    0  0.00000000000E+00  0.00000000000E+00 -0.13194466847E+04  0.13194466847E+04  0.50400001928E-02 0.  1.
    10030    2    1    2    0    0  0.00000000000E+00  0.00000000000E+00 -0.83337005019E+03  0.18055233192E+04  0.16016893630E+04 0.  0.
        4    1    3    3  502    0 -0.71682315262E+03 -0.32735416514E+03 -0.57751021150E+03  0.97699326449E+03  0.12699999809E+01 0. -1.
       -4    1    3    3    0  502  0.71682315262E+03  0.32735416514E+03 -0.25585983870E+03  0.82853005469E+03  0.12699999809E+01 0.  1.
</event>
<event>
 5   0  0.6838750E-05  0.1606752E+04  0.7818609E-02  0.8816411E-01
       -4   -1    0    0    0  501  0.00000000000E+00  0.00000000000E+00  0.62405670028E+03  0.62405799254E+03  0.12699999809E+01 0.  1.
        4   -1    0    0  501    0  0.00000000000E+00  0.00000000000E+00 -0.10342191485E+04  0.10342199283E+04  0.12699999809E+01 0. -1.
    10030    2    1    2    0    0  0.00000000000E+00  0.00000000000E+00 -0.41016244826E+03  0.16582779208E+04  0.16067521367E+04 0.  0.
        2    1    3    3  502    0 -0.34915451173E+03 -0.14805478706E+03  0.52585632996E+03  0.64834710826E+03  0.25500000920E-02 0.  1.
       -2    1    3    3    0  502  0.34915451173E+03  0.14805478706E+03 -0.93601877822E+03  0.10099308126E+04  0.25500000920E-02 0. -1.
</event>
<event>
 5   0  0.1914170E-04  0.1598655E+04  0.7818609E-02  0.8821375E-01
        2   -1    0    0  501    0  0.00000000000E+00  0.00000000000E+00  0.22242173952E+04  0.22242173952E+04  0.25500000920E-02 0.  1.
       -2   -1    0    0    0  501  0.00000000000E+00  0.00000000000E+00 -0.28725797046E+03  0.28725797047E+03  0.25500000920E-02 0. -1.
    10030    2    1    2    0    0  0.00000000000E+00  0.00000000000E+00  0.19369594248E+04  0.25114753657E+04  0.15986546529E+04 0.  0.
        3    1    3    3  502    0 -0.72750889155E+03 -0.29882451097E+03  0.11926361954E+04  0.14286169467E+04  0.10100000352E+00 0.  1.
       -3    1    3    3    0  502  0.72750889155E+03  0.29882451097E+03  0.74432322943E+03  0.10828584190E+04  0.10100000352E+00 0. -1.
</event>
<event>
 5   0  0.1914170E-04  0.1592048E+04  0.7818609E-02  0.8825448E-01
       -2   -1    0    0    0  501  0.00000000000E+00  0.00000000000E+00  0.62535531135E+03  0.62535531135E+03  0.25500000920E-02 0. -1.
        2   -1    0    0  501    0  0.00000000000E+00  0.00000000000E+00 -0.10132709630E+04  0.10132709630E+04  0.25500000920E-02 0.  1.
    10030    2    1    2    0    0  0.00000000000E+00  0.00000000000E+00 -0.38791565164E+03  0.16386262743E+04  0.15920482135E+04 0.  0.
        3    1    3    3  502    0 -0.37363080257E+03  0.41034679053E+03  0.39341318840E+03  0.68026348729E+03  0.10100000352E+00 0. -1.
       -3    1    3    3    0  502  0.37363080257E+03 -0.41034679053E+03 -0.78132884004E+03  0.95836278705E+03  0.10100000352E+00 0.  1.
</event>
<event>
 5   0  0.9616567E-05  0.1581843E+04  0.7818609E-02  0.8831781E-01
       -1   -1    0    0    0  501  0.00000000000E+00  0.00000000000E+00  0.48606954869E+03  0.48606954871E+03  0.50400001928E-02 0. -1.
        1   -1    0    0  501    0  0.00000000000E+00  0.00000000000E+00 -0.12869692607E+04  0.12869692607E+04  0.50400001928E-02 0.  1.
    10030    2    1    2    0    0  0.00000000000E+00  0.00000000000E+00 -0.80089971199E+03  0.17730388094E+04  0.15818426821E+04 0.  0.
        5    1    3    3  502    0  0.63858584260E+03 -0.28381736821E+03 -0.81561095829E+03  0.10740519085E+04  0.46999998093E+01 0.  1.
       -5    1    3    3    0  502 -0.63858584260E+03  0.28381736821E+03  0.14711246300E+02  0.69898690090E+03  0.46999998093E+01 0. -1.
</event>
<event>
 5   0  0.1835088E-04  0.1599816E+04  0.7818609E-02  0.8820661E-01
       -2   -1    0    0    0  501  0.00000000000E+00  0.00000000000E+00  0.67597222986E+03  0.67597222987E+03  0.25500000920E-02 0.  1.
        2   -1    0    0  501    0  0.00000000000E+00  0.00000000000E+00 -0.94656661901E+03  0.94656661901E+03  0.25500000920E-02 0. -1.
    10030    2    1    2    0    0  0.00000000000E+00  0.00000000000E+00 -0.27059438915E+03  0.16225388489E+04  0.15998159246E+04 0.  0.
        5    1    3    3  502    0 -0.79399684424E+02 -0.69157368658E+03 -0.53491418813E+03  0.87791443349E+03  0.46999998093E+01 0. -1.
       -5    1    3    3    0  502  0.79399684424E+02  0.69157368658E+03  0.26431979899E+03  0.74462441539E+03  0.46999998093E+01 0.  1.
</event>
<event>
 5   0  0.1914170E-04  0.1601634E+04  0.7818609E-02  0.8819545E-01
       -2   -1    0    0    0  501  0.00000000000E+00  0.00000000000E+00  0.36910328252E+03  0.36910328253E+03  0.25500000920E-02 0. -1.
        2   -1    0    0  501    0  0.00000000000E+00  0.00000000000E+00 -0.17374759712E+04  0.17374759712E+04  0.25500000920E-02 0.  1.
    10030    2    1    2    0    0  0.00000000000E+00  0.00000000000E+00 -0.13683726887E+04  0.21065792537E+04  0.16016342707E+04 0.  0.
        3    1    3    3  502    0 -0.37684736311E+02  0.32256776746E+03  0.27860281652E+03  0.42788975628E+03  0.10100000352E+00 0. -1.
       -3    1    3    3    0  502  0.37684736311E+02 -0.32256776746E+03 -0.16469755052E+04  0.16786894975E+04  0.10100000352E+00 0.  1.
</event>
<event>
 5   0  0.9939872E-05  0.1601350E+04  0.7818609E-02  0.8819719E-01
        1   -1    0    0  501    0  0.00000000000E+00  0.00000000000E+00  0.15746887959E+04  0.15746887959E+04  0.50400001928E-02 0.  1.
       -1   -1    0    0    0  501  0.00000000000E+00  0.00000000000E+00 -0.40711562790E+03  0.40711562793E+03  0.50400001928E-02 0. -1.
    10030    2    1    2    0    0  0.00000000000E+00  0.00000000000E+00  0.11675731680E+04  0.19818044238E+04  0.16013499529E+04 0.  0.
        3    1    3    3  502    0 -0.65152325008E+03 -0.32580049337E+03  0.99508888514E+03  0.12332195289E+04  0.10100000352E+00 0.  1.
       -3    1    3    3    0  502  0.65152325008E+03  0.32580049337E+03  0.17248428282E+03  0.74858489491E+03  0.10100000352E+00 0. -1.
</event>
<event>
 5   0  0.9939872E-05  0.1614456E+04  0.7818609E-02  0.8811716E-01
       -1   -1    0    0    0  501  0.00000000000E+00  0.00000000000E+00  0.89981941981E+03  0.89981941983E+03  0.50400001928E-02 0. -1.
        1   -1    0    0  501    0  0.00000000000E+00  0.00000000000E+00 -0.72416406919E+03  0.72416406921E+03  0.50400001928E-02 0.  1.
    10030    2    1    2    0    0  0.00000000000E+00  0.00000000000E+00  0.17565535062E+03  0.16239834890E+04  0.16144558125E+04 0.  0.
        3    1    3    3  502    0 -0.71122928426E+03  0.30698703688E+03  0.31616674999E+03  0.83668964354E+03  0.10100000352E+00 0.  1.
       -3    1    3    3    0  502  0.71122928426E+03 -0.30698703688E+03 -0.14051139937E+03  0.78729384550E+03  0.10100000352E+00 0. -1.
</event>
<event>
 5   0  0.9432152E-05  0.1600283E+04  0.7818609E-02  0.8820374E-01
        1   -1    0    0  501    0  0.00000000000E+00  0.00000000000E+00  0.87406362526E+03  0.87406362528E+03  0.50400001928E-02 0. -1.
       -1   -1    0    0    0  501  0.00000000000E+00  0.00000000000E+00 -0.73247091642E+03  0.73247091644E+03  0.50400001928E-02 0.  1.
    10030    2    1    2    0    0  0.00000000000E+00  0.00000000000E+00  0.14159270884E+03  0.16065345417E+04  0.16002827058E+04 0.  0.
        4    1    3    3  502    0  0.17324267515E+03 -0.58593831612E+03  0.58942648807E+03  0.84897699175E+03  0.12699999809E+01 0. -1.
       -4    1    3    3    0  502 -0.17324267515E+03  0.58593831612E+03 -0.44783377923E+03  0.75755754997E+03  0.12699999809E+01 0.  1.
</event>
<event>
 5   0  0.1774934E-04  0.1603754E+04  0.7818609E-02  0.8818245E-01
        2   -1    0    0  501    0  0.00000000000E+00  0.00000000000E+00  0.14587754080E+04  0.14587754080E+04  0.25500000920E-02 0. -1.
       -2   -1    0    0    0  501  0.00000000000E+00  0.00000000000E+00 -0.44078501141E+03  0.44078501142E+03  0.25500000920E-02 0.  1.
    10030    2    1    2    0    0  0.00000000000E+00  0.00000000000E+00  0.10179903966E+04  0.18995604194E+04  0.16037535158E+04 0.  0.
        1    1    3    3  502    0  0.54550857827E+03  0.47498166440E+03  0.91899023303E+03  0.11694999953E+04  0.50400001928E-02 0. -1.
       -1    1    3    3    0  502 -0.54550857827E+03 -0.47498166440E+03  0.99000163535E+02  0.73006042414E+03  0.50400001928E-02 0.  1.
</event>
<event>
 5   0  0.1835088E-04  0.1607457E+04  0.7818609E-02  0.8815980E-01
        2   -1    0    0  501    0  0.00000000000E+00  0.00000000000E+00  0.12322716782E+04  0.12322716783E+04  0.25500000920E-02 0. -1.
       -2   -1    0    0    0  501  0.00000000000E+00  0.00000000000E+00 -0.52421827976E+03  0.52421827977E+03  0.25500000920E-02 0.  1.
    10030    2    1    2    0    0  0.00000000000E+00  0.00000000000E+00  0.70805339849E+03  0.17564899580E+04  0.16074567980E+04 0.  0.
        5    1    3    3  502    0 -0.56174096207E+03  0.51730537222E+03  0.62785884505E+03  0.98862863396E+03  0.46999998093E+01 0. -1.
       -5    1    3    3    0  502  0.56174096207E+03 -0.51730537222E+03  0.80194553440E+02  0.76786132406E+03  0.46999998093E+01 0.  1.
</event>
<event>
 5   0  0.1832646E-04  0.1600695E+04  0.7818609E-02  0.8820121E-01
       -2   -1    0    0    0  501  0.00000000000E+00  0.00000000000E+00  0.15459207726E+04  0.15459207726E+04  0.25500000920E-02 0.  1.
        2   -1    0    0  501    0  0.00000000000E+00  0.00000000000E+00 -0.41435240026E+03  0.41435240026E+03  0.25500000920E-02 0. -1.
    10030    2    1    2    0    0  0.00000000000E+00  0.00000000000E+00  0.11315683723E+04  0.19602731729E+04  0.16006948276E+04 0.  0.
        2    1    3    3  502    0 -0.33405865485E+03  0.22777009518E+03  0.14116556619E+04  0.14684161907E+04  0.25500000920E-02 0.  1.
       -2    1    3    3    0  502  0.33405865485E+03 -0.22777009518E+03 -0.28008728959E+03  0.49185698220E+03  0.25500000920E-02 0. -1.
</event>
<event>
 5   0  0.1914170E-04  0.1608532E+04  0.7818609E-02  0.8815323E-01
        2   -1    0    0  501    0  0.00000000000E+00  0.00000000000E+00  0.19919882166E+04  0.19919882166E+04  0.25500000920E-02 0. -1.
       -2   -1    0    0    0  501  0.00000000000E+00  0.00000000000E+00 -0.32472279103E+03  0.32472279104E+03  0.25500000920E-02 0.  1.
    10030    2    1    2    0    0  0.00000000000E+00  0.00000000000E+00  0.16672654255E+04  0.23167110076E+04  0.16085322172E+04 0.  0.
        3    1    3    3  502    0  0.15575220813E+03  0.56521081684E+03  0.16265918141E+04  0.17290237007E+04  0.10100000352E+00 0. -1.
       -3    1    3    3    0  502 -0.15575220813E+03 -0.56521081684E+03  0.40673611448E+02  0.58768730689E+03  0.10100000352E+00 0.  1.
</event>
<event>
 5   0  0.9726935E-05  0.1588779E+04  0.7818609E-02  0.8827471E-01
        1   -1    0    0  501    0  0.00000000000E+00  0.00000000000E+00  0.12488561282E+04  0.12488561282E+04  0.50400001928E-02 0. -1.
       -1   -1    0    0    0  501  0.00000000000E+00  0.00000000000E+00 -0.50530604558E+03  0.50530604560E+03  0.50400001928E-02 0.  1.
    10030    2    1    2    0    0  0.00000000000E+00  0.00000000000E+00  0.74355008264E+03  0.17541621738E+04  0.15887788413E+04 0.  0.
        2    1    3    3  502    0  0.54212806214E+03 -0.54004417391E+03  0.60729684087E+03  0.97691350613E+03  0.25500000920E-02 0. -1.
       -2    1    3    3    0  502 -0.54212806214E+03  0.54004417391E+03  0.13625324177E+03  0.77724866769E+03  0.25500000920E-02 0.  1.
</event>
<event>
 5   0  0.9673017E-05  0.1587117E+04  0.7818609E-02  0.8828502E-01
       -1   -1    0    0    0  501  0.00000000000E+00  0.00000000000E+00  0.11843396929E+04  0.11843396929E+04  0.50400001928E-02 0.  1.
        1   -1    0    0  501    0  0.00000000000E+00  0.00000000000E+00 -0.53171801536E+03  0.53171801538E+03  0.50400001928E-02 0. -1.
    10030    2    1    2    0    0  0.00000000000E+00  0.00000000000E+00  0.65262167752E+03  0.17160577083E+04  0.15871165692E+04 0.  0.
        1    1    3    3  502    0 -0.21831577430E+03  0.42413717904E+03 -0.35938835090E+03  0.59725548196E+03  0.50400001928E-02 0. -1.
       -1    1    3    3    0  502  0.21831577430E+03 -0.42413717904E+03  0.10120100284E+04  0.11188022263E+04  0.50400001928E-02 0.  1.
</event>
<event>
 5   0  0.1914170E-04  0.1594741E+04  0.7818609E-02  0.8823785E-01
       -2   -1    0    0    0  501  0.00000000000E+00  0.00000000000E+00  0.47327512980E+03  0.47327512981E+03  0.25500000920E-02 0. -1.
        2   -1    0    0  501    0  0.00000000000E+00  0.00000000000E+00 -0.13434035899E+04  0.13434035899E+04  0.25500000920E-02 0.  1.
    10030    2    1    2    0    0  0.00000000000E+00  0.00000000000E+00 -0.87012846011E+03  0.18166787197E+04  0.15947407418E+04 0.  0.
        3    1    3    3  502    0  0.46750458011E+03 -0.63033501473E+03 -0.59583130555E+03  0.98534142209E+03  0.10100000352E+00 0.  1.
       -3    1    3    3    0  502 -0.46750458011E+03  0.63033501473E+03 -0.27429715456E+03  0.83133729763E+03  0.10100000352E+00 0. -1.
</event>
<event>
 5   0  0.1835088E-04  0.1603796E+04  0.7818609E-02  0.8818219E-01
        2   -1    0    0  501    0  0.00000000000E+00  0.00000000000E+00  0.66992622106E+03  0.66992622106E+03  0.25500000920E-02 0. -1.
       -2   -1    0    0    0  501  0.00000000000E+00  0.00000000000E+00 -0.95986751584E+03  0.95986751585E+03  0.25500000920E-02 0.  1.
    10030    2    1    2    0    0  0.00000000000E+00  0.00000000000E+00 -0.28994129478E+03  0.16297937369E+04  0.16037960190E+04 0.  0.
        5    1    3    3  502    0  0.27226887639E+03 -0.74798827817E+03 -0.24350385104E+03  0.83242598518E+03  0.46999998093E+01 0. -1.
       -5    1    3    3    0  502 -0.27226887639E+03  0.74798827817E+03 -0.46437443744E+02  0.79736775174E+03  0.46999998093E+01 0.  1.
</event>
<event>
 5   0  0.9939872E-05  0.1622357E+04  0.7818609E-02  0.8806930E-01
       -1   -1    0    0    0  501  0.00000000000E+00  0.00000000000E+00  0.45640715792E+03  0.45640715795E+03  0.50400001928E-02 0. -1.
        1   -1    0    0  501    0  0.00000000000E+00  0.00000000000E+00 -0.14417180226E+04  0.14417180226E+04  0.50400001928E-02 0.  1.
    10030    2    1    2    0    0  0.00000000000E+00  0.00000000000E+00 -0.98531086472E+03  0.18981251806E+04  0.16223568353E+04 0.  0.
        3    1    3    3  502    0  0.26183690328E+03  0.53899103184E+03  0.14703647946E+03  0.61700051282E+03  0.10100000352E+00 0. -1.
       -3    1    3    3    0  502 -0.26183690328E+03 -0.53899103184E+03 -0.11323473442E+04  0.12811246678E+04  0.10100000352E+00 0.  1.
</event>
<event>
 5   0  0.9726935E-05  0.1549665E+04  0.7818609E-02  0.8852082E-01
       -1   -1    0    0    0  501  0.00000000000E+00  0.00000000000E+00  0.44167118705E+03  0.44167118708E+03  0.50400001928E-02 0. -1.
        1   -1    0    0  501    0  0.00000000000E+00  0.00000000000E+00 -0.13593041501E+04  0.13593041501E+04  0.50400001928E-02 0.  1.
    10030    2    1    2    0    0  0.00000000000E+00  0.00000000000E+00 -0.91763296301E+03  0.18009753372E+04  0.15496650962E+04 0.  0.
        2    1    3    3  502    0 -0.67137545582E+03  0.34170277237E+03 -0.66948597290E+03  0.10078279889E+04  0.25500000920E-02 0.  1.
       -2    1    3    3    0  502  0.67137545582E+03 -0.34170277237E+03 -0.24814699011E+03  0.79314734824E+03  0.25500000920E-02 0. -1.
</event>
<event>
 5   0  0.9726935E-05  0.1605668E+04  0.7818609E-02  0.8817073E-01
       -1   -1    0    0    0  501  0.00000000000E+00  0.00000000000E+00  0.28540136310E+03  0.28540136314E+03  0.50400001928E-02 0.  1.
        1   -1    0    0  501    0  0.00000000000E+00  0.00000000000E+00 -0.22583720404E+04  0.22583720404E+04  0.50400001928E-02 0. -1.
    10030    2    1    2    0    0  0.00000000000E+00  0.00000000000E+00 -0.19729706773E+04  0.25437734035E+04  0.16056680339E+04 0.  0.
        2    1    3    3  502    0  0.18128313930E+03 -0.36203415470E+03 -0.20847806546E+04  0.21237331950E+04  0.25500000920E-02 0. -1.
       -2    1    3    3    0  502 -0.18128313930E+03  0.36203415470E+03  0.11180997730E+03  0.42004020854E+03  0.25500000920E-02 0.  1.
</event>
<event>
 5   0  0.1858913E-04  0.1602132E+04  0.7818609E-02  0.8819239E-01
        2   -1    0    0  501    0  0.00000000000E+00  0.00000000000E+00  0.81304124411E+03  0.81304124412E+03  0.25500000920E-02 0. -1.
       -2   -1    0    0    0  501  0.00000000000E+00  0.00000000000E+00 -0.78926734564E+03  0.78926734565E+03  0.25500000920E-02 0.  1.
    10030    2    1    2    0    0  0.00000000000E+00  0.00000000000E+00  0.23773898472E+02  0.16023085898E+04  0.16021322101E+04 0.  0.
        4    1    3    3  502    0 -0.92407113187E+02 -0.55548071358E+02 -0.78197662121E+03  0.78937552015E+03  0.12699999809E+01 0.  1.
       -4    1    3    3    0  502  0.92407113187E+02  0.55548071358E+02  0.80575051968E+03  0.81293306961E+03  0.12699999809E+01 0. -1.
</event>
<event>
 5   0  0.9616567E-05  0.1616379E+04  0.7818609E-02  0.8810549E-01
        1   -1    0    0  501    0  0.00000000000E+00  0.00000000000E+00  0.75826541239E+03  0.75826541241E+03  0.50400001928E-02 0. -1.
       -1   -1    0    0    0  501  0.00000000000E+00  0.00000000000E+00 -0.86140044873E+03  0.86140044875E+03  0.50400001928E-02 0.  1.
    10030    2    1    2    0    0  0.00000000000E+00  0.00000000000E+00 -0.10313503634E+03  0.16196658612E+04  0.16163788745E+04 0.  0.
        5    1    3    3  502    0  0.41147784517E+03  0.45536243490E+03  0.47531455938E+03  0.77628279933E+03  0.46999998093E+01 0. -1.
       -5    1    3    3    0  502 -0.41147784517E+03 -0.45536243490E+03 -0.57844959572E+03  0.84338306182E+03  0.46999998093E+01 0.  1.
</event>
<event>
 5   0  0.1835088E-04  0.1601422E+04  0.7818609E-02  0.8819675E-01
       -2   -1    0    0    0  501  0.00000000000E+00  0.00000000000E+00  0.55237626967E+03  0.55237626968E+03  0.25500000920E-02 0. -1.
        2   -1    0    0  501    0  0.00000000000E+00  0.00000000000E+00 -0.11606904323E+04  0.11606904323E+04  0.25500000920E-02 0.  1.
    10030    2    1    2    0    0  0.00000000000E+00  0.00000000000E+00 -0.60831416260E+03  0.17130667020E+04  0.16014216824E+04 0.  0.
        5    1    3    3  502    0  0.73482121003E+01  0.38932892789E+02  0.55131228208E+03  0.55275409427E+03  0.46999998093E+01 0. -1.
       -5    1    3    3    0  502 -0.73482121003E+01 -0.38932892789E+02 -0.11596264447E+04  0.11603126077E+04  0.46999998093E+01 0.  1.
</event>
<event>
 5   0  0.9726935E-05  0.1597229E+04  0.7818609E-02  0.8822252E-01
        1   -1    0    0  501    0  0.00000000000E+00  0.00000000000E+00  0.15550209781E+04  0.15550209781E+04  0.50400001928E-02 0.  1.
       -1   -1    0    0    0  501  0.00000000000E+00  0.00000000000E+00 -0.41014560027E+03  0.41014560030E+03  0.50400001928E-02 0. -1.
    10030    2    1    2    0    0  0.00000000000E+00  0.00000000000E+00  0.11448753778E+04  0.19651665784E+04  0.15972288659E+04 0.  0.
        2    1    3    3  502    0  0.74678283832E+02 -0.16453128633E+03 -0.38466667487E+03  0.42498922459E+03  0.25500000920E-02 0. -1.
       -2    1    3    3    0  502 -0.74678283832E+02  0.16453128633E+03  0.15295420527E+04  0.15401773538E+04  0.25500000920E-02 0.  1.
</event>
<event>
 5   0  0.1774934E-04  0.1520744E+04  0.7818609E-02  0.8870775E-01
        2   -1    0    0  501    0  0.00000000000E+00  0.00000000000E+00  0.16950565171E+04  0.16950565171E+04  0.25500000920E-02 0. -1.
       -2   -1    0    0    0  501  0.00000000000E+00  0.00000000000E+00 -0.34108912097E+03  0.34108912098E+03  0.25500000920E-02 0.  1.
    10030    2    1    2    0    0  0.00000000000E+00  0.00000000000E+00  0.13539673962E+04  0.20361456381E+04  0.15207436831E+04 0.  0.
        1    1    3    3  502    0 -0.12435263736E+03  0.71390619742E+03  0.36862702757E+03  0.81302615125E+03  0.50400001928E-02 0.  1.
       -1    1    3    3    0  502  0.12435263736E+03 -0.71390619742E+03  0.98534036859E+03  0.12231194869E+04  0.50400001928E-02 0. -1.
</event>
<event>
 5   0  0.9616567E-05  0.1599488E+04  0.7818609E-02  0.8820863E-01
       -1   -1    0    0    0  501  0.00000000000E+00  0.00000000000E+00  0.77004573028E+03  0.77004573030E+03  0.50400001928E-02 0. -1.
        1   -1    0    0  501    0  0.00000000000E+00  0.00000000000E+00 -0.83058740266E+03  0.83058740268E+03  0.50400001928E-02 0.  1.
    10030    2    1    2    0    0  0.00000000000E+00  0.00000000000E+00 -0.60541672377E+02  0.16006331330E+04  0.15994877718E+04 0.  0.
        5    1    3    3  502    0  0.62597502561E+03 -0.77104457854E+00 -0.52834489862E+03  0.81915550971E+03  0.46999998093E+01 0.  1.
       -5    1    3    3    0  502 -0.62597502561E+03  0.77104457854E+00  0.46780322624E+03  0.78147762327E+03  0.46999998093E+01 0. -1.
</event>
<event>
 5   0  0.6838750E-05  0.1604318E+04  0.7818609E-02  0.8817900E-01
        4   -1    0    0  501    0  0.00000000000E+00  0.00000000000E+00  0.78205235381E+03  0.78205338501E+03  0.12699999809E+01 0.  1.
       -4   -1    0    0    0  501  0.00000000000E+00  0.00000000000E+00 -0.82278057017E+03  0.82278155032E+03  0.12699999809E+01 0. -1.
    10030    2    1    2    0    0  0.00000000000E+00  0.00000000000E+00 -0.40728216353E+02  0.16048349353E+04  0.16043180427E+04 0.  0.
        5    1    3    3  502    0  0.76639076959E+03  0.23480626189E+03 -0.51167099498E+02  0.80319919971E+03  0.46999998093E+01 0.  1.
       -5    1    3    3    0  502 -0.76639076959E+03 -0.23480626189E+03  0.10438883145E+02  0.80163573562E+03  0.46999998093E+01 0. -1.
</event>
<event>
 5   0  0.1832646E-04  0.1607907E+04  0.7818609E-02  0.8815705E-01
        2   -1    0    0  501    0  0.00000000000E+00  0.00000000000E+00  0.93076869801E+03  0.93076869801E+03  0.25500000920E-02 0. -1.
       -2   -1    0    0    0  501  0.00000000000E+00  0.00000000000E+00 -0.69441681235E+03  0.69441681236E+03  0.25500000920E-02 0.  1.
    10030    2    1    2    0    0  0.00000000000E+00  0.00000000000E+00  0.23635188565E+03  0.16251855104E+04  0.16079072514E+04 0.  0.
        2    1    3    3  502    0  0.80336288678E+03 -0.43234326367E+01  0.87338878811E+02  0.80810809901E+03  0.25500000920E-02 0.  1.
       -2    1    3    3    0  502 -0.80336288678E+03  0.43234326367E+01  0.14901300684E+03  0.81707741135E+03  0.25500000920E-02 0. -1.
</event>
<event>
 5   0  0.1832646E-04  0.1656760E+04  0.7818609E-02  0.8786417E-01
       -2   -1    0    0    0  501  0.00000000000E+00  0.00000000000E+00  0.61933227526E+03  0.61933227526E+03  0.25500000920E-02 0.  1.
        2   -1    0    0  501    0  0.00000000000E+00  0.00000000000E+00 -0.11079894669E+04  0.11079894669E+04  0.25500000920E-02 0. -1.
    10030    2    1    2    0    0  0.00000000000E+00  0.00000000000E+00 -0.48865719161E+03  0.17273217421E+04  0.16567602572E+04 0.  0.
        2    1    3    3  502    0 -0.68936461208E+03 -0.45043605694E+03 -0.15051039266E+03  0.83711981704E+03  0.25500000920E-02 0. -1.
       -2    1    3    3    0  502  0.68936461208E+03  0.45043605694E+03 -0.33814679895E+03  0.89020192509E+03  0.25500000920E-02 0.  1.
</event>
<event>
 5   0  0.1858913E-04  0.1600052E+04  0.7818609E-02  0.8820516E-01
        2   -1    0    0  501    0  0.00000000000E+00  0.00000000000E+00  0.74286502126E+03  0.74286502127E+03  0.25500000920E-02 0. -1.
       -2   -1    0    0    0  501  0.00000000000E+00  0.00000000000E+00 -0.86158570026E+03  0.86158570027E+03  0.25500000920E-02 0.  1.
    10030    2    1    2    0    0  0.00000000000E+00  0.00000000000E+00 -0.11872067900E+03  0.16044507215E+04  0.16000523486E+04 0.  0.
        4    1    3    3  502    0  0.39599079103E+03  0.81451605037E+02 -0.75161825893E+03  0.85344870414E+03  0.12699999809E+01 0.  1.
       -4    1    3    3    0  502 -0.39599079103E+03 -0.81451605037E+02  0.63289757993E+03  0.75100201739E+03  0.12699999809E+01 0. -1.
</event>
<event>
 5   0  0.1832646E-04  0.1548769E+04  0.7818609E-02  0.8852654E-01
       -2   -1    0    0    0  501  0.00000000000E+00  0.00000000000E+00  0.55228207870E+03  0.55228207871E+03  0.25500000920E-02 0.  1.
        2   -1    0    0  501    0  0.00000000000E+00  0.00000000000E+00 -0.10858062877E+04  0.10858062877E+04  0.25500000920E-02 0. -1.
    10030    2    1    2    0    0  0.00000000000E+00  0.00000000000E+00 -0.53352420898E+03  0.16380883664E+04  0.15487689997E+04 0.  0.
        2    1    3    3  502    0  0.13858905377E+03  0.17220896378E+03  0.51820416612E+03  0.56338123045E+03  0.25500000920E-02 0.  1.
       -2    1    3    3    0  502 -0.13858905377E+03 -0.17220896378E+03 -0.10517283751E+04  0.10747071359E+04  0.25500000920E-02 0. -1.
</event>
<event>
 5   0  0.1832646E-04  0.1526447E+04  0.7818609E-02  0.8867054E-01
        2   -1    0    0  501    0  0.00000000000E+00  0.00000000000E+00  0.80725954528E+03  0.80725954528E+03  0.25500000920E-02 0.  1.
       -2   -1    0    0    0  501  0.00000000000E+00  0.00000000000E+00 -0.72158960770E+03  0.72158960770E+03  0.25500000920E-02 0. -1.
    10030    2    1    2    0    0  0.00000000000E+00  0.00000000000E+00  0.85669937581E+02  0.15288491530E+04  0.15264469838E+04 0.  0.
        2    1    3    3  502    0  0.66631266480E+03  0.65451388179E+02  0.40981797852E+03  0.78498867955E+03  0.25500000920E-02 0.  1.
       -2    1    3    3    0  502 -0.66631266480E+03 -0.65451388179E+02 -0.32414804094E+03  0.74386047344E+03  0.25500000920E-02 0. -1.
</event>
<event>
 5   0  0.1914170E-04  0.1602491E+04  0.7818609E-02  0.8819019E-01
        2   -1    0    0  501    0  0.00000000000E+00  0.00000000000E+00  0.16452530947E+04  0.16452530947E+04  0.25500000920E-02 0. -1.
       -2   -1    0    0    0  501  0.00000000000E+00  0.00000000000E+00 -0.39021010840E+03  0.39021010840E+03  0.25500000920E-02 0.  1.
    10030    2    1    2    0    0  0.00000000000E+00  0.00000000000E+00  0.12550429863E+04  0.20354632031E+04  0.16024910464E+04 0.  0.
        3    1    3    3  502    0  0.30905227499E+03  0.71773318766E+03  0.85238455300E+03  0.11563795544E+04  0.10100000352E+00 0. -1.
       -3    1    3    3    0  502 -0.30905227499E+03 -0.71773318766E+03  0.40265843326E+03  0.87908364871E+03  0.10100000352E+00 0.  1.
</event>
<event>
 5   0  0.9432152E-05  0.1604246E+04  0.7818609E-02  0.8817944E-01
       -1   -1    0    0    0  501  0.00000000000E+00  0.00000000000E+00  0.30716331487E+03  0.30716331491E+03  0.50400001928E-02 0. -1.
        1   -1    0    0  501    0  0.00000000000E+00  0.00000000000E+00 -0.20946565788E+04  0.20946565788E+04  0.50400001928E-02 0.  1.
    10030    2    1    2    0    0  0.00000000000E+00  0.00000000000E+00 -0.17874932639E+04  0.24018198937E+04  0.16042464378E+04 0.  0.
        4    1    3    3  502    0 -0.23380866050E+03 -0.49335489147E+03 -0.17735575402E+04  0.18556868001E+04  0.12699999809E+01 0.  1.
       -4    1    3    3    0  502  0.23380866050E+03  0.49335489147E+03 -0.13935723713E+02  0.54613309363E+03  0.12699999809E+01 0. -1.
</event>
<event>
 5   0  0.9673017E-05  0.1606456E+04  0.7818609E-02  0.8816591E-01
       -1   -1    0    0    0  501  0.00000000000E+00  0.00000000000E+00  0.50251251196E+03  0.50251251198E+03  0.50400001928E-02 0. -1.
        1   -1    0    0  501    0  0.00000000000E+00  0.00000000000E+00 -0.12838993681E+04  0.12838993681E+04  0.50400001928E-02 0.  1.
    10030    2    1    2    0    0  0.00000000000E+00  0.00000000000E+00 -0.78138685614E+03  0.17864118801E+04  0.16064563444E+04 0.  0.
        1    1    3    3  502    0  0.15982738600E+02 -0.79060791293E+03 -0.54740219364E+03  0.96175125763E+03  0.50400001928E-02 0.  1.
       -1    1    3    3    0  502 -0.15982738600E+02  0.79060791293E+03 -0.23398466250E+03  0.82466062246E+03  0.50400001928E-02 0. -1.
</event>
<event>
 5   0  0.9939872E-05  0.1616328E+04  0.7818609E-02  0.8810580E-01
       -1   -1    0    0    0  501  0.00000000000E+00  0.00000000000E+00  0.24630930583E+03  0.24630930588E+03  0.50400001928E-02 0. -1.
        1   -1    0    0  501    0  0.00000000000E+00  0.00000000000E+00 -0.26516604889E+04  0.26516604889E+04  0.50400001928E-02 0.  1.
    10030    2    1    2    0    0  0.00000000000E+00  0.00000000000E+00 -0.24053511830E+04  0.28979697947E+04  0.16163275094E+04 0.  0.
        3    1    3    3  502    0 -0.15935458640E+03  0.33908345474E+03  0.81192369826E+02  0.38335842837E+03  0.10100000352E+00 0. -1.
       -3    1    3    3    0  502  0.15935458640E+03 -0.33908345474E+03 -0.24865435529E+04  0.25146113664E+04  0.10100000352E+00 0.  1.
</event>
<event>
 5   0  0.9726935E-05  0.1600432E+04  0.7818609E-02  0.8820282E-01
       -1   -1    0    0    0  501  0.00000000000E+00  0.00000000000E+00  0.56018766159E+03  0.56018766162E+03  0.50400001928E-02 0.  1.
        1   -1    0    0  501    0  0.00000000000E+00  0.00000000000E+00 -0.11430918860E+04  0.11430918861E+04  0.50400001928E-02 0. -1.
    10030    2    1    2    0    0  0.00000000000E+00  0.00000000000E+00 -0.58290422445E+03  0.17032795477E+04  0.16004324049E+04 0.  0.
        2    1    3    3  502    0  0.54650806016E+03  0.43794164851E+02  0.32889217978E+03  0.63934267386E+03  0.25500000920E-02 0.  1.
       -2    1    3    3    0  502 -0.54650806016E+03 -0.43794164851E+02 -0.91179640423E+03  0.10639368738E+04  0.25500000920E-02 0. -1.
</event>
<event>
 5   0  0.9673017E-05  0.1600972E+04  0.7818609E-02  0.8819951E-01
        1   -1    0    0  501    0  0.00000000000E+00  0.00000000000E+00  0.19169715842E+04  0.19169715842E+04  0.50400001928E-02 0. -1.
       -1   -1    0    0    0  501  0.00000000000E+00  0.00000000000E+00 -0.33426589929E+03  0.33426589933E+03  0.50400001928E-02 0.  1.
    10030    2    1    2    0    0  0.00000000000E+00  0.00000000000E+00  0.15827056849E+04  0.22512374835E+04  0.16009724927E+04 0.  0.
        1    1    3    3  502    0  0.48988943767E+03 -0.55294047646E+03  0.35784354064E+03  0.82084519323E+03  0.50400001928E-02 0.  1.
       -1    1    3    3    0  502 -0.48988943767E+03  0.55294047646E+03  0.12248621443E+04  0.14303922903E+04  0.50400001928E-02 0. -1.
</event>
<event>
 5   0  0.1858913E-04  0.1599399E+04  0.7818609E-02  0.8820917E-01
        2   -1    0    0  501    0  0.00000000000E+00  0.00000000000E+00  0.14004947831E+04  0.14004947831E+04  0.25500000920E-02 0.  1.
       -2   -1    0    0    0  501  0.00000000000E+00  0.00000000000E+00 -0.45663809087E+03  0.45663809088E+03  0.25500000920E-02 0. -1.
    10030    2    1    2    0    0  0.00000000000E+00  0.00000000000E+00  0.94385669227E+03  0.18571328740E+04  0.15993989672E+04 0.  0.
        4    1    3    3  502    0 -0.66436680671E+03  0.44032321904E+03  0.39623225000E+03  0.89009516341E+03  0.12699999809E+01 0.  1.
       -4    1    3    3    0  502  0.66436680671E+03 -0.44032321904E+03  0.54762444227E+03  0.96703771062E+03  0.12699999809E+01 0. -1.
</event>
<event>
 5   0  0.1858913E-04  0.1612670E+04  0.7818609E-02  0.8812802E-01
       -2   -1    0    0    0  501  0.00000000000E+00  0.00000000000E+00  0.44617453037E+03  0.44617453038E+03  0.25500000920E-02 0. -1.
        2   -1    0    0  501    0  0.00000000000E+00  0.00000000000E+00 -0.14572241970E+04  0.14572241970E+04  0.25500000920E-02 0.  1.
    10030    2    1    2    0    0  0.00000000000E+00  0.00000000000E+00 -0.10110496666E+04  0.19033987274E+04  0.16126702350E+04 0.  0.
        4    1    3    3  502    0 -0.66120269197E+03 -0.16654722416E+03 -0.10135212549E+04  0.12215375249E+04  0.12699999809E+01 0.  1.
       -4    1    3    3    0  502  0.66120269197E+03  0.16654722416E+03  0.24715882850E+01  0.68186120244E+03  0.12699999809E+01 0. -1.
</event>
<event>
 5   0  0.1832646E-04  0.1600028E+04  0.7818609E-02  0.8820531E-01
       -2   -1    0    0    0  501  0.00000000000E+00  0.00000000000E+00  0.47320609610E+03  0.47320609610E+03  0.25500000920E-02 0. -1.
        2   -1    0    0  501    0  0.00000000000E+00  0.00000000000E+00 -0.13525234757E+04  0.13525234757E+04  0.25500000920E-02 0.  1.
    10030    2    1    2    0    0  0.00000000000E+00  0.00000000000E+00 -0.87931737965E+03  0.18257295718E+04  0.16000279421E+04 0.  0.
        2    1    3    3  502    0  0.56547455453E+03 -0.53964014017E+03 -0.24517755736E+03  0.81919777060E+03  0.25500000920E-02 0.  1.
       -2    1    3    3    0  502 -0.56547455453E+03  0.53964014017E+03 -0.63413982229E+03  0.10065318013E+04  0.25500000920E-02 0. -1.
</event>
<event>
 5   0  0.9616567E-05  0.1602317E+04  0.7818609E-02  0.8819126E-01
       -1   -1    0    0    0  501  0.00000000000E+00  0.00000000000E+00  0.43202827945E+03  0.43202827948E+03  0.50400001928E-02 0.  1.
        1   -1    0    0  501    0  0.00000000000E+00  0.00000000000E+00 -0.14856779657E+04  0.14856779657E+04  0.50400001928E-02 0. -1.
    10030    2    1    2    0    0  0.00000000000E+00  0.00000000000E+00 -0.10536496862E+04  0.19177062452E+04  0.16023169416E+04 0.  0.
        5    1    3    3  502    0  0.68756547106E+03  0.17189973193E+03 -0.79751922639E+02  0.71321683519E+03  0.46999998093E+01 0.  1.
       -5    1    3    3    0  502 -0.68756547106E+03 -0.17189973193E+03 -0.97389776358E+03  0.12044894100E+04  0.46999998093E+01 0. -1.
</event>
<event>
 5   0  0.9432152E-05  0.1598132E+04  0.7818609E-02  0.8821697E-01
       -1   -1    0    0    0  501  0.00000000000E+00  0.00000000000E+00  0.12205402086E+04  0.12205402086E+04  0.50400001928E-02 0. -1.
        1   -1    0    0  501    0  0.00000000000E+00  0.00000000000E+00 -0.52313414820E+03  0.52313414823E+03  0.50400001928E-02 0.  1.
    10030    2    1    2    0    0  0.00000000000E+00  0.00000000000E+00  0.69740606035E+03  0.17436743568E+04  0.15981317372E+04 0.  0.
        4    1    3    3  502    0 -0.99744777265E+02 -0.55275641078E+03  0.96880742302E+03  0.11198562881E+04  0.12699999809E+01 0. -1.
       -4    1    3    3    0  502  0.99744777265E+02  0.55275641078E+03 -0.27140136267E+03  0.62381806867E+03  0.12699999809E+01 0.  1.
</event>
<event>
 5   0  0.9939872E-05  0.1596531E+04  0.7818609E-02  0.8822682E-01
        1   -1    0    0  501    0  0.00000000000E+00  0.00000000000E+00  0.80900616896E+03  0.80900616897E+03  0.50400001928E-02 0. -1.
       -1   -1    0    0    0  501  0.00000000000E+00  0.00000000000E+00 -0.78766767496E+03  0.78766767498E+03  0.50400001928E-02 0.  1.
    10030    2    1    2    0    0  0.00000000000E+00  0.00000000000E+00  0.21338493992E+02  0.15966738440E+04  0.15965312501E+04 0.  0.
        3    1    3    3  502    0  0.37663714718E+02  0.17926099438E+03  0.78770385204E+03  0.80872147754E+03  0.10100000352E+00 0. -1.
       -3    1    3    3    0  502 -0.37663714718E+02 -0.17926099438E+03 -0.76636535805E+03  0.78795236641E+03  0.10100000352E+00 0.  1.
</event>
<event>
 5   0  0.9432152E-05  0.1603742E+04  0.7818609E-02  0.8818252E-01
       -1   -1    0    0    0  501  0.00000000000E+00  0.00000000000E+00  0.78230529288E+03  0.78230529290E+03  0.50400001928E-02 0.  1.
        1   -1    0    0  501    0  0.00000000000E+00  0.00000000000E+00 -0.82192601946E+03  0.82192601948E+03  0.50400001928E-02 0. -1.
    10030    2    1    2    0    0  0.00000000000E+00  0.00000000000E+00 -0.39620726582E+02  0.16042313124E+04  0.16037419685E+04 0.  0.
        4    1    3    3  502    0  0.36245391907E+03 -0.69654309218E+03  0.14287486543E+03  0.79809771506E+03  0.12699999809E+01 0.  1.
       -4    1    3    3    0  502 -0.36245391907E+03  0.69654309218E+03 -0.18249559202E+03  0.80613359731E+03  0.12699999809E+01 0. -1.
</event>
<event>
 5   0  0.9432152E-05  0.1550603E+04  0.7818609E-02  0.8851483E-01
       -1   -1    0    0    0  501  0.00000000000E+00  0.00000000000E+00  0.98276528632E+03  0.98276528633E+03  0.50400001928E-02 0. -1.
        1   -1    0    0  501    0  0.00000000000E+00  0.00000000000E+00 -0.61163392592E+03  0.61163392594E+03  0.50400001928E-02 0.  1.
    10030    2    1    2    0    0  0.00000000000E+00  0.00000000000E+00  0.37113136040E+03  0.15943992123E+04  0.15506032250E+04 0.  0.
        4    1    3    3  502    0 -0.24205059036E+02 -0.49602926444E+03 -0.42661559601E+03  0.65470099719E+03  0.12699999809E+01 0.  1.
       -4    1    3    3    0  502  0.24205059036E+02  0.49602926444E+03  0.79774695641E+03  0.93969821508E+03  0.12699999809E+01 0. -1.
</event>
<event>
 5   0  0.1774934E-04  0.1566561E+04  0.7818609E-02  0.8841359E-01
        2   -1    0    0  501    0  0.00000000000E+00  0.00000000000E+00  0.86803381917E+03  0.86803381918E+03  0.25500000920E-02 0. -1.
       -2   -1    0    0    0  501  0.00000000000E+00  0.00000000000E+00 -0.70680200561E+03  0.70680200562E+03  0.25500000920E-02 0.  1.
    10030    2    1    2    0    0  0.00000000000E+00  0.00000000000E+00  0.16123181356E+03  0.15748358248E+04  0.15665606204E+04 0.  0.
        1    1    3    3  502    0  0.34780821489E+03  0.47934591996E+03 -0.43471756193E+03  0.73465803201E+03  0.50400001928E-02 0.  1.
       -1    1    3    3    0  502 -0.34780821489E+03 -0.47934591996E+03  0.59594937549E+03  0.84017779278E+03  0.50400001928E-02 0. -1.
</event>
<event>
 5   0  0.1832646E-04  0.1597482E+04  0.7818609E-02  0.8822097E-01
        2   -1    0    0  501    0  0.00000000000E+00  0.00000000000E+00  0.16266560179E+04  0.16266560179E+04  0.25500000920E-02 0.  1.
       -2   -1    0    0    0  501  0.00000000000E+00  0.00000000000E+00 -0.39220756590E+03  0.39220756590E+03  0.25500000920E-02 0. -1.
    10030    2    1    2    0    0  0.00000000000E+00  0.00000000000E+00  0.12344484520E+04  0.20188635838E+04  0.15974815146E+04 0.  0.
        2    1    3    3  502    0 -0.46559085410E+03  0.60771540697E+03  0.32933232499E+03  0.83339824788E+03  0.25500000920E-02 0. -1.
       -2    1    3    3    0  502  0.46559085410E+03 -0.60771540697E+03  0.90511612703E+03  0.11854653359E+04  0.25500000920E-02 0.  1.
</event>
<event>
 5   0  0.1914170E-04  0.1599816E+04  0.7818609E-02  0.8820661E-01
        2   -1    0    0  501    0  0.00000000000E+00  0.00000000000E+00  0.51693044743E+03  0.51693044743E+03  0.25500000920E-02 0.  1.
       -2   -1    0    0    0  501  0.00000000000E+00  0.00000000000E+00 -0.12377927754E+04  0.12377927754E+04  0.25500000920E-02 0. -1.
    10030    2    1    2    0    0  0.00000000000E+00  0.00000000000E+00 -0.72086232796E+03  0.17547232228E+04  0.15998159559E+04 0.  0.
        3    1    3    3  502    0 -0.39069721102E+02 -0.54617334728E+02  0.51383327898E+03  0.51820280311E+03  0.10100000352E+00 0.  1.
       -3    1    3    3    0  502  0.39069721102E+02  0.54617334728E+02 -0.12346956069E+04  0.12365204197E+04  0.10100000352E+00 0. -1.
</event>
<event>
 5   0  0.1835088E-04  0.1602986E+04  0.7818609E-02  0.8818716E-01
        2   -1    0    0  501    0  0.00000000000E+00  0.00000000000E+00  0.14036901337E+04  0.14036901337E+04  0.25500000920E-02 0.  1.
       -2   -1    0    0    0  501  0.00000000000E+00  0.00000000000E+00 -0.45764450552E+03  0.45764450553E+03  0.25500000920E-02 0. -1.
    10030    2    1    2    0    0  0.00000000000E+00  0.00000000000E+00  0.94604562820E+03  0.18613346393E+04  0.16029860600E+04 0.  0.
        5    1    3    3  502    0  0.54020506935E+03  0.53943631172E+03  0.75639501324E+03  0.10746946345E+04  0.46999998093E+01 0.  1.
       -5    1    3    3    0  502 -0.54020506935E+03 -0.53943631172E+03  0.18965061496E+03  0.78664000477E+03  0.46999998093E+01 0. -1.
</event>
<event>
 5   0  0.9616567E-05  0.1602756E+04  0.7818609E-02  0.8818857E-01
       -1   -1    0    0    0  501  0.00000000000E+00  0.00000000000E+00  0.67526221857E+03  0.67526221859E+03  0.50400001928E-02 0.  1.
        1   -1    0    0  501    0  0.00000000000E+00  0.00000000000E+00 -0.95104803790E+03  0.95104803791E+03  0.50400001928E-02 0. -1.
    10030    2    1    2    0    0  0.00000000000E+00  0.00000000000E+00 -0.27578581933E+03  0.16263102565E+04  0.16027561362E+04 0.  0.
        5    1    3    3  502    0  0.39269861477E+03  0.19820499059E+03 -0.81757815152E+03  0.92841453251E+03  0.46999998093E+01 0. -1.
       -5    1    3    3    0  502 -0.39269861477E+03 -0.19820499059E+03  0.54179233220E+03  0.69789572399E+03  0.46999998093E+01 0.  1.
</event>
<event>
 5   0  0.9726935E-05  0.1595717E+04  0.7818609E-02  0.8823184E-01
       -1   -1    0    0    0  501  0.00000000000E+00  0.00000000000E+00  0.58317539525E+03  0.58317539527E+03  0.50400001928E-02 0. -1.
        1   -1    0    0  501    0  0.00000000000E+00  0.00000000000E+00 -0.10915723490E+04  0.10915723490E+04  0.50400001928E-02 0.  1.
    10030    2    1    2    0    0  0.00000000000E+00  0.00000000000E+00 -0.50839695374E+03  0.16747477443E+04  0.15957169374E+04 0.  0.
        2    1    3    3  502    0  0.98104662723E+02  0.42552916162E+02  0.57562016028E+03  0.58546890989E+03  0.25500000920E-02 0. -1.
       -2    1    3    3    0  502 -0.98104662723E+02 -0.42552916162E+02 -0.10840171140E+04  0.10892788344E+04  0.25500000920E-02 0.  1.
</event>
<event>
 5   0  0.9616567E-05  0.1598992E+04  0.7818609E-02  0.8821167E-01
        1   -1    0    0  501    0  0.00000000000E+00  0.00000000000E+00  0.65493178766E+03  0.65493178768E+03  0.50400001928E-02 0.  1.
       -1   -1    0    0    0  501  0.00000000000E+00  0.00000000000E+00 -0.97597050772E+03  0.97597050773E+03  0.50400001928E-02 0. -1.
    10030    2    1    2    0    0  0.00000000000E+00  0.00000000000E+00 -0.32103872006E+03  0.16309022954E+04  0.15989923194E+04 0.  0.
        5    1    3    3  502    0  0.14470432825E+02  0.78648815223E+03 -0.30619473227E+03  0.84412695200E+03  0.46999998093E+01 0. -1.
       -5    1    3    3    0  502 -0.14470432825E+02 -0.78648815223E+03 -0.14843987783E+02  0.78677534341E+03  0.46999998093E+01 0.  1.
</event>
<event>
 5   0  0.1832646E-04  0.1603035E+04  0.7818609E-02  0.8818685E-01
        2   -1    0    0  501    0  0.00000000000E+00  0.00000000000E+00  0.62911243392E+03  0.62911243393E+03  0.25500000920E-02 0.  1.
       -2   -1    0    0    0  501  0.00000000000E+00  0.00000000000E+00 -0.10211697331E+04  0.10211697331E+04  0.25500000920E-02 0. -1.
    10030    2    1    2    0    0  0.00000000000E+00  0.00000000000E+00 -0.39205729915E+03  0.16502821670E+04  0.16030353411E+04 0.  0.
        2    1    3    3  502    0 -0.19042869792E+03  0.69826169061E+03 -0.55055945139E+03  0.90936691555E+03  0.25500000920E-02 0. -1.
       -2    1    3    3    0  502  0.19042869792E+03 -0.69826169061E+03  0.15850215224E+03  0.74091525146E+03  0.25500000920E-02 0.  1.
</event>
<event>
 5   0  0.1774934E-04  0.1601073E+04  0.7818609E-02  0.8819889E-01
       -2   -1    0    0    0  501  0.00000000000E+00  0.00000000000E+00  0.63623503470E+03  0.63623503470E+03  0.25500000920E-02 0. -1.
        2   -1    0    0  501    0  0.00000000000E+00  0.00000000000E+00 -0.10072666966E+04  0.10072666966E+04  0.25500000920E-02 0.  1.
    10030    2    1    2    0    0  0.00000000000E+00  0.00000000000E+00 -0.37103166186E+03  0.16435017313E+04  0.16010725925E+04 0.  0.
        1    1    3    3  502    0  0.37572052722E+02  0.42664980966E+03  0.50873294628E+03  0.66501949587E+03  0.50400001928E-02 0. -1.
       -1    1    3    3    0  502 -0.37572052722E+02 -0.42664980966E+03 -0.87976460815E+03  0.97848223540E+03  0.50400001928E-02 0.  1.
</event>
<event>
 5   0  0.1774934E-04  0.1494244E+04  0.7818609E-02  0.8888289E-01
       -2   -1    0    0    0  501  0.00000000000E+00  0.00000000000E+00  0.45710423775E+03  0.45710423776E+03  0.25500000920E-02 0.  1.
        2   -1    0    0  501    0  0.00000000000E+00  0.00000000000E+00 -0.12211471525E+04  0.12211471525E+04  0.25500000920E-02 0. -1.
    10030    2    1    2    0    0  0.00000000000E+00  0.00000000000E+00 -0.76404291471E+03  0.16782513902E+04  0.14942443419E+04 0.  0.
        1    1    3    3  502    0 -0.14495122136E+03  0.71992907388E+03 -0.22768493481E+03  0.76886224876E+03  0.50400001928E-02 0. -1.
       -1    1    3    3    0  502  0.14495122136E+03 -0.71992907388E+03 -0.53635797990E+03  0.90938914147E+03  0.50400001928E-02 0.  1.
</event>
<event>
 5   0  0.1914170E-04  0.1642389E+04  0.7818609E-02  0.8794922E-01
       -2   -1    0    0    0  501  0.00000000000E+00  0.00000000000E+00  0.10105642739E+04  0.10105642739E+04  0.25500000920E-02 0.  1.
        2   -1    0    0  501    0  0.00000000000E+00  0.00000000000E+00 -0.66731092687E+03  0.66731092688E+03  0.25500000920E-02 0. -1.
    10030    2    1    2    0    0  0.00000000000E+00  0.00000000000E+00  0.34325334707E+03  0.16778752008E+04  0.16423892137E+04 0.  0.
        3    1    3    3  502    0 -0.69847629679E+03  0.42359969614E+03  0.25743389565E+03  0.85649171658E+03  0.10100000352E+00 0.  1.
       -3    1    3    3    0  502  0.69847629679E+03 -0.42359969614E+03  0.85819451424E+02  0.82138348424E+03  0.10100000352E+00 0. -1.
</event>
<event>
 5   0  0.9432152E-05  0.1599262E+04  0.7818609E-02  0.8821002E-01
       -1   -1    0    0    0  501  0.00000000000E+00  0.00000000000E+00  0.38201120119E+03  0.38201120122E+03  0.50400001928E-02 0.  1.
        1   -1    0    0  501    0  0.00000000000E+00  0.00000000000E+00 -0.16737983604E+04  0.16737983604E+04  0.50400001928E-02 0. -1.
    10030    2    1    2    0    0  0.00000000000E+00  0.00000000000E+00 -0.12917871592E+04  0.20558095616E+04  0.15992619826E+04 0.  0.
        4    1    3    3  502    0 -0.12267756005E+03  0.49302279055E+03 -0.14396535326E+04  0.15266712687E+04  0.12699999809E+01 0. -1.
       -4    1    3    3    0  502  0.12267756005E+03 -0.49302279055E+03  0.14786637343E+03  0.52913829292E+03  0.12699999809E+01 0.  1.
</event>
<event>
 5   0  0.1914170E-04  0.1602018E+04  0.7818609E-02  0.8819309E-01
        2   -1    0    0  501    0  0.00000000000E+00  0.00000000000E+00  0.50752178868E+03  0.50752178869E+03  0.25500000920E-02 0. -1.
       -2   -1    0    0    0  501  0.00000000000E+00  0.00000000000E+00 -0.12642131303E+04  0.12642131303E+04  0.25500000920E-02 0.  1.
    10030    2    1    2    0    0  0.00000000000E+00  0.00000000000E+00 -0.75669134159E+03  0.17717349190E+04  0.16020183634E+04 0.  0.
        3    1    3    3  502    0  0.24395920611E+03 -0.42831649884E+03 -0.10766169632E+04  0.11840925694E+04  0.10100000352E+00 0.  1.
       -3    1    3    3    0  502 -0.24395920611E+03  0.42831649884E+03  0.31992562157E+03  0.58764234953E+03  0.10100000352E+00 0. -1.
</event>
<event>
 5   0  0.9726935E-05  0.1599833E+04  0.7818609E-02  0.8820651E-01
       -1   -1    0    0    0  501  0.00000000000E+00  0.00000000000E+00  0.48744090102E+03  0.48744090105E+03  0.50400001928E-02 0. -1.
        1   -1    0    0  501    0  0.00000000000E+00  0.00000000000E+00 -0.13127049400E+04  0.13127049401E+04  0.50400001928E-02 0.  1.
    10030    2    1    2    0    0  0.00000000000E+00  0.00000000000E+00 -0.82526403903E+03  0.18001458411E+04  0.15998325897E+04 0.  0.
        2    1    3    3  502    0 -0.79654301543E+03 -0.32140136038E+02 -0.33839965191E+03  0.86604162036E+03  0.25500000920E-02 0.  1.
       -2    1    3    3    0  502  0.79654301543E+03  0.32140136038E+02 -0.48686438712E+03  0.93410422075E+03  0.25500000920E-02 0. -1.
</event>
<event>
 5   0  0.1835088E-04  0.1603590E+04  0.7818609E-02  0.8818346E-01
        2   -1    0    0  501    0  0.00000000000E+00  0.00000000000E+00  0.80244467995E+03  0.80244467996E+03  0.25500000920E-02 0.  1.
       -2   -1    0    0    0  501  0.00000000000E+00  0.00000000000E+00 -0.80114548264E+03  0.80114548264E+03  0.25500000920E-02 0. -1.
    10030    2    1    2    0    0  0.00000000000E+00  0.00000000000E+00  0.12991973160E+01  0.16035901626E+04  0.16035896363E+04 0.  0.
        5    1    3    3  502    0 -0.16419164456E+03  0.92919693458E+02  0.77991866223E+03  0.80242642982E+03  0.46999998093E+01 0.  1.
       -5    1    3    3    0  502  0.16419164456E+03 -0.92919693458E+02 -0.77861946492E+03  0.80116373278E+03  0.46999998093E+01 0. -1.
</event>
<event>
 5   0  0.1914170E-04  0.1599169E+04  0.7818609E-02  0.8821059E-01
       -2   -1    0    0    0  501  0.00000000000E+00  0.00000000000E+00  0.56204908403E+03  0.56204908403E+03  0.25500000920E-02 0. -1.
        2   -1    0    0  501    0  0.00000000000E+00  0.00000000000E+00 -0.11375076714E+04  0.11375076714E+04  0.25500000920E-02 0.  1.
    10030    2    1    2    0    0  0.00000000000E+00  0.00000000000E+00 -0.57545858738E+03  0.16995567554E+04  0.15991687150E+04 0.  0.
        3    1    3    3  502    0  0.32172886492E+03  0.18875551238E+03  0.46391426641E+03  0.59527687907E+03  0.10100000352E+00 0. -1.
       -3    1    3    3    0  502 -0.32172886492E+03 -0.18875551238E+03 -0.10393728538E+04  0.11042798764E+04  0.10100000352E+00 0.  1.
</event>
<event>
 5   0  0.9726935E-05  0.1612592E+04  0.7818609E-02  0.8812849E-01
        1   -1    0    0  501    0  0.00000000000E+00  0.00000000000E+00  0.64669426291E+03  0.64669426293E+03  0.50400001928E-02 0.  1.
       -1   -1    0    0    0  501  0.00000000000E+00  0.00000000000E+00 -0.10052869660E+04  0.10052869660E+04  0.50400001928E-02 0. -1.
    10030    2    1    2    0    0  0.00000000000E+00  0.00000000000E+00 -0.35859270310E+03  0.16519812290E+04  0.16125920917E+04 0.  0.
        2    1    3    3  502    0  0.36089946324E+03  0.43384892492E+03  0.41065206077E+03  0.69793153478E+03  0.25500000920E-02 0.  1.
       -2    1    3    3    0  502 -0.36089946324E+03 -0.43384892492E+03 -0.76924476387E+03  0.95404969418E+03  0.25500000920E-02 0. -1.
</event>
<event>
 5   0  0.9726935E-05  0.1590703E+04  0.7818609E-02  0.8826280E-01
       -1   -1    0    0    0  501  0.00000000000E+00  0.00000000000E+00  0.46018170297E+03  0.46018170300E+03  0.50400001928E-02 0. -1.
        1   -1    0    0  501    0  0.00000000000E+00  0.00000000000E+00 -0.13746394595E+04  0.13746394595E+04  0.50400001928E-02 0.  1.
    10030    2    1    2    0    0  0.00000000000E+00  0.00000000000E+00 -0.91445775649E+03  0.18348211625E+04  0.15907028981E+04 0.  0.
        2    1    3    3  502    0 -0.36429843300E+03 -0.37640804814E+03 -0.11475639182E+04  0.12614671273E+04  0.25500000920E-02 0.  1.
       -2    1    3    3    0  502  0.36429843300E+03  0.37640804814E+03  0.23310616170E+03  0.57335403515E+03  0.25500000920E-02 0. -1.
</event>
<event>
 5   0  0.9616567E-05  0.1595618E+04  0.7818609E-02  0.8823244E-01
       -1   -1    0    0    0  501  0.00000000000E+00  0.00000000000E+00  0.50857163803E+03  0.50857163805E+03  0.50400001928E-02 0.  1.
        1   -1    0    0  501    0  0.00000000000E+00  0.00000000000E+00 -0.12515433362E+04  0.12515433362E+04  0.50400001928E-02 0. -1.
    10030    2    1    2    0    0  0.00000000000E+00  0.00000000000E+00 -0.74297169815E+03  0.17601149742E+04  0.15956183060E+04 0.  0.
        5    1    3    3  502    0 -0.12596931752E+03 -0.76350457106E+03 -0.58558207180E+03  0.97043080732E+03  0.46999998093E+01 0. -1.
       -5    1    3    3    0  502  0.12596931752E+03  0.76350457106E+03 -0.15738962635E+03  0.78968416691E+03  0.46999998093E+01 0.  1.
</event>
<event>
 5   0  0.1832646E-04  0.1601231E+04  0.7818609E-02  0.8819792E-01
        2   -1    0    0  501    0  0.00000000000E+00  0.00000000000E+00  0.10935494741E+04  0.10935494741E+04  0.25500000920E-02 0.  1.
       -2   -1    0    0    0  501  0.00000000000E+00  0.00000000000E+00 -0.58615114438E+03  0.58615114439E+03  0.25500000920E-02 0. -1.
    10030    2    1    2    0    0  0.00000000000E+00  0.00000000000E+00  0.50739832974E+03  0.16797006185E+04  0.16012311210E+04 0.  0.
        2    1    3    3  502    0 -0.42250490940E+03 -0.62326018071E+03 -0.31702935861E+02  0.75363699980E+03  0.25500000920E-02 0. -1.
       -2    1    3    3    0  502  0.42250490940E+03  0.62326018071E+03  0.53910126560E+03  0.92606361871E+03  0.25500000920E-02 0.  1.
</event>
<event>
 5   0  0.1832646E-04  0.1554038E+04  0.7818609E-02  0.8849293E-01
        2   -1    0    0  501    0  0.00000000000E+00  0.00000000000E+00  0.22086844450E+04  0.22086844450E+04  0.25500000920E-02 0.  1.
       -2   -1    0    0    0  501  0.00000000000E+00  0.00000000000E+00 -0.27335656557E+03  0.27335656558E+03  0.25500000920E-02 0. -1.
    10030    2    1    2    0    0  0.00000000000E+00  0.00000000000E+00  0.19353278794E+04  0.24820410106E+04  0.15540378301E+04 0.  0.
        2    1    3    3  502    0 -0.31252517001E+03  0.18678603146E+03  0.20640128894E+04  0.20958793408E+04  0.25500000920E-02 0.  1.
       -2    1    3    3    0  502  0.31252517001E+03 -0.18678603146E+03 -0.12868500997E+03  0.38616166982E+03  0.25500000920E-02 0. -1.
</event>
<event>
 5   0  0.9939872E-05  0.1593888E+04  0.7818609E-02  0.8824312E-01
       -1   -1    0    0    0  501  0.00000000000E+00  0.00000000000E+00  0.50562194555E+03  0.50562194558E+03  0.50400001928E-02 0. -1.
        1   -1    0    0  501    0  0.00000000000E+00  0.00000000000E+00 -0.12561151387E+04  0.12561151387E+04  0.50400001928E-02 0.  1.
    10030    2    1    2    0    0  0.00000000000E+00  0.00000000000E+00 -0.75049319316E+03  0.17617370843E+04  0.15938875497E+04 0.  0.
        3    1    3    3  502    0  0.63734901245E+03  0.89486488443E+02 -0.89473886523E+03  0.11021702420E+04  0.10100000352E+00 0.  1.
       -3    1    3    3    0  502 -0.63734901245E+03 -0.89486488443E+02  0.14424567207E+03  0.65956684226E+03  0.10100000352E+00 0. -1.
</event>
<event>
 5   0  0.1858913E-04  0.1589328E+04  0.7818609E-02  0.8827131E-01
       -2   -1    0    0    0  501  0.00000000000E+00  0.00000000000E+00  0.84319386259E+03  0.84319386259E+03  0.25500000920E-02 0.  1.
        2   -1    0    0  501    0  0.00000000000E+00  0.00000000000E+00 -0.74892706661E+03  0.74892706661E+03  0.25500000920E-02 0. -1.
    10030    2    1    2    0    0  0.00000000000E+00  0.00000000000E+00  0.94266795978E+02  0.15921209292E+04  0.15893277901E+04 0.  0.
        4    1    3    3  502    0 -0.20932328014E+03 -0.30356525680E+03  0.75230303293E+03  0.83781236981E+03  0.12699999809E+01 0.  1.
       -4    1    3    3    0  502  0.20932328014E+03  0.30356525680E+03 -0.65803623695E+03  0.75430855940E+03  0.12699999809E+01 0. -1.
</event>
<event>
 5   0  0.9673017E-05  0.1605065E+04  0.7818609E-02  0.8817443E-01
       -1   -1    0    0    0  501  0.00000000000E+00  0.00000000000E+00  0.97553901666E+03  0.97553901667E+03  0.50400001928E-02 0.  1.
        1   -1    0    0  501    0  0.00000000000E+00  0.00000000000E+00 -0.66020751879E+03  0.66020751881E+03  0.50400001928E-02 0. -1.
    10030    2    1    2    0    0  0.00000000000E+00  0.00000000000E+00  0.31533149787E+03  0.16357465355E+04  0.16050647260E+04 0.  0.
        1    1    3    3  502    0  0.10303545297E+03  0.38952751152E+03 -0.54965497529E+03  0.68151931644E+03  0.50400001928E-02 0. -1.
       -1    1    3    3    0  502 -0.10303545297E+03 -0.38952751152E+03  0.86498647315E+03  0.95422721904E+03  0.50400001928E-02 0.  1.
</event>
<event>
 5   0  0.1832646E-04  0.1593416E+04  0.7818609E-02  0.8824603E-01
       -2   -1    0    0    0  501  0.00000000000E+00  0.00000000000E+00  0.15464328426E+04  0.15464328426E+04  0.25500000920E-02 0.  1.
        2   -1    0    0  501    0  0.00000000000E+00  0.00000000000E+00 -0.41045644347E+03  0.41045644347E+03  0.25500000920E-02 0. -1.
    10030    2    1    2    0    0  0.00000000000E+00  0.00000000000E+00  0.11359763991E+04  0.19568892860E+04  0.15934156076E+04 0.  0.
        2    1    3    3  502    0  0.73883501399E+02  0.75589280018E+03  0.86352823701E+03  0.11500059623E+04  0.25500000920E-02 0.  1.
       -2    1    3    3    0  502 -0.73883501399E+02 -0.75589280018E+03  0.27244816209E+03  0.80688332377E+03  0.25500000920E-02 0. -1.
</event>
<event>
 5   0  0.9939872E-05  0.1580604E+04  0.7818609E-02  0.8832553E-01
        1   -1    0    0  501    0  0.00000000000E+00  0.00000000000E+00  0.96738558816E+03  0.96738558817E+03  0.50400001928E-02 0. -1.
       -1   -1    0    0    0  501  0.00000000000E+00  0.00000000000E+00 -0.64563399675E+03  0.64563399677E+03  0.50400001928E-02 0.  1.
    10030    2    1    2    0    0  0.00000000000E+00  0.00000000000E+00  0.32175159141E+03  0.16130195849E+04  0.15806037121E+04 0.  0.
        3    1    3    3  502    0 -0.62900052186E+03 -0.32702195857E+03 -0.19556081950E+03  0.73541081187E+03  0.10100000352E+00 0.  1.
       -3    1    3    3    0  502  0.62900052186E+03  0.32702195857E+03  0.51731241090E+03  0.87760877307E+03  0.10100000352E+00 0. -1.
</event>
<event>
 5   0  0.1774934E-04  0.1600546E+04  0.7818609E-02  0.8820213E-01
       -2   -1    0    0    0  501  0.00000000000E+00  0.00000000000E+00  0.31728151778E+03  0.31728151779E+03  0.25500000920E-02 0. -1.
        2   -1    0    0  501    0  0.00000000000E+00  0.00000000000E+00 -0.20185125064E+04  0.20185125064E+04  0.25500000920E-02 0.  1.
    10030    2    1    2    0    0  0.00000000000E+00  0.00000000000E+00 -0.17012309886E+04  0.23357940242E+04  0.16005457965E+04 0.  0.
        1    1    3    3  502    0 -0.29250169118E+03  0.10414331495E+03 -0.19270294412E+04  0.19518825623E+04  0.50400001928E-02 0.  1.
       -1    1    3    3    0  502  0.29250169118E+03 -0.10414331495E+03  0.22579845260E+03  0.38391146195E+03  0.50400001928E-02 0. -1.
</event>
<event>
 5   0  0.1835088E-04  0.1600173E+04  0.7818609E-02  0.8820442E-01
       -2   -1    0    0    0  501  0.00000000000E+00  0.00000000000E+00  0.34882898926E+03  0.34882898927E+03  0.25500000920E-02 0. -1.
        2   -1    0    0  501    0  0.00000000000E+00  0.00000000000E+00 -0.18351071808E+04  0.18351071808E+04  0.25500000920E-02 0.  1.
    10030    2    1    2    0    0  0.00000000000E+00  0.00000000000E+00 -0.14862781916E+04  0.21839361701E+04  0.16001732195E+04 0.  0.
        5    1    3    3  502    0 -0.31203894668E+03 -0.26594230474E+03 -0.16808186970E+04  0.17301061227E+04  0.46999998093E+01 0.  1.
       -5    1    3    3    0  502  0.31203894668E+03  0.26594230474E+03  0.19454050539E+03  0.45383004741E+03  0.46999998093E+01 0. -1.
</event>
<event>
 5   0  0.9673017E-05  0.1600138E+04  0.7818609E-02  0.8820463E-01
        1   -1    0    0  501    0  0.00000000000E+00  0.00000000000E+00  0.10532834458E+04  0.10532834458E+04  0.50400001928E-02 0.  1.
       -1   -1    0    0    0  501  0.00000000000E+00  0.00000000000E+00 -0.60772846426E+03  0.60772846428E+03  0.50400001928E-02 0. -1.
    10030    2    1    2    0    0  0.00000000000E+00  0.00000000000E+00  0.44555498157E+03  0.16610119101E+04  0.16001379078E+04 0.  0.
        1    1    3    3  502    0 -0.44996303403E+03  0.41755767352E+03 -0.30986013920E+03  0.68762958677E+03  0.50400001928E-02 0. -1.
       -1    1    3    3    0  502  0.44996303403E+03 -0.41755767352E+03  0.75541512077E+03  0.97338232336E+03  0.50400001928E-02 0.  1.
</event>
<event>
 5   0  0.9432152E-05  0.1591364E+04  0.7818609E-02  0.8825871E-01
        1   -1    0    0  501    0  0.00000000000E+00  0.00000000000E+00  0.95721554096E+03  0.95721554097E+03  0.50400001928E-02 0. -1.
       -1   -1    0    0    0  501  0.00000000000E+00  0.00000000000E+00 -0.66140760498E+03  0.66140760500E+03  0.50400001928E-02 0.  1.
    10030    2    1    2    0    0  0.00000000000E+00  0.00000000000E+00  0.29580793598E+03  0.16186231460E+04  0.15913637402E+04 0.  0.
        4    1    3    3  502    0 -0.63561855280E+03 -0.38426038442E+03  0.43817115073E+03  0.86235871766E+03  0.12699999809E+01 0. -1.
       -4    1    3    3    0  502  0.63561855280E+03  0.38426038442E+03 -0.14236321475E+03  0.75626442830E+03  0.12699999809E+01 0.  1.
</event>
<event>
 5   0  0.9432152E-05  0.1600690E+04  0.7818609E-02  0.8820124E-01
       -1   -1    0    0    0  501  0.00000000000E+00  0.00000000000E+00  0.13181910181E+04  0.13181910181E+04  0.50400001928E-02 0.  1.
        1   -1    0    0  501    0  0.00000000000E+00  0.00000000000E+00 -0.48593260958E+03  0.48593260961E+03  0.50400001928E-02 0. -1.
    10030    2    1    2    0    0  0.00000000000E+00  0.00000000000E+00  0.83225840847E+03  0.18041236277E+04  0.16006898530E+04 0.  0.
        4    1    3    3  502    0 -0.78588084148E+03 -0.58688757866E+02  0.25875027900E+03  0.82946150428E+03  0.12699999809E+01 0. -1.
       -4    1    3    3    0  502  0.78588084148E+03  0.58688757866E+02  0.57350812947E+03  0.97466212339E+03  0.12699999809E+01 0.  1.
</event>
<event>
 5   0  0.1832646E-04  0.1598333E+04  0.7818609E-02  0.8821573E-01
        2   -1    0    0  501    0  0.00000000000E+00  0.00000000000E+00  0.87566790341E+03  0.87566790342E+03  0.25500000920E-02 0.  1.
       -2   -1    0    0    0  501  0.00000000000E+00  0.00000000000E+00 -0.72934861438E+03  0.72934861438E+03  0.25500000920E-02 0. -1.
    10030    2    1    2    0    0  0.00000000000E+00  0.00000000000E+00  0.14631928904E+03  0.16050165178E+04  0.15983330967E+04 0.  0.
        2    1    3    3  502    0 -0.38599108284E+03 -0.69481641484E+03 -0.10303519064E+02  0.79489944577E+03  0.25500000920E-02 0. -1.
       -2    1    3    3    0  502  0.38599108284E+03  0.69481641484E+03  0.15662280810E+03  0.81011707203E+03  0.25500000920E-02 0.  1.
</event>
<event>
 5   0  0.1832646E-04  0.1604591E+04  0.7818609E-02  0.8817733E-01
        2   -1    0    0  501    0  0.00000000000E+00  0.00000000000E+00  0.55214993480E+03  0.55214993480E+03  0.25500000920E-02 0. -1.
       -2   -1    0    0    0  501  0.00000000000E+00  0.00000000000E+00 -0.11657662886E+04  0.11657662886E+04  0.25500000920E-02 0.  1.
    10030    2    1    2    0    0  0.00000000000E+00  0.00000000000E+00 -0.61361635384E+03  0.17179162234E+04  0.16045906397E+04 0.  0.
        2    1    3    3  502    0  0.40274523051E+03 -0.14773159608E+03 -0.10326652146E+04  0.11182243919E+04  0.25500000920E-02 0.  1.
       -2    1    3    3    0  502 -0.40274523051E+03  0.14773159608E+03  0.41904886073E+03  0.59969183158E+03  0.25500000920E-02 0. -1.
</event>
<event>
 5   0  0.1858913E-04  0.1607817E+04  0.7818609E-02  0.8815760E-01
        2   -1    0    0  501    0  0.00000000000E+00  0.00000000000E+00  0.20733334691E+04  0.20733334691E+04  0.25500000920E-02 0. -1.
       -2   -1    0    0    0  501  0.00000000000E+00  0.00000000000E+00 -0.31170520308E+03  0.31170520309E+03  0.25500000920E-02 0.  1.
    10030    2    1    2    0    0  0.00000000000E+00  0.00000000000E+00  0.17616282661E+04  0.23850386722E+04  0.16078169424E+04 0.  0.
        4    1    3    3  502    0 -0.73579273138E+03 -0.14104292605E+03  0.13132535562E+04  0.15119261114E+04  0.12699999809E+01 0.  1.
       -4    1    3    3    0  502  0.73579273138E+03  0.14104292605E+03  0.44837470987E+03  0.87311256084E+03  0.12699999809E+01 0. -1.
</event>
<event>
 5   0  0.1835088E-04  0.1594125E+04  0.7818609E-02  0.8824166E-01
       -2   -1    0    0    0  501  0.00000000000E+00  0.00000000000E+00  0.31065772309E+03  0.31065772310E+03  0.25500000920E-02 0. -1.
        2   -1    0    0  501    0  0.00000000000E+00  0.00000000000E+00 -0.20450426365E+04  0.20450426365E+04  0.25500000920E-02 0.  1.
    10030    2    1    2    0    0  0.00000000000E+00  0.00000000000E+00 -0.17343849135E+04  0.23557003596E+04  0.15941245737E+04 0.  0.
        5    1    3    3  502    0  0.15587915441E+03  0.37049500994E+03  0.14989726226E+03  0.42901764813E+03  0.46999998093E+01 0. -1.
       -5    1    3    3    0  502 -0.15587915441E+03 -0.37049500994E+03 -0.18842821757E+04  0.19266827115E+04  0.46999998093E+01 0.  1.
</event>
<event>
 5   0  0.1832646E-04  0.1585304E+04  0.7818609E-02  0.8829628E-01
        2   -1    0    0  501    0  0.00000000000E+00  0.00000000000E+00  0.78452058494E+03  0.78452058495E+03  0.25500000920E-02 0.  1.
       -2   -1    0    0    0  501  0.00000000000E+00  0.00000000000E+00 -0.80086726583E+03  0.80086726584E+03  0.25500000920E-02 0. -1.
    10030    2    1    2    0    0  0.00000000000E+00  0.00000000000E+00 -0.16346680890E+02  0.15853878508E+04  0.15853035745E+04 0.  0.
        2    1    3    3  502    0 -0.39527121100E+03  0.47608623918E+03 -0.50357773132E+03  0.79780196093E+03  0.25500000920E-02 0. -1.
       -2    1    3    3    0  502  0.39527121100E+03 -0.47608623918E+03  0.48723105043E+03  0.78758588985E+03  0.25500000920E-02 0.  1.
</event>
<event>
 5   0  0.1774934E-04  0.1601430E+04  0.7818609E-02  0.8819670E-01
       -2   -1    0    0    0  501  0.00000000000E+00  0.00000000000E+00  0.54914600753E+03  0.54914600754E+03  0.25500000920E-02 0. -1.
        2   -1    0    0  501    0  0.00000000000E+00  0.00000000000E+00 -0.11675307920E+04  0.11675307920E+04  0.25500000920E-02 0.  1.
    10030    2    1    2    0    0  0.00000000000E+00  0.00000000000E+00 -0.61838478445E+03  0.17166767995E+04  0.16014304519E+04 0.  0.
        1    1    3    3  502    0  0.20046765325E+03 -0.16090397912E+03 -0.11220975297E+04  0.11511647305E+04  0.50400001928E-02 0.  1.
       -1    1    3    3    0  502 -0.20046765325E+03  0.16090397912E+03  0.50371274525E+03  0.56551206905E+03  0.50400001928E-02 0. -1.
</event>
<event>
 5   0  0.1858913E-04  0.1611283E+04  0.7818609E-02  0.8813646E-01
       -2   -1    0    0    0  501  0.00000000000E+00  0.00000000000E+00  0.11456931081E+04  0.11456931081E+04  0.25500000920E-02 0.  1.
        2   -1    0    0  501    0  0.00000000000E+00  0.00000000000E+00 -0.56652016992E+03  0.56652016993E+03  0.25500000920E-02 0. -1.
    10030    2    1    2    0    0  0.00000000000E+00  0.00000000000E+00  0.57917293813E+03  0.17122132780E+04  0.16112830344E+04 0.  0.
        4    1    3    3  502    0  0.66527240319E+03 -0.40209463096E+03  0.64695210157E+02  0.78003496448E+03  0.12699999809E+01 0. -1.
       -4    1    3    3    0  502 -0.66527240319E+03  0.40209463096E+03  0.51447772798E+03  0.93217831351E+03  0.12699999809E+01 0.  1.
</event>
<event>
 5   0  0.1858913E-04  0.1594983E+04  0.7818609E-02  0.8823636E-01
       -2   -1    0    0    0  501  0.00000000000E+00  0.00000000000E+00  0.54123989175E+03  0.54123989176E+03  0.25500000920E-02 0.  1.
        2   -1    0    0  501    0  0.00000000000E+00  0.00000000000E+00 -0.11750669082E+04  0.11750669082E+04  0.25500000920E-02 0. -1.
    10030    2    1    2    0    0  0.00000000000E+00  0.00000000000E+00 -0.63382701642E+03  0.17163067999E+04  0.15949834936E+04 0.  0.
        4    1    3    3  502    0 -0.26824173645E+03  0.50256736737E+03  0.28362737547E+03  0.63637543081E+03  0.12699999809E+01 0. -1.
       -4    1    3    3    0  502  0.26824173645E+03 -0.50256736737E+03 -0.91745439189E+03  0.10799313691E+04  0.12699999809E+01 0.  1.
</event>
<event>
 5   0  0.1835088E-04  0.1621572E+04  0.7818609E-02  0.8807404E-01
       -2   -1    0    0    0  501  0.00000000000E+00  0.00000000000E+00  0.10323778803E+04  0.10323778803E+04  0.25500000920E-02 0. -1.
        2   -1    0    0  501    0  0.00000000000E+00  0.00000000000E+00 -0.63675743079E+03  0.63675743080E+03  0.25500000920E-02 0.  1.
    10030    2    1    2    0    0  0.00000000000E+00  0.00000000000E+00  0.39562044954E+03  0.16691353111E+04  0.16215724303E+04 0.  0.
        5    1    3    3  502    0 -0.43820053358E+03 -0.44913357247E+02  0.89844792824E+03  0.10006336428E+04  0.46999998093E+01 0. -1.
       -5    1    3    3    0  502  0.43820053358E+03  0.44913357247E+02 -0.50282747869E+03  0.66850166837E+03  0.46999998093E+01 0.  1.
</event>
<event>
 5   0  0.9432152E-05  0.1597065E+04  0.7818609E-02  0.8822353E-01
        1   -1    0    0  501    0  0.00000000000E+00  0.00000000000E+00  0.10864396162E+04  0.10864396162E+04  0.50400001928E-02 0.  1.
       -1   -1    0    0    0  501  0.00000000000E+00  0.00000000000E+00 -0.58692068053E+03  0.58692068055E+03  0.50400001928E-02 0. -1.
    10030    2    1    2    0    0  0.00000000000E+00  0.00000000000E+00  0.49951893567E+03  0.16733602968E+04  0.15970646561E+04 0.  0.
        4    1    3    3  502    0 -0.36056497002E+03  0.65762597245E+03 -0.37516053601E+02  0.75092481943E+03  0.12699999809E+01 0. -1.
       -4    1    3    3    0  502  0.36056497002E+03 -0.65762597245E+03  0.53703498928E+03  0.92243547734E+03  0.12699999809E+01 0.  1.
</event>
<event>
 5   0  0.1835088E-04  0.1598621E+04  0.7818609E-02  0.8821396E-01
       -2   -1    0    0    0  501  0.00000000000E+00  0.00000000000E+00  0.75051873684E+03  0.75051873684E+03  0.25500000920E-02 0.  1.
        2   -1    0    0  501    0  0.00000000000E+00  0.00000000000E+00 -0.85127429714E+03  0.85127429715E+03  0.25500000920E-02 0. -1.
    10030    2    1    2    0    0  0.00000000000E+00  0.00000000000E+00 -0.10075556031E+03  0.16017930340E+04  0.15986210435E+04 0.  0.
        5    1    3    3  502    0  0.59139959365E+03 -0.47890414329E+03  0.19459160492E+03  0.78548751775E+03  0.46999998093E+01 0.  1.
       -5    1    3    3    0  502 -0.59139959365E+03  0.47890414329E+03 -0.29534716522E+03  0.81630551624E+03  0.46999998093E+01 0. -1.
</event>
<event>
 5   0  0.1914170E-04  0.1589507E+04  0.7818609E-02  0.8827020E-01
       -2   -1    0    0    0  501  0.00000000000E+00  0.00000000000E+00  0.79092334348E+03  0.79092334348E+03  0.25500000920E-02 0.  1.
        2   -1    0    0  501    0  0.00000000000E+00  0.00000000000E+00 -0.79860248204E+03  0.79860248204E+03  0.25500000920E-02 0. -1.
    10030    2    1    2    0    0  0.00000000000E+00  0.00000000000E+00 -0.76791385604E+01  0.15895258255E+04  0.15895072761E+04 0.  0.
        3    1    3    3  502    0 -0.75982946653E+03 -0.98952592660E+02  0.20711525967E+03  0.79374377150E+03  0.10100000352E+00 0.  1.
       -3    1    3    3    0  502  0.75982946653E+03  0.98952592660E+02 -0.21479439823E+03  0.79578205403E+03  0.10100000352E+00 0. -1.
</event>
<event>
 5   0  0.6838750E-05  0.1596742E+04  0.7818609E-02  0.8822552E-01
       -4   -1    0    0    0  501  0.00000000000E+00  0.00000000000E+00  0.12433232669E+04  0.12433239156E+04  0.12699999809E+01 0. -1.
        4   -1    0    0  501    0  0.00000000000E+00  0.00000000000E+00 -0.51265376162E+03  0.51265533471E+03  0.12699999809E+01 0.  1.
    10030    2    1    2    0    0  0.00000000000E+00  0.00000000000E+00  0.73066950533E+03  0.17559792503E+04  0.15967420585E+04 0.  0.
        4    1    3    3  502    0  0.92885752831E+02  0.58727197692E+03 -0.22060222098E+03  0.63417906837E+03  0.12699999809E+01 0.  1.
       -4    1    3    3    0  502 -0.92885752831E+02 -0.58727197692E+03  0.95127172631E+03  0.11218001819E+04  0.12699999809E+01 0. -1.
</event>
<event>
 5   0  0.9673017E-05  0.1599039E+04  0.7818609E-02  0.8821139E-01
        1   -1    0    0  501    0  0.00000000000E+00  0.00000000000E+00  0.91528448478E+03  0.91528448479E+03  0.50400001928E-02 0. -1.
       -1   -1    0    0    0  501  0.00000000000E+00  0.00000000000E+00 -0.69839656292E+03  0.69839656293E+03  0.50400001928E-02 0.  1.
    10030    2    1    2    0    0  0.00000000000E+00  0.00000000000E+00  0.21688792186E+03  0.16136810477E+04  0.15990391343E+04 0.  0.
        1    1    3    3  502    0  0.70549339131E+03  0.21797260114E+03  0.41784317192E+03  0.84842553968E+03  0.50400001928E-02 0. -1.
       -1    1    3    3    0  502 -0.70549339131E+03 -0.21797260114E+03 -0.20095525006E+03  0.76525550804E+03  0.50400001928E-02 0.  1.
</event>
<event>
 5   0  0.9616567E-05  0.1593226E+04  0.7818609E-02  0.8824721E-01
       -1   -1    0    0    0  501  0.00000000000E+00  0.00000000000E+00  0.10016040572E+04  0.10016040572E+04  0.50400001928E-02 0. -1.
        1   -1    0    0  501    0  0.00000000000E+00  0.00000000000E+00 -0.63357578124E+03  0.63357578126E+03  0.50400001928E-02 0.  1.
    10030    2    1    2    0    0  0.00000000000E+00  0.00000000000E+00  0.36802827595E+03  0.16351798385E+04  0.15932257506E+04 0.  0.
        5    1    3    3  502    0  0.69731495188E+03  0.19766463096E+03  0.52324862130E+03  0.89394108203E+03  0.46999998093E+01 0. -1.
       -5    1    3    3    0  502 -0.69731495188E+03 -0.19766463096E+03 -0.15522034535E+03  0.74123875644E+03  0.46999998093E+01 0.  1.
</event>
<event>
 5   0  0.9616567E-05  0.1505782E+04  0.7818609E-02  0.8880617E-01
        1   -1    0    0  501    0  0.00000000000E+00  0.00000000000E+00  0.83186232322E+03  0.83186232324E+03  0.50400001928E-02 0. -1.
       -1   -1    0    0    0  501  0.00000000000E+00  0.00000000000E+00 -0.68141679647E+03  0.68141679648E+03  0.50400001928E-02 0.  1.
    10030    2    1    2    0    0  0.00000000000E+00  0.00000000000E+00  0.15044552675E+03  0.15132791197E+04  0.15057821349E+04 0.  0.
        5    1    3    3  502    0  0.74293140236E+03 -0.82688068750E+02  0.16532674401E+03  0.76559741876E+03  0.46999998093E+01 0. -1.
       -5    1    3    3    0  502 -0.74293140236E+03  0.82688068750E+02 -0.14881217257E+02  0.74768170096E+03  0.46999998093E+01 0.  1.
</event>
<event>
 5   0  0.1774934E-04  0.1608209E+04  0.7818609E-02  0.8815521E-01
        2   -1    0    0  501    0  0.00000000000E+00  0.00000000000E+00  0.14718277085E+04  0.14718277085E+04  0.25500000920E-02 0.  1.
       -2   -1    0    0    0  501  0.00000000000E+00  0.00000000000E+00 -0.43930681099E+03  0.43930681100E+03  0.25500000920E-02 0. -1.
    10030    2    1    2    0    0  0.00000000000E+00  0.00000000000E+00  0.10325208975E+04  0.19111345195E+04  0.16082088632E+04 0.  0.
        1    1    3    3  502    0 -0.44860747165E+03 -0.66731851452E+03  0.51077934584E+03  0.95260600649E+03  0.50400001928E-02 0. -1.
       -1    1    3    3    0  502  0.44860747165E+03  0.66731851452E+03  0.52174155163E+03  0.95852851296E+03  0.50400001928E-02 0.  1.
</event>
<event>
 5   0  0.1774934E-04  0.1594401E+04  0.7818609E-02  0.8823995E-01
       -2   -1    0    0    0  501  0.00000000000E+00  0.00000000000E+00  0.68102694910E+03  0.68102694910E+03  0.25500000920E-02 0.  1.
        2   -1    0    0  501    0  0.00000000000E+00  0.00000000000E+00 -0.93319139319E+03  0.93319139319E+03  0.25500000920E-02 0. -1.
    10030    2    1    2    0    0  0.00000000000E+00  0.00000000000E+00 -0.25216444409E+03  0.16142183423E+04  0.15944008121E+04 0.  0.
        1    1    3    3  502    0 -0.29938052412E+03  0.15957381933E+03 -0.85646147803E+03  0.92120506154E+03  0.50400001928E-02 0. -1.
       -1    1    3    3    0  502  0.29938052412E+03 -0.15957381933E+03  0.60429703394E+03  0.69301328075E+03  0.50400001928E-02 0.  1.
</event>
<event>
 5   0  0.9432152E-05  0.1596295E+04  0.7818609E-02  0.8822827E-01
        1   -1    0    0  501    0  0.00000000000E+00  0.00000000000E+00  0.16371454055E+04  0.16371454055E+04  0.50400001928E-02 0.  1.
       -1   -1    0    0    0  501  0.00000000000E+00  0.00000000000E+00 -0.38911598728E+03  0.38911598731E+03  0.50400001928E-02 0. -1.
    10030    2    1    2    0    0  0.00000000000E+00  0.00000000000E+00  0.12480294182E+04  0.20262613928E+04  0.15962950239E+04 0.  0.
        4    1    3    3  502    0 -0.33726335165E+03  0.57430015637E+03  0.11823432117E+04  0.13570203834E+04  0.12699999809E+01 0.  1.
       -4    1    3    3    0  502  0.33726335165E+03 -0.57430015637E+03  0.65686206516E+02  0.66924100935E+03  0.12699999809E+01 0. -1.
</event>
<event>
 5   0  0.1832646E-04  0.1602246E+04  0.7818609E-02  0.8819170E-01
       -2   -1    0    0    0  501  0.00000000000E+00  0.00000000000E+00  0.29245276610E+03  0.29245276612E+03  0.25500000920E-02 0. -1.
        2   -1    0    0  501    0  0.00000000000E+00  0.00000000000E+00 -0.21945348499E+04  0.21945348499E+04  0.25500000920E-02 0.  1.
    10030    2    1    2    0    0  0.00000000000E+00  0.00000000000E+00 -0.19020820838E+04  0.24869876160E+04  0.16022456581E+04 0.  0.
        2    1    3    3  502    0 -0.40459042250E+02 -0.26421845013E+03 -0.21232769972E+04  0.21400358713E+04  0.25500000920E-02 0.  1.
       -2    1    3    3    0  502  0.40459042250E+02  0.26421845013E+03  0.22119491338E+03  0.34695174477E+03  0.25500000920E-02 0. -1.
</event>
<event>
 5   0  0.6838750E-05  0.1602471E+04  0.7818609E-02  0.8819031E-01
       -3   -1    0    0    0  501  0.00000000000E+00  0.00000000000E+00  0.68339319020E+03  0.68339319766E+03  0.10100000352E+00 0. -1.
        3   -1    0    0  501    0  0.00000000000E+00  0.00000000000E+00 -0.93939840654E+03  0.93939841197E+03  0.10100000352E+00 0.  1.
    10030    2    1    2    0    0  0.00000000000E+00  0.00000000000E+00 -0.25600521634E+03  0.16227916096E+04  0.16024711971E+04 0.  0.
        4    1    3    3  502    0  0.62196838955E+03 -0.12663807997E+03  0.36717130824E+03  0.73327911698E+03  0.12699999809E+01 0. -1.
       -4    1    3    3    0  502 -0.62196838955E+03  0.12663807997E+03 -0.62317652458E+03  0.88951249265E+03  0.12699999809E+01 0.  1.
</event>
<event>
 5   0  0.1835088E-04  0.1625445E+04  0.7818609E-02  0.8805067E-01
       -2   -1    0    0    0  501  0.00000000000E+00  0.00000000000E+00  0.36536948916E+03  0.36536948917E+03  0.25500000920E-02 0.  1.
        2   -1    0    0  501    0  0.00000000000E+00  0.00000000000E+00 -0.18078078830E+04  0.18078078830E+04  0.25500000920E-02 0. -1.
    10030    2    1    2    0    0  0.00000000000E+00  0.00000000000E+00 -0.14424383938E+04  0.21731773721E+04  0.16254449763E+04 0.  0.
        5    1    3    3  502    0 -0.64877740643E+03  0.38456931037E+03 -0.11260598028E+04  0.13553001317E+04  0.46999998093E+01 0. -1.
       -5    1    3    3    0  502  0.64877740643E+03 -0.38456931037E+03 -0.31637859103E+03  0.81787724044E+03  0.46999998093E+01 0.  1.
</event>
<event>
 5   0  0.1835088E-04  0.1540198E+04  0.7818609E-02  0.8858153E-01
       -2   -1    0    0    0  501  0.00000000000E+00  0.00000000000E+00  0.12661902036E+04  0.12661902036E+04  0.25500000920E-02 0. -1.
        2   -1    0    0  501    0  0.00000000000E+00  0.00000000000E+00 -0.46837554027E+03  0.46837554027E+03  0.25500000920E-02 0.  1.
    10030    2    1    2    0    0  0.00000000000E+00  0.00000000000E+00  0.79781466332E+03  0.17345657439E+04  0.15401980661E+04 0.  0.
        5    1    3    3  502    0 -0.10203810716E+03 -0.31385747045E+03  0.11824942551E+04  0.12276941966E+04  0.46999998093E+01 0. -1.
       -5    1    3    3    0  502  0.10203810716E+03  0.31385747045E+03 -0.38467959178E+03  0.50687154724E+03  0.46999998093E+01 0.  1.
</event>
<event>
 5   0  0.9673017E-05  0.1591198E+04  0.7818609E-02  0.8825974E-01
        1   -1    0    0  501    0  0.00000000000E+00  0.00000000000E+00  0.14563658794E+04  0.14563658794E+04  0.50400001928E-02 0.  1.
       -1   -1    0    0    0  501  0.00000000000E+00  0.00000000000E+00 -0.43462831169E+03  0.43462831171E+03  0.50400001928E-02 0. -1.
    10030    2    1    2    0    0  0.00000000000E+00  0.00000000000E+00  0.10217375677E+04  0.18909941911E+04  0.15911980937E+04 0.  0.
        1    1    3    3  502    0  0.23371325578E+03  0.12355022621E+03  0.14026439071E+04  0.14273389487E+04  0.50400001928E-02 0.  1.
       -1    1    3    3    0  502 -0.23371325578E+03 -0.12355022621E+03 -0.38090633944E+03  0.46365524237E+03  0.50400001928E-02 0. -1.
</event>
<event>
 5   0  0.9432152E-05  0.1609553E+04  0.7818609E-02  0.8814701E-01
        1   -1    0    0  501    0  0.00000000000E+00  0.00000000000E+00  0.14985145410E+04  0.14985145410E+04  0.50400001928E-02 0. -1.
       -1   -1    0    0    0  501  0.00000000000E+00  0.00000000000E+00 -0.43220465172E+03  0.43220465174E+03  0.50400001928E-02 0.  1.
    10030    2    1    2    0    0  0.00000000000E+00  0.00000000000E+00  0.10663098893E+04  0.19307191927E+04  0.16095526774E+04 0.  0.
        4    1    3    3  502    0 -0.60481564551E+02 -0.10257076878E+03  0.14878879492E+04  0.14926456192E+04  0.12699999809E+01 0. -1.
       -4    1    3    3    0  502  0.60481564551E+02  0.10257076878E+03 -0.42157805996E+03  0.43807357350E+03  0.12699999809E+01 0.  1.
</event>
<event>
 5   0  0.1914170E-04  0.1601093E+04  0.7818609E-02  0.8819877E-01
       -2   -1    0    0    0  501  0.00000000000E+00  0.00000000000E+00  0.47461119225E+03  0.47461119225E+03  0.25500000920E-02 0. -1.
        2   -1    0    0  501    0  0.00000000000E+00  0.00000000000E+00 -0.13503148830E+04  0.13503148830E+04  0.25500000920E-02 0.  1.
    10030    2    1    2    0    0  0.00000000000E+00  0.00000000000E+00 -0.87570369076E+03  0.18249260753E+04  0.16010928225E+04 0.  0.
        3    1    3    3  502    0  0.69099215820E+03 -0.23159064026E+03 -0.60217998592E+02  0.73125276404E+03  0.10100000352E+00 0. -1.
       -3    1    3    3    0  502 -0.69099215820E+03  0.23159064026E+03 -0.81548569216E+03  0.10936733112E+04  0.10100000352E+00 0.  1.
</event>
<event>
 5   0  0.1774934E-04  0.1600942E+04  0.7818609E-02  0.8819969E-01
        2   -1    0    0  501    0  0.00000000000E+00  0.00000000000E+00  0.16185037275E+04  0.16185037275E+04  0.25500000920E-02 0. -1.
       -2   -1    0    0    0  501  0.00000000000E+00  0.00000000000E+00 -0.39589278137E+03  0.39589278138E+03  0.25500000920E-02 0.  1.
    10030    2    1    2    0    0  0.00000000000E+00  0.00000000000E+00  0.12226109462E+04  0.20143965089E+04  0.16009421506E+04 0.  0.
        1    1    3    3  502    0  0.66306393026E+03  0.43609266274E+02  0.49724684528E+02  0.66635432616E+03  0.50400001928E-02 0.  1.
       -1    1    3    3    0  502 -0.66306393026E+03 -0.43609266274E+02  0.11728862616E+04  0.13480421827E+04  0.50400001928E-02 0. -1.
</event>
<event>
 5   0  0.1835088E-04  0.1606264E+04  0.7818609E-02  0.8816709E-01
        2   -1    0    0  501    0  0.00000000000E+00  0.00000000000E+00  0.20381801933E+04  0.20381801933E+04  0.25500000920E-02 0. -1.
       -2   -1    0    0    0  501  0.00000000000E+00  0.00000000000E+00 -0.31646891943E+03  0.31646891944E+03  0.25500000920E-02 0.  1.
    10030    2    1    2    0    0  0.00000000000E+00  0.00000000000E+00  0.17217112739E+04  0.23546491128E+04  0.16062635940E+04 0.  0.
        5    1    3    3  502    0  0.12055217631E+03 -0.20870809224E+03  0.19838922495E+04  0.19984850369E+04  0.46999998093E+01 0. -1.
       -5    1    3    3    0  502 -0.12055217631E+03  0.20870809224E+03 -0.26218097561E+03  0.35616407588E+03  0.46999998093E+01 0.  1.
</event>
<event>
 5   0  0.6838750E-05  0.1596178E+04  0.7818609E-02  0.8822899E-01
        4   -1    0    0  501    0  0.00000000000E+00  0.00000000000E+00  0.13412693310E+04  0.13412699323E+04  0.12699999809E+01 0.  1.
       -4   -1    0    0    0  501  0.00000000000E+00  0.00000000000E+00 -0.47488177374E+03  0.47488347195E+03  0.12699999809E+01 0. -1.
    10030    2    1    2    0    0  0.00000000000E+00  0.00000000000E+00  0.86638755726E+03  0.18161534042E+04  0.15961784951E+04 0.  0.
        4    1    3    3  502    0 -0.50921700878E+03  0.17563152410E+03 -0.23685803794E+03  0.58843159104E+03  0.12699999809E+01 0. -1.
       -4    1    3    3    0  502  0.50921700878E+03 -0.17563152410E+03  0.11032455952E+04  0.12277218132E+04  0.12699999809E+01 0.  1.
</event>
<event>
 5   0  0.1914170E-04  0.1591085E+04  0.7818609E-02  0.8826044E-01
       -2   -1    0    0    0  501  0.00000000000E+00  0.00000000000E+00  0.67942361044E+03  0.67942361044E+03  0.25500000920E-02 0.  1.
        2   -1    0    0  501    0  0.00000000000E+00  0.00000000000E+00 -0.93150664604E+03  0.93150664605E+03  0.25500000920E-02 0. -1.
    10030    2    1    2    0    0  0.00000000000E+00  0.00000000000E+00 -0.25208303561E+03  0.16109302565E+04  0.15910846723E+04 0.  0.
        3    1    3    3  502    0 -0.20218395615E+03  0.76662435011E+03 -0.19240564389E+03  0.81584997904E+03  0.10100000352E+00 0. -1.
       -3    1    3    3    0  502  0.20218395615E+03 -0.76662435011E+03 -0.59677391720E+02  0.79508027745E+03  0.10100000352E+00 0.  1.
</event>
<event>
 5   0  0.1858913E-04  0.1601398E+04  0.7818609E-02  0.8819690E-01
        2   -1    0    0  501    0  0.00000000000E+00  0.00000000000E+00  0.15884828034E+04  0.15884828034E+04  0.25500000920E-02 0. -1.
       -2   -1    0    0    0  501  0.00000000000E+00  0.00000000000E+00 -0.40360446982E+03  0.40360446983E+03  0.25500000920E-02 0.  1.
    10030    2    1    2    0    0  0.00000000000E+00  0.00000000000E+00  0.11848783336E+04  0.19920872732E+04  0.16013978390E+04 0.  0.
        4    1    3    3  502    0  0.34219986222E+03 -0.20032275431E+03  0.14577680255E+04  0.15107346494E+04  0.12699999809E+01 0. -1.
       -4    1    3    3    0  502 -0.34219986222E+03  0.20032275431E+03 -0.27288969199E+03  0.48135262385E+03  0.12699999809E+01 0.  1.
</event>
<event>
 5   0  0.9616567E-05  0.1603228E+04  0.7818609E-02  0.8818568E-01
       -1   -1    0    0    0  501  0.00000000000E+00  0.00000000000E+00  0.14039851967E+04  0.14039851967E+04  0.50400001928E-02 0.  1.
        1   -1    0    0  501    0  0.00000000000E+00  0.00000000000E+00 -0.45768620662E+03  0.45768620665E+03  0.50400001928E-02 0. -1.
    10030    2    1    2    0    0  0.00000000000E+00  0.00000000000E+00  0.94629899012E+03  0.18616714034E+04  0.16032275682E+04 0.  0.
        5    1    3    3  502    0 -0.13017267209E+03 -0.31842119301E+02  0.13908693760E+04  0.13973183447E+04  0.46999998093E+01 0.  1.
       -5    1    3    3    0  502  0.13017267209E+03  0.31842119301E+02 -0.44457038592E+03  0.46435305874E+03  0.46999998093E+01 0. -1.
</event>
<event>
 5   0  0.1914170E-04  0.1597632E+04  0.7818609E-02  0.8822004E-01
        2   -1    0    0  501    0  0.00000000000E+00  0.00000000000E+00  0.64110198962E+03  0.64110198962E+03  0.25500000920E-02 0. -1.
       -2   -1    0    0    0  501  0.00000000000E+00  0.00000000000E+00 -0.99532877594E+03  0.99532877595E+03  0.25500000920E-02 0.  1.
    10030    2    1    2    0    0  0.00000000000E+00  0.00000000000E+00 -0.35422678633E+03  0.16364307656E+04  0.15976323214E+04 0.  0.
        3    1    3    3  502    0  0.64062033535E+03 -0.43275990874E+03  0.28846081675E+02  0.77363276773E+03  0.10100000352E+00 0.  1.
       -3    1    3    3    0  502 -0.64062033535E+03  0.43275990874E+03 -0.38307286800E+03  0.86279799784E+03  0.10100000352E+00 0. -1.
</event>
<event>
 5   0  0.1858913E-04  0.1603514E+04  0.7818609E-02  0.8818392E-01
        2   -1    0    0  501    0  0.00000000000E+00  0.00000000000E+00  0.10342258965E+04  0.10342258966E+04  0.25500000920E-02 0.  1.
       -2   -1    0    0    0  501  0.00000000000E+00  0.00000000000E+00 -0.62154140451E+03  0.62154140451E+03  0.25500000920E-02 0. -1.
    10030    2    1    2    0    0  0.00000000000E+00  0.00000000000E+00  0.41268449204E+03  0.16557673011E+04  0.16035139118E+04 0.  0.
        4    1    3    3  502    0  0.44149481390E+03  0.64281278753E+03  0.39865485818E+03  0.87581576793E+03  0.12699999809E+01 0.  1.
       -4    1    3    3    0  502 -0.44149481390E+03 -0.64281278753E+03  0.14029633868E+02  0.77995153313E+03  0.12699999809E+01 0. -1.
</event>
<event>
 5   0  0.1774934E-04  0.1601282E+04  0.7818609E-02  0.8819761E-01
        2   -1    0    0  501    0  0.00000000000E+00  0.00000000000E+00  0.18041602653E+04  0.18041602653E+04  0.25500000920E-02 0. -1.
       -2   -1    0    0    0  501  0.00000000000E+00  0.00000000000E+00 -0.35530415809E+03  0.35530415810E+03  0.25500000920E-02 0.  1.
    10030    2    1    2    0    0  0.00000000000E+00  0.00000000000E+00  0.14488561072E+04  0.21594644234E+04  0.16012815419E+04 0.  0.
        1    1    3    3  502    0 -0.71295646478E+03 -0.35343761538E+03  0.60531984923E+03  0.99981857781E+03  0.50400001928E-02 0.  1.
       -1    1    3    3    0  502  0.71295646478E+03  0.35343761538E+03  0.84353625799E+03  0.11596458456E+04  0.50400001928E-02 0. -1.
</event>
<event>
 5   0  0.9432152E-05  0.1569143E+04  0.7818609E-02  0.8839732E-01
        1   -1    0    0  501    0  0.00000000000E+00  0.00000000000E+00  0.99406592159E+03  0.99406592160E+03  0.50400001928E-02 0.  1.
       -1   -1    0    0    0  501  0.00000000000E+00  0.00000000000E+00 -0.61922692948E+03  0.61922692950E+03  0.50400001928E-02 0. -1.
    10030    2    1    2    0    0  0.00000000000E+00  0.00000000000E+00  0.37483899211E+03  0.16132928511E+04  0.15691429359E+04 0.  0.
        4    1    3    3  502    0  0.72196115424E+03  0.71705351905E+01 -0.12825594676E+03  0.73330111522E+03  0.12699999809E+01 0. -1.
       -4    1    3    3    0  502 -0.72196115424E+03 -0.71705351905E+01  0.50309493887E+03  0.87999173588E+03  0.12699999809E+01 0.  1.
</event>
<event>
 5   0  0.1914170E-04  0.1604925E+04  0.7818609E-02  0.8817528E-01
       -2   -1    0    0    0  501  0.00000000000E+00  0.00000000000E+00  0.73937544510E+03  0.73937544510E+03  0.25500000920E-02 0.  1.
        2   -1    0    0  501    0  0.00000000000E+00  0.00000000000E+00 -0.87093214307E+03  0.87093214307E+03  0.25500000920E-02 0. -1.
    10030    2    1    2    0    0  0.00000000000E+00  0.00000000000E+00 -0.13155669797E+03  0.16103075882E+04  0.16049247221E+04 0.  0.
        3    1    3    3  502    0  0.63595154190E+03 -0.46857549119E+03 -0.20749113477E+03  0.81673125065E+03  0.10100000352E+00 0. -1.
       -3    1    3    3    0  502 -0.63595154190E+03  0.46857549119E+03  0.75934436793E+02  0.79357633752E+03  0.10100000352E+00 0.  1.
</event>
<event>
 5   0  0.1835088E-04  0.1593967E+04  0.7818609E-02  0.8824263E-01
       -2   -1    0    0    0  501  0.00000000000E+00  0.00000000000E+00  0.75920706451E+03  0.75920706451E+03  0.25500000920E-02 0. -1.
        2   -1    0    0  501    0  0.00000000000E+00  0.00000000000E+00 -0.83663939746E+03  0.83663939746E+03  0.25500000920E-02 0.  1.
    10030    2    1    2    0    0  0.00000000000E+00  0.00000000000E+00 -0.77432332953E+02  0.15958464620E+04  0.15939668014E+04 0.  0.
        5    1    3    3  502    0 -0.15895273545E+03 -0.12336421679E+03  0.73334542441E+03  0.76046190147E+03  0.46999998093E+01 0. -1.
       -5    1    3    3    0  502  0.15895273545E+03  0.12336421679E+03 -0.81077775736E+03  0.83538456050E+03  0.46999998093E+01 0.  1.
</event>
<event>
 5   0  0.9939872E-05  0.1605553E+04  0.7818609E-02  0.8817144E-01
       -1   -1    0    0    0  501  0.00000000000E+00  0.00000000000E+00  0.94048805013E+03  0.94048805014E+03  0.50400001928E-02 0.  1.
        1   -1    0    0  501    0  0.00000000000E+00  0.00000000000E+00 -0.68522961460E+03  0.68522961462E+03  0.50400001928E-02 0. -1.
    10030    2    1    2    0    0  0.00000000000E+00  0.00000000000E+00  0.25525843553E+03  0.16257176648E+04  0.16055531933E+04 0.  0.
        3    1    3    3  502    0  0.36041157263E+03 -0.67308329469E+03 -0.12350308352E+03  0.77342785385E+03  0.10100000352E+00 0. -1.
       -3    1    3    3    0  502 -0.36041157263E+03  0.67308329469E+03  0.37876151905E+03  0.85228981091E+03  0.10100000352E+00 0.  1.
</event>
<event>
 5   0  0.6838750E-05  0.1599799E+04  0.7818609E-02  0.8820672E-01
       -3   -1    0    0    0  501  0.00000000000E+00  0.00000000000E+00  0.47835358507E+03  0.47835359573E+03  0.10100000352E+00 0. -1.
        3   -1    0    0  501    0  0.00000000000E+00  0.00000000000E+00 -0.13375860245E+04  0.13375860283E+04  0.10100000352E+00 0.  1.
    10030    2    1    2    0    0  0.00000000000E+00  0.00000000000E+00 -0.85923243943E+03  0.18159396240E+04  0.15997988415E+04 0.  0.
        5    1    3    3  502    0  0.46439995430E+03  0.63295876277E+03 -0.25556024147E+03  0.82561325082E+03  0.46999998093E+01 0. -1.
       -5    1    3    3    0  502 -0.46439995430E+03 -0.63295876277E+03 -0.60367219796E+03  0.99032637322E+03  0.46999998093E+01 0.  1.
</event>
<event>
 5   0  0.9432152E-05  0.1595347E+04  0.7818609E-02  0.8823412E-01
       -1   -1    0    0    0  501  0.00000000000E+00  0.00000000000E+00  0.11649668798E+04  0.11649668798E+04  0.50400001928E-02 0. -1.
        1   -1    0    0  501    0  0.00000000000E+00  0.00000000000E+00 -0.54618127944E+03  0.54618127946E+03  0.50400001928E-02 0.  1.
    10030    2    1    2    0    0  0.00000000000E+00  0.00000000000E+00  0.61878560034E+03  0.17111481593E+04  0.15953471107E+04 0.  0.
        4    1    3    3  502    0  0.20979662186E+03 -0.72618550385E+02  0.11311604445E+04  0.11527417927E+04  0.12699999809E+01 0. -1.
       -4    1    3    3    0  502 -0.20979662186E+03  0.72618550385E+02 -0.51237484418E+03  0.55840636659E+03  0.12699999809E+01 0.  1.
</event>
<event>
 5   0  0.1858913E-04  0.1603513E+04  0.7818609E-02  0.8818393E-01
        2   -1    0    0  501    0  0.00000000000E+00  0.00000000000E+00  0.61619051957E+03  0.61619051957E+03  0.25500000920E-02 0. -1.
       -2   -1    0    0    0  501  0.00000000000E+00  0.00000000000E+00 -0.10432057423E+04  0.10432057423E+04  0.25500000920E-02 0.  1.
    10030    2    1    2    0    0  0.00000000000E+00  0.00000000000E+00 -0.42701522276E+03  0.16593962619E+04  0.16035130039E+04 0.  0.
        4    1    3    3  502    0 -0.12918737938E+03 -0.38368208707E+03 -0.92965897715E+03  0.10139865628E+04  0.12699999809E+01 0.  1.
       -4    1    3    3    0  502  0.12918737938E+03  0.38368208707E+03  0.50264375439E+03  0.64540969907E+03  0.12699999809E+01 0. -1.
</event>
<event>
 5   0  0.9939872E-05  0.1576731E+04  0.7818609E-02  0.8834972E-01
        1   -1    0    0  501    0  0.00000000000E+00  0.00000000000E+00  0.13271210297E+04  0.13271210297E+04  0.50400001928E-02 0. -1.
       -1   -1    0    0    0  501  0.00000000000E+00  0.00000000000E+00 -0.46832234533E+03  0.46832234536E+03  0.50400001928E-02 0.  1.
    10030    2    1    2    0    0  0.00000000000E+00  0.00000000000E+00  0.85879868437E+03  0.17954433751E+04  0.15767313445E+04 0.  0.
        3    1    3    3  502    0  0.41816798820E+03 -0.17361855047E+02  0.11901703984E+04  0.12616146353E+04  0.10100000352E+00 0. -1.
       -3    1    3    3    0  502 -0.41816798820E+03  0.17361855047E+02 -0.33137171408E+03  0.53382873982E+03  0.10100000352E+00 0.  1.
</event>
<event>
 5   0  0.1835088E-04  0.1600349E+04  0.7818609E-02  0.8820333E-01
       -2   -1    0    0    0  501  0.00000000000E+00  0.00000000000E+00  0.46613719079E+03  0.46613719080E+03  0.25500000920E-02 0.  1.
        2   -1    0    0  501    0  0.00000000000E+00  0.00000000000E+00 -0.13735861731E+04  0.13735861731E+04  0.25500000920E-02 0. -1.
    10030    2    1    2    0    0  0.00000000000E+00  0.00000000000E+00 -0.90744898235E+03  0.18397233639E+04  0.16003494619E+04 0.  0.
        5    1    3    3  502    0 -0.34976625758E+03  0.69812594282E+03 -0.25282397594E+03  0.82076690953E+03  0.46999998093E+01 0.  1.
       -5    1    3    3    0  502  0.34976625758E+03 -0.69812594282E+03 -0.65462500641E+03  0.10189564544E+04  0.46999998093E+01 0. -1.
</event>
<event>
 5   0  0.1832646E-04  0.1597441E+04  0.7818609E-02  0.8822121E-01
        2   -1    0    0  501    0  0.00000000000E+00  0.00000000000E+00  0.10201930496E+04  0.10201930496E+04  0.25500000920E-02 0. -1.
       -2   -1    0    0    0  501  0.00000000000E+00  0.00000000000E+00 -0.62532738945E+03  0.62532738946E+03  0.25500000920E-02 0.  1.
    10030    2    1    2    0    0  0.00000000000E+00  0.00000000000E+00  0.39486566012E+03  0.16455204390E+04  0.15974412746E+04 0.  0.
        2    1    3    3  502    0  0.43776181731E+03  0.10380140698E+03  0.87725395255E+03  0.98589281266E+03  0.25500000920E-02 0. -1.
       -2    1    3    3    0  502 -0.43776181731E+03 -0.10380140698E+03 -0.48238829243E+03  0.65962762637E+03  0.25500000920E-02 0.  1.
</event>
<event>
 5   0  0.1835088E-04  0.1599271E+04  0.7818609E-02  0.8820996E-01
        2   -1    0    0  501    0  0.00000000000E+00  0.00000000000E+00  0.78752194022E+03  0.78752194023E+03  0.25500000920E-02 0. -1.
       -2   -1    0    0    0  501  0.00000000000E+00  0.00000000000E+00 -0.81193544759E+03  0.81193544760E+03  0.25500000920E-02 0.  1.
    10030    2    1    2    0    0  0.00000000000E+00  0.00000000000E+00 -0.24413507370E+02  0.15994573878E+04  0.15992710577E+04 0.  0.
        5    1    3    3  502    0  0.64060662097E+03 -0.46077168387E+03 -0.14147931431E+03  0.80170186096E+03  0.46999998093E+01 0.  1.
       -5    1    3    3    0  502 -0.64060662097E+03  0.46077168387E+03  0.11706580694E+03  0.79775552686E+03  0.46999998093E+01 0. -1.
</event>
<event>
 5   0  0.9616567E-05  0.1603186E+04  0.7818609E-02  0.8818593E-01
       -1   -1    0    0    0  501  0.00000000000E+00  0.00000000000E+00  0.51697357439E+03  0.51697357441E+03  0.50400001928E-02 0.  1.
        1   -1    0    0  501    0  0.00000000000E+00  0.00000000000E+00 -0.12429098711E+04  0.12429098712E+04  0.50400001928E-02 0. -1.
    10030    2    1    2    0    0  0.00000000000E+00  0.00000000000E+00 -0.72593629676E+03  0.17598834456E+04  0.16031862758E+04 0.  0.
        5    1    3    3  502    0  0.36846632660E+03  0.44691961539E+03  0.24528828848E+03  0.62904134278E+03  0.46999998093E+01 0.  1.
       -5    1    3    3    0  502 -0.36846632660E+03 -0.44691961539E+03 -0.97122458524E+03  0.11308421028E+04  0.46999998093E+01 0. -1.
</event>
<event>
 5   0  0.9432152E-05  0.1598047E+04  0.7818609E-02  0.8821749E-01
        1   -1    0    0  501    0  0.00000000000E+00  0.00000000000E+00  0.14217258508E+04  0.14217258508E+04  0.50400001928E-02 0.  1.
       -1   -1    0    0    0  501  0.00000000000E+00  0.00000000000E+00 -0.44905900116E+03  0.44905900119E+03  0.50400001928E-02 0. -1.
    10030    2    1    2    0    0  0.00000000000E+00  0.00000000000E+00  0.97266684966E+03  0.18707848520E+04  0.15980472966E+04 0.  0.
        4    1    3    3  502    0  0.13415256647E+03  0.47538220336E+03  0.12215771253E+04  0.13176636279E+04  0.12699999809E+01 0.  1.
       -4    1    3    3    0  502 -0.13415256647E+03 -0.47538220336E+03 -0.24891027562E+03  0.55312122412E+03  0.12699999809E+01 0. -1.
</event>
<event>
 5   0  0.1914170E-04  0.1597889E+04  0.7818609E-02  0.8821846E-01
       -2   -1    0    0    0  501  0.00000000000E+00  0.00000000000E+00  0.65745512639E+03  0.65745512640E+03  0.25500000920E-02 0.  1.
        2   -1    0    0  501    0  0.00000000000E+00  0.00000000000E+00 -0.97088341789E+03  0.97088341789E+03  0.25500000920E-02 0. -1.
    10030    2    1    2    0    0  0.00000000000E+00  0.00000000000E+00 -0.31342829150E+03  0.16283385443E+04  0.15978889576E+04 0.  0.
        3    1    3    3  502    0 -0.56407931284E+03  0.56047247234E+03 -0.23563283332E+03  0.82935981683E+03  0.10100000352E+00 0.  1.
       -3    1    3    3    0  502  0.56407931284E+03 -0.56047247234E+03 -0.77795458183E+02  0.79897872747E+03  0.10100000352E+00 0. -1.
</event>
<event>
 5   0  0.9726935E-05  0.1487426E+04  0.7818609E-02  0.8892858E-01
       -1   -1    0    0    0  501  0.00000000000E+00  0.00000000000E+00  0.37581669041E+03  0.37581669045E+03  0.50400001928E-02 0. -1.
        1   -1    0    0  501    0  0.00000000000E+00  0.00000000000E+00 -0.14717521399E+04  0.14717521399E+04  0.50400001928E-02 0.  1.
    10030    2    1    2    0    0  0.00000000000E+00  0.00000000000E+00 -0.10959354495E+04  0.18475688304E+04  0.14874259893E+04 0.  0.
        2    1    3    3  502    0  0.54214685271E+03 -0.23411460913E+03 -0.11095073101E+04  0.12568768163E+04  0.25500000920E-02 0.  1.
       -2    1    3    3    0  502 -0.54214685271E+03  0.23411460913E+03  0.13571860608E+02  0.59069201409E+03  0.25500000920E-02 0. -1.
</event>
<event>
 5   0  0.1858913E-04  0.1582063E+04  0.7818609E-02  0.8831644E-01
        2   -1    0    0  501    0  0.00000000000E+00  0.00000000000E+00  0.12700585377E+04  0.12700585377E+04  0.25500000920E-02 0. -1.
       -2   -1    0    0    0  501  0.00000000000E+00  0.00000000000E+00 -0.49267892288E+03  0.49267892288E+03  0.25500000920E-02 0.  1.
    10030    2    1    2    0    0  0.00000000000E+00  0.00000000000E+00  0.77737961485E+03  0.17627374606E+04  0.15820633013E+04 0.  0.
        4    1    3    3  502    0 -0.11129699718E+03  0.67203090290E+03 -0.59375672346E+02  0.68376870315E+03  0.12699999809E+01 0.  1.
       -4    1    3    3    0  502  0.11129699718E+03 -0.67203090290E+03  0.83675528719E+03  0.10789687575E+04  0.12699999809E+01 0. -1.
</event>
<event>
 5   0  0.9432152E-05  0.1597948E+04  0.7818609E-02  0.8821810E-01
       -1   -1    0    0    0  501  0.00000000000E+00  0.00000000000E+00  0.60942468617E+03  0.60942468619E+03  0.50400001928E-02 0. -1.
        1   -1    0    0  501    0  0.00000000000E+00  0.00000000000E+00 -0.10474790323E+04  0.10474790323E+04  0.50400001928E-02 0.  1.
    10030    2    1    2    0    0  0.00000000000E+00  0.00000000000E+00 -0.43805434609E+03  0.16569037185E+04  0.15979481600E+04 0.  0.
        4    1    3    3  502    0 -0.44110185499E+03 -0.39345816666E+03  0.33837264291E+03  0.68108577563E+03  0.12699999809E+01 0. -1.
       -4    1    3    3    0  502  0.44110185499E+03  0.39345816666E+03 -0.77642698901E+03  0.97581794283E+03  0.12699999809E+01 0.  1.
</event>
<event>
 5   0  0.9673017E-05  0.1608801E+04  0.7818609E-02  0.8815160E-01
       -1   -1    0    0    0  501  0.00000000000E+00  0.00000000000E+00  0.45490867471E+03  0.45490867474E+03  0.50400001928E-02 0. -1.
        1   -1    0    0  501    0  0.00000000000E+00  0.00000000000E+00 -0.14223954144E+04  0.14223954144E+04  0.50400001928E-02 0.  1.
    10030    2    1    2    0    0  0.00000000000E+00  0.00000000000E+00 -0.96748673969E+03  0.18773040892E+04  0.16088008117E+04 0.  0.
        1    1    3    3  502    0 -0.19241906686E+03  0.15085905605E+03  0.41049571196E+03  0.47779732277E+03  0.50400001928E-02 0. -1.
       -1    1    3    3    0  502  0.19241906686E+03 -0.15085905605E+03 -0.13779824516E+04  0.13995067664E+04  0.50400001928E-02 0.  1.
</event>
<event>
 5   0  0.9616567E-05  0.1596218E+04  0.7818609E-02  0.8822875E-01
       -1   -1    0    0    0  501  0.00000000000E+00  0.00000000000E+00  0.74255000399E+03  0.74255000400E+03  0.50400001928E-02 0. -1.
        1   -1    0    0  501    0  0.00000000000E+00  0.00000000000E+00 -0.85782496897E+03  0.85782496899E+03  0.50400001928E-02 0.  1.
    10030    2    1    2    0    0  0.00000000000E+00  0.00000000000E+00 -0.11527496498E+03  0.16003749730E+04  0.15962179477E+04 0.  0.
        5    1    3    3  502    0  0.41757498796E+03  0.52312343133E+02  0.62225124739E+03  0.75121512011E+03  0.46999998093E+01 0. -1.
       -5    1    3    3    0  502 -0.41757498796E+03 -0.52312343133E+02 -0.73752621237E+03  0.84915985288E+03  0.46999998093E+01 0.  1.
</event>
<event>
 5   0  0.9939872E-05  0.1598853E+04  0.7818609E-02  0.8821253E-01
       -1   -1    0    0    0  501  0.00000000000E+00  0.00000000000E+00  0.92749843845E+03  0.92749843846E+03  0.50400001928E-02 0.  1.
        1   -1    0    0  501    0  0.00000000000E+00  0.00000000000E+00 -0.68903947489E+03  0.68903947491E+03  0.50400001928E-02 0. -1.
    10030    2    1    2    0    0  0.00000000000E+00  0.00000000000E+00  0.23845896355E+03  0.16165379134E+04  0.15988533854E+04 0.  0.
        3    1    3    3  502    0 -0.10768017329E+03  0.71555423630E+03 -0.22433804130E+03  0.75758857686E+03  0.10100000352E+00 0. -1.
       -3    1    3    3    0  502  0.10768017329E+03 -0.71555423630E+03  0.46279700485E+03  0.85894933652E+03  0.10100000352E+00 0.  1.
</event>
<event>
 5   0  0.1832646E-04  0.1597796E+04  0.7818609E-02  0.8821903E-01
        2   -1    0    0  501    0  0.00000000000E+00  0.00000000000E+00  0.51799721468E+03  0.51799721468E+03  0.25500000920E-02 0. -1.
       -2   -1    0    0    0  501  0.00000000000E+00  0.00000000000E+00 -0.12321269277E+04  0.12321269277E+04  0.25500000920E-02 0.  1.
    10030    2    1    2    0    0  0.00000000000E+00  0.00000000000E+00 -0.71412971306E+03  0.17501241424E+04  0.15977963784E+04 0.  0.
        2    1    3    3  502    0 -0.22589966618E+03  0.26757796961E+03  0.42945186033E+03  0.55412771935E+03  0.25500000920E-02 0. -1.
       -2    1    3    3    0  502  0.22589966618E+03 -0.26757796961E+03 -0.11435815734E+04  0.11959964231E+04  0.25500000920E-02 0.  1.
</event>
<event>
 5   0  0.9432152E-05  0.1593049E+04  0.7818609E-02  0.8824829E-01
        1   -1    0    0  501    0  0.00000000000E+00  0.00000000000E+00  0.74164043401E+03  0.74164043402E+03  0.50400001928E-02 0. -1.
       -1   -1    0    0    0  501  0.00000000000E+00  0.00000000000E+00 -0.85547072051E+03  0.85547072053E+03  0.50400001928E-02 0.  1.
    10030    2    1    2    0    0  0.00000000000E+00  0.00000000000E+00 -0.11383028651E+03  0.15971111546E+04  0.15930494989E+04 0.  0.
        4    1    3    3  502    0  0.47157055323E+03 -0.52927507460E+03  0.30724528426E+03  0.77260091177E+03  0.12699999809E+01 0. -1.
       -4    1    3    3    0  502 -0.47157055323E+03  0.52927507460E+03 -0.42107557077E+03  0.82451024279E+03  0.12699999809E+01 0.  1.
</event>
<event>
 5   0  0.1914170E-04  0.1599713E+04  0.7818609E-02  0.8820725E-01
        2   -1    0    0  501    0  0.00000000000E+00  0.00000000000E+00  0.77022058960E+03  0.77022058961E+03  0.25500000920E-02 0.  1.
       -2   -1    0    0    0  501  0.00000000000E+00  0.00000000000E+00 -0.83063238937E+03  0.83063238938E+03  0.25500000920E-02 0. -1.
    10030    2    1    2    0    0  0.00000000000E+00  0.00000000000E+00 -0.60411799770E+02  0.16008529790E+04  0.15997126851E+04 0.  0.
        3    1    3    3  502    0 -0.53957232224E+03  0.48711983470E+03 -0.36412943669E+03  0.81302784771E+03  0.10100000352E+00 0. -1.
       -3    1    3    3    0  502  0.53957232224E+03 -0.48711983470E+03  0.30371763692E+03  0.78782513127E+03  0.10100000352E+00 0.  1.
</event>
<event>
 5   0  0.1858913E-04  0.1599943E+04  0.7818609E-02  0.8820583E-01
        2   -1    0    0  501    0  0.00000000000E+00  0.00000000000E+00  0.19165033454E+04  0.19165033454E+04  0.25500000920E-02 0. -1.
       -2   -1    0    0    0  501  0.00000000000E+00  0.00000000000E+00 -0.33391768578E+03  0.33391768579E+03  0.25500000920E-02 0.  1.
    10030    2    1    2    0    0  0.00000000000E+00  0.00000000000E+00  0.15825856596E+04  0.22504210312E+04  0.15999429514E+04 0.  0.
        4    1    3    3  502    0 -0.23631273412E+03  0.52130748362E+03  0.51918618157E+01  0.57239301980E+03  0.12699999809E+01 0.  1.
       -4    1    3    3    0  502  0.23631273412E+03 -0.52130748362E+03  0.15773937978E+04  0.16780280114E+04  0.12699999809E+01 0. -1.
</event>
<event>
 5   0  0.9673017E-05  0.1590659E+04  0.7818609E-02  0.8826307E-01
        1   -1    0    0  501    0  0.00000000000E+00  0.00000000000E+00  0.10767662727E+04  0.10767662727E+04  0.50400001928E-02 0. -1.
       -1   -1    0    0    0  501  0.00000000000E+00  0.00000000000E+00 -0.58745249529E+03  0.58745249531E+03  0.50400001928E-02 0.  1.
    10030    2    1    2    0    0  0.00000000000E+00  0.00000000000E+00  0.48931377743E+03  0.16642187680E+04  0.15906590254E+04 0.  0.
        1    1    3    3  502    0  0.60465623000E+03 -0.36010997423E+03 -0.14296331046E+03  0.71814125224E+03  0.50400001928E-02 0.  1.
       -1    1    3    3    0  502 -0.60465623000E+03  0.36010997423E+03  0.63227708789E+03  0.94607751580E+03  0.50400001928E-02 0. -1.
</event>
<event>
 5   0  0.1835088E-04  0.1600131E+04  0.7818609E-02  0.8820468E-01
        2   -1    0    0  501    0  0.00000000000E+00  0.00000000000E+00  0.10846671498E+04  0.10846671498E+04  0.25500000920E-02 0.  1.
       -2   -1    0    0    0  501  0.00000000000E+00  0.00000000000E+00 -0.59013905036E+03  0.59013905036E+03  0.25500000920E-02 0. -1.
    10030    2    1    2    0    0  0.00000000000E+00  0.00000000000E+00  0.49452809944E+03  0.16748062002E+04  0.16001305468E+04 0.  0.
        5    1    3    3  502    0  0.45022614818E+02 -0.73465527377E+03  0.57548590735E+03  0.93431875004E+03  0.46999998093E+01 0. -1.
       -5    1    3    3    0  502 -0.45022614818E+02  0.73465527377E+03 -0.80957807914E+02  0.74048745012E+03  0.46999998093E+01 0.  1.
</event>
<event>
 5   0  0.6838750E-05  0.1601790E+04  0.7818609E-02  0.8819449E-01
       -3   -1    0    0    0  501  0.00000000000E+00  0.00000000000E+00  0.10290061208E+04  0.10290061258E+04  0.10100000352E+00 0. -1.
        3   -1    0    0  501    0  0.00000000000E+00  0.00000000000E+00 -0.62335210895E+03  0.62335211713E+03  0.10100000352E+00 0.  1.
    10030    2    1    2    0    0  0.00000000000E+00  0.00000000000E+00  0.40565401189E+03  0.16523582429E+04  0.16017904312E+04 0.  0.
        3    1    3    3  502    0  0.74723570956E+02  0.59312406273E+03 -0.34696508713E+03  0.69120514157E+03  0.10100000352E+00 0.  1.
       -3    1    3    3    0  502 -0.74723570956E+02 -0.59312406273E+03  0.75261909902E+03  0.96115310136E+03  0.10100000352E+00 0. -1.
</event>
<event>
 5   0  0.1774934E-04  0.1594904E+04  0.7818609E-02  0.8823685E-01
        2   -1    0    0  501    0  0.00000000000E+00  0.00000000000E+00  0.30916475914E+04  0.30916475914E+04  0.25500000920E-02 0. -1.
       -2   -1    0    0    0  501  0.00000000000E+00  0.00000000000E+00 -0.20569283028E+03  0.20569283030E+03  0.25500000920E-02 0.  1.
    10030    2    1    2    0    0  0.00000000000E+00  0.00000000000E+00  0.28859547611E+04  0.32973404217E+04  0.15949040640E+04 0.  0.
        1    1    3    3  502    0  0.39434705503E+03 -0.22029294415E+02  0.10722314606E+02  0.39510740019E+03  0.50400001928E-02 0.  1.
       -1    1    3    3    0  502 -0.39434705503E+03  0.22029294415E+02  0.28752324465E+04  0.29022330215E+04  0.50400001928E-02 0. -1.
</event>
<event>
 5   0  0.1914170E-04  0.1599758E+04  0.7818609E-02  0.8820697E-01
        2   -1    0    0  501    0  0.00000000000E+00  0.00000000000E+00  0.15062823130E+04  0.15062823130E+04  0.25500000920E-02 0. -1.
       -2   -1    0    0    0  501  0.00000000000E+00  0.00000000000E+00 -0.42475874857E+03  0.42475874858E+03  0.25500000920E-02 0.  1.
    10030    2    1    2    0    0  0.00000000000E+00  0.00000000000E+00  0.10815235644E+04  0.19310410616E+04  0.15997582196E+04 0.  0.
        3    1    3    3  502    0 -0.38313145649E+03  0.23923278228E+03 -0.25608178217E+03  0.51923012859E+03  0.10100000352E+00 0.  1.
       -3    1    3    3    0  502  0.38313145649E+03 -0.23923278228E+03  0.13376053466E+04  0.14118109330E+04  0.10100000352E+00 0. -1.
</event>
<event>
 5   0  0.9673017E-05  0.1601961E+04  0.7818609E-02  0.8819344E-01
       -1   -1    0    0    0  501  0.00000000000E+00  0.00000000000E+00  0.42626831128E+03  0.42626831131E+03  0.50400001928E-02 0. -1.
        1   -1    0    0  501    0  0.00000000000E+00  0.00000000000E+00 -0.15050845467E+04  0.15050845467E+04  0.50400001928E-02 0.  1.
    10030    2    1    2    0    0  0.00000000000E+00  0.00000000000E+00 -0.10788162354E+04  0.19313528580E+04  0.16019611083E+04 0.  0.
        1    1    3    3  502    0 -0.43546053365E+03  0.41898978690E+03 -0.11732369974E+04  0.13197209440E+04  0.50400001928E-02 0.  1.
       -1    1    3    3    0  502  0.43546053365E+03 -0.41898978690E+03  0.94420762023E+02  0.61163191400E+03  0.50400001928E-02 0. -1.
</event>
<event>
 5   0  0.9726935E-05  0.1592019E+04  0.7818609E-02  0.8825466E-01
        1   -1    0    0  501    0  0.00000000000E+00  0.00000000000E+00  0.19011588327E+04  0.19011588328E+04  0.50400001928E-02 0. -1.
       -1   -1    0    0    0  501  0.00000000000E+00  0.00000000000E+00 -0.33328668495E+03  0.33328668499E+03  0.50400001928E-02 0.  1.
    10030    2    1    2    0    0  0.00000000000E+00  0.00000000000E+00  0.15678721478E+04  0.22344455177E+04  0.15920187499E+04 0.  0.
        2    1    3    3  502    0  0.83320593997E+02  0.73606583474E+03  0.11928806138E+04  0.14041721381E+04  0.25500000920E-02 0. -1.
       -2    1    3    3    0  502 -0.83320593997E+02 -0.73606583474E+03  0.37499153397E+03  0.83027337968E+03  0.25500000920E-02 0.  1.
</event>
<event>
 5   0  0.1774934E-04  0.1545305E+04  0.7818609E-02  0.8854872E-01
       -2   -1    0    0    0  501  0.00000000000E+00  0.00000000000E+00  0.86435720068E+03  0.86435720068E+03  0.25500000920E-02 0.  1.
        2   -1    0    0  501    0  0.00000000000E+00  0.00000000000E+00 -0.69067723982E+03  0.69067723982E+03  0.25500000920E-02 0. -1.
    10030    2    1    2    0    0  0.00000000000E+00  0.00000000000E+00  0.17367996086E+03  0.15550344405E+04  0.15453049480E+04 0.  0.
        1    1    3    3  502    0 -0.30084475678E+03 -0.66515757085E+03  0.34151380595E+03  0.80596143917E+03  0.50400001928E-02 0. -1.
       -1    1    3    3    0  502  0.30084475678E+03  0.66515757085E+03 -0.16783384509E+03  0.74907300133E+03  0.50400001928E-02 0.  1.
</event>
<event>
 5   0  0.1914170E-04  0.1617874E+04  0.7818609E-02  0.8809642E-01
        2   -1    0    0  501    0  0.00000000000E+00  0.00000000000E+00  0.79117473680E+03  0.79117473680E+03  0.25500000920E-02 0. -1.
       -2   -1    0    0    0  501  0.00000000000E+00  0.00000000000E+00 -0.82709794525E+03  0.82709794526E+03  0.25500000920E-02 0.  1.
    10030    2    1    2    0    0  0.00000000000E+00  0.00000000000E+00 -0.35923208451E+02  0.16182726821E+04  0.16178739125E+04 0.  0.
        3    1    3    3  502    0  0.68954231637E+03  0.23393494884E+03  0.33452392410E+03  0.80131169488E+03  0.10100000352E+00 0. -1.
       -3    1    3    3    0  502 -0.68954231637E+03 -0.23393494884E+03 -0.37044713255E+03  0.81696098718E+03  0.10100000352E+00 0.  1.
</event>
<event>
 5   0  0.9616567E-05  0.1592150E+04  0.7818609E-02  0.8825385E-01
       -1   -1    0    0    0  501  0.00000000000E+00  0.00000000000E+00  0.93278883896E+03  0.93278883898E+03  0.50400001928E-02 0.  1.
        1   -1    0    0  501    0  0.00000000000E+00  0.00000000000E+00 -0.67939866320E+03  0.67939866322E+03  0.50400001928E-02 0. -1.
    10030    2    1    2    0    0  0.00000000000E+00  0.00000000000E+00  0.25339017576E+03  0.16121875022E+04  0.15921501063E+04 0.  0.
        5    1    3    3  502    0 -0.11031748366E+01  0.50745290040E+03 -0.49437854591E+03  0.70847858102E+03  0.46999998093E+01 0. -1.
       -5    1    3    3    0  502  0.11031748366E+01 -0.50745290040E+03  0.74776872167E+03  0.90370892118E+03  0.46999998093E+01 0.  1.
</event>
<event>
 5   0  0.1914170E-04  0.1598978E+04  0.7818609E-02  0.8821176E-01
        2   -1    0    0  501    0  0.00000000000E+00  0.00000000000E+00  0.12904414200E+04  0.12904414200E+04  0.25500000920E-02 0. -1.
       -2   -1    0    0    0  501  0.00000000000E+00  0.00000000000E+00 -0.49532103309E+03  0.49532103310E+03  0.25500000920E-02 0.  1.
    10030    2    1    2    0    0  0.00000000000E+00  0.00000000000E+00  0.79512038689E+03  0.17857624531E+04  0.15989781453E+04 0.  0.
        3    1    3    3  502    0  0.64546698635E+03 -0.46578568967E+03  0.48112621368E+03  0.93008944885E+03  0.10100000352E+00 0. -1.
       -3    1    3    3    0  502 -0.64546698635E+03  0.46578568967E+03  0.31399417320E+03  0.85567300423E+03  0.10100000352E+00 0.  1.
</event>
<event>
 5   0  0.9432152E-05  0.1571500E+04  0.7818609E-02  0.8838251E-01
        1   -1    0    0  501    0  0.00000000000E+00  0.00000000000E+00  0.60293738530E+03  0.60293738532E+03  0.50400001928E-02 0.  1.
       -1   -1    0    0    0  501  0.00000000000E+00  0.00000000000E+00 -0.10239913824E+04  0.10239913825E+04  0.50400001928E-02 0. -1.
    10030    2    1    2    0    0  0.00000000000E+00  0.00000000000E+00 -0.42105399714E+03  0.16269287678E+04  0.15714995218E+04 0.  0.
        4    1    3    3  502    0  0.57941098783E+03  0.12181190795E+03  0.32426451109E+03  0.67505875284E+03  0.12699999809E+01 0.  1.
       -4    1    3    3    0  502 -0.57941098783E+03 -0.12181190795E+03 -0.74531850823E+03  0.95187001494E+03  0.12699999809E+01 0. -1.
</event>
<event>
 5   0  0.9432152E-05  0.1591405E+04  0.7818609E-02  0.8825846E-01
       -1   -1    0    0    0  501  0.00000000000E+00  0.00000000000E+00  0.51405521970E+03  0.51405521972E+03  0.50400001928E-02 0.  1.
        1   -1    0    0  501    0  0.00000000000E+00  0.00000000000E+00 -0.12316617162E+04  0.12316617162E+04  0.50400001928E-02 0. -1.
    10030    2    1    2    0    0  0.00000000000E+00  0.00000000000E+00 -0.71760649653E+03  0.17457169360E+04  0.15914045798E+04 0.  0.
        4    1    3    3  502    0 -0.60028893005E+03  0.36993447193E+03 -0.76325840945E+03  0.10391166083E+04  0.12699999809E+01 0. -1.
       -4    1    3    3    0  502  0.60028893005E+03 -0.36993447193E+03  0.45651912919E+02  0.70660032771E+03  0.12699999809E+01 0.  1.
</event>
<event>
 5   0  0.1914170E-04  0.1604673E+04  0.7818609E-02  0.8817682E-01
       -2   -1    0    0    0  501  0.00000000000E+00  0.00000000000E+00  0.73403350595E+03  0.73403350596E+03  0.25500000920E-02 0. -1.
        2   -1    0    0  501    0  0.00000000000E+00  0.00000000000E+00 -0.87699527678E+03  0.87699527678E+03  0.25500000920E-02 0.  1.
    10030    2    1    2    0    0  0.00000000000E+00  0.00000000000E+00 -0.14296177082E+03  0.16110287827E+04  0.16046730729E+04 0.  0.
        3    1    3    3  502    0  0.68021034130E+03 -0.30376224158E+03 -0.37063137148E+03  0.83206083405E+03  0.10100000352E+00 0. -1.
       -3    1    3    3    0  502 -0.68021034130E+03  0.30376224158E+03  0.22766960066E+03  0.77896794869E+03  0.10100000352E+00 0.  1.
</event>
<event>
 5   0  0.9939872E-05  0.1575361E+04  0.7818609E-02  0.8835829E-01
       -1   -1    0    0    0  501  0.00000000000E+00  0.00000000000E+00  0.61219544446E+03  0.61219544448E+03  0.50400001928E-02 0. -1.
        1   -1    0    0  501    0  0.00000000000E+00  0.00000000000E+00 -0.10134686421E+04  0.10134686422E+04  0.50400001928E-02 0.  1.
    10030    2    1    2    0    0  0.00000000000E+00  0.00000000000E+00 -0.40127319768E+03  0.16256640866E+04  0.15753614009E+04 0.  0.
        3    1    3    3  502    0 -0.22970485954E+03 -0.73579384093E+03 -0.33336518742E+02  0.77153628076E+03  0.10100000352E+00 0. -1.
       -3    1    3    3    0  502  0.22970485954E+03  0.73579384093E+03 -0.36793667894E+03  0.85412780587E+03  0.10100000352E+00 0.  1.
</event>
<event>
 5   0  0.9673017E-05  0.1598813E+04  0.7818609E-02  0.8821277E-01
        1   -1    0    0  501    0  0.00000000000E+00  0.00000000000E+00  0.12333371797E+04  0.12333371797E+04  0.50400001928E-02 0. -1.
       -1   -1    0    0    0  501  0.00000000000E+00  0.00000000000E+00 -0.51814778762E+03  0.51814778764E+03  0.50400001928E-02 0.  1.
    10030    2    1    2    0    0  0.00000000000E+00  0.00000000000E+00  0.71518939211E+03  0.17514849674E+04  0.15988132237E+04 0.  0.
        1    1    3    3  502    0 -0.21052642668E+03 -0.38439666920E+02  0.12013728337E+04  0.12202850773E+04  0.50400001928E-02 0. -1.
       -1    1    3    3    0  502  0.21052642668E+03  0.38439666920E+02 -0.48618344159E+03  0.53119989008E+03  0.50400001928E-02 0.  1.
</event>
<event>
 5   0  0.9432152E-05  0.1600187E+04  0.7818609E-02  0.8820433E-01
        1   -1    0    0  501    0  0.00000000000E+00  0.00000000000E+00  0.63332925043E+03  0.63332925045E+03  0.50400001928E-02 0.  1.
       -1   -1    0    0    0  501  0.00000000000E+00  0.00000000000E+00 -0.10107696742E+04  0.10107696742E+04  0.50400001928E-02 0. -1.
    10030    2    1    2    0    0  0.00000000000E+00  0.00000000000E+00 -0.37744042373E+03  0.16440989246E+04  0.16001874892E+04 0.  0.
        4    1    3    3  502    0  0.10283081992E+03 -0.46278361493E+03 -0.85092636882E+03  0.97407399608E+03  0.12699999809E+01 0. -1.
       -4    1    3    3    0  502 -0.10283081992E+03  0.46278361493E+03  0.47348594509E+03  0.67002492855E+03  0.12699999809E+01 0.  1.
</event>
<event>
 5   0  0.1832646E-04  0.1599622E+04  0.7818609E-02  0.8820780E-01
        2   -1    0    0  501    0  0.00000000000E+00  0.00000000000E+00  0.16049245382E+04  0.16049245382E+04  0.25500000920E-02 0.  1.
       -2   -1    0    0    0  501  0.00000000000E+00  0.00000000000E+00 -0.39858416762E+03  0.39858416763E+03  0.25500000920E-02 0. -1.
    10030    2    1    2    0    0  0.00000000000E+00  0.00000000000E+00  0.12063403706E+04  0.20035087059E+04  0.15996218443E+04 0.  0.
        2    1    3    3  502    0 -0.64693589653E+03  0.39123467171E+03  0.27630442650E+03  0.80494394754E+03  0.25500000920E-02 0. -1.
       -2    1    3    3    0  502  0.64693589653E+03 -0.39123467171E+03  0.93003594411E+03  0.11985647583E+04  0.25500000920E-02 0.  1.
</event>
<event>
 5   0  0.1832646E-04  0.1590702E+04  0.7818609E-02  0.8826280E-01
        2   -1    0    0  501    0  0.00000000000E+00  0.00000000000E+00  0.54229704515E+03  0.54229704516E+03  0.25500000920E-02 0.  1.
       -2   -1    0    0    0  501  0.00000000000E+00  0.00000000000E+00 -0.11664887951E+04  0.11664887951E+04  0.25500000920E-02 0. -1.
    10030    2    1    2    0    0  0.00000000000E+00  0.00000000000E+00 -0.62419174998E+03  0.17087858403E+04  0.15907022686E+04 0.  0.
        2    1    3    3  502    0 -0.62257639993E+03  0.25074810747E+03 -0.77051484432E+03  0.10218459338E+04  0.25500000920E-02 0.  1.
       -2    1    3    3    0  502  0.62257639993E+03 -0.25074810747E+03  0.14632309434E+03  0.68693990647E+03  0.25500000920E-02 0. -1.
</event>
<event>
 5   0  0.1832646E-04  0.1601480E+04  0.7818609E-02  0.8819639E-01
       -2   -1    0    0    0  501  0.00000000000E+00  0.00000000000E+00  0.71285751643E+03  0.71285751643E+03  0.25500000920E-02 0. -1.
        2   -1    0    0  501    0  0.00000000000E+00  0.00000000000E+00 -0.89945679623E+03  0.89945679623E+03  0.25500000920E-02 0.  1.
    10030    2    1    2    0    0  0.00000000000E+00  0.00000000000E+00 -0.18659927980E+03  0.16123143127E+04  0.16014799879E+04 0.  0.
        2    1    3    3  502    0  0.35170504361E+03  0.22452558819E+03 -0.78135302668E+03  0.88578819690E+03  0.25500000920E-02 0.  1.
       -2    1    3    3    0  502 -0.35170504361E+03 -0.22452558819E+03  0.59475374688E+03  0.72652611577E+03  0.25500000920E-02 0. -1.
</event>
<event>
 5   0  0.9726935E-05  0.1602336E+04  0.7818609E-02  0.8819114E-01
        1   -1    0    0  501    0  0.00000000000E+00  0.00000000000E+00  0.86071814372E+03  0.86071814373E+03  0.50400001928E-02 0. -1.
       -1   -1    0    0    0  501  0.00000000000E+00  0.00000000000E+00 -0.74573747315E+03  0.74573747317E+03  0.50400001928E-02 0.  1.
    10030    2    1    2    0    0  0.00000000000E+00  0.00000000000E+00  0.11498067056E+03  0.16064556169E+04  0.16023355125E+04 0.  0.
        2    1    3    3  502    0 -0.16512311260E+03 -0.61004769854E+03 -0.43616374202E+03  0.76789494507E+03  0.25500000920E-02 0.  1.
       -2    1    3    3    0  502  0.16512311260E+03  0.61004769854E+03  0.55114441258E+03  0.83856067183E+03  0.25500000920E-02 0. -1.
</event>
<event>
 5   0  0.9432152E-05  0.1598848E+04  0.7818609E-02  0.8821256E-01
       -1   -1    0    0    0  501  0.00000000000E+00  0.00000000000E+00  0.11864060306E+04  0.11864060306E+04  0.50400001928E-02 0. -1.
        1   -1    0    0  501    0  0.00000000000E+00  0.00000000000E+00 -0.53866770004E+03  0.53866770006E+03  0.50400001928E-02 0.  1.
    10030    2    1    2    0    0  0.00000000000E+00  0.00000000000E+00  0.64773833060E+03  0.17250737307E+04  0.15988478450E+04 0.  0.
        4    1    3    3  502    0 -0.14829810151E+03 -0.59794145192E+03 -0.22581296447E+03  0.65613978286E+03  0.12699999809E+01 0.  1.
       -4    1    3    3    0  502  0.14829810151E+03  0.59794145192E+03  0.87355129507E+03  0.10689339478E+04  0.12699999809E+01 0. -1.
</event>
<event>
 5   0  0.9939872E-05  0.1599944E+04  0.7818609E-02  0.8820582E-01
        1   -1    0    0  501    0  0.00000000000E+00  0.00000000000E+00  0.91862133142E+03  0.91862133144E+03  0.50400001928E-02 0. -1.
       -1   -1    0    0    0  501  0.00000000000E+00  0.00000000000E+00 -0.69664755413E+03  0.69664755414E+03  0.50400001928E-02 0.  1.
    10030    2    1    2    0    0  0.00000000000E+00  0.00000000000E+00  0.22197377730E+03  0.16152688856E+04  0.15999441287E+04 0.  0.
        3    1    3    3  502    0 -0.14935033524E+03 -0.48126835671E+03  0.73825158091E+03  0.89383452647E+03  0.10100000352E+00 0. -1.
       -3    1    3    3    0  502  0.14935033524E+03  0.48126835671E+03 -0.51627780361E+03  0.72143435911E+03  0.10100000352E+00 0.  1.
</event>
<event>
 5   0  0.1835088E-04  0.1598867E+04  0.7818609E-02  0.8821244E-01
        2   -1    0    0  501    0  0.00000000000E+00  0.00000000000E+00  0.77842583844E+03  0.77842583844E+03  0.25500000920E-02 0.  1.
       -2   -1    0    0    0  501  0.00000000000E+00  0.00000000000E+00 -0.82100835374E+03  0.82100835374E+03  0.25500000920E-02 0. -1.
    10030    2    1    2    0    0  0.00000000000E+00  0.00000000000E+00 -0.42582515303E+02  0.15994341922E+04  0.15988672442E+04 0.  0.
        5    1    3    3  502    0 -0.43691886781E+03 -0.59986884145E+03 -0.31860246947E+03  0.80763255725E+03  0.46999998093E+01 0. -1.
       -5    1    3    3    0  502  0.43691886781E+03  0.59986884145E+03  0.27601995417E+03  0.79180163493E+03  0.46999998093E+01 0.  1.
</event>
<event>
 5   0  0.9432152E-05  0.1603744E+04  0.7818609E-02  0.8818251E-01
        1   -1    0    0  501    0  0.00000000000E+00  0.00000000000E+00  0.27567071187E+04  0.27567071187E+04  0.50400001928E-02 0.  1.
       -1   -1    0    0    0  501  0.00000000000E+00  0.00000000000E+00 -0.23324897293E+03  0.23324897298E+03  0.50400001928E-02 0. -1.
    10030    2    1    2    0    0  0.00000000000E+00  0.00000000000E+00  0.25234581458E+04  0.29899560917E+04  0.16037444986E+04 0.  0.
        4    1    3    3  502    0 -0.35263614006E+03  0.21234028894E+03  0.25446966780E+04  0.25777749013E+04  0.12699999809E+01 0.  1.
       -4    1    3    3    0  502  0.35263614006E+03 -0.21234028894E+03 -0.21238532239E+02  0.41218119042E+03  0.12699999809E+01 0. -1.
</event>
<event>
 5   0  0.1835088E-04  0.1579255E+04  0.7818609E-02  0.8833395E-01
        2   -1    0    0  501    0  0.00000000000E+00  0.00000000000E+00  0.12637425909E+04  0.12637425909E+04  0.25500000920E-02 0.  1.
       -2   -1    0    0    0  501  0.00000000000E+00  0.00000000000E+00 -0.49338474612E+03  0.49338474612E+03  0.25500000920E-02 0. -1.
    10030    2    1    2    0    0  0.00000000000E+00  0.00000000000E+00  0.77035784482E+03  0.17571273371E+04  0.15792546563E+04 0.  0.
        5    1    3    3  502    0 -0.69450221100E+03  0.37374493201E+03  0.42784700153E+03  0.89727016110E+03  0.46999998093E+01 0. -1.
       -5    1    3    3    0  502  0.69450221100E+03 -0.37374493201E+03  0.34251084329E+03  0.85985717596E+03  0.46999998093E+01 0.  1.
</event>
<event>
 5   0  0.9432152E-05  0.1596760E+04  0.7818609E-02  0.8822541E-01
        1   -1    0    0  501    0  0.00000000000E+00  0.00000000000E+00  0.55603432074E+03  0.55603432077E+03  0.50400001928E-02 0. -1.
       -1   -1    0    0    0  501  0.00000000000E+00  0.00000000000E+00 -0.11463516463E+04  0.11463516463E+04  0.50400001928E-02 0.  1.
    10030    2    1    2    0    0  0.00000000000E+00  0.00000000000E+00 -0.59031732551E+03  0.17023859670E+04  0.15967602938E+04 0.  0.
        4    1    3    3  502    0 -0.63477860610E+03  0.22636775118E+03 -0.75151943999E+03  0.10094401018E+04  0.12699999809E+01 0.  1.
       -4    1    3    3    0  502  0.63477860610E+03 -0.22636775118E+03  0.16120211448E+03  0.69294586523E+03  0.12699999809E+01 0. -1.
</event>
<event>
 5   0  0.9616567E-05  0.1602307E+04  0.7818609E-02  0.8819132E-01
        1   -1    0    0  501    0  0.00000000000E+00  0.00000000000E+00  0.88487081539E+03  0.88487081540E+03  0.50400001928E-02 0.  1.
       -1   -1    0    0    0  501  0.00000000000E+00  0.00000000000E+00 -0.72535627040E+03  0.72535627041E+03  0.50400001928E-02 0. -1.
    10030    2    1    2    0    0  0.00000000000E+00  0.00000000000E+00  0.15951454499E+03  0.16102270858E+04  0.16023065805E+04 0.  0.
        5    1    3    3  502    0  0.30341975053E+03 -0.71501699628E+03 -0.11745666295E+03  0.78557686298E+03  0.46999998093E+01 0.  1.
       -5    1    3    3    0  502 -0.30341975053E+03  0.71501699628E+03  0.27697120794E+03  0.82465022283E+03  0.46999998093E+01 0. -1.
</event>
<event>
 5   0  0.9939872E-05  0.1592656E+04  0.7818609E-02  0.8825072E-01
        1   -1    0    0  501    0  0.00000000000E+00  0.00000000000E+00  0.15170996850E+04  0.15170996850E+04  0.50400001928E-02 0. -1.
       -1   -1    0    0    0  501  0.00000000000E+00  0.00000000000E+00 -0.41799393413E+03  0.41799393416E+03  0.50400001928E-02 0.  1.
    10030    2    1    2    0    0  0.00000000000E+00  0.00000000000E+00  0.10991057508E+04  0.19350936191E+04  0.15926562289E+04 0.  0.
        3    1    3    3  502    0  0.68488893770E+03  0.27548202995E+03  0.18672378193E+03  0.76146502661E+03  0.10100000352E+00 0.  1.
       -3    1    3    3    0  502 -0.68488893770E+03 -0.27548202995E+03  0.91238196891E+03  0.11736285925E+04  0.10100000352E+00 0. -1.
</event>
<event>
 5   0  0.9673017E-05  0.1589361E+04  0.7818609E-02  0.8827111E-01
        1   -1    0    0  501    0  0.00000000000E+00  0.00000000000E+00  0.18696336459E+04  0.18696336459E+04  0.50400001928E-02 0. -1.
       -1   -1    0    0    0  501  0.00000000000E+00  0.00000000000E+00 -0.33777591261E+03  0.33777591265E+03  0.50400001928E-02 0.  1.
    10030    2    1    2    0    0  0.00000000000E+00  0.00000000000E+00  0.15318577333E+04  0.22074095586E+04  0.15893611434E+04 0.  0.
        1    1    3    3  502    0 -0.64282976754E+03 -0.39755249904E+03  0.42505036964E+03  0.86714815129E+03  0.50400001928E-02 0.  1.
       -1    1    3    3    0  502  0.64282976754E+03  0.39755249904E+03  0.11068073637E+04  0.13402614073E+04  0.50400001928E-02 0. -1.
</event>
<event>
 5   0  0.1858913E-04  0.1612006E+04  0.7818609E-02  0.8813206E-01
        2   -1    0    0  501    0  0.00000000000E+00  0.00000000000E+00  0.12154875926E+04  0.12154875926E+04  0.25500000920E-02 0.  1.
       -2   -1    0    0    0  501  0.00000000000E+00  0.00000000000E+00 -0.53446912940E+03  0.53446912941E+03  0.25500000920E-02 0. -1.
    10030    2    1    2    0    0  0.00000000000E+00  0.00000000000E+00  0.68101846320E+03  0.17499567220E+04  0.16120057015E+04 0.  0.
        4    1    3    3  502    0 -0.36306892923E+03  0.52288937381E+03 -0.19617302010E+03  0.66612146890E+03  0.12699999809E+01 0. -1.
       -4    1    3    3    0  502  0.36306892923E+03 -0.52288937381E+03  0.87719148331E+03  0.10838352531E+04  0.12699999809E+01 0.  1.
</event>
<event>
 5   0  0.1832646E-04  0.1598433E+04  0.7818609E-02  0.8821511E-01
       -2   -1    0    0    0  501  0.00000000000E+00  0.00000000000E+00  0.78888162673E+03  0.78888162673E+03  0.25500000920E-02 0. -1.
        2   -1    0    0  501    0  0.00000000000E+00  0.00000000000E+00 -0.80968663548E+03  0.80968663549E+03  0.25500000920E-02 0.  1.
    10030    2    1    2    0    0  0.00000000000E+00  0.00000000000E+00 -0.20805008755E+02  0.15985682622E+04  0.15984328702E+04 0.  0.
        2    1    3    3  502    0  0.16657255110E+03 -0.98889651660E+02 -0.78585281673E+03  0.80937644366E+03  0.25500000920E-02 0.  1.
       -2    1    3    3    0  502 -0.16657255110E+03  0.98889651660E+02  0.76504780797E+03  0.78919181856E+03  0.25500000920E-02 0. -1.
</event>
<event>
 5   0  0.9939872E-05  0.1592905E+04  0.7818609E-02  0.8824919E-01
       -1   -1    0    0    0  501  0.00000000000E+00  0.00000000000E+00  0.63982212494E+03  0.63982212496E+03  0.50400001928E-02 0.  1.
        1   -1    0    0  501    0  0.00000000000E+00  0.00000000000E+00 -0.99142666157E+03  0.99142666158E+03  0.50400001928E-02 0. -1.
    10030    2    1    2    0    0  0.00000000000E+00  0.00000000000E+00 -0.35160453663E+03  0.16312487865E+04  0.15929051615E+04 0.  0.
        3    1    3    3  502    0 -0.58650409431E+03  0.15935880142E+03  0.35132546859E+03  0.70200560918E+03  0.10100000352E+00 0.  1.
       -3    1    3    3    0  502  0.58650409431E+03 -0.15935880142E+03 -0.70293000522E+03  0.92924317736E+03  0.10100000352E+00 0. -1.
</event>
<event>
 5   0  0.1914170E-04  0.1595875E+04  0.7818609E-02  0.8823086E-01
       -2   -1    0    0    0  501  0.00000000000E+00  0.00000000000E+00  0.45286255644E+03  0.45286255644E+03  0.25500000920E-02 0. -1.
        2   -1    0    0  501    0  0.00000000000E+00  0.00000000000E+00 -0.14059545048E+04  0.14059545048E+04  0.25500000920E-02 0.  1.
    10030    2    1    2    0    0  0.00000000000E+00  0.00000000000E+00 -0.95309194836E+03  0.18588170612E+04  0.15958748714E+04 0.  0.
        3    1    3    3  502    0 -0.32013847965E+03 -0.38446115769E+03 -0.12005804496E+04  0.13006507810E+04  0.10100000352E+00 0.  1.
       -3    1    3    3    0  502  0.32013847965E+03  0.38446115769E+03  0.24748850127E+03  0.55816628023E+03  0.10100000352E+00 0. -1.
</event>
<event>
 5   0  0.9673017E-05  0.1555646E+04  0.7818609E-02  0.8848269E-01
        1   -1    0    0  501    0  0.00000000000E+00  0.00000000000E+00  0.47620291093E+03  0.47620291096E+03  0.50400001928E-02 0.  1.
       -1   -1    0    0    0  501  0.00000000000E+00  0.00000000000E+00 -0.12704855384E+04  0.12704855384E+04  0.50400001928E-02 0. -1.
    10030    2    1    2    0    0  0.00000000000E+00  0.00000000000E+00 -0.79428262748E+03  0.17466884494E+04  0.15556463759E+04 0.  0.
        1    1    3    3  502    0  0.63425816249E+03  0.18828980960E+03  0.62074426990E+02  0.66452216186E+03  0.50400001928E-02 0.  1.
       -1    1    3    3    0  502 -0.63425816249E+03 -0.18828980960E+03 -0.85635705446E+03  0.10821662875E+04  0.50400001928E-02 0. -1.
</event>
<event>
 5   0  0.9432152E-05  0.1616006E+04  0.7818609E-02  0.8810775E-01
        1   -1    0    0  501    0  0.00000000000E+00  0.00000000000E+00  0.12573637566E+04  0.12573637566E+04  0.50400001928E-02 0.  1.
       -1   -1    0    0    0  501  0.00000000000E+00  0.00000000000E+00 -0.51923625372E+03  0.51923625374E+03  0.50400001928E-02 0. -1.
    10030    2    1    2    0    0  0.00000000000E+00  0.00000000000E+00  0.73812750289E+03  0.17766000104E+04  0.16160059982E+04 0.  0.
        4    1    3    3  502    0  0.69050073568E+03  0.18613887764E+03 -0.44378475086E+02  0.71652634962E+03  0.12699999809E+01 0.  1.
       -4    1    3    3    0  502 -0.69050073568E+03 -0.18613887764E+03  0.78250597798E+03  0.10600736607E+04  0.12699999809E+01 0. -1.
</event>
<event>
 5   0  0.9616567E-05  0.1604494E+04  0.7818609E-02  0.8817792E-01
       -1   -1    0    0    0  501  0.00000000000E+00  0.00000000000E+00  0.51324431114E+03  0.51324431116E+03  0.50400001928E-02 0. -1.
        1   -1    0    0  501    0  0.00000000000E+00  0.00000000000E+00 -0.12539848742E+04  0.12539848742E+04  0.50400001928E-02 0.  1.
    10030    2    1    2    0    0  0.00000000000E+00  0.00000000000E+00 -0.74074056306E+03  0.17672291854E+04  0.16044944412E+04 0.  0.
        5    1    3    3  502    0  0.63224950296E+03 -0.58715016488E+02  0.16965529063E+03  0.65726090314E+03  0.46999998093E+01 0. -1.
       -5    1    3    3    0  502 -0.63224950296E+03  0.58715016488E+02 -0.91039585369E+03  0.11099682822E+04  0.46999998093E+01 0.  1.
</event>
<event>
 5   0  0.1914170E-04  0.1608581E+04  0.7818609E-02  0.8815293E-01
       -2   -1    0    0    0  501  0.00000000000E+00  0.00000000000E+00  0.12946822998E+04  0.12946822999E+04  0.25500000920E-02 0.  1.
        2   -1    0    0  501    0  0.00000000000E+00  0.00000000000E+00 -0.49964653978E+03  0.49964653978E+03  0.25500000920E-02 0. -1.
    10030    2    1    2    0    0  0.00000000000E+00  0.00000000000E+00  0.79503576007E+03  0.17943288396E+04  0.16085814014E+04 0.  0.
        3    1    3    3  502    0 -0.22147716873E+03 -0.12721926209E+03 -0.45320596875E+03  0.52022354544E+03  0.10100000352E+00 0. -1.
       -3    1    3    3    0  502  0.22147716873E+03  0.12721926209E+03  0.12482417288E+04  0.12741052942E+04  0.10100000352E+00 0.  1.
</event>
<event>
 5   0  0.9673017E-05  0.1601958E+04  0.7818609E-02  0.8819346E-01
       -1   -1    0    0    0  501  0.00000000000E+00  0.00000000000E+00  0.58405421553E+03  0.58405421556E+03  0.50400001928E-02 0. -1.
        1   -1    0    0  501    0  0.00000000000E+00  0.00000000000E+00 -0.10984720278E+04  0.10984720278E+04  0.50400001928E-02 0.  1.
    10030    2    1    2    0    0  0.00000000000E+00  0.00000000000E+00 -0.51441781229E+03  0.16825262434E+04  0.16019578253E+04 0.  0.
        1    1    3    3  502    0  0.69661111100E+03 -0.13374432303E+03 -0.64795859086E+03  0.96073145020E+03  0.50400001928E-02 0.  1.
       -1    1    3    3    0  502 -0.69661111100E+03  0.13374432303E+03  0.13354077857E+03  0.72179479319E+03  0.50400001928E-02 0. -1.
</event>
<event>
 5   0  0.1774934E-04  0.1592676E+04  0.7818609E-02  0.8825060E-01
        2   -1    0    0  501    0  0.00000000000E+00  0.00000000000E+00  0.71024069522E+03  0.71024069523E+03  0.25500000920E-02 0. -1.
       -2   -1    0    0    0  501  0.00000000000E+00  0.00000000000E+00 -0.89287242250E+03  0.89287242250E+03  0.25500000920E-02 0.  1.
    10030    2    1    2    0    0  0.00000000000E+00  0.00000000000E+00 -0.18263172727E+03  0.16031131177E+04  0.15926761505E+04 0.  0.
        1    1    3    3  502    0 -0.74192952834E+03  0.20576317412E+03  0.11337957546E+03  0.77823700568E+03  0.50400001928E-02 0. -1.
       -1    1    3    3    0  502  0.74192952834E+03 -0.20576317412E+03 -0.29601130274E+03  0.82487611205E+03  0.50400001928E-02 0.  1.
</event>
<event>
 5   0  0.9432152E-05  0.1603013E+04  0.7818609E-02  0.8818699E-01
        1   -1    0    0  501    0  0.00000000000E+00  0.00000000000E+00  0.65155387576E+03  0.65155387578E+03  0.50400001928E-02 0.  1.
       -1   -1    0    0    0  501  0.00000000000E+00  0.00000000000E+00 -0.98596985103E+03  0.98596985104E+03  0.50400001928E-02 0. -1.
    10030    2    1    2    0    0  0.00000000000E+00  0.00000000000E+00 -0.33441597526E+03  0.16375237268E+04  0.16030127608E+04 0.  0.
        4    1    3    3  502    0  0.29726053723E+03  0.38175102668E+03 -0.81995865930E+03  0.95206695627E+03  0.12699999809E+01 0. -1.
       -4    1    3    3    0  502 -0.29726053723E+03 -0.38175102668E+03  0.48554268404E+03  0.68545677055E+03  0.12699999809E+01 0.  1.
</event>
<event>
 5   0  0.9616567E-05  0.1600884E+04  0.7818609E-02  0.8820005E-01
       -1   -1    0    0    0  501  0.00000000000E+00  0.00000000000E+00  0.94173739472E+03  0.94173739474E+03  0.50400001928E-02 0.  1.
        1   -1    0    0  501    0  0.00000000000E+00  0.00000000000E+00 -0.68034622999E+03  0.68034623000E+03  0.50400001928E-02 0. -1.
    10030    2    1    2    0    0  0.00000000000E+00  0.00000000000E+00  0.26139116474E+03  0.16220836247E+04  0.16008841134E+04 0.  0.
        5    1    3    3  502    0 -0.30611895813E+03 -0.77831589653E+02 -0.61451565031E+03  0.69095451902E+03  0.46999998093E+01 0. -1.
       -5    1    3    3    0  502  0.30611895813E+03  0.77831589653E+02  0.87590681505E+03  0.93112910572E+03  0.46999998093E+01 0.  1.
</event>
<event>
 5   0  0.9726935E-05  0.1603764E+04  0.7818609E-02  0.8818239E-01
        1   -1    0    0  501    0  0.00000000000E+00  0.00000000000E+00  0.70396069224E+03  0.70396069226E+03  0.50400001928E-02 0. -1.
       -1   -1    0    0    0  501  0.00000000000E+00  0.00000000000E+00 -0.91342383801E+03  0.91342383802E+03  0.50400001928E-02 0.  1.
    10030    2    1    2    0    0  0.00000000000E+00  0.00000000000E+00 -0.20946314577E+03  0.16173845303E+04  0.16037636700E+04 0.  0.
        2    1    3    3  502    0 -0.72462357827E+03  0.12695803177E+03 -0.42652905879E+03  0.85036739708E+03  0.25500000920E-02 0.  1.
       -2    1    3    3    0  502  0.72462357827E+03 -0.12695803177E+03  0.21706591302E+03  0.76701713320E+03  0.25500000920E-02 0. -1.
</event>
<event>
 5   0  0.9726935E-05  0.1578727E+04  0.7818609E-02  0.8833725E-01
       -1   -1    0    0    0  501  0.00000000000E+00  0.00000000000E+00  0.32652531992E+03  0.32652531996E+03  0.50400001928E-02 0.  1.
        1   -1    0    0  501    0  0.00000000000E+00  0.00000000000E+00 -0.19082578927E+04  0.19082578927E+04  0.50400001928E-02 0. -1.
    10030    2    1    2    0    0  0.00000000000E+00  0.00000000000E+00 -0.15817325728E+04  0.22347832127E+04  0.15787267262E+04 0.  0.
        2    1    3    3  502    0  0.36947506798E+03  0.38000503466E+03 -0.16189133683E+04  0.17034659217E+04  0.25500000920E-02 0. -1.
       -2    1    3    3    0  502 -0.36947506798E+03 -0.38000503466E+03  0.37180795464E+02  0.53131729106E+03  0.25500000920E-02 0.  1.
</event>
<event>
 5   0  0.9616567E-05  0.1596229E+04  0.7818609E-02  0.8822868E-01
        1   -1    0    0  501    0  0.00000000000E+00  0.00000000000E+00  0.19707880305E+04  0.19707880305E+04  0.50400001928E-02 0. -1.
       -1   -1    0    0    0  501  0.00000000000E+00  0.00000000000E+00 -0.32321417858E+03  0.32321417862E+03  0.50400001928E-02 0.  1.
    10030    2    1    2    0    0  0.00000000000E+00  0.00000000000E+00  0.16475738519E+04  0.22940022091E+04  0.15962288488E+04 0.  0.
        5    1    3    3  502    0 -0.16449659435E+03  0.32770842585E+03  0.18425475603E+04  0.18786845248E+04  0.46999998093E+01 0. -1.
       -5    1    3    3    0  502  0.16449659435E+03 -0.32770842585E+03 -0.19497370837E+03  0.41531768429E+03  0.46999998093E+01 0.  1.
</event>
<event>
 5   0  0.1832646E-04  0.1581807E+04  0.7818609E-02  0.8831804E-01
       -2   -1    0    0    0  501  0.00000000000E+00  0.00000000000E+00  0.10287137164E+04  0.10287137164E+04  0.25500000920E-02 0. -1.
        2   -1    0    0  501    0  0.00000000000E+00  0.00000000000E+00 -0.60806810752E+03  0.60806810753E+03  0.25500000920E-02 0.  1.
    10030    2    1    2    0    0  0.00000000000E+00  0.00000000000E+00  0.42064560886E+03  0.16367818239E+04  0.15818065656E+04 0.  0.
        2    1    3    3  502    0  0.27508495219E+03 -0.46859263737E+03 -0.38434814731E+03  0.66556313680E+03  0.25500000920E-02 0.  1.
       -2    1    3    3    0  502 -0.27508495219E+03  0.46859263737E+03  0.80499375617E+03  0.97121868711E+03  0.25500000920E-02 0. -1.
</event>
<event>
 5   0  0.9432152E-05  0.1600284E+04  0.7818609E-02  0.8820374E-01
       -1   -1    0    0    0  501  0.00000000000E+00  0.00000000000E+00  0.37198181299E+03  0.37198181302E+03  0.50400001928E-02 0.  1.
        1   -1    0    0  501    0  0.00000000000E+00  0.00000000000E+00 -0.17211245927E+04  0.17211245927E+04  0.50400001928E-02 0. -1.
    10030    2    1    2    0    0  0.00000000000E+00  0.00000000000E+00 -0.13491427797E+04  0.20931064058E+04  0.16002837829E+04 0.  0.
        4    1    3    3  502    0  0.78834531102E+02  0.69591223425E+03 -0.11806633566E+04  0.13727622866E+04  0.12699999809E+01 0. -1.
       -4    1    3    3    0  502 -0.78834531102E+02 -0.69591223425E+03 -0.16847942317E+03  0.72034411916E+03  0.12699999809E+01 0.  1.
</event>
<event>
 5   0  0.9673017E-05  0.1599849E+04  0.7818609E-02  0.8820641E-01
       -1   -1    0    0    0  501  0.00000000000E+00  0.00000000000E+00  0.52124075677E+03  0.52124075679E+03  0.50400001928E-02 0. -1.
        1   -1    0    0  501    0  0.00000000000E+00  0.00000000000E+00 -0.12276071575E+04  0.12276071575E+04  0.50400001928E-02 0.  1.
    10030    2    1    2    0    0  0.00000000000E+00  0.00000000000E+00 -0.70636640072E+03  0.17488479143E+04  0.15998485976E+04 0.  0.
        1    1    3    3  502    0  0.52598578794E+02  0.74461349662E+03 -0.38894493246E+02  0.74748153922E+03  0.50400001928E-02 0.  1.
       -1    1    3    3    0  502 -0.52598578794E+02 -0.74461349662E+03 -0.66747190747E+03  0.10013663751E+04  0.50400001928E-02 0. -1.
</event>
<event>
 5   0  0.9673017E-05  0.1597285E+04  0.7818609E-02  0.8822218E-01
       -1   -1    0    0    0  501  0.00000000000E+00  0.00000000000E+00  0.87970730021E+03  0.87970730023E+03  0.50400001928E-02 0.  1.
        1   -1    0    0  501    0  0.00000000000E+00  0.00000000000E+00 -0.72504787715E+03  0.72504787717E+03  0.50400001928E-02 0. -1.
    10030    2    1    2    0    0  0.00000000000E+00  0.00000000000E+00  0.15465942306E+03  0.16047551774E+04  0.15972850848E+04 0.  0.
        1    1    3    3  502    0  0.56406450015E+03 -0.56084319669E+03  0.14919085414E+03  0.80930325749E+03  0.50400001928E-02 0. -1.
       -1    1    3    3    0  502 -0.56406450015E+03  0.56084319669E+03  0.54685689226E+01  0.79545191990E+03  0.50400001928E-02 0.  1.
</event>
<event>
 5   0  0.1858913E-04  0.1610671E+04  0.7818609E-02  0.8814019E-01
        2   -1    0    0  501    0  0.00000000000E+00  0.00000000000E+00  0.91443101475E+03  0.91443101475E+03  0.25500000920E-02 0. -1.
       -2   -1    0    0    0  501  0.00000000000E+00  0.00000000000E+00 -0.70925540404E+03  0.70925540405E+03  0.25500000920E-02 0.  1.
    10030    2    1    2    0    0  0.00000000000E+00  0.00000000000E+00  0.20517561070E+03  0.16236864188E+04  0.16106708402E+04 0.  0.
        4    1    3    3  502    0  0.60106381345E+03 -0.53391332765E+03  0.55064767353E+02  0.80583800530E+03  0.12699999809E+01 0.  1.
       -4    1    3    3    0  502 -0.60106381345E+03  0.53391332765E+03  0.15011084335E+03  0.81784841350E+03  0.12699999809E+01 0. -1.
</event>
<event>
 5   0  0.9939872E-05  0.1598833E+04  0.7818609E-02  0.8821266E-01
        1   -1    0    0  501    0  0.00000000000E+00  0.00000000000E+00  0.17126483853E+04  0.17126483853E+04  0.50400001928E-02 0.  1.
       -1   -1    0    0    0  501  0.00000000000E+00  0.00000000000E+00 -0.37314510050E+03  0.37314510053E+03  0.50400001928E-02 0. -1.
    10030    2    1    2    0    0  0.00000000000E+00  0.00000000000E+00  0.13395032848E+04  0.20857934858E+04  0.15988325164E+04 0.  0.
        3    1    3    3  502    0 -0.67806895303E+03 -0.84495052014E+02  0.12847271160E+03  0.69528567273E+03  0.10100000352E+00 0. -1.
       -3    1    3    3    0  502  0.67806895303E+03  0.84495052014E+02  0.12110305732E+04  0.13905078131E+04  0.10100000352E+00 0.  1.
</event>
<event>
 5   0  0.1858913E-04  0.1593919E+04  0.7818609E-02  0.8824293E-01
        2   -1    0    0  501    0  0.00000000000E+00  0.00000000000E+00  0.11778112264E+04  0.11778112264E+04  0.25500000920E-02 0. -1.
       -2   -1    0    0    0  501  0.00000000000E+00  0.00000000000E+00 -0.53925798699E+03  0.53925798699E+03  0.25500000920E-02 0.  1.
    10030    2    1    2    0    0  0.00000000000E+00  0.00000000000E+00  0.63855323941E+03  0.17170692134E+04  0.15939185814E+04 0.  0.
        4    1    3    3  502    0  0.87050441935E+02  0.48039805750E+03  0.99785166080E+03  0.11108868633E+04  0.12699999809E+01 0. -1.
       -4    1    3    3    0  502 -0.87050441935E+02 -0.48039805750E+03 -0.35929842139E+03  0.60618235013E+03  0.12699999809E+01 0.  1.
</event>
<event>
 5   0  0.1914170E-04  0.1598083E+04  0.7818609E-02  0.8821726E-01
       -2   -1    0    0    0  501  0.00000000000E+00  0.00000000000E+00  0.60211550767E+03  0.60211550768E+03  0.25500000920E-02 0. -1.
        2   -1    0    0  501    0  0.00000000000E+00  0.00000000000E+00 -0.10603739501E+04  0.10603739501E+04  0.25500000920E-02 0.  1.
    10030    2    1    2    0    0  0.00000000000E+00  0.00000000000E+00 -0.45825844240E+03  0.16624894578E+04  0.15980833511E+04 0.  0.
        3    1    3    3  502    0  0.20768808572E+03  0.68599130018E+02 -0.10286251766E+04  0.10516225301E+04  0.10100000352E+00 0.  1.
       -3    1    3    3    0  502 -0.20768808572E+03 -0.68599130018E+02  0.57036673423E+03  0.61086692766E+03  0.10100000352E+00 0. -1.
</event>
<event>
 5   0  0.1774934E-04  0.1607458E+04  0.7818609E-02  0.8815979E-01
       -2   -1    0    0    0  501  0.00000000000E+00  0.00000000000E+00  0.45284095240E+03  0.45284095240E+03  0.25500000920E-02 0. -1.
        2   -1    0    0  501    0  0.00000000000E+00  0.00000000000E+00 -0.14265058470E+04  0.14265058470E+04  0.25500000920E-02 0.  1.
    10030    2    1    2    0    0  0.00000000000E+00  0.00000000000E+00 -0.97366489458E+03  0.18793467994E+04  0.16074579514E+04 0.  0.
        1    1    3    3  502    0 -0.48973992091E+03 -0.24315611641E+03 -0.11755456598E+04  0.12964866700E+04  0.50400001928E-02 0.  1.
       -1    1    3    3    0  502  0.48973992091E+03  0.24315611641E+03  0.20188076522E+03  0.58286012942E+03  0.50400001928E-02 0. -1.
</event>
<event>
 5   0  0.1858913E-04  0.1600221E+04  0.7818609E-02  0.8820412E-01
        2   -1    0    0  501    0  0.00000000000E+00  0.00000000000E+00  0.13022342644E+04  0.13022342644E+04  0.25500000920E-02 0.  1.
       -2   -1    0    0    0  501  0.00000000000E+00  0.00000000000E+00 -0.49159895419E+03  0.49159895420E+03  0.25500000920E-02 0. -1.
    10030    2    1    2    0    0  0.00000000000E+00  0.00000000000E+00  0.81063531018E+03  0.17938332186E+04  0.16002212378E+04 0.  0.
        4    1    3    3  502    0 -0.18291500161E+02 -0.50764673198E+03 -0.28764652314E+03  0.58376529414E+03  0.12699999809E+01 0. -1.
       -4    1    3    3    0  502  0.18291500161E+02  0.50764673198E+03  0.10982818333E+04  0.12100679244E+04  0.12699999809E+01 0.  1.
</event>
<event>
 5   0  0.9939872E-05  0.1592144E+04  0.7818609E-02  0.8825389E-01
       -1   -1    0    0    0  501  0.00000000000E+00  0.00000000000E+00  0.54177728344E+03  0.54177728347E+03  0.50400001928E-02 0. -1.
        1   -1    0    0  501    0  0.00000000000E+00  0.00000000000E+00 -0.11697258159E+04  0.11697258159E+04  0.50400001928E-02 0.  1.
    10030    2    1    2    0    0  0.00000000000E+00  0.00000000000E+00 -0.62794853244E+03  0.17115030994E+04  0.15921443087E+04 0.  0.
        3    1    3    3  502    0 -0.53691659961E+03  0.55936264470E+03 -0.50796003890E+03  0.92692470813E+03  0.10100000352E+00 0.  1.
       -3    1    3    3    0  502  0.53691659961E+03 -0.55936264470E+03 -0.11998849354E+03  0.78457839124E+03  0.10100000352E+00 0. -1.
</event>
<event>
 5   0  0.1914170E-04  0.1594713E+04  0.7818609E-02  0.8823802E-01
       -2   -1    0    0    0  501  0.00000000000E+00  0.00000000000E+00  0.13219902092E+04  0.13219902092E+04  0.25500000920E-02 0. -1.
        2   -1    0    0  501    0  0.00000000000E+00  0.00000000000E+00 -0.48092471355E+03  0.48092471356E+03  0.25500000920E-02 0.  1.
    10030    2    1    2    0    0  0.00000000000E+00  0.00000000000E+00  0.84106549568E+03  0.18029149228E+04  0.15947134698E+04 0.  0.
        3    1    3    3  502    0  0.23263837539E+01  0.58611011343E+03 -0.19064538358E+03  0.61634093617E+03  0.10100000352E+00 0.  1.
       -3    1    3    3    0  502 -0.23263837539E+01 -0.58611011343E+03  0.10317108793E+04  0.11865739866E+04  0.10100000352E+00 0. -1.
</event>
<event>
 5   0  0.9673017E-05  0.1598246E+04  0.7818609E-02  0.8821626E-01
        1   -1    0    0  501    0  0.00000000000E+00  0.00000000000E+00  0.11992253011E+04  0.11992253011E+04  0.50400001928E-02 0.  1.
       -1   -1    0    0    0  501  0.00000000000E+00  0.00000000000E+00 -0.53250863473E+03  0.53250863475E+03  0.50400001928E-02 0. -1.
    10030    2    1    2    0    0  0.00000000000E+00  0.00000000000E+00  0.66671666640E+03  0.17317339359E+04  0.15982463238E+04 0.  0.
        1    1    3    3  502    0  0.21262139208E+03  0.57268737501E+03  0.89157599586E+03  0.10807804783E+04  0.50400001928E-02 0.  1.
       -1    1    3    3    0  502 -0.21262139208E+03 -0.57268737501E+03 -0.22485932946E+03  0.65095345758E+03  0.50400001928E-02 0. -1.
</event>
<event>
 5   0  0.1858913E-04  0.1598768E+04  0.7818609E-02  0.8821306E-01
        2   -1    0    0  501    0  0.00000000000E+00  0.00000000000E+00  0.15596072427E+04  0.15596072427E+04  0.25500000920E-02 0. -1.
       -2   -1    0    0    0  501  0.00000000000E+00  0.00000000000E+00 -0.40972776066E+03  0.40972776067E+03  0.25500000920E-02 0.  1.
    10030    2    1    2    0    0  0.00000000000E+00  0.00000000000E+00  0.11498794821E+04  0.19693350034E+04  0.15987675041E+04 0.  0.
        4    1    3    3  502    0  0.45231779917E+03 -0.64796736579E+02  0.13828832193E+04  0.14564194518E+04  0.12699999809E+01 0. -1.
       -4    1    3    3    0  502 -0.45231779917E+03  0.64796736579E+02 -0.23300373728E+03  0.51291555153E+03  0.12699999809E+01 0.  1.
</event>
<event>
 5   0  0.1832646E-04  0.1582079E+04  0.7818609E-02  0.8831634E-01
        2   -1    0    0  501    0  0.00000000000E+00  0.00000000000E+00  0.35246644472E+03  0.35246644473E+03  0.25500000920E-02 0.  1.
       -2   -1    0    0    0  501  0.00000000000E+00  0.00000000000E+00 -0.17753274712E+04  0.17753274712E+04  0.25500000920E-02 0. -1.
    10030    2    1    2    0    0  0.00000000000E+00  0.00000000000E+00 -0.14228610265E+04  0.21277939160E+04  0.15820788375E+04 0.  0.
        2    1    3    3  502    0 -0.70208111570E+03  0.26306577316E+03 -0.10506686346E+04  0.12907463243E+04  0.25500000920E-02 0. -1.
       -2    1    3    3    0  502  0.70208111570E+03 -0.26306577316E+03 -0.37219239189E+03  0.83704759162E+03  0.25500000920E-02 0.  1.
</event>
<event>
 5   0  0.1774934E-04  0.1590778E+04  0.7818609E-02  0.8826234E-01
        2   -1    0    0  501    0  0.00000000000E+00  0.00000000000E+00  0.11062887464E+04  0.11062887464E+04  0.25500000920E-02 0.  1.
       -2   -1    0    0    0  501  0.00000000000E+00  0.00000000000E+00 -0.57186104773E+03  0.57186104774E+03  0.25500000920E-02 0. -1.
    10030    2    1    2    0    0  0.00000000000E+00  0.00000000000E+00  0.53442769871E+03  0.16781497942E+04  0.15907777238E+04 0.  0.
        1    1    3    3  502    0 -0.35899247591E+02  0.69982728498E+02  0.11021761983E+04  0.11049790543E+04  0.50400001928E-02 0.  1.
       -1    1    3    3    0  502  0.35899247591E+02 -0.69982728498E+02 -0.56774849959E+03  0.57317073990E+03  0.50400001928E-02 0. -1.
</event>
<event>
 5   0  0.1914170E-04  0.1602647E+04  0.7818609E-02  0.8818924E-01
       -2   -1    0    0    0  501  0.00000000000E+00  0.00000000000E+00  0.30502298431E+03  0.30502298432E+03  0.25500000920E-02 0. -1.
        2   -1    0    0  501    0  0.00000000000E+00  0.00000000000E+00 -0.21051502204E+04  0.21051502204E+04  0.25500000920E-02 0.  1.
    10030    2    1    2    0    0  0.00000000000E+00  0.00000000000E+00 -0.18001272361E+04  0.24101732048E+04  0.16026468141E+04 0.  0.
        3    1    3    3  502    0 -0.70590211879E+03 -0.36503324674E+03 -0.10546928042E+04  0.13205771443E+04  0.10100000352E+00 0.  1.
       -3    1    3    3    0  502  0.70590211879E+03  0.36503324674E+03 -0.74543443192E+03  0.10895960605E+04  0.10100000352E+00 0. -1.
</event>
<event>
 5   0  0.1832646E-04  0.1599655E+04  0.7818609E-02  0.8820760E-01
        2   -1    0    0  501    0  0.00000000000E+00  0.00000000000E+00  0.66579139609E+03  0.66579139609E+03  0.25500000920E-02 0.  1.
       -2   -1    0    0    0  501  0.00000000000E+00  0.00000000000E+00 -0.96084782090E+03  0.96084782091E+03  0.25500000920E-02 0. -1.
    10030    2    1    2    0    0  0.00000000000E+00  0.00000000000E+00 -0.29505642481E+03  0.16266392170E+04  0.15996552280E+04 0.  0.
        2    1    3    3  502    0  0.18171892470E+03  0.40218889968E+02 -0.93852187002E+03  0.95679811205E+03  0.25500000920E-02 0. -1.
       -2    1    3    3    0  502 -0.18171892470E+03 -0.40218889968E+02  0.64346544521E+03  0.66984110495E+03  0.25500000920E-02 0.  1.
</event>
<event>
 5   0  0.9726935E-05  0.1596947E+04  0.7818609E-02  0.8822426E-01
       -1   -1    0    0    0  501  0.00000000000E+00  0.00000000000E+00  0.67872397247E+03  0.67872397249E+03  0.50400001928E-02 0.  1.
        1   -1    0    0  501    0  0.00000000000E+00  0.00000000000E+00 -0.93935040980E+03  0.93935040982E+03  0.50400001928E-02 0. -1.
    10030    2    1    2    0    0  0.00000000000E+00  0.00000000000E+00 -0.26062643733E+03  0.16180743823E+04  0.15969466387E+04 0.  0.
        2    1    3    3  502    0 -0.20429035136E+03 -0.72787861945E+03 -0.39065185891E+03  0.85097045025E+03  0.25500000920E-02 0. -1.
       -2    1    3    3    0  502  0.20429035136E+03  0.72787861945E+03  0.13002542158E+03  0.76710393206E+03  0.25500000920E-02 0.  1.
</event>
<event>
 5   0  0.9726935E-05  0.1590195E+04  0.7818609E-02  0.8826594E-01
       -1   -1    0    0    0  501  0.00000000000E+00  0.00000000000E+00  0.76283348698E+03  0.76283348700E+03  0.50400001928E-02 0.  1.
        1   -1    0    0  501    0  0.00000000000E+00  0.00000000000E+00 -0.82872655047E+03  0.82872655049E+03  0.50400001928E-02 0. -1.
    10030    2    1    2    0    0  0.00000000000E+00  0.00000000000E+00 -0.65893063488E+02  0.15915600375E+04  0.15901954148E+04 0.  0.
        2    1    3    3  502    0 -0.67937877142E+02  0.70516247519E+03 -0.39424203454E+03  0.81073821507E+03  0.25500000920E-02 0. -1.
       -2    1    3    3    0  502  0.67937877142E+02 -0.70516247519E+03  0.32834897105E+03  0.78082182242E+03  0.25500000920E-02 0.  1.
</event>
<event>
 5   0  0.9432152E-05  0.1593515E+04  0.7818609E-02  0.8824542E-01
        1   -1    0    0  501    0  0.00000000000E+00  0.00000000000E+00  0.17973703852E+04  0.17973703853E+04  0.50400001928E-02 0. -1.
       -1   -1    0    0    0  501  0.00000000000E+00  0.00000000000E+00 -0.35319503422E+03  0.35319503426E+03  0.50400001928E-02 0.  1.
    10030    2    1    2    0    0  0.00000000000E+00  0.00000000000E+00  0.14441753510E+04  0.21505654195E+04  0.15935147251E+04 0.  0.
        4    1    3    3  502    0 -0.19645150415E+03  0.72115592821E+03  0.34964052906E+03  0.82517221156E+03  0.12699999809E+01 0.  1.
       -4    1    3    3    0  502  0.19645150415E+03 -0.72115592821E+03  0.10945348220E+04  0.13253932080E+04  0.12699999809E+01 0. -1.
</event>
<event>
 5   0  0.9616567E-05  0.1604289E+04  0.7818609E-02  0.8817918E-01
       -1   -1    0    0    0  501  0.00000000000E+00  0.00000000000E+00  0.47877960957E+03  0.47877960960E+03  0.50400001928E-02 0. -1.
        1   -1    0    0  501    0  0.00000000000E+00  0.00000000000E+00 -0.13439077421E+04  0.13439077422E+04  0.50400001928E-02 0.  1.
    10030    2    1    2    0    0  0.00000000000E+00  0.00000000000E+00 -0.86512813257E+03  0.18226873518E+04  0.16042887821E+04 0.  0.
        5    1    3    3  502    0  0.12704168705E+03  0.27111940438E+03 -0.12780251938E+04  0.13126369672E+04  0.46999998093E+01 0.  1.
       -5    1    3    3    0  502 -0.12704168705E+03 -0.27111940438E+03  0.41289706119E+03  0.51005038459E+03  0.46999998093E+01 0. -1.
</event>
<event>
 5   0  0.9616567E-05  0.1602975E+04  0.7818609E-02  0.8818722E-01
       -1   -1    0    0    0  501  0.00000000000E+00  0.00000000000E+00  0.29815258767E+03  0.29815258772E+03  0.50400001928E-02 0.  1.
        1   -1    0    0  501    0  0.00000000000E+00  0.00000000000E+00 -0.21545419901E+04  0.21545419901E+04  0.50400001928E-02 0. -1.
    10030    2    1    2    0    0  0.00000000000E+00  0.00000000000E+00 -0.18563894024E+04  0.24526945778E+04  0.16029750711E+04 0.  0.
        5    1    3    3  502    0 -0.46114642956E+03 -0.55808945215E+03 -0.14543324824E+04  0.16245691507E+04  0.46999998093E+01 0. -1.
       -5    1    3    3    0  502  0.46114642956E+03  0.55808945215E+03 -0.40205692005E+03  0.82812542713E+03  0.46999998093E+01 0.  1.
</event>
<event>
 5   0  0.1914170E-04  0.1591104E+04  0.7818609E-02  0.8826032E-01
        2   -1    0    0  501    0  0.00000000000E+00  0.00000000000E+00  0.23099381012E+04  0.23099381012E+04  0.25500000920E-02 0.  1.
       -2   -1    0    0    0  501  0.00000000000E+00  0.00000000000E+00 -0.27399124483E+03  0.27399124484E+03  0.25500000920E-02 0. -1.
    10030    2    1    2    0    0  0.00000000000E+00  0.00000000000E+00  0.20359468564E+04  0.25839293460E+04  0.15911037877E+04 0.  0.
        3    1    3    3  502    0  0.63133528909E+03 -0.41568602320E+03  0.14207862695E+04  0.16093516554E+04  0.10100000352E+00 0.  1.
       -3    1    3    3    0  502 -0.63133528909E+03  0.41568602320E+03  0.61516058689E+03  0.97457769059E+03  0.10100000352E+00 0. -1.
</event>
<event>
 5   0  0.1914170E-04  0.1597789E+04  0.7818609E-02  0.8821908E-01
        2   -1    0    0  501    0  0.00000000000E+00  0.00000000000E+00  0.85983755574E+03  0.85983755574E+03  0.25500000920E-02 0. -1.
       -2   -1    0    0    0  501  0.00000000000E+00  0.00000000000E+00 -0.74227082677E+03  0.74227082678E+03  0.25500000920E-02 0.  1.
    10030    2    1    2    0    0  0.00000000000E+00  0.00000000000E+00  0.11756672897E+03  0.16021083825E+04  0.15977888889E+04 0.  0.
        3    1    3    3  502    0  0.76499949522E+03 -0.22124625636E+03  0.12265950391E+03  0.80574158248E+03  0.10100000352E+00 0. -1.
       -3    1    3    3    0  502 -0.76499949522E+03  0.22124625636E+03 -0.50927749414E+01  0.79636680004E+03  0.10100000352E+00 0.  1.
</event>
<event>
 5   0  0.9616567E-05  0.1599128E+04  0.7818609E-02  0.8821084E-01
        1   -1    0    0  501    0  0.00000000000E+00  0.00000000000E+00  0.88862141571E+03  0.88862141573E+03  0.50400001928E-02 0. -1.
       -1   -1    0    0    0  501  0.00000000000E+00  0.00000000000E+00 -0.71943178209E+03  0.71943178211E+03  0.50400001928E-02 0.  1.
    10030    2    1    2    0    0  0.00000000000E+00  0.00000000000E+00  0.16918963362E+03  0.16080531978E+04  0.15991278732E+04 0.  0.
        5    1    3    3  502    0  0.61382202243E+03 -0.40010668566E+03 -0.23721881677E+03  0.77016731439E+03  0.46999998093E+01 0.  1.
       -5    1    3    3    0  502 -0.61382202243E+03  0.40010668566E+03  0.40640845040E+03  0.83788588345E+03  0.46999998093E+01 0. -1.
</event>
<event>
 5   0  0.1774934E-04  0.1599142E+04  0.7818609E-02  0.8821075E-01
       -2   -1    0    0    0  501  0.00000000000E+00  0.00000000000E+00  0.33628955482E+03  0.33628955483E+03  0.25500000920E-02 0. -1.
        2   -1    0    0  501    0  0.00000000000E+00  0.00000000000E+00 -0.19010812614E+04  0.19010812614E+04  0.25500000920E-02 0.  1.
    10030    2    1    2    0    0  0.00000000000E+00  0.00000000000E+00 -0.15647917066E+04  0.22373708162E+04  0.15991419838E+04 0.  0.
        1    1    3    3  502    0  0.12986160650E+03 -0.58166542723E+03 -0.36637589008E+02  0.59711055847E+03  0.50400001928E-02 0. -1.
       -1    1    3    3    0  502 -0.12986160650E+03  0.58166542723E+03 -0.15281541176E+04  0.16402602577E+04  0.50400001928E-02 0.  1.
</event>
<event>
 5   0  0.9726935E-05  0.1592539E+04  0.7818609E-02  0.8825145E-01
        1   -1    0    0  501    0  0.00000000000E+00  0.00000000000E+00  0.10188654197E+04  0.10188654197E+04  0.50400001928E-02 0.  1.
       -1   -1    0    0    0  501  0.00000000000E+00  0.00000000000E+00 -0.62230523461E+03  0.62230523463E+03  0.50400001928E-02 0. -1.
    10030    2    1    2    0    0  0.00000000000E+00  0.00000000000E+00  0.39656018505E+03  0.16411706543E+04  0.15925392103E+04 0.  0.
        2    1    3    3  502    0 -0.44964816382E+03 -0.55535634179E+03 -0.16379077456E+03  0.73309723463E+03  0.25500000920E-02 0. -1.
       -2    1    3    3    0  502  0.44964816382E+03  0.55535634179E+03  0.56035095960E+03  0.90807341968E+03  0.25500000920E-02 0.  1.
</event>
<event>
 5   0  0.1914170E-04  0.1596924E+04  0.7818609E-02  0.8822440E-01
       -2   -1    0    0    0  501  0.00000000000E+00  0.00000000000E+00  0.14459482652E+04  0.14459482653E+04  0.25500000920E-02 0. -1.
        2   -1    0    0  501    0  0.00000000000E+00  0.00000000000E+00 -0.44091567389E+03  0.44091567390E+03  0.25500000920E-02 0.  1.
    10030    2    1    2    0    0  0.00000000000E+00  0.00000000000E+00  0.10050325914E+04  0.18868639392E+04  0.15969236097E+04 0.  0.
        3    1    3    3  502    0 -0.32012719045E+03  0.37048258548E+03  0.12477460486E+04  0.13403764308E+04  0.10100000352E+00 0. -1.
       -3    1    3    3    0  502  0.32012719045E+03 -0.37048258548E+03 -0.24271345728E+03  0.54648750833E+03  0.10100000352E+00 0.  1.
</event>
<event>
 5   0  0.1858913E-04  0.1596759E+04  0.7818609E-02  0.8822541E-01
        2   -1    0    0  501    0  0.00000000000E+00  0.00000000000E+00  0.12976460684E+04  0.12976460684E+04  0.25500000920E-02 0. -1.
       -2   -1    0    0    0  501  0.00000000000E+00  0.00000000000E+00 -0.49120479932E+03  0.49120479932E+03  0.25500000920E-02 0.  1.
    10030    2    1    2    0    0  0.00000000000E+00  0.00000000000E+00  0.80644126906E+03  0.17888508677E+04  0.15967591886E+04 0.  0.
        4    1    3    3  502    0 -0.22878306736E+03  0.76237737954E+03  0.47271003251E+03  0.92575231487E+03  0.12699999809E+01 0.  1.
       -4    1    3    3    0  502  0.22878306736E+03 -0.76237737954E+03  0.33373123655E+03  0.86309855283E+03  0.12699999809E+01 0. -1.
</event>
<event>
 5   0  0.1835088E-04  0.1602789E+04  0.7818609E-02  0.8818836E-01
        2   -1    0    0  501    0  0.00000000000E+00  0.00000000000E+00  0.70756261580E+03  0.70756261580E+03  0.25500000920E-02 0. -1.
       -2   -1    0    0    0  501  0.00000000000E+00  0.00000000000E+00 -0.90766965952E+03  0.90766965952E+03  0.25500000920E-02 0.  1.
    10030    2    1    2    0    0  0.00000000000E+00  0.00000000000E+00 -0.20010704372E+03  0.16152322753E+04  0.16027889675E+04 0.  0.
        5    1    3    3  502    0 -0.57535878381E+03  0.34808348781E+03 -0.53934039087E+03  0.86203827746E+03  0.46999998093E+01 0.  1.
       -5    1    3    3    0  502  0.57535878381E+03 -0.34808348781E+03  0.33923334714E+03  0.75319399786E+03  0.46999998093E+01 0. -1.
</event>
<event>
 5   0  0.9673017E-05  0.1554079E+04  0.7818609E-02  0.8849266E-01
        1   -1    0    0  501    0  0.00000000000E+00  0.00000000000E+00  0.69021678783E+03  0.69021678785E+03  0.50400001928E-02 0.  1.
       -1   -1    0    0    0  501  0.00000000000E+00  0.00000000000E+00 -0.87478374864E+03  0.87478374866E+03  0.50400001928E-02 0. -1.
    10030    2    1    2    0    0  0.00000000000E+00  0.00000000000E+00 -0.18456696081E+03  0.15650005365E+04  0.15540790573E+04 0.  0.
        1    1    3    3  502    0  0.22149591151E+03  0.52455469685E+03 -0.62474533350E+03  0.84529568825E+03  0.50400001928E-02 0. -1.
       -1    1    3    3    0  502 -0.22149591151E+03 -0.52455469685E+03  0.44017837269E+03  0.71970484827E+03  0.50400001928E-02 0.  1.
</event>
<event>
 5   0  0.9939872E-05  0.1596515E+04  0.7818609E-02  0.8822692E-01
        1   -1    0    0  501    0  0.00000000000E+00  0.00000000000E+00  0.36596299797E+03  0.36596299801E+03  0.50400001928E-02 0.  1.
       -1   -1    0    0    0  501  0.00000000000E+00  0.00000000000E+00 -0.17412015053E+04  0.17412015053E+04  0.50400001928E-02 0. -1.
    10030    2    1    2    0    0  0.00000000000E+00  0.00000000000E+00 -0.13752385073E+04  0.21071645033E+04  0.15965153592E+04 0.  0.
        3    1    3    3  502    0 -0.54803854165E+03 -0.23599102794E+03  0.12247675454E+02  0.59681489941E+03  0.10100000352E+00 0.  1.
       -3    1    3    3    0  502  0.54803854165E+03  0.23599102794E+03 -0.13874861828E+04  0.15103496039E+04  0.10100000352E+00 0. -1.
</event>
<event>
 5   0  0.9432152E-05  0.1595742E+04  0.7818609E-02  0.8823168E-01
       -1   -1    0    0    0  501  0.00000000000E+00  0.00000000000E+00  0.15222502906E+04  0.15222502906E+04  0.50400001928E-02 0. -1.
        1   -1    0    0  501    0  0.00000000000E+00  0.00000000000E+00 -0.41819530081E+03  0.41819530084E+03  0.50400001928E-02 0.  1.
    10030    2    1    2    0    0  0.00000000000E+00  0.00000000000E+00  0.11040549898E+04  0.19404455915E+04  0.15957417313E+04 0.  0.
        4    1    3    3  502    0  0.42060992476E+03  0.61503366012E+02  0.13730860063E+04  0.14373803138E+04  0.12699999809E+01 0. -1.
       -4    1    3    3    0  502 -0.42060992476E+03 -0.61503366012E+02 -0.26903101653E+03  0.50306527766E+03  0.12699999809E+01 0.  1.
</event>
<event>
 5   0  0.9616567E-05  0.1594315E+04  0.7818609E-02  0.8824048E-01
        1   -1    0    0  501    0  0.00000000000E+00  0.00000000000E+00  0.19915557581E+04  0.19915557581E+04  0.50400001928E-02 0. -1.
       -1   -1    0    0    0  501  0.00000000000E+00  0.00000000000E+00 -0.31907733340E+03  0.31907733344E+03  0.50400001928E-02 0.  1.
    10030    2    1    2    0    0  0.00000000000E+00  0.00000000000E+00  0.16724784247E+04  0.23106330915E+04  0.15943152771E+04 0.  0.
        5    1    3    3  502    0  0.34977350434E+03 -0.11771092382E+03 -0.18778879736E+03  0.41410637321E+03  0.46999998093E+01 0.  1.
       -5    1    3    3    0  502 -0.34977350434E+03  0.11771092382E+03  0.18602672220E+04  0.18965267183E+04  0.46999998093E+01 0. -1.
</event>
<event>
 5   0  0.1914170E-04  0.1600630E+04  0.7818609E-02  0.8820161E-01
        2   -1    0    0  501    0  0.00000000000E+00  0.00000000000E+00  0.57346593022E+03  0.57346593023E+03  0.25500000920E-02 0.  1.
       -2   -1    0    0    0  501  0.00000000000E+00  0.00000000000E+00 -0.11168996580E+04  0.11168996580E+04  0.25500000920E-02 0. -1.
    10030    2    1    2    0    0  0.00000000000E+00  0.00000000000E+00 -0.54343372775E+03  0.16903655882E+04  0.16006297527E+04 0.  0.
        3    1    3    3  502    0 -0.18181101449E+03 -0.68325660313E+03  0.12428425288E+03  0.71787284141E+03  0.10100000352E+00 0.  1.
       -3    1    3    3    0  502  0.18181101449E+03  0.68325660313E+03 -0.66771798063E+03  0.97249274680E+03  0.10100000352E+00 0. -1.
</event>
<event>
 5   0  0.9726935E-05  0.1592039E+04  0.7818609E-02  0.8825454E-01
       -1   -1    0    0    0  501  0.00000000000E+00  0.00000000000E+00  0.67523816747E+03  0.67523816749E+03  0.50400001928E-02 0. -1.
        1   -1    0    0  501    0  0.00000000000E+00  0.00000000000E+00 -0.93840541855E+03  0.93840541856E+03  0.50400001928E-02 0.  1.
    10030    2    1    2    0    0  0.00000000000E+00  0.00000000000E+00 -0.26316725108E+03  0.16136435861E+04  0.15920391392E+04 0.  0.
        2    1    3    3  502    0 -0.60827365234E+03 -0.64222213947E+02 -0.64793360837E+03  0.89103270971E+03  0.25500000920E-02 0.  1.
       -2    1    3    3    0  502  0.60827365234E+03  0.64222213947E+02  0.38476635730E+03  0.72261087635E+03  0.25500000920E-02 0. -1.
</event>
<event>
 5   0  0.9432152E-05  0.1576309E+04  0.7818609E-02  0.8835236E-01
       -1   -1    0    0    0  501  0.00000000000E+00  0.00000000000E+00  0.79064929671E+03  0.79064929673E+03  0.50400001928E-02 0. -1.
        1   -1    0    0  501    0  0.00000000000E+00  0.00000000000E+00 -0.78566805760E+03  0.78566805761E+03  0.50400001928E-02 0.  1.
    10030    2    1    2    0    0  0.00000000000E+00  0.00000000000E+00  0.49812391165E+01  0.15763173543E+04  0.15763094838E+04 0.  0.
        4    1    3    3  502    0 -0.51261372529E+03  0.14160458929E+03  0.58418209460E+03  0.78999685038E+03  0.12699999809E+01 0. -1.
       -4    1    3    3    0  502  0.51261372529E+03 -0.14160458929E+03 -0.57920085548E+03  0.78632050396E+03  0.12699999809E+01 0.  1.
</event>
<event>
 5   0  0.9939872E-05  0.1603711E+04  0.7818609E-02  0.8818271E-01
        1   -1    0    0  501    0  0.00000000000E+00  0.00000000000E+00  0.86242722168E+03  0.86242722169E+03  0.50400001928E-02 0. -1.
       -1   -1    0    0    0  501  0.00000000000E+00  0.00000000000E+00 -0.74553791446E+03  0.74553791448E+03  0.50400001928E-02 0.  1.
    10030    2    1    2    0    0  0.00000000000E+00  0.00000000000E+00  0.11688930722E+03  0.16079651362E+04  0.16037109369E+04 0.  0.
        3    1    3    3  502    0  0.22881180159E+03  0.62252003635E+03 -0.39340160025E+03  0.77113608753E+03  0.10100000352E+00 0.  1.
       -3    1    3    3    0  502 -0.22881180159E+03 -0.62252003635E+03  0.51029090747E+03  0.83682904864E+03  0.10100000352E+00 0. -1.
</event>
<event>
 5   0  0.9432152E-05  0.1655848E+04  0.7818609E-02  0.8786954E-01
       -1   -1    0    0    0  501  0.00000000000E+00  0.00000000000E+00  0.57128710325E+03  0.57128710328E+03  0.50400001928E-02 0. -1.
        1   -1    0    0  501    0  0.00000000000E+00  0.00000000000E+00 -0.11998485983E+04  0.11998485983E+04  0.50400001928E-02 0.  1.
    10030    2    1    2    0    0  0.00000000000E+00  0.00000000000E+00 -0.62856149505E+03  0.17711357016E+04  0.16558478554E+04 0.  0.
        4    1    3    3  502    0 -0.71569481155E+03 -0.40518773312E+03 -0.21246812736E+03  0.84943538918E+03  0.12699999809E+01 0.  1.
       -4    1    3    3    0  502  0.71569481155E+03  0.40518773312E+03 -0.41609336769E+03  0.92170031240E+03  0.12699999809E+01 0. -1.
</event>
<event>
 5   0  0.1832646E-04  0.1672399E+04  0.7818609E-02  0.8777265E-01
        2   -1    0    0  501    0  0.00000000000E+00  0.00000000000E+00  0.25560177179E+04  0.25560177179E+04  0.25500000920E-02 0. -1.
       -2   -1    0    0    0  501  0.00000000000E+00  0.00000000000E+00 -0.27356209655E+03  0.27356209656E+03  0.25500000920E-02 0.  1.
    10030    2    1    2    0    0  0.00000000000E+00  0.00000000000E+00  0.22824556214E+04  0.28295798145E+04  0.16723989545E+04 0.  0.
        2    1    3    3  502    0  0.82468978654E+02 -0.36563505431E+03 -0.12346987994E+03  0.39463266039E+03  0.25500000920E-02 0.  1.
       -2    1    3    3    0  502 -0.82468978654E+02  0.36563505431E+03  0.24059255013E+04  0.24349471541E+04  0.25500000920E-02 0. -1.
</event>
<event>
 5   0  0.1835088E-04  0.1600488E+04  0.7818609E-02  0.8820248E-01
        2   -1    0    0  501    0  0.00000000000E+00  0.00000000000E+00  0.92481488584E+03  0.92481488585E+03  0.25500000920E-02 0. -1.
       -2   -1    0    0    0  501  0.00000000000E+00  0.00000000000E+00 -0.69245259726E+03  0.69245259727E+03  0.25500000920E-02 0.  1.
    10030    2    1    2    0    0  0.00000000000E+00  0.00000000000E+00  0.23236228858E+03  0.16172674831E+04  0.16004880127E+04 0.  0.
        5    1    3    3  502    0 -0.36115231972E+03 -0.48658493148E+03 -0.41195745164E+03  0.73275297717E+03  0.46999998093E+01 0.  1.
       -5    1    3    3    0  502  0.36115231972E+03  0.48658493148E+03  0.64431974022E+03  0.88451450594E+03  0.46999998093E+01 0. -1.
</event>
<event>
 5   0  0.1914170E-04  0.1598007E+04  0.7818609E-02  0.8821774E-01
        2   -1    0    0  501    0  0.00000000000E+00  0.00000000000E+00  0.12078338587E+04  0.12078338587E+04  0.25500000920E-02 0.  1.
       -2   -1    0    0    0  501  0.00000000000E+00  0.00000000000E+00 -0.52855472446E+03  0.52855472447E+03  0.25500000920E-02 0. -1.
    10030    2    1    2    0    0  0.00000000000E+00  0.00000000000E+00  0.67927913426E+03  0.17363885832E+04  0.15980066238E+04 0.  0.
        3    1    3    3  502    0  0.58096448502E+03 -0.20956221095E+02  0.93523664943E+03  0.11011932150E+04  0.10100000352E+00 0.  1.
       -3    1    3    3    0  502 -0.58096448502E+03  0.20956221095E+02 -0.25595751516E+03  0.63519536823E+03  0.10100000352E+00 0. -1.
</event>
<event>
 5   0  0.1835088E-04  0.1602983E+04  0.7818609E-02  0.8818717E-01
        2   -1    0    0  501    0  0.00000000000E+00  0.00000000000E+00  0.10578660160E+04  0.10578660160E+04  0.25500000920E-02 0. -1.
       -2   -1    0    0    0  501  0.00000000000E+00  0.00000000000E+00 -0.60724968427E+03  0.60724968428E+03  0.25500000920E-02 0.  1.
    10030    2    1    2    0    0  0.00000000000E+00  0.00000000000E+00  0.45061633169E+03  0.16651157002E+04  0.16029832241E+04 0.  0.
        5    1    3    3  502    0 -0.60683655958E+02 -0.53495491483E+02 -0.60298363870E+03  0.60840416850E+03  0.46999998093E+01 0.  1.
       -5    1    3    3    0  502  0.60683655958E+02  0.53495491483E+02  0.10535999704E+04  0.10567115317E+04  0.46999998093E+01 0. -1.
</event>
<event>
 5   0  0.9432152E-05  0.1602347E+04  0.7818609E-02  0.8819107E-01
       -1   -1    0    0    0  501  0.00000000000E+00  0.00000000000E+00  0.73981856002E+03  0.73981856003E+03  0.50400001928E-02 0. -1.
        1   -1    0    0  501    0  0.00000000000E+00  0.00000000000E+00 -0.86761701183E+03  0.86761701184E+03  0.50400001928E-02 0.  1.
    10030    2    1    2    0    0  0.00000000000E+00  0.00000000000E+00 -0.12779845181E+03  0.16074355719E+04  0.16023472387E+04 0.  0.
        4    1    3    3  502    0 -0.98663612274E+02  0.68464713647E+02 -0.85853561468E+03  0.86689499939E+03  0.12699999809E+01 0.  1.
       -4    1    3    3    0  502  0.98663612274E+02 -0.68464713647E+02  0.73073716287E+03  0.74054057248E+03  0.12699999809E+01 0. -1.
</event>
<event>
 5   0  0.9939872E-05  0.1613255E+04  0.7818609E-02  0.8812446E-01
       -1   -1    0    0    0  501  0.00000000000E+00  0.00000000000E+00  0.73335655346E+03  0.73335655348E+03  0.50400001928E-02 0. -1.
        1   -1    0    0  501    0  0.00000000000E+00  0.00000000000E+00 -0.88721895607E+03  0.88721895609E+03  0.50400001928E-02 0.  1.
    10030    2    1    2    0    0  0.00000000000E+00  0.00000000000E+00 -0.15386240261E+03  0.16205755096E+04  0.16132548910E+04 0.  0.
        3    1    3    3  502    0  0.11465204468E+02  0.79325574414E+03 -0.22340679425E+03  0.82419459622E+03  0.10100000352E+00 0. -1.
       -3    1    3    3    0  502 -0.11465204468E+02 -0.79325574414E+03  0.69544391634E+02  0.79638091334E+03  0.10100000352E+00 0.  1.
</event>
<event>
 5   0  0.9939872E-05  0.1600274E+04  0.7818609E-02  0.8820380E-01
        1   -1    0    0  501    0  0.00000000000E+00  0.00000000000E+00  0.21049862820E+04  0.21049862820E+04  0.50400001928E-02 0. -1.
       -1   -1    0    0    0  501  0.00000000000E+00  0.00000000000E+00 -0.30414422381E+03  0.30414422385E+03  0.50400001928E-02 0.  1.
    10030    2    1    2    0    0  0.00000000000E+00  0.00000000000E+00  0.18008420582E+04  0.24091305059E+04  0.16002742502E+04 0.  0.
        3    1    3    3  502    0  0.38538611714E+03  0.22198080929E+03 -0.10092460112E+03  0.45605232626E+03  0.10100000352E+00 0.  1.
       -3    1    3    3    0  502 -0.38538611714E+03 -0.22198080929E+03  0.19017666593E+04  0.19530781796E+04  0.10100000352E+00 0. -1.
</event>
<event>
 5   0  0.9616567E-05  0.1606075E+04  0.7818609E-02  0.8816825E-01
        1   -1    0    0  501    0  0.00000000000E+00  0.00000000000E+00  0.59244387000E+03  0.59244387002E+03  0.50400001928E-02 0.  1.
       -1   -1    0    0    0  501  0.00000000000E+00  0.00000000000E+00 -0.10884895286E+04  0.10884895286E+04  0.50400001928E-02 0. -1.
    10030    2    1    2    0    0  0.00000000000E+00  0.00000000000E+00 -0.49604565862E+03  0.16809333987E+04  0.16060746543E+04 0.  0.
        5    1    3    3  502    0 -0.45031299380E+03  0.49832792733E+03  0.21264521308E+03  0.70452295362E+03  0.46999998093E+01 0.  1.
       -5    1    3    3    0  502  0.45031299380E+03 -0.49832792733E+03 -0.70869087170E+03  0.97641044503E+03  0.46999998093E+01 0. -1.
</event>
<event>
 5   0  0.1832646E-04  0.1605997E+04  0.7818609E-02  0.8816872E-01
       -2   -1    0    0    0  501  0.00000000000E+00  0.00000000000E+00  0.34673476761E+03  0.34673476762E+03  0.25500000920E-02 0. -1.
        2   -1    0    0  501    0  0.00000000000E+00  0.00000000000E+00 -0.18596540527E+04  0.18596540527E+04  0.25500000920E-02 0.  1.
    10030    2    1    2    0    0  0.00000000000E+00  0.00000000000E+00 -0.15129192851E+04  0.22063888203E+04  0.16059971554E+04 0.  0.
        2    1    3    3  502    0  0.47174761850E+03 -0.29793349232E+03  0.36923446361E+02  0.55917217590E+03  0.25500000920E-02 0. -1.
       -2    1    3    3    0  502 -0.47174761850E+03  0.29793349232E+03 -0.15498427314E+04  0.16472166444E+04  0.25500000920E-02 0.  1.
</event>
<event>
 5   0  0.1914170E-04  0.1588080E+04  0.7818609E-02  0.8827904E-01
       -2   -1    0    0    0  501  0.00000000000E+00  0.00000000000E+00  0.34205072947E+03  0.34205072948E+03  0.25500000920E-02 0. -1.
        2   -1    0    0  501    0  0.00000000000E+00  0.00000000000E+00 -0.18432934526E+04  0.18432934526E+04  0.25500000920E-02 0.  1.
    10030    2    1    2    0    0  0.00000000000E+00  0.00000000000E+00 -0.15012427231E+04  0.21853441821E+04  0.15880804389E+04 0.  0.
        3    1    3    3  502    0  0.77514012163E+03 -0.75003195230E+02 -0.96394739865E+03  0.12392184170E+04  0.10100000352E+00 0.  1.
       -3    1    3    3    0  502 -0.77514012163E+03  0.75003195230E+02 -0.53729532449E+03  0.94612576509E+03  0.10100000352E+00 0. -1.
</event>
<event>
 5   0  0.1914170E-04  0.1610806E+04  0.7818609E-02  0.8813937E-01
        2   -1    0    0  501    0  0.00000000000E+00  0.00000000000E+00  0.16192096290E+04  0.16192096290E+04  0.25500000920E-02 0.  1.
       -2   -1    0    0    0  501  0.00000000000E+00  0.00000000000E+00 -0.40061174167E+03  0.40061174167E+03  0.25500000920E-02 0. -1.
    10030    2    1    2    0    0  0.00000000000E+00  0.00000000000E+00  0.12185978874E+04  0.20198213707E+04  0.16108064932E+04 0.  0.
        3    1    3    3  502    0 -0.40705660436E+03 -0.39522141566E+03 -0.10749921702E+03  0.57745228237E+03  0.10100000352E+00 0. -1.
       -3    1    3    3    0  502  0.40705660436E+03  0.39522141566E+03  0.13260971044E+04  0.14423690884E+04  0.10100000352E+00 0.  1.
</event>
<event>
 5   0  0.9726935E-05  0.1600412E+04  0.7818609E-02  0.8820295E-01
       -1   -1    0    0    0  501  0.00000000000E+00  0.00000000000E+00  0.96340571806E+03  0.96340571807E+03  0.50400001928E-02 0.  1.
        1   -1    0    0  501    0  0.00000000000E+00  0.00000000000E+00 -0.66465203778E+03  0.66465203780E+03  0.50400001928E-02 0. -1.
    10030    2    1    2    0    0  0.00000000000E+00  0.00000000000E+00  0.29875368028E+03  0.16280577559E+04  0.16004119142E+04 0.  0.
        2    1    3    3  502    0  0.33884221788E+03 -0.60385724756E+03 -0.25864009983E+03  0.73915649580E+03  0.25500000920E-02 0. -1.
       -2    1    3    3    0  502 -0.33884221788E+03  0.60385724756E+03  0.55739378011E+03  0.88890126007E+03  0.25500000920E-02 0.  1.
</event>
<event>
 5   0  0.1858913E-04  0.1600102E+04  0.7818609E-02  0.8820485E-01
       -2   -1    0    0    0  501  0.00000000000E+00  0.00000000000E+00  0.47279471115E+03  0.47279471115E+03  0.25500000920E-02 0. -1.
        2   -1    0    0  501    0  0.00000000000E+00  0.00000000000E+00 -0.13538254132E+04  0.13538254132E+04  0.25500000920E-02 0.  1.
    10030    2    1    2    0    0  0.00000000000E+00  0.00000000000E+00 -0.88103070201E+03  0.18266201243E+04  0.16001018657E+04 0.  0.
        4    1    3    3  502    0 -0.76917529502E+03 -0.19535710613E+03 -0.32474440981E+03  0.85747045313E+03  0.12699999809E+01 0. -1.
       -4    1    3    3    0  502  0.76917529502E+03  0.19535710613E+03 -0.55628629220E+03  0.96914967119E+03  0.12699999809E+01 0.  1.
</event>
<event>
 5   0  0.1914170E-04  0.1590658E+04  0.7818609E-02  0.8826308E-01
        2   -1    0    0  501    0  0.00000000000E+00  0.00000000000E+00  0.23603370232E+04  0.23603370232E+04  0.25500000920E-02 0. -1.
       -2   -1    0    0    0  501  0.00000000000E+00  0.00000000000E+00 -0.26799063996E+03  0.26799063997E+03  0.25500000920E-02 0.  1.
    10030    2    1    2    0    0  0.00000000000E+00  0.00000000000E+00  0.20923463833E+04  0.26283276632E+04  0.15906580140E+04 0.  0.
        3    1    3    3  502    0 -0.11265520931E+03  0.78729436422E+03  0.10379766111E+04  0.13076387374E+04  0.10100000352E+00 0. -1.
       -3    1    3    3    0  502  0.11265520931E+03 -0.78729436422E+03  0.10543697722E+04  0.13206889258E+04  0.10100000352E+00 0.  1.
</event>
<event>
 5   0  0.1914170E-04  0.1600592E+04  0.7818609E-02  0.8820184E-01
       -2   -1    0    0    0  501  0.00000000000E+00  0.00000000000E+00  0.63892961532E+03  0.63892961532E+03  0.25500000920E-02 0.  1.
        2   -1    0    0  501    0  0.00000000000E+00  0.00000000000E+00 -0.10024170973E+04  0.10024170973E+04  0.25500000920E-02 0. -1.
    10030    2    1    2    0    0  0.00000000000E+00  0.00000000000E+00 -0.36348748196E+03  0.16413467126E+04  0.16005923533E+04 0.  0.
        3    1    3    3  502    0 -0.40877422134E+03  0.14585360903E+03 -0.87125112389E+03  0.97336949325E+03  0.10100000352E+00 0. -1.
       -3    1    3    3    0  502  0.40877422134E+03 -0.14585360903E+03  0.50776364193E+03  0.66797721935E+03  0.10100000352E+00 0.  1.
</event>
<event>
 5   0  0.1914170E-04  0.1595841E+04  0.7818609E-02  0.8823107E-01
       -2   -1    0    0    0  501  0.00000000000E+00  0.00000000000E+00  0.35099937949E+03  0.35099937950E+03  0.25500000920E-02 0.  1.
        2   -1    0    0  501    0  0.00000000000E+00  0.00000000000E+00 -0.18138981772E+04  0.18138981772E+04  0.25500000920E-02 0. -1.
    10030    2    1    2    0    0  0.00000000000E+00  0.00000000000E+00 -0.14628987977E+04  0.21648975567E+04  0.15958410130E+04 0.  0.
        3    1    3    3  502    0 -0.66130180854E+02  0.63160554750E+03 -0.13868065099E+04  0.15252970447E+04  0.10100000352E+00 0. -1.
       -3    1    3    3    0  502  0.66130180854E+02 -0.63160554750E+03 -0.76092287770E+02  0.63960051197E+03  0.10100000352E+00 0.  1.
</event>
<event>
 5   0  0.1835088E-04  0.1600682E+04  0.7818609E-02  0.8820129E-01
       -2   -1    0    0    0  501  0.00000000000E+00  0.00000000000E+00  0.74808404171E+03  0.74808404171E+03  0.25500000920E-02 0.  1.
        2   -1    0    0  501    0  0.00000000000E+00  0.00000000000E+00 -0.85624843054E+03  0.85624843054E+03  0.25500000920E-02 0. -1.
    10030    2    1    2    0    0  0.00000000000E+00  0.00000000000E+00 -0.10816438883E+03  0.16043324723E+04  0.16006820879E+04 0.  0.
        5    1    3    3  502    0 -0.27969726522E+03  0.27968504698E+03 -0.75141983611E+03  0.84918086752E+03  0.46999998093E+01 0. -1.
       -5    1    3    3    0  502  0.27969726522E+03 -0.27968504698E+03  0.64325544728E+03  0.75515160473E+03  0.46999998093E+01 0.  1.
</event>
<event>
 5   0  0.9939872E-05  0.1596349E+04  0.7818609E-02  0.8822794E-01
        1   -1    0    0  501    0  0.00000000000E+00  0.00000000000E+00  0.11758881219E+04  0.11758881219E+04  0.50400001928E-02 0.  1.
       -1   -1    0    0    0  501  0.00000000000E+00  0.00000000000E+00 -0.54178838934E+03  0.54178838937E+03  0.50400001928E-02 0. -1.
    10030    2    1    2    0    0  0.00000000000E+00  0.00000000000E+00  0.63409973256E+03  0.17176765113E+04  0.15963489990E+04 0.  0.
        3    1    3    3  502    0 -0.54532579099E+03  0.57263787023E+03  0.43387513203E+03  0.90196562525E+03  0.10100000352E+00 0.  1.
       -3    1    3    3    0  502  0.54532579099E+03 -0.57263787023E+03  0.20022460054E+03  0.81571088604E+03  0.10100000352E+00 0. -1.
</event>
<event>
 5   0  0.9726935E-05  0.1545740E+04  0.7818609E-02  0.8854593E-01
        1   -1    0    0  501    0  0.00000000000E+00  0.00000000000E+00  0.13185320481E+04  0.13185320481E+04  0.50400001928E-02 0.  1.
       -1   -1    0    0    0  501  0.00000000000E+00  0.00000000000E+00 -0.45302521284E+03  0.45302521287E+03  0.50400001928E-02 0. -1.
    10030    2    1    2    0    0  0.00000000000E+00  0.00000000000E+00  0.86550683525E+03  0.17715572610E+04  0.15457402909E+04 0.  0.
        2    1    3    3  502    0  0.59380201729E+03  0.27025715844E+03  0.90763930454E+03  0.11177874908E+04  0.25500000920E-02 0.  1.
       -2    1    3    3    0  502 -0.59380201729E+03 -0.27025715844E+03 -0.42132469284E+02  0.65376977018E+03  0.25500000920E-02 0. -1.
</event>
<event>
 5   0  0.9432152E-05  0.1598239E+04  0.7818609E-02  0.8821630E-01
       -1   -1    0    0    0  501  0.00000000000E+00  0.00000000000E+00  0.39172985655E+03  0.39172985658E+03  0.50400001928E-02 0. -1.
        1   -1    0    0  501    0  0.00000000000E+00  0.00000000000E+00 -0.16301849363E+04  0.16301849364E+04  0.50400001928E-02 0.  1.
    10030    2    1    2    0    0  0.00000000000E+00  0.00000000000E+00 -0.12384550798E+04  0.20219147929E+04  0.15982391702E+04 0.  0.
        4    1    3    3  502    0  0.37521829096E+03 -0.67177812035E+03 -0.89207614929E+03  0.11780815243E+04  0.12699999809E+01 0.  1.
       -4    1    3    3    0  502 -0.37521829096E+03  0.67177812035E+03 -0.34637893051E+03  0.84383326863E+03  0.12699999809E+01 0. -1.
</event>
<event>
 5   0  0.1914170E-04  0.1598188E+04  0.7818609E-02  0.8821662E-01
        2   -1    0    0  501    0  0.00000000000E+00  0.00000000000E+00  0.11108267455E+04  0.11108267455E+04  0.25500000920E-02 0.  1.
       -2   -1    0    0    0  501  0.00000000000E+00  0.00000000000E+00 -0.57484347636E+03  0.57484347637E+03  0.25500000920E-02 0. -1.
    10030    2    1    2    0    0  0.00000000000E+00  0.00000000000E+00  0.53598326910E+03  0.16856702218E+04  0.15981883594E+04 0.  0.
        3    1    3    3  502    0  0.19134244536E+03 -0.15654747082E+03  0.10694763545E+04  0.10976787896E+04  0.10100000352E+00 0.  1.
       -3    1    3    3    0  502 -0.19134244536E+03  0.15654747082E+03 -0.53349308542E+03  0.58799143225E+03  0.10100000352E+00 0. -1.
</event>
<event>
 5   0  0.1914170E-04  0.1601835E+04  0.7818609E-02  0.8819422E-01
        2   -1    0    0  501    0  0.00000000000E+00  0.00000000000E+00  0.44482030469E+03  0.44482030470E+03  0.25500000920E-02 0. -1.
       -2   -1    0    0    0  501  0.00000000000E+00  0.00000000000E+00 -0.14420851727E+04  0.14420851727E+04  0.25500000920E-02 0.  1.
    10030    2    1    2    0    0  0.00000000000E+00  0.00000000000E+00 -0.99726486806E+03  0.18869054774E+04  0.16018349053E+04 0.  0.
        3    1    3    3  502    0 -0.42807641967E+03 -0.42365982231E+03 -0.11205396069E+04  0.12721423218E+04  0.10100000352E+00 0.  1.
       -3    1    3    3    0  502  0.42807641967E+03  0.42365982231E+03  0.12327473882E+03  0.61476315565E+03  0.10100000352E+00 0. -1.
</event>
<event>
 5   0  0.1774934E-04  0.1599140E+04  0.7818609E-02  0.8821076E-01
        2   -1    0    0  501    0  0.00000000000E+00  0.00000000000E+00  0.10352647428E+04  0.10352647428E+04  0.25500000920E-02 0.  1.
       -2   -1    0    0    0  501  0.00000000000E+00  0.00000000000E+00 -0.61753505476E+03  0.61753505477E+03  0.25500000920E-02 0. -1.
    10030    2    1    2    0    0  0.00000000000E+00  0.00000000000E+00  0.41772968808E+03  0.16527997976E+04  0.15991401060E+04 0.  0.
        1    1    3    3  502    0 -0.79581032141E+03 -0.65396476154E+02  0.16598160171E+03  0.81556156045E+03  0.50400001928E-02 0.  1.
       -1    1    3    3    0  502  0.79581032141E+03  0.65396476154E+02  0.25174808637E+03  0.83723823716E+03  0.50400001928E-02 0. -1.
</event>
<event>
 5   0  0.9673017E-05  0.1600604E+04  0.7818609E-02  0.8820177E-01
        1   -1    0    0  501    0  0.00000000000E+00  0.00000000000E+00  0.87206380626E+03  0.87206380627E+03  0.50400001928E-02 0.  1.
       -1   -1    0    0    0  501  0.00000000000E+00  0.00000000000E+00 -0.73444583575E+03  0.73444583577E+03  0.50400001928E-02 0. -1.
    10030    2    1    2    0    0  0.00000000000E+00  0.00000000000E+00  0.13761797051E+03  0.16065096420E+04  0.16006044246E+04 0.  0.
        1    1    3    3  502    0  0.25922265172E+03 -0.42501529703E+03  0.69773811013E+03  0.85713059462E+03  0.50400001928E-02 0.  1.
       -1    1    3    3    0  502 -0.25922265172E+03  0.42501529703E+03 -0.56012013963E+03  0.74937904742E+03  0.50400001928E-02 0. -1.
</event>
<event>
 5   0  0.1832646E-04  0.1597496E+04  0.7818609E-02  0.8822088E-01
        2   -1    0    0  501    0  0.00000000000E+00  0.00000000000E+00  0.10577919050E+04  0.10577919050E+04  0.25500000920E-02 0.  1.
       -2   -1    0    0    0  501  0.00000000000E+00  0.00000000000E+00 -0.60314130269E+03  0.60314130270E+03  0.25500000920E-02 0. -1.
    10030    2    1    2    0    0  0.00000000000E+00  0.00000000000E+00  0.45465060229E+03  0.16609332077E+04  0.15974955243E+04 0.  0.
        2    1    3    3  502    0  0.28724942017E+03 -0.33408204918E+03  0.92002154501E+03  0.10200797460E+04  0.25500000920E-02 0.  1.
       -2    1    3    3    0  502 -0.28724942017E+03  0.33408204918E+03 -0.46537094272E+03  0.64085346165E+03  0.25500000920E-02 0. -1.
</event>
<event>
 5   0  0.1914170E-04  0.1601027E+04  0.7818609E-02  0.8819917E-01
       -2   -1    0    0    0  501  0.00000000000E+00  0.00000000000E+00  0.16571508478E+04  0.16571508478E+04  0.25500000920E-02 0. -1.
        2   -1    0    0  501    0  0.00000000000E+00  0.00000000000E+00 -0.38670086396E+03  0.38670086397E+03  0.25500000920E-02 0.  1.
    10030    2    1    2    0    0  0.00000000000E+00  0.00000000000E+00  0.12704499838E+04  0.20438517118E+04  0.16010267513E+04 0.  0.
        3    1    3    3  502    0 -0.84826489635E+02  0.63345236695E+03  0.12505937194E+04  0.14044365759E+04  0.10100000352E+00 0. -1.
       -3    1    3    3    0  502  0.84826489635E+02 -0.63345236695E+03  0.19856264447E+02  0.63941513587E+03  0.10100000352E+00 0.  1.
</event>
<event>
 5   0  0.9673017E-05  0.1601330E+04  0.7818609E-02  0.8819732E-01
       -1   -1    0    0    0  501  0.00000000000E+00  0.00000000000E+00  0.76907570132E+03  0.76907570133E+03  0.50400001928E-02 0.  1.
        1   -1    0    0  501    0  0.00000000000E+00  0.00000000000E+00 -0.83355156349E+03  0.83355156351E+03  0.50400001928E-02 0. -1.
    10030    2    1    2    0    0  0.00000000000E+00  0.00000000000E+00 -0.64475862178E+02  0.16026272648E+04  0.16013297640E+04 0.  0.
        1    1    3    3  502    0  0.75420252612E+03  0.17547536192E+03 -0.23599857578E+03  0.80951119871E+03  0.50400001928E-02 0. -1.
       -1    1    3    3    0  502 -0.75420252612E+03 -0.17547536192E+03  0.17152271360E+03  0.79311606613E+03  0.50400001928E-02 0.  1.
</event>
<event>
 5   0  0.1858913E-04  0.1595170E+04  0.7818609E-02  0.8823521E-01
        2   -1    0    0  501    0  0.00000000000E+00  0.00000000000E+00  0.95426198831E+03  0.95426198831E+03  0.25500000920E-02 0.  1.
       -2   -1    0    0    0  501  0.00000000000E+00  0.00000000000E+00 -0.66663210826E+03  0.66663210826E+03  0.25500000920E-02 0. -1.
    10030    2    1    2    0    0  0.00000000000E+00  0.00000000000E+00  0.28762988005E+03  0.16208940966E+04  0.15951698105E+04 0.  0.
        4    1    3    3  502    0 -0.79595241466E+03 -0.33174353140E+02  0.18315995237E+03  0.81742887468E+03  0.12699999809E+01 0.  1.
       -4    1    3    3    0  502  0.79595241466E+03  0.33174353140E+02  0.10446992768E+03  0.80346522189E+03  0.12699999809E+01 0. -1.
</event>
<event>
 5   0  0.9616567E-05  0.1616546E+04  0.7818609E-02  0.8810447E-01
        1   -1    0    0  501    0  0.00000000000E+00  0.00000000000E+00  0.18221630738E+04  0.18221630738E+04  0.50400001928E-02 0. -1.
       -1   -1    0    0    0  501  0.00000000000E+00  0.00000000000E+00 -0.35853273565E+03  0.35853273568E+03  0.50400001928E-02 0.  1.
    10030    2    1    2    0    0  0.00000000000E+00  0.00000000000E+00  0.14636303382E+04  0.21806958095E+04  0.16165458381E+04 0.  0.
        5    1    3    3  502    0 -0.72030394750E+03 -0.74752627077E+02  0.12160561731E+04  0.14153587666E+04  0.46999998093E+01 0. -1.
       -5    1    3    3    0  502  0.72030394750E+03  0.74752627077E+02  0.24757416506E+03  0.76533704291E+03  0.46999998093E+01 0.  1.
</event>
<event>
 5   0  0.1835088E-04  0.1600289E+04  0.7818609E-02  0.8820371E-01
        2   -1    0    0  501    0  0.00000000000E+00  0.00000000000E+00  0.99492453141E+03  0.99492453142E+03  0.25500000920E-02 0. -1.
       -2   -1    0    0    0  501  0.00000000000E+00  0.00000000000E+00 -0.64349702107E+03  0.64349702108E+03  0.25500000920E-02 0.  1.
    10030    2    1    2    0    0  0.00000000000E+00  0.00000000000E+00  0.35142751034E+03  0.16384215525E+04  0.16002886892E+04 0.  0.
        5    1    3    3  502    0 -0.22393743195E+03  0.52228672573E+03  0.75240976115E+03  0.94290717251E+03  0.46999998093E+01 0. -1.
       -5    1    3    3    0  502  0.22393743195E+03 -0.52228672573E+03 -0.40098225081E+03  0.69551437998E+03  0.46999998093E+01 0.  1.
</event>
<event>
 5   0  0.1858913E-04  0.1602879E+04  0.7818609E-02  0.8818781E-01
        2   -1    0    0  501    0  0.00000000000E+00  0.00000000000E+00  0.94559099456E+03  0.94559099456E+03  0.25500000920E-02 0. -1.
       -2   -1    0    0    0  501  0.00000000000E+00  0.00000000000E+00 -0.67926355493E+03  0.67926355493E+03  0.25500000920E-02 0.  1.
    10030    2    1    2    0    0  0.00000000000E+00  0.00000000000E+00  0.26632743963E+03  0.16248545495E+04  0.16028792849E+04 0.  0.
        4    1    3    3  502    0  0.21490644773E+03  0.38693237166E+03 -0.54412985758E+03  0.70141311388E+03  0.12699999809E+01 0.  1.
       -4    1    3    3    0  502 -0.21490644773E+03 -0.38693237166E+03  0.81045729721E+03  0.92344143562E+03  0.12699999809E+01 0. -1.
</event>
<event>
 5   0  0.1914170E-04  0.1606121E+04  0.7818609E-02  0.8816796E-01
       -2   -1    0    0    0  501  0.00000000000E+00  0.00000000000E+00  0.62110555188E+03  0.62110555189E+03  0.25500000920E-02 0.  1.
        2   -1    0    0  501    0  0.00000000000E+00  0.00000000000E+00 -0.10383200467E+04  0.10383200467E+04  0.25500000920E-02 0. -1.
    10030    2    1    2    0    0  0.00000000000E+00  0.00000000000E+00 -0.41721449478E+03  0.16594255985E+04  0.16061212228E+04 0.  0.
        3    1    3    3  502    0  0.71614613401E+03  0.22659929083E+02  0.16609636121E+03  0.73550443170E+03  0.10100000352E+00 0.  1.
       -3    1    3    3    0  502 -0.71614613401E+03 -0.22659929083E+02 -0.58331085599E+03  0.92392116685E+03  0.10100000352E+00 0. -1.
</event>
<event>
 5   0  0.1914170E-04  0.1591597E+04  0.7818609E-02  0.8825727E-01
       -2   -1    0    0    0  501  0.00000000000E+00  0.00000000000E+00  0.79113990555E+03  0.79113990555E+03  0.25500000920E-02 0.  1.
        2   -1    0    0  501    0  0.00000000000E+00  0.00000000000E+00 -0.80048467357E+03  0.80048467357E+03  0.25500000920E-02 0. -1.
    10030    2    1    2    0    0  0.00000000000E+00  0.00000000000E+00 -0.93447680244E+01  0.15916245791E+04  0.15915971463E+04 0.  0.
        3    1    3    3  502    0 -0.63458467309E+03 -0.38512386177E+03 -0.29151746224E+03  0.79749641831E+03  0.10100000352E+00 0.  1.
       -3    1    3    3    0  502  0.63458467309E+03  0.38512386177E+03  0.28217269421E+03  0.79412816081E+03  0.10100000352E+00 0. -1.
</event>
<event>
 5   0  0.1858913E-04  0.1603839E+04  0.7818609E-02  0.8818193E-01
       -2   -1    0    0    0  501  0.00000000000E+00  0.00000000000E+00  0.61297288158E+03  0.61297288158E+03  0.25500000920E-02 0. -1.
        2   -1    0    0  501    0  0.00000000000E+00  0.00000000000E+00 -0.10491084763E+04  0.10491084763E+04  0.25500000920E-02 0.  1.
    10030    2    1    2    0    0  0.00000000000E+00  0.00000000000E+00 -0.43613559468E+03  0.16620813578E+04  0.16038392011E+04 0.  0.
        4    1    3    3  502    0  0.56530376133E+03 -0.94846186281E+02 -0.79924449656E+03  0.98354334922E+03  0.12699999809E+01 0.  1.
       -4    1    3    3    0  502 -0.56530376133E+03  0.94846186281E+02  0.36310890187E+03  0.67853800862E+03  0.12699999809E+01 0. -1.
</event>
<event>
 5   0  0.1914170E-04  0.1596453E+04  0.7818609E-02  0.8822730E-01
       -2   -1    0    0    0  501  0.00000000000E+00  0.00000000000E+00  0.84047470796E+03  0.84047470796E+03  0.25500000920E-02 0. -1.
        2   -1    0    0  501    0  0.00000000000E+00  0.00000000000E+00 -0.75810163107E+03  0.75810163107E+03  0.25500000920E-02 0.  1.
    10030    2    1    2    0    0  0.00000000000E+00  0.00000000000E+00  0.82373076890E+02  0.15985763390E+04  0.15964526263E+04 0.  0.
        3    1    3    3  502    0 -0.45088963759E+03  0.65865976955E+03  0.46768850553E+02  0.79957582061E+03  0.10100000352E+00 0.  1.
       -3    1    3    3    0  502  0.45088963759E+03 -0.65865976955E+03  0.35604226338E+02  0.79900051843E+03  0.10100000352E+00 0. -1.
</event>
<event>
 5   0  0.9616567E-05  0.1598490E+04  0.7818609E-02  0.8821476E-01
       -1   -1    0    0    0  501  0.00000000000E+00  0.00000000000E+00  0.77114416205E+03  0.77114416206E+03  0.50400001928E-02 0.  1.
        1   -1    0    0  501    0  0.00000000000E+00  0.00000000000E+00 -0.82837006511E+03  0.82837006512E+03  0.50400001928E-02 0. -1.
    10030    2    1    2    0    0  0.00000000000E+00  0.00000000000E+00 -0.57225903061E+02  0.15995142272E+04  0.15984902124E+04 0.  0.
        5    1    3    3  502    0  0.13184313564E+03  0.68732600898E+03 -0.41482781606E+03  0.81357474273E+03  0.46999998093E+01 0. -1.
       -5    1    3    3    0  502 -0.13184313564E+03 -0.68732600898E+03  0.35760191300E+03  0.78593948445E+03  0.46999998093E+01 0.  1.
</event>
<event>
 5   0  0.1774934E-04  0.1603320E+04  0.7818609E-02  0.8818511E-01
       -2   -1    0    0    0  501  0.00000000000E+00  0.00000000000E+00  0.60651729191E+03  0.60651729192E+03  0.25500000920E-02 0. -1.
        2   -1    0    0  501    0  0.00000000000E+00  0.00000000000E+00 -0.10595889331E+04  0.10595889331E+04  0.25500000920E-02 0.  1.
    10030    2    1    2    0    0  0.00000000000E+00  0.00000000000E+00 -0.45307164117E+03  0.16661062250E+04  0.16033203176E+04 0.  0.
        1    1    3    3  502    0 -0.12533201815E+02  0.32412774738E+03 -0.98834929489E+03  0.10402164229E+04  0.50400001928E-02 0.  1.
       -1    1    3    3    0  502  0.12533201815E+02 -0.32412774738E+03  0.53527765372E+03  0.62588980209E+03  0.50400001928E-02 0. -1.
</event>
<event>
 5   0  0.9673017E-05  0.1594813E+04  0.7818609E-02  0.8823741E-01
        1   -1    0    0  501    0  0.00000000000E+00  0.00000000000E+00  0.53739080414E+03  0.53739080417E+03  0.50400001928E-02 0.  1.
       -1   -1    0    0    0  501  0.00000000000E+00  0.00000000000E+00 -0.11832306707E+04  0.11832306707E+04  0.50400001928E-02 0. -1.
    10030    2    1    2    0    0  0.00000000000E+00  0.00000000000E+00 -0.64583986657E+03  0.17206214749E+04  0.15948131949E+04 0.  0.
        1    1    3    3  502    0  0.39330576450E+02 -0.53259679636E+03  0.31595093364E+03  0.62050885105E+03  0.50400001928E-02 0.  1.
       -1    1    3    3    0  502 -0.39330576450E+02  0.53259679636E+03 -0.96179080021E+03  0.11001126238E+04  0.50400001928E-02 0. -1.
</event>
<event>
 5   0  0.1858913E-04  0.1593861E+04  0.7818609E-02  0.8824328E-01
        2   -1    0    0  501    0  0.00000000000E+00  0.00000000000E+00  0.16541340923E+04  0.16541340923E+04  0.25500000920E-02 0. -1.
       -2   -1    0    0    0  501  0.00000000000E+00  0.00000000000E+00 -0.38394595198E+03  0.38394595199E+03  0.25500000920E-02 0.  1.
    10030    2    1    2    0    0  0.00000000000E+00  0.00000000000E+00  0.12701881404E+04  0.20380800443E+04  0.15938608331E+04 0.  0.
        4    1    3    3  502    0 -0.53842895452E+03 -0.38917800112E+03  0.72272614533E+02  0.66827404509E+03  0.12699999809E+01 0.  1.
       -4    1    3    3    0  502  0.53842895452E+03  0.38917800112E+03  0.11979155258E+04  0.13698059992E+04  0.12699999809E+01 0. -1.
</event>
<event>
 5   0  0.1858913E-04  0.1594317E+04  0.7818609E-02  0.8824047E-01
       -2   -1    0    0    0  501  0.00000000000E+00  0.00000000000E+00  0.89739818632E+03  0.89739818632E+03  0.25500000920E-02 0.  1.
        2   -1    0    0  501    0  0.00000000000E+00  0.00000000000E+00 -0.70811537208E+03  0.70811537209E+03  0.25500000920E-02 0. -1.
    10030    2    1    2    0    0  0.00000000000E+00  0.00000000000E+00  0.18928281424E+03  0.16055135584E+04  0.15943167196E+04 0.  0.
        4    1    3    3  502    0  0.10035822704E+02 -0.22104270566E+03 -0.67656939611E+03  0.71183450051E+03  0.12699999809E+01 0. -1.
       -4    1    3    3    0  502 -0.10035822704E+02  0.22104270566E+03  0.86585221035E+03  0.89367905790E+03  0.12699999809E+01 0.  1.
</event>
<event>
 5   0  0.6838750E-05  0.1573195E+04  0.7818609E-02  0.8837186E-01
        3   -1    0    0  501    0  0.00000000000E+00  0.00000000000E+00  0.11662413183E+04  0.11662413226E+04  0.10100000352E+00 0.  1.
       -3   -1    0    0    0  501  0.00000000000E+00  0.00000000000E+00 -0.53053852998E+03  0.53053853959E+03  0.10100000352E+00 0. -1.
    10030    2    1    2    0    0  0.00000000000E+00  0.00000000000E+00  0.63570278828E+03  0.16967798622E+04  0.15731954315E+04 0.  0.
        4    1    3    3  502    0 -0.32311485289E+03  0.63480090545E+03  0.67777091309E+03  0.98323467252E+03  0.12699999809E+01 0.  1.
       -4    1    3    3    0  502  0.32311485289E+03 -0.63480090545E+03 -0.42068124814E+02  0.71354518970E+03  0.12699999809E+01 0. -1.
</event>
<event>
 5   0  0.1858913E-04  0.1602022E+04  0.7818609E-02  0.8819307E-01
        2   -1    0    0  501    0  0.00000000000E+00  0.00000000000E+00  0.20311741014E+04  0.20311741014E+04  0.25500000920E-02 0. -1.
       -2   -1    0    0    0  501  0.00000000000E+00  0.00000000000E+00 -0.31588567476E+03  0.31588567477E+03  0.25500000920E-02 0.  1.
    10030    2    1    2    0    0  0.00000000000E+00  0.00000000000E+00  0.17152884267E+04  0.23470597762E+04  0.16020222241E+04 0.  0.
        4    1    3    3  502    0  0.29273292911E+03  0.67831328962E+03  0.40414769512E+03  0.84210359162E+03  0.12699999809E+01 0.  1.
       -4    1    3    3    0  502 -0.29273292911E+03 -0.67831328962E+03  0.13111407316E+04  0.15049561846E+04  0.12699999809E+01 0. -1.
</event>
<event>
 5   0  0.1774934E-04  0.1621020E+04  0.7818609E-02  0.8807738E-01
        2   -1    0    0  501    0  0.00000000000E+00  0.00000000000E+00  0.23826644780E+04  0.23826644780E+04  0.25500000920E-02 0. -1.
       -2   -1    0    0    0  501  0.00000000000E+00  0.00000000000E+00 -0.27571088083E+03  0.27571088084E+03  0.25500000920E-02 0.  1.
    10030    2    1    2    0    0  0.00000000000E+00  0.00000000000E+00  0.21069535972E+04  0.26583753589E+04  0.16210200764E+04 0.  0.
        1    1    3    3  502    0 -0.23351127287E+03  0.66293145610E+03  0.39154034542E+03  0.80455545002E+03  0.50400001928E-02 0.  1.
       -1    1    3    3    0  502  0.23351127287E+03 -0.66293145610E+03  0.17154132518E+04  0.18538199089E+04  0.50400001928E-02 0. -1.
</event>
<event>
 5   0  0.9432152E-05  0.1602532E+04  0.7818609E-02  0.8818994E-01
        1   -1    0    0  501    0  0.00000000000E+00  0.00000000000E+00  0.12187795346E+04  0.12187795346E+04  0.50400001928E-02 0. -1.
       -1   -1    0    0    0  501  0.00000000000E+00  0.00000000000E+00 -0.52677873595E+03  0.52677873597E+03  0.50400001928E-02 0.  1.
    10030    2    1    2    0    0  0.00000000000E+00  0.00000000000E+00  0.69200079865E+03  0.17455582706E+04  0.16025319250E+04 0.  0.
        4    1    3    3  502    0  0.95627424643E+02  0.23655506577E+03  0.11733450189E+04  0.12007676918E+04  0.12699999809E+01 0. -1.
       -4    1    3    3    0  502 -0.95627424643E+02 -0.23655506577E+03 -0.48134422022E+03  0.54479057878E+03  0.12699999809E+01 0.  1.
</event>
<event>
 5   0  0.6838750E-05  0.1591296E+04  0.7818609E-02  0.8825913E-01
       -3   -1    0    0    0  501  0.00000000000E+00  0.00000000000E+00  0.42381837211E+03  0.42381838415E+03  0.10100000352E+00 0. -1.
        3   -1    0    0  501    0  0.00000000000E+00  0.00000000000E+00 -0.14936959157E+04  0.14936959191E+04  0.10100000352E+00 0.  1.
    10030    2    1    2    0    0  0.00000000000E+00  0.00000000000E+00 -0.10698775436E+04  0.19175143033E+04  0.15912960582E+04 0.  0.
        1    1    3    3  502    0  0.30960876026E+03 -0.50707006719E+03  0.10277711862E+03  0.60294342488E+03  0.50400001928E-02 0. -1.
       -1    1    3    3    0  502 -0.30960876026E+03  0.50707006719E+03 -0.11726546622E+04  0.13145708784E+04  0.50400001928E-02 0.  1.
</event>
<event>
 5   0  0.9616567E-05  0.1606388E+04  0.7818609E-02  0.8816633E-01
        1   -1    0    0  501    0  0.00000000000E+00  0.00000000000E+00  0.70527725893E+03  0.70527725895E+03  0.50400001928E-02 0. -1.
       -1   -1    0    0    0  501  0.00000000000E+00  0.00000000000E+00 -0.91470551446E+03  0.91470551447E+03  0.50400001928E-02 0.  1.
    10030    2    1    2    0    0  0.00000000000E+00  0.00000000000E+00 -0.20942825553E+03  0.16199827734E+04  0.16063884935E+04 0.  0.
        5    1    3    3  502    0 -0.13142129579E+03 -0.57343291050E+03 -0.65615238552E+03  0.88128026351E+03  0.46999998093E+01 0.  1.
       -5    1    3    3    0  502  0.13142129579E+03  0.57343291050E+03  0.44672412999E+03  0.73870250991E+03  0.46999998093E+01 0. -1.
</event>
<event>
 5   0  0.1858913E-04  0.1619845E+04  0.7818609E-02  0.8808448E-01
       -2   -1    0    0    0  501  0.00000000000E+00  0.00000000000E+00  0.56279439606E+03  0.56279439607E+03  0.25500000920E-02 0.  1.
        2   -1    0    0  501    0  0.00000000000E+00  0.00000000000E+00 -0.11655667809E+04  0.11655667810E+04  0.25500000920E-02 0. -1.
    10030    2    1    2    0    0  0.00000000000E+00  0.00000000000E+00 -0.60277238488E+03  0.17283611770E+04  0.16198449957E+04 0.  0.
        4    1    3    3  502    0  0.72066831618E+03 -0.22088858160E+03  0.14807672181E+02  0.75390680292E+03  0.12699999809E+01 0.  1.
       -4    1    3    3    0  502 -0.72066831618E+03  0.22088858160E+03 -0.61758005707E+03  0.97445437410E+03  0.12699999809E+01 0. -1.
</event>
<event>
 5   0  0.1774934E-04  0.1598127E+04  0.7818609E-02  0.8821699E-01
        2   -1    0    0  501    0  0.00000000000E+00  0.00000000000E+00  0.12348162847E+04  0.12348162847E+04  0.25500000920E-02 0.  1.
       -2   -1    0    0    0  501  0.00000000000E+00  0.00000000000E+00 -0.51708323007E+03  0.51708323008E+03  0.25500000920E-02 0. -1.
    10030    2    1    2    0    0  0.00000000000E+00  0.00000000000E+00  0.71773305459E+03  0.17518995147E+04  0.15981273954E+04 0.  0.
        1    1    3    3  502    0 -0.49222585776E+03  0.38031209309E+03  0.90870505796E+03  0.11012122709E+04  0.50400001928E-02 0.  1.
       -1    1    3    3    0  502  0.49222585776E+03 -0.38031209309E+03 -0.19097200337E+03  0.65068724384E+03  0.50400001928E-02 0. -1.
</event>
<event>
 5   0  0.1832646E-04  0.1600706E+04  0.7818609E-02  0.8820114E-01
        2   -1    0    0  501    0  0.00000000000E+00  0.00000000000E+00  0.70973411878E+03  0.70973411878E+03  0.25500000920E-02 0. -1.
       -2   -1    0    0    0  501  0.00000000000E+00  0.00000000000E+00 -0.90254254781E+03  0.90254254781E+03  0.25500000920E-02 0.  1.
    10030    2    1    2    0    0  0.00000000000E+00  0.00000000000E+00 -0.19280842903E+03  0.16122766666E+04  0.16007063939E+04 0.  0.
        2    1    3    3  502    0  0.23540461303E+03 -0.62304072274E+03 -0.54342540863E+03  0.85959656163E+03  0.25500000920E-02 0.  1.
       -2    1    3    3    0  502 -0.23540461303E+03  0.62304072274E+03  0.35061697960E+03  0.75268010497E+03  0.25500000920E-02 0. -1.
</event>
<event>
 5   0  0.1835088E-04  0.1610865E+04  0.7818609E-02  0.8813901E-01
       -2   -1    0    0    0  501  0.00000000000E+00  0.00000000000E+00  0.27431888889E+03  0.27431888890E+03  0.25500000920E-02 0.  1.
        2   -1    0    0  501    0  0.00000000000E+00  0.00000000000E+00 -0.23648450339E+04  0.23648450339E+04  0.25500000920E-02 0. -1.
    10030    2    1    2    0    0  0.00000000000E+00  0.00000000000E+00 -0.20905261451E+04  0.26391639229E+04  0.16108651863E+04 0.  0.
        5    1    3    3  502    0  0.57138382535E+03  0.44397215299E+03 -0.46576614147E+03  0.86055269278E+03  0.46999998093E+01 0.  1.
       -5    1    3    3    0  502 -0.57138382535E+03 -0.44397215299E+03 -0.16247600036E+04  0.17786112301E+04  0.46999998093E+01 0. -1.
</event>
<event>
 5   0  0.1832646E-04  0.1602100E+04  0.7818609E-02  0.8819259E-01
        2   -1    0    0  501    0  0.00000000000E+00  0.00000000000E+00  0.13791841515E+04  0.13791841515E+04  0.25500000920E-02 0. -1.
       -2   -1    0    0    0  501  0.00000000000E+00  0.00000000000E+00 -0.46526157211E+03  0.46526157212E+03  0.25500000920E-02 0.  1.
    10030    2    1    2    0    0  0.00000000000E+00  0.00000000000E+00  0.91392257941E+03  0.18444457236E+04  0.16021003546E+04 0.  0.
        2    1    3    3  502    0  0.78765461580E+03  0.52608530163E+02  0.30031304439E+03  0.84460367976E+03  0.25500000920E-02 0.  1.
       -2    1    3    3    0  502 -0.78765461580E+03 -0.52608530163E+02  0.61360953502E+03  0.99984204388E+03  0.25500000920E-02 0. -1.
</event>
<event>
 5   0  0.9939872E-05  0.1599996E+04  0.7818609E-02  0.8820550E-01
        1   -1    0    0  501    0  0.00000000000E+00  0.00000000000E+00  0.11941499029E+04  0.11941499029E+04  0.50400001928E-02 0. -1.
       -1   -1    0    0    0  501  0.00000000000E+00  0.00000000000E+00 -0.53594363220E+03  0.53594363223E+03  0.50400001928E-02 0.  1.
    10030    2    1    2    0    0  0.00000000000E+00  0.00000000000E+00  0.65820627067E+03  0.17300935351E+04  0.15999962955E+04 0.  0.
        3    1    3    3  502    0 -0.75742166531E+03 -0.17287404690E+03  0.53547214992E+03  0.94355892700E+03  0.10100000352E+00 0.  1.
       -3    1    3    3    0  502  0.75742166531E+03  0.17287404690E+03  0.12273412075E+03  0.78653460812E+03  0.10100000352E+00 0. -1.
</event>
<event>
 5   0  0.1774934E-04  0.1595813E+04  0.7818609E-02  0.8823124E-01
       -2   -1    0    0    0  501  0.00000000000E+00  0.00000000000E+00  0.63406059471E+03  0.63406059471E+03  0.25500000920E-02 0.  1.
        2   -1    0    0  501    0  0.00000000000E+00  0.00000000000E+00 -0.10040912303E+04  0.10040912303E+04  0.25500000920E-02 0. -1.
    10030    2    1    2    0    0  0.00000000000E+00  0.00000000000E+00 -0.37003063559E+03  0.16381518250E+04  0.15958128745E+04 0.  0.
        1    1    3    3  502    0 -0.61299782055E+03 -0.47714863300E+03  0.20769747928E+01  0.77681494567E+03  0.50400001928E-02 0.  1.
       -1    1    3    3    0  502  0.61299782055E+03  0.47714863300E+03 -0.37210761039E+03  0.86133687934E+03  0.50400001928E-02 0. -1.
</event>
<event>
 5   0  0.9726935E-05  0.1597909E+04  0.7818609E-02  0.8821834E-01
        1   -1    0    0  501    0  0.00000000000E+00  0.00000000000E+00  0.14390419543E+04  0.14390419543E+04  0.50400001928E-02 0. -1.
       -1   -1    0    0    0  501  0.00000000000E+00  0.00000000000E+00 -0.44357864350E+03  0.44357864353E+03  0.50400001928E-02 0.  1.
    10030    2    1    2    0    0  0.00000000000E+00  0.00000000000E+00  0.99546331080E+03  0.18826205978E+04  0.15979089812E+04 0.  0.
        2    1    3    3  502    0  0.37735182584E+03  0.15097037820E+02 -0.33178065821E+03  0.50269347140E+03  0.25500000920E-02 0.  1.
       -2    1    3    3    0  502 -0.37735182584E+03 -0.15097037820E+02  0.13272439690E+04  0.13799271264E+04  0.25500000920E-02 0. -1.
</event>
<event>
 5   0  0.9432152E-05  0.1630440E+04  0.7818609E-02  0.8802063E-01
       -1   -1    0    0    0  501  0.00000000000E+00  0.00000000000E+00  0.70388862894E+03  0.70388862896E+03  0.50400001928E-02 0. -1.
        1   -1    0    0  501    0  0.00000000000E+00  0.00000000000E+00 -0.94416044086E+03  0.94416044087E+03  0.50400001928E-02 0.  1.
    10030    2    1    2    0    0  0.00000000000E+00  0.00000000000E+00 -0.24027181191E+03  0.16480490698E+04  0.16304401838E+04 0.  0.
        4    1    3    3  502    0  0.31201342347E+03 -0.25906477051E+03 -0.83496186967E+03  0.92824019976E+03  0.12699999809E+01 0.  1.
       -4    1    3    3    0  502 -0.31201342347E+03  0.25906477051E+03  0.59469005775E+03  0.71980887007E+03  0.12699999809E+01 0. -1.
</event>
<event>
 5   0  0.1914170E-04  0.1611904E+04  0.7818609E-02  0.8813268E-01
       -2   -1    0    0    0  501  0.00000000000E+00  0.00000000000E+00  0.61069653551E+03  0.61069653551E+03  0.25500000920E-02 0.  1.
        2   -1    0    0  501    0  0.00000000000E+00  0.00000000000E+00 -0.10636363124E+04  0.10636363124E+04  0.25500000920E-02 0. -1.
    10030    2    1    2    0    0  0.00000000000E+00  0.00000000000E+00 -0.45293977686E+03  0.16743328479E+04  0.16119044773E+04 0.  0.
        3    1    3    3  502    0 -0.25133471334E+03  0.31383959526E+03  0.49907700804E+03  0.64089180041E+03  0.10100000352E+00 0.  1.
       -3    1    3    3    0  502  0.25133471334E+03 -0.31383959526E+03 -0.95201678490E+03  0.10334410475E+04  0.10100000352E+00 0. -1.
</event>
<event>
 5   0  0.1835088E-04  0.1595702E+04  0.7818609E-02  0.8823193E-01
        2   -1    0    0  501    0  0.00000000000E+00  0.00000000000E+00  0.16057077698E+04  0.16057077699E+04  0.25500000920E-02 0. -1.
       -2   -1    0    0    0  501  0.00000000000E+00  0.00000000000E+00 -0.39643979050E+03  0.39643979051E+03  0.25500000920E-02 0.  1.
    10030    2    1    2    0    0  0.00000000000E+00  0.00000000000E+00  0.12092679793E+04  0.20021475604E+04  0.15957022929E+04 0.  0.
        5    1    3    3  502    0  0.58290851699E+03 -0.53307457997E+03  0.46382911395E+03  0.91602968508E+03  0.46999998093E+01 0.  1.
       -5    1    3    3    0  502 -0.58290851699E+03  0.53307457997E+03  0.74543886539E+03  0.10861178753E+04  0.46999998093E+01 0. -1.
</event>
<event>
 5   0  0.6838750E-05  0.1572026E+04  0.7818609E-02  0.8837920E-01
        3   -1    0    0  501    0  0.00000000000E+00  0.00000000000E+00  0.11667977672E+04  0.11667977716E+04  0.10100000352E+00 0.  1.
       -3   -1    0    0    0  501  0.00000000000E+00  0.00000000000E+00 -0.52949712095E+03  0.52949713059E+03  0.10100000352E+00 0. -1.
    10030    2    1    2    0    0  0.00000000000E+00  0.00000000000E+00  0.63730064625E+03  0.16962949022E+04  0.15720255346E+04 0.  0.
        1    1    3    3  502    0 -0.16672305981E+01  0.26923447169E+02  0.11662981613E+04  0.11666100689E+04  0.50400001928E-02 0.  1.
       -1    1    3    3    0  502  0.16672305981E+01 -0.26923447169E+02 -0.52899751506E+03  0.52968483330E+03  0.50400001928E-02 0. -1.
</event>
<event>
 5   0  0.1835088E-04  0.1598721E+04  0.7818609E-02  0.8821334E-01
       -2   -1    0    0    0  501  0.00000000000E+00  0.00000000000E+00  0.41870695619E+03  0.41870695620E+03  0.25500000920E-02 0.  1.
        2   -1    0    0  501    0  0.00000000000E+00  0.00000000000E+00 -0.15260721236E+04  0.15260721236E+04  0.25500000920E-02 0. -1.
    10030    2    1    2    0    0  0.00000000000E+00  0.00000000000E+00 -0.11073651674E+04  0.19447790798E+04  0.15987207559E+04 0.  0.
        5    1    3    3  502    0  0.11830987563E+03  0.41027273119E+03  0.26833626373E+03  0.50432864390E+03  0.46999998093E+01 0.  1.
       -5    1    3    3    0  502 -0.11830987563E+03 -0.41027273119E+03 -0.13757014312E+04  0.14404504359E+04  0.46999998093E+01 0. -1.
</event>
<event>
 5   0  0.1774934E-04  0.1612103E+04  0.7818609E-02  0.8813147E-01
        2   -1    0    0  501    0  0.00000000000E+00  0.00000000000E+00  0.10451860354E+04  0.10451860354E+04  0.25500000920E-02 0.  1.
       -2   -1    0    0    0  501  0.00000000000E+00  0.00000000000E+00 -0.62163037527E+03  0.62163037527E+03  0.25500000920E-02 0. -1.
    10030    2    1    2    0    0  0.00000000000E+00  0.00000000000E+00  0.42355566013E+03  0.16668164107E+04  0.16121034550E+04 0.  0.
        1    1    3    3  502    0  0.32403587884E+03  0.63475518282E+03 -0.17757394042E+03  0.73446980689E+03  0.50400001928E-02 0. -1.
       -1    1    3    3    0  502 -0.32403587884E+03 -0.63475518282E+03  0.60112960056E+03  0.93234660378E+03  0.50400001928E-02 0.  1.
</event>
<event>
 5   0  0.9432152E-05  0.1598018E+04  0.7818609E-02  0.8821767E-01
        1   -1    0    0  501    0  0.00000000000E+00  0.00000000000E+00  0.12988361139E+04  0.12988361139E+04  0.50400001928E-02 0.  1.
       -1   -1    0    0    0  501  0.00000000000E+00  0.00000000000E+00 -0.49152856757E+03  0.49152856759E+03  0.50400001928E-02 0. -1.
    10030    2    1    2    0    0  0.00000000000E+00  0.00000000000E+00  0.80730754630E+03  0.17903646815E+04  0.15980175901E+04 0.  0.
        4    1    3    3  502    0  0.51618357300E+03  0.26189541590E+03  0.10207494821E+04  0.11734418640E+04  0.12699999809E+01 0.  1.
       -4    1    3    3    0  502 -0.51618357300E+03 -0.26189541590E+03 -0.21344193583E+03  0.61692281752E+03  0.12699999809E+01 0. -1.
</event>
<event>
 5   0  0.9616567E-05  0.1600248E+04  0.7818609E-02  0.8820396E-01
       -1   -1    0    0    0  501  0.00000000000E+00  0.00000000000E+00  0.38116545982E+03  0.38116545985E+03  0.50400001928E-02 0. -1.
        1   -1    0    0  501    0  0.00000000000E+00  0.00000000000E+00 -0.16795812031E+04  0.16795812031E+04  0.50400001928E-02 0.  1.
    10030    2    1    2    0    0  0.00000000000E+00  0.00000000000E+00 -0.12984157432E+04  0.20607466629E+04  0.16002479078E+04 0.  0.
        5    1    3    3  502    0  0.48826734466E+02  0.47579318318E+03 -0.14752008739E+04  0.15508071806E+04  0.46999998093E+01 0.  1.
       -5    1    3    3    0  502 -0.48826734466E+02 -0.47579318318E+03  0.17678513067E+03  0.50993948228E+03  0.46999998093E+01 0. -1.
</event>
<event>
 5   0  0.1835088E-04  0.1600615E+04  0.7818609E-02  0.8820171E-01
        2   -1    0    0  501    0  0.00000000000E+00  0.00000000000E+00  0.17093160109E+04  0.17093160109E+04  0.25500000920E-02 0. -1.
       -2   -1    0    0    0  501  0.00000000000E+00  0.00000000000E+00 -0.37470646298E+03  0.37470646299E+03  0.25500000920E-02 0.  1.
    10030    2    1    2    0    0  0.00000000000E+00  0.00000000000E+00  0.13346095479E+04  0.20840224738E+04  0.16006145777E+04 0.  0.
        5    1    3    3  502    0 -0.85339867366E+02 -0.20922816076E+03  0.16669007729E+04  0.16821532608E+04  0.46999998093E+01 0. -1.
       -5    1    3    3    0  502  0.85339867366E+02  0.20922816076E+03 -0.33229122498E+03  0.40186921307E+03  0.46999998093E+01 0.  1.
</event>
<event>
 5   0  0.1832646E-04  0.1597161E+04  0.7818609E-02  0.8822294E-01
       -2   -1    0    0    0  501  0.00000000000E+00  0.00000000000E+00  0.21685382468E+03  0.21685382470E+03  0.25500000920E-02 0. -1.
        2   -1    0    0  501    0  0.00000000000E+00  0.00000000000E+00 -0.29408312406E+04  0.29408312406E+04  0.25500000920E-02 0.  1.
    10030    2    1    2    0    0  0.00000000000E+00  0.00000000000E+00 -0.27239774159E+04  0.31576850653E+04  0.15971606084E+04 0.  0.
        2    1    3    3  502    0  0.65833148521E+03 -0.44731557605E+03 -0.12332679720E+04  0.14678015737E+04  0.25500000920E-02 0. -1.
       -2    1    3    3    0  502 -0.65833148521E+03  0.44731557605E+03 -0.14907094439E+04  0.16898834916E+04  0.25500000920E-02 0.  1.
</event>
<event>
 5   0  0.1914170E-04  0.1599084E+04  0.7818609E-02  0.8821111E-01
       -2   -1    0    0    0  501  0.00000000000E+00  0.00000000000E+00  0.34758296907E+03  0.34758296908E+03  0.25500000920E-02 0.  1.
        2   -1    0    0  501    0  0.00000000000E+00  0.00000000000E+00 -0.18391799048E+04  0.18391799048E+04  0.25500000920E-02 0. -1.
    10030    2    1    2    0    0  0.00000000000E+00  0.00000000000E+00 -0.14915969357E+04  0.21867628739E+04  0.15990842529E+04 0.  0.
        3    1    3    3  502    0  0.51099089677E+03 -0.41814074002E+03 -0.12918326252E+03  0.67278651931E+03  0.10100000352E+00 0.  1.
       -3    1    3    3    0  502 -0.51099089677E+03  0.41814074002E+03 -0.13624136732E+04  0.15139763546E+04  0.10100000352E+00 0. -1.
</event>
<event>
 5   0  0.9673017E-05  0.1597886E+04  0.7818609E-02  0.8821848E-01
        1   -1    0    0  501    0  0.00000000000E+00  0.00000000000E+00  0.71904556906E+03  0.71904556908E+03  0.50400001928E-02 0.  1.
       -1   -1    0    0    0  501  0.00000000000E+00  0.00000000000E+00 -0.88771811215E+03  0.88771811216E+03  0.50400001928E-02 0. -1.
    10030    2    1    2    0    0  0.00000000000E+00  0.00000000000E+00 -0.16867254309E+03  0.16067636812E+04  0.15978858221E+04 0.  0.
        1    1    3    3  502    0  0.40591244920E+03 -0.36947926632E+03  0.49943201570E+03  0.74209984705E+03  0.50400001928E-02 0.  1.
       -1    1    3    3    0  502 -0.40591244920E+03  0.36947926632E+03 -0.66810455879E+03  0.86466383419E+03  0.50400001928E-02 0. -1.
</event>
<event>
 5   0  0.1914170E-04  0.1601875E+04  0.7818609E-02  0.8819397E-01
        2   -1    0    0  501    0  0.00000000000E+00  0.00000000000E+00  0.14874092541E+04  0.14874092541E+04  0.25500000920E-02 0.  1.
       -2   -1    0    0    0  501  0.00000000000E+00  0.00000000000E+00 -0.43128755248E+03  0.43128755249E+03  0.25500000920E-02 0. -1.
    10030    2    1    2    0    0  0.00000000000E+00  0.00000000000E+00  0.10561217016E+04  0.19186968066E+04  0.16018752720E+04 0.  0.
        3    1    3    3  502    0 -0.76184634517E+03 -0.22383313173E+03  0.65362791821E+03  0.10284651624E+04  0.10100000352E+00 0.  1.
       -3    1    3    3    0  502  0.76184634517E+03  0.22383313173E+03  0.40249378342E+03  0.89023164424E+03  0.10100000352E+00 0. -1.
</event>
<event>
 5   0  0.1835088E-04  0.1598907E+04  0.7818609E-02  0.8821219E-01
        2   -1    0    0  501    0  0.00000000000E+00  0.00000000000E+00  0.23497769824E+04  0.23497769824E+04  0.25500000920E-02 0. -1.
       -2   -1    0    0    0  501  0.00000000000E+00  0.00000000000E+00 -0.27199443386E+03  0.27199443387E+03  0.25500000920E-02 0.  1.
    10030    2    1    2    0    0  0.00000000000E+00  0.00000000000E+00  0.20777825485E+04  0.26217714163E+04  0.15989074520E+04 0.  0.
        5    1    3    3  502    0  0.63462892269E+03 -0.25038522216E+03  0.35558041717E+03  0.76935437353E+03  0.46999998093E+01 0.  1.
       -5    1    3    3    0  502 -0.63462892269E+03  0.25038522216E+03  0.17222021314E+04  0.18524170428E+04  0.46999998093E+01 0. -1.
</event>
<event>
 5   0  0.9673017E-05  0.1609392E+04  0.7818609E-02  0.8814799E-01
       -1   -1    0    0    0  501  0.00000000000E+00  0.00000000000E+00  0.47394532956E+03  0.47394532958E+03  0.50400001928E-02 0. -1.
        1   -1    0    0  501    0  0.00000000000E+00  0.00000000000E+00 -0.13662664210E+04  0.13662664210E+04  0.50400001928E-02 0.  1.
    10030    2    1    2    0    0  0.00000000000E+00  0.00000000000E+00 -0.89232109141E+03  0.18402117506E+04  0.16093919214E+04 0.  0.
        1    1    3    3  502    0 -0.63026923926E+02 -0.27762005001E+03 -0.13067622919E+04  0.13374127907E+04  0.50400001928E-02 0.  1.
       -1    1    3    3    0  502  0.63026923926E+02  0.27762005001E+03  0.41444120048E+03  0.50279895981E+03  0.50400001928E-02 0. -1.
</event>
<event>
 5   0  0.9726935E-05  0.1603478E+04  0.7818609E-02  0.8818414E-01
        1   -1    0    0  501    0  0.00000000000E+00  0.00000000000E+00  0.11588143191E+04  0.11588143191E+04  0.50400001928E-02 0.  1.
       -1   -1    0    0    0  501  0.00000000000E+00  0.00000000000E+00 -0.55469258473E+03  0.55469258475E+03  0.50400001928E-02 0. -1.
    10030    2    1    2    0    0  0.00000000000E+00  0.00000000000E+00  0.60412173438E+03  0.17135069039E+04  0.16034783565E+04 0.  0.
        2    1    3    3  502    0 -0.21610756002E+03  0.43848828928E+03 -0.37700509889E+03  0.61733888742E+03  0.25500000920E-02 0. -1.
       -2    1    3    3    0  502  0.21610756002E+03 -0.43848828928E+03  0.98112683327E+03  0.10961680165E+04  0.25500000920E-02 0.  1.
</event>
<event>
 5   0  0.1858913E-04  0.1599903E+04  0.7818609E-02  0.8820608E-01
        2   -1    0    0  501    0  0.00000000000E+00  0.00000000000E+00  0.11780241950E+04  0.11780241950E+04  0.25500000920E-02 0.  1.
       -2   -1    0    0    0  501  0.00000000000E+00  0.00000000000E+00 -0.54321636842E+03  0.54321636842E+03  0.25500000920E-02 0. -1.
    10030    2    1    2    0    0  0.00000000000E+00  0.00000000000E+00  0.63480782663E+03  0.17212405635E+04  0.15999025285E+04 0.  0.
        4    1    3    3  502    0 -0.36332024881E+03  0.70132376078E+03  0.45375923064E+03  0.91090925614E+03  0.12699999809E+01 0.  1.
       -4    1    3    3    0  502  0.36332024881E+03 -0.70132376078E+03  0.18104859599E+03  0.81033130733E+03  0.12699999809E+01 0. -1.
</event>
<event>
 5   0  0.1858913E-04  0.1604630E+04  0.7818609E-02  0.8817708E-01
       -2   -1    0    0    0  501  0.00000000000E+00  0.00000000000E+00  0.10037422138E+04  0.10037422138E+04  0.25500000920E-02 0.  1.
        2   -1    0    0  501    0  0.00000000000E+00  0.00000000000E+00 -0.64130978246E+03  0.64130978246E+03  0.25500000920E-02 0. -1.
    10030    2    1    2    0    0  0.00000000000E+00  0.00000000000E+00  0.36243243131E+03  0.16450519962E+04  0.16046304257E+04 0.  0.
        4    1    3    3  502    0 -0.16366185695E+03  0.42107981101E+03  0.86095288415E+03  0.97228333951E+03  0.12699999809E+01 0.  1.
       -4    1    3    3    0  502  0.16366185695E+03 -0.42107981101E+03 -0.49852045284E+03  0.67276865672E+03  0.12699999809E+01 0. -1.
</event>
<event>
 5   0  0.1832646E-04  0.1600297E+04  0.7818609E-02  0.8820365E-01
        2   -1    0    0  501    0  0.00000000000E+00  0.00000000000E+00  0.10939206837E+04  0.10939206837E+04  0.25500000920E-02 0.  1.
       -2   -1    0    0    0  501  0.00000000000E+00  0.00000000000E+00 -0.58526896702E+03  0.58526896703E+03  0.25500000920E-02 0. -1.
    10030    2    1    2    0    0  0.00000000000E+00  0.00000000000E+00  0.50865171663E+03  0.16791896507E+04  0.16002972581E+04 0.  0.
        2    1    3    3  502    0  0.77571983179E+03 -0.15197651408E+03  0.38453916354E+03  0.87903838742E+03  0.25500000920E-02 0.  1.
       -2    1    3    3    0  502 -0.77571983179E+03  0.15197651408E+03  0.12411255309E+03  0.80015126327E+03  0.25500000920E-02 0. -1.
</event>
<event>
 5   0  0.1774934E-04  0.1596901E+04  0.7818609E-02  0.8822454E-01
        2   -1    0    0  501    0  0.00000000000E+00  0.00000000000E+00  0.11799328395E+04  0.11799328395E+04  0.25500000920E-02 0.  1.
       -2   -1    0    0    0  501  0.00000000000E+00  0.00000000000E+00 -0.54030438100E+03  0.54030438100E+03  0.25500000920E-02 0. -1.
    10030    2    1    2    0    0  0.00000000000E+00  0.00000000000E+00  0.63962845850E+03  0.17202372205E+04  0.15969006011E+04 0.  0.
        1    1    3    3  502    0 -0.17468448408E+03  0.23515175466E+03  0.11199554014E+04  0.11576316848E+04  0.50400001928E-02 0.  1.
       -1    1    3    3    0  502  0.17468448408E+03 -0.23515175466E+03 -0.48032694286E+03  0.56260553566E+03  0.50400001928E-02 0. -1.
</event>
<event>
 5   0  0.1858913E-04  0.1601724E+04  0.7818609E-02  0.8819489E-01
       -2   -1    0    0    0  501  0.00000000000E+00  0.00000000000E+00  0.64943143286E+03  0.64943143286E+03  0.25500000920E-02 0. -1.
        2   -1    0    0  501    0  0.00000000000E+00  0.00000000000E+00 -0.98760284066E+03  0.98760284066E+03  0.25500000920E-02 0.  1.
    10030    2    1    2    0    0  0.00000000000E+00  0.00000000000E+00 -0.33817140781E+03  0.16370342735E+04  0.16017244806E+04 0.  0.
        4    1    3    3  502    0  0.15552808718E+03  0.43844154137E+03  0.49717368716E+03  0.68088417459E+03  0.12699999809E+01 0. -1.
       -4    1    3    3    0  502 -0.15552808718E+03 -0.43844154137E+03 -0.83534509497E+03  0.95615009893E+03  0.12699999809E+01 0.  1.
</event>
<event>
 5   0  0.1914170E-04  0.1598012E+04  0.7818609E-02  0.8821770E-01
       -2   -1    0    0    0  501  0.00000000000E+00  0.00000000000E+00  0.43850966112E+03  0.43850966113E+03  0.25500000920E-02 0.  1.
        2   -1    0    0  501    0  0.00000000000E+00  0.00000000000E+00 -0.14558644333E+04  0.14558644333E+04  0.25500000920E-02 0. -1.
    10030    2    1    2    0    0  0.00000000000E+00  0.00000000000E+00 -0.10173547722E+04  0.18943740944E+04  0.15980120391E+04 0.  0.
        3    1    3    3  502    0 -0.53875431519E+03  0.57023885665E+03 -0.32896416895E+03  0.85067385079E+03  0.10100000352E+00 0.  1.
       -3    1    3    3    0  502  0.53875431519E+03 -0.57023885665E+03 -0.68839060323E+03  0.10437002436E+04  0.10100000352E+00 0. -1.
</event>
<event>
 5   0  0.9673017E-05  0.1601759E+04  0.7818609E-02  0.8819468E-01
        1   -1    0    0  501    0  0.00000000000E+00  0.00000000000E+00  0.50692424802E+03  0.50692424804E+03  0.50400001928E-02 0.  1.
       -1   -1    0    0    0  501  0.00000000000E+00  0.00000000000E+00 -0.12652928451E+04  0.12652928451E+04  0.50400001928E-02 0. -1.
    10030    2    1    2    0    0  0.00000000000E+00  0.00000000000E+00 -0.75836859710E+03  0.17722170932E+04  0.16017585637E+04 0.  0.
        1    1    3    3  502    0 -0.22015114293E+02  0.23468671109E+03 -0.12260436152E+04  0.12484972824E+04  0.50400001928E-02 0. -1.
       -1    1    3    3    0  502  0.22015114293E+02 -0.23468671109E+03  0.46767501813E+03  0.52371981080E+03  0.50400001928E-02 0.  1.
</event>
<event>
 5   0  0.9939872E-05  0.1606126E+04  0.7818609E-02  0.8816793E-01
       -1   -1    0    0    0  501  0.00000000000E+00  0.00000000000E+00  0.84711111773E+03  0.84711111775E+03  0.50400001928E-02 0. -1.
        1   -1    0    0  501    0  0.00000000000E+00  0.00000000000E+00 -0.76130539825E+03  0.76130539826E+03  0.50400001928E-02 0.  1.
    10030    2    1    2    0    0  0.00000000000E+00  0.00000000000E+00  0.85805719485E+02  0.16084165160E+04  0.16061261057E+04 0.  0.
        3    1    3    3  502    0  0.71080255036E+03  0.17252411855E+02 -0.33095557823E+03  0.78426367777E+03  0.10100000352E+00 0.  1.
       -3    1    3    3    0  502 -0.71080255036E+03 -0.17252411855E+02  0.41676129771E+03  0.82415283824E+03  0.10100000352E+00 0. -1.
</event>
<event>
 5   0  0.9432152E-05  0.1602791E+04  0.7818609E-02  0.8818835E-01
       -1   -1    0    0    0  501  0.00000000000E+00  0.00000000000E+00  0.57662168201E+03  0.57662168203E+03  0.50400001928E-02 0.  1.
        1   -1    0    0  501    0  0.00000000000E+00  0.00000000000E+00 -0.11137888851E+04  0.11137888851E+04  0.50400001928E-02 0. -1.
    10030    2    1    2    0    0  0.00000000000E+00  0.00000000000E+00 -0.53716720309E+03  0.16904105672E+04  0.16027910910E+04 0.  0.
        4    1    3    3  502    0  0.33923687072E+03  0.70474516410E+03 -0.84436823352E+02  0.78668836956E+03  0.12699999809E+01 0.  1.
       -4    1    3    3    0  502 -0.33923687072E+03 -0.70474516410E+03 -0.45273037974E+03  0.90372219759E+03  0.12699999809E+01 0. -1.
</event>
<event>
 5   0  0.9673017E-05  0.1620778E+04  0.7818609E-02  0.8807884E-01
        1   -1    0    0  501    0  0.00000000000E+00  0.00000000000E+00  0.36340605441E+03  0.36340605445E+03  0.50400001928E-02 0.  1.
       -1   -1    0    0    0  501  0.00000000000E+00  0.00000000000E+00 -0.18071538661E+04  0.18071538661E+04  0.50400001928E-02 0. -1.
    10030    2    1    2    0    0  0.00000000000E+00  0.00000000000E+00 -0.14437478117E+04  0.21705599205E+04  0.16207784009E+04 0.  0.
        1    1    3    3  502    0 -0.50524262395E+03 -0.31501578727E+03 -0.14581043360E+04  0.15749835903E+04  0.50400001928E-02 0. -1.
       -1    1    3    3    0  502  0.50524262395E+03  0.31501578727E+03  0.14356524275E+02  0.59557633021E+03  0.50400001928E-02 0.  1.
</event>
<event>
 5   0  0.1774934E-04  0.1592402E+04  0.7818609E-02  0.8825229E-01
        2   -1    0    0  501    0  0.00000000000E+00  0.00000000000E+00  0.79424331347E+03  0.79424331347E+03  0.25500000920E-02 0. -1.
       -2   -1    0    0    0  501  0.00000000000E+00  0.00000000000E+00 -0.79816393656E+03  0.79816393656E+03  0.25500000920E-02 0.  1.
    10030    2    1    2    0    0  0.00000000000E+00  0.00000000000E+00 -0.39206230906E+01  0.15924072500E+04  0.15924024236E+04 0.  0.
        1    1    3    3  502    0 -0.39859426447E+03 -0.45597694649E+03 -0.51882163301E+03  0.79747617538E+03  0.50400001928E-02 0.  1.
       -1    1    3    3    0  502  0.39859426447E+03  0.45597694649E+03  0.51490100992E+03  0.79493107465E+03  0.50400001928E-02 0. -1.
</event>
<event>
 5   0  0.1858913E-04  0.1582886E+04  0.7818609E-02  0.8831131E-01
       -2   -1    0    0    0  501  0.00000000000E+00  0.00000000000E+00  0.10653518355E+04  0.10653518355E+04  0.25500000920E-02 0. -1.
        2   -1    0    0  501    0  0.00000000000E+00  0.00000000000E+00 -0.58795772329E+03  0.58795772330E+03  0.25500000920E-02 0.  1.
    10030    2    1    2    0    0  0.00000000000E+00  0.00000000000E+00  0.47739411217E+03  0.16533095588E+04  0.15828857693E+04 0.  0.
        4    1    3    3  502    0  0.68692066714E+03 -0.38747826042E+03  0.30782957535E+03  0.84661683517E+03  0.12699999809E+01 0. -1.
       -4    1    3    3    0  502 -0.68692066714E+03  0.38747826042E+03  0.16956453681E+03  0.80669272358E+03  0.12699999809E+01 0.  1.
</event>
<event>
 5   0  0.1832646E-04  0.1615389E+04  0.7818609E-02  0.8811150E-01
       -2   -1    0    0    0  501  0.00000000000E+00  0.00000000000E+00  0.34885263478E+03  0.34885263479E+03  0.25500000920E-02 0. -1.
        2   -1    0    0  501    0  0.00000000000E+00  0.00000000000E+00 -0.18700450167E+04  0.18700450167E+04  0.25500000920E-02 0.  1.
    10030    2    1    2    0    0  0.00000000000E+00  0.00000000000E+00 -0.15211923819E+04  0.22188976515E+04  0.16153886607E+04 0.  0.
        2    1    3    3  502    0  0.39516449532E+03  0.30183996810E+03  0.11367372809E+03  0.51008240625E+03  0.25500000920E-02 0. -1.
       -2    1    3    3    0  502 -0.39516449532E+03 -0.30183996810E+03 -0.16348661100E+04  0.17088152452E+04  0.25500000920E-02 0.  1.
</event>
<event>
 5   0  0.9616567E-05  0.1601303E+04  0.7818609E-02  0.8819748E-01
       -1   -1    0    0    0  501  0.00000000000E+00  0.00000000000E+00  0.64275351064E+03  0.64275351066E+03  0.50400001928E-02 0.  1.
        1   -1    0    0  501    0  0.00000000000E+00  0.00000000000E+00 -0.99733877524E+03  0.99733877525E+03  0.50400001928E-02 0. -1.
    10030    2    1    2    0    0  0.00000000000E+00  0.00000000000E+00 -0.35458526460E+03  0.16400922859E+04  0.16013032181E+04 0.  0.
        5    1    3    3  502    0 -0.13992775908E+03 -0.77144686774E+03 -0.11157208147E+02  0.78412793650E+03  0.46999998093E+01 0.  1.
       -5    1    3    3    0  502  0.13992775908E+03  0.77144686774E+03 -0.34342805645E+03  0.85596434941E+03  0.46999998093E+01 0. -1.
</event>
<event>
 5   0  0.9939872E-05  0.1602103E+04  0.7818609E-02  0.8819257E-01
       -1   -1    0    0    0  501  0.00000000000E+00  0.00000000000E+00  0.10453577905E+04  0.10453577905E+04  0.50400001928E-02 0. -1.
        1   -1    0    0  501    0  0.00000000000E+00  0.00000000000E+00 -0.61384116895E+03  0.61384116897E+03  0.50400001928E-02 0.  1.
    10030    2    1    2    0    0  0.00000000000E+00  0.00000000000E+00  0.43151662154E+03  0.16591989595E+04  0.16021031778E+04 0.  0.
        3    1    3    3  502    0 -0.16059504792E+03 -0.54874865652E+03  0.79679441688E+03  0.98071260337E+03  0.10100000352E+00 0. -1.
       -3    1    3    3    0  502  0.16059504792E+03  0.54874865652E+03 -0.36527779534E+03  0.67848635610E+03  0.10100000352E+00 0.  1.
</event>
<event>
 5   0  0.1774934E-04  0.1601640E+04  0.7818609E-02  0.8819541E-01
        2   -1    0    0  501    0  0.00000000000E+00  0.00000000000E+00  0.10825909711E+04  0.10825909711E+04  0.25500000920E-02 0.  1.
       -2   -1    0    0    0  501  0.00000000000E+00  0.00000000000E+00 -0.59238678704E+03  0.59238678705E+03  0.25500000920E-02 0. -1.
    10030    2    1    2    0    0  0.00000000000E+00  0.00000000000E+00  0.49020418404E+03  0.16749777581E+04  0.16016398934E+04 0.  0.
        1    1    3    3  502    0 -0.47397764529E+03  0.57730239773E+03 -0.56875267947E+02  0.74911124860E+03  0.50400001928E-02 0. -1.
       -1    1    3    3    0  502  0.47397764529E+03 -0.57730239773E+03  0.54707945198E+03  0.92586650953E+03  0.50400001928E-02 0.  1.
</event>
<event>
 5   0  0.9432152E-05  0.1598999E+04  0.7818609E-02  0.8821163E-01
       -1   -1    0    0    0  501  0.00000000000E+00  0.00000000000E+00  0.93514761451E+03  0.93514761452E+03  0.50400001928E-02 0. -1.
        1   -1    0    0  501    0  0.00000000000E+00  0.00000000000E+00 -0.68352813670E+03  0.68352813672E+03  0.50400001928E-02 0.  1.
    10030    2    1    2    0    0  0.00000000000E+00  0.00000000000E+00  0.25161947780E+03  0.16186757512E+04  0.15989993202E+04 0.  0.
        4    1    3    3  502    0  0.32848962289E+03 -0.31833103299E+03  0.78959041648E+03  0.91252107790E+03  0.12699999809E+01 0. -1.
       -4    1    3    3    0  502 -0.32848962289E+03  0.31833103299E+03 -0.53797093868E+03  0.70615467334E+03  0.12699999809E+01 0.  1.
</event>
<event>
 5   0  0.9939872E-05  0.1609546E+04  0.7818609E-02  0.8814705E-01
       -1   -1    0    0    0  501  0.00000000000E+00  0.00000000000E+00  0.98618660421E+03  0.98618660422E+03  0.50400001928E-02 0.  1.
        1   -1    0    0  501    0  0.00000000000E+00  0.00000000000E+00 -0.65673140012E+03  0.65673140014E+03  0.50400001928E-02 0. -1.
    10030    2    1    2    0    0  0.00000000000E+00  0.00000000000E+00  0.32945520409E+03  0.16429180044E+04  0.16095461589E+04 0.  0.
        3    1    3    3  502    0 -0.12310430749E+03 -0.63481590506E+03  0.65373659997E+03  0.91952023152E+03  0.10100000352E+00 0.  1.
       -3    1    3    3    0  502  0.12310430749E+03  0.63481590506E+03 -0.32428139588E+03  0.72339777284E+03  0.10100000352E+00 0. -1.
</event>
<event>
 5   0  0.9673017E-05  0.1595903E+04  0.7818609E-02  0.8823069E-01
       -1   -1    0    0    0  501  0.00000000000E+00  0.00000000000E+00  0.75033819662E+03  0.75033819664E+03  0.50400001928E-02 0. -1.
        1   -1    0    0  501    0  0.00000000000E+00  0.00000000000E+00 -0.84858567112E+03  0.84858567114E+03  0.50400001928E-02 0.  1.
    10030    2    1    2    0    0  0.00000000000E+00  0.00000000000E+00 -0.98247474500E+02  0.15989238678E+04  0.15959025561E+04 0.  0.
        1    1    3    3  502    0 -0.55642922336E+03 -0.40687928287E+03 -0.45183246303E+03  0.82420677388E+03  0.50400001928E-02 0.  1.
       -1    1    3    3    0  502  0.55642922336E+03  0.40687928287E+03  0.35358498853E+03  0.77471709390E+03  0.50400001928E-02 0. -1.
</event>
<event>
 5   0  0.9616567E-05  0.1692425E+04  0.7818609E-02  0.8765696E-01
       -1   -1    0    0    0  501  0.00000000000E+00  0.00000000000E+00  0.37683781701E+03  0.37683781705E+03  0.50400001928E-02 0.  1.
        1   -1    0    0  501    0  0.00000000000E+00  0.00000000000E+00 -0.19002229071E+04  0.19002229071E+04  0.50400001928E-02 0. -1.
    10030    2    1    2    0    0  0.00000000000E+00  0.00000000000E+00 -0.15233850900E+04  0.22770607241E+04  0.16924253037E+04 0.  0.
        5    1    3    3  502    0 -0.62543298087E+03 -0.33997597301E+03 -0.13772286630E+04  0.15503325308E+04  0.46999998093E+01 0. -1.
       -5    1    3    3    0  502  0.62543298087E+03  0.33997597301E+03 -0.14615642700E+03  0.72672819330E+03  0.46999998093E+01 0.  1.
</event>
<event>
 5   0  0.9939872E-05  0.1602624E+04  0.7818609E-02  0.8818938E-01
        1   -1    0    0  501    0  0.00000000000E+00  0.00000000000E+00  0.62225061588E+03  0.62225061590E+03  0.50400001928E-02 0.  1.
       -1   -1    0    0    0  501  0.00000000000E+00  0.00000000000E+00 -0.10319005757E+04  0.10319005757E+04  0.50400001928E-02 0. -1.
    10030    2    1    2    0    0  0.00000000000E+00  0.00000000000E+00 -0.40964995985E+03  0.16541511916E+04  0.16026238096E+04 0.  0.
        3    1    3    3  502    0 -0.75777089745E+03 -0.16196810114E+02 -0.47322751798E+03  0.89354538981E+03  0.10100000352E+00 0. -1.
       -3    1    3    3    0  502  0.75777089745E+03  0.16196810114E+02  0.63577558138E+02  0.76060580183E+03  0.10100000352E+00 0.  1.
</event>
<event>
 5   0  0.1858913E-04  0.1599709E+04  0.7818609E-02  0.8820727E-01
       -2   -1    0    0    0  501  0.00000000000E+00  0.00000000000E+00  0.83474431453E+03  0.83474431453E+03  0.25500000920E-02 0.  1.
        2   -1    0    0  501    0  0.00000000000E+00  0.00000000000E+00 -0.76642316895E+03  0.76642316896E+03  0.25500000920E-02 0. -1.
    10030    2    1    2    0    0  0.00000000000E+00  0.00000000000E+00  0.68321145575E+02  0.16011674835E+04  0.15997092021E+04 0.  0.
        4    1    3    3  502    0 -0.20212587093E+03 -0.11558542229E+03 -0.73174997388E+03  0.76790265966E+03  0.12699999809E+01 0. -1.
       -4    1    3    3    0  502  0.20212587093E+03  0.11558542229E+03  0.80007111945E+03  0.83326482383E+03  0.12699999809E+01 0.  1.
</event>
<event>
 5   0  0.1774934E-04  0.1579429E+04  0.7818609E-02  0.8833286E-01
        2   -1    0    0  501    0  0.00000000000E+00  0.00000000000E+00  0.18061252417E+04  0.18061252417E+04  0.25500000920E-02 0. -1.
       -2   -1    0    0    0  501  0.00000000000E+00  0.00000000000E+00 -0.34529677730E+03  0.34529677731E+03  0.25500000920E-02 0.  1.
    10030    2    1    2    0    0  0.00000000000E+00  0.00000000000E+00  0.14608284644E+04  0.21514220191E+04  0.15794292962E+04 0.  0.
        1    1    3    3  502    0  0.75116079970E+03 -0.40181126598E+02  0.40295301939E+03  0.85336288049E+03  0.50400001928E-02 0.  1.
       -1    1    3    3    0  502 -0.75116079970E+03  0.40181126598E+02  0.10578754450E+04  0.12980591386E+04  0.50400001928E-02 0. -1.
</event>
<event>
 5   0  0.9432152E-05  0.1586820E+04  0.7818609E-02  0.8828686E-01
       -1   -1    0    0    0  501  0.00000000000E+00  0.00000000000E+00  0.92627166638E+03  0.92627166639E+03  0.50400001928E-02 0.  1.
        1   -1    0    0  501    0  0.00000000000E+00  0.00000000000E+00 -0.67960573708E+03  0.67960573710E+03  0.50400001928E-02 0. -1.
    10030    2    1    2    0    0  0.00000000000E+00  0.00000000000E+00  0.24666592930E+03  0.16058774035E+04  0.15868201393E+04 0.  0.
        4    1    3    3  502    0  0.39838399212E+03 -0.30075709930E+03  0.74745117174E+03  0.89880448652E+03  0.12699999809E+01 0.  1.
       -4    1    3    3    0  502 -0.39838399212E+03  0.30075709930E+03 -0.50078524245E+03  0.70707291697E+03  0.12699999809E+01 0. -1.
</event>
<event>
 5   0  0.1835088E-04  0.1604342E+04  0.7818609E-02  0.8817885E-01
        2   -1    0    0  501    0  0.00000000000E+00  0.00000000000E+00  0.13703332314E+04  0.13703332314E+04  0.25500000920E-02 0.  1.
       -2   -1    0    0    0  501  0.00000000000E+00  0.00000000000E+00 -0.46957787749E+03  0.46957787749E+03  0.25500000920E-02 0. -1.
    10030    2    1    2    0    0  0.00000000000E+00  0.00000000000E+00  0.90075535387E+03  0.18399111089E+04  0.16043418217E+04 0.  0.
        5    1    3    3  502    0  0.68500798405E+03  0.18712043676E+03  0.22490722925E+02  0.71047724712E+03  0.46999998093E+01 0. -1.
       -5    1    3    3    0  502 -0.68500798405E+03 -0.18712043676E+03  0.87826463095E+03  0.11294338617E+04  0.46999998093E+01 0.  1.
</event>
<event>
 5   0  0.9432152E-05  0.1602019E+04  0.7818609E-02  0.8819309E-01
       -1   -1    0    0    0  501  0.00000000000E+00  0.00000000000E+00  0.45245675902E+03  0.45245675904E+03  0.50400001928E-02 0.  1.
        1   -1    0    0  501    0  0.00000000000E+00  0.00000000000E+00 -0.14180718682E+04  0.14180718682E+04  0.50400001928E-02 0. -1.
    10030    2    1    2    0    0  0.00000000000E+00  0.00000000000E+00 -0.96561510921E+03  0.18705286273E+04  0.16020189781E+04 0.  0.
        4    1    3    3  502    0 -0.66109836263E+03  0.14622056307E+03  0.16927015374E+02  0.67728844290E+03  0.12699999809E+01 0.  1.
       -4    1    3    3    0  502  0.66109836263E+03 -0.14622056307E+03 -0.98254212458E+03  0.11932401844E+04  0.12699999809E+01 0. -1.
</event>
<event>
 5   0  0.9673017E-05  0.1601892E+04  0.7818609E-02  0.8819387E-01
       -1   -1    0    0    0  501  0.00000000000E+00  0.00000000000E+00  0.55504626609E+03  0.55504626612E+03  0.50400001928E-02 0. -1.
        1   -1    0    0  501    0  0.00000000000E+00  0.00000000000E+00 -0.11557856280E+04  0.11557856280E+04  0.50400001928E-02 0.  1.
    10030    2    1    2    0    0  0.00000000000E+00  0.00000000000E+00 -0.60073936188E+03  0.17108318941E+04  0.16018920029E+04 0.  0.
        1    1    3    3  502    0 -0.66348396868E+03  0.40713502558E+03 -0.50172396221E+03  0.92611923640E+03  0.50400001928E-02 0.  1.
       -1    1    3    3    0  502  0.66348396868E+03 -0.40713502558E+03 -0.99015399665E+02  0.78471265770E+03  0.50400001928E-02 0. -1.
</event>
<event>
 5   0  0.9673017E-05  0.1603903E+04  0.7818609E-02  0.8818154E-01
       -1   -1    0    0    0  501  0.00000000000E+00  0.00000000000E+00  0.48989422643E+03  0.48989422646E+03  0.50400001928E-02 0. -1.
        1   -1    0    0  501    0  0.00000000000E+00  0.00000000000E+00 -0.13127857719E+04  0.13127857720E+04  0.50400001928E-02 0.  1.
    10030    2    1    2    0    0  0.00000000000E+00  0.00000000000E+00 -0.82289154551E+03  0.18026799984E+04  0.16039029525E+04 0.  0.
        1    1    3    3  502    0 -0.13670783671E+03  0.76715311873E+03 -0.62443997737E+03  0.99856808759E+03  0.50400001928E-02 0.  1.
       -1    1    3    3    0  502  0.13670783671E+03 -0.76715311873E+03 -0.19845156814E+03  0.80411191082E+03  0.50400001928E-02 0. -1.
</event>
<event>
 5   0  0.9939872E-05  0.1610690E+04  0.7818609E-02  0.8814008E-01
       -1   -1    0    0    0  501  0.00000000000E+00  0.00000000000E+00  0.11211343390E+04  0.11211343391E+04  0.50400001928E-02 0.  1.
        1   -1    0    0  501    0  0.00000000000E+00  0.00000000000E+00 -0.57850366682E+03  0.57850366684E+03  0.50400001928E-02 0. -1.
    10030    2    1    2    0    0  0.00000000000E+00  0.00000000000E+00  0.54263067222E+03  0.16996380059E+04  0.16106896984E+04 0.  0.
        3    1    3    3  502    0 -0.53010188863E+03  0.25365471401E+03  0.85238977855E+03  0.10353342799E+04  0.10100000352E+00 0.  1.
       -3    1    3    3    0  502  0.53010188863E+03 -0.25365471401E+03 -0.30975910633E+03  0.66430372604E+03  0.10100000352E+00 0. -1.
</event>
<event>
 5   0  0.1835088E-04  0.1600075E+04  0.7818609E-02  0.8820502E-01
       -2   -1    0    0    0  501  0.00000000000E+00  0.00000000000E+00  0.35768131558E+03  0.35768131559E+03  0.25500000920E-02 0. -1.
        2   -1    0    0  501    0  0.00000000000E+00  0.00000000000E+00 -0.17894705195E+04  0.17894705195E+04  0.25500000920E-02 0.  1.
    10030    2    1    2    0    0  0.00000000000E+00  0.00000000000E+00 -0.14317892039E+04  0.21471518351E+04  0.16000752103E+04 0.  0.
        5    1    3    3  502    0 -0.18656831393E+03 -0.42655081278E+03  0.15715449954E+03  0.49139898084E+03  0.46999998093E+01 0. -1.
       -5    1    3    3    0  502  0.18656831393E+03  0.42655081278E+03 -0.15889437034E+04  0.16557528542E+04  0.46999998093E+01 0.  1.
</event>
<event>
 5   0  0.1774934E-04  0.1605977E+04  0.7818609E-02  0.8816885E-01
        2   -1    0    0  501    0  0.00000000000E+00  0.00000000000E+00  0.21519994501E+04  0.21519994501E+04  0.25500000920E-02 0. -1.
       -2   -1    0    0    0  501  0.00000000000E+00  0.00000000000E+00 -0.29962391852E+03  0.29962391853E+03  0.25500000920E-02 0.  1.
    10030    2    1    2    0    0  0.00000000000E+00  0.00000000000E+00  0.18523755316E+04  0.24516233687E+04  0.16059769711E+04 0.  0.
        1    1    3    3  502    0  0.57607570208E+03 -0.55562887213E+03  0.10251656202E+04  0.13005964812E+04  0.50400001928E-02 0. -1.
       -1    1    3    3    0  502 -0.57607570208E+03  0.55562887213E+03  0.82720991142E+03  0.11510268875E+04  0.50400001928E-02 0.  1.
</event>
<event>
 5   0  0.9432152E-05  0.1615271E+04  0.7818609E-02  0.8811221E-01
        1   -1    0    0  501    0  0.00000000000E+00  0.00000000000E+00  0.11960370933E+04  0.11960370933E+04  0.50400001928E-02 0. -1.
       -1   -1    0    0    0  501  0.00000000000E+00  0.00000000000E+00 -0.54536389101E+03  0.54536389103E+03  0.50400001928E-02 0.  1.
    10030    2    1    2    0    0  0.00000000000E+00  0.00000000000E+00  0.65067320228E+03  0.17414009843E+04  0.16152714237E+04 0.  0.
        4    1    3    3  502    0 -0.27740395632E+03 -0.74241565628E+03  0.15783432024E+03  0.80811338760E+03  0.12699999809E+01 0. -1.
       -4    1    3    3    0  502  0.27740395632E+03  0.74241565628E+03  0.49283888204E+03  0.93328759674E+03  0.12699999809E+01 0.  1.
</event>
<event>
 5   0  0.9939872E-05  0.1602399E+04  0.7818609E-02  0.8819075E-01
       -1   -1    0    0    0  501  0.00000000000E+00  0.00000000000E+00  0.96343593054E+03  0.96343593055E+03  0.50400001928E-02 0.  1.
        1   -1    0    0  501    0  0.00000000000E+00  0.00000000000E+00 -0.66628292227E+03  0.66628292229E+03  0.50400001928E-02 0. -1.
    10030    2    1    2    0    0  0.00000000000E+00  0.00000000000E+00  0.29715300826E+03  0.16297188528E+04  0.16023993351E+04 0.  0.
        3    1    3    3  502    0  0.24069808426E+03  0.75397708212E+03  0.27521398345E+03  0.83794973299E+03  0.10100000352E+00 0.  1.
       -3    1    3    3    0  502 -0.24069808426E+03 -0.75397708212E+03  0.21939024813E+02  0.79176911985E+03  0.10100000352E+00 0. -1.
</event>
<event>
 5   0  0.1835088E-04  0.1610634E+04  0.7818609E-02  0.8814042E-01
        2   -1    0    0  501    0  0.00000000000E+00  0.00000000000E+00  0.23072922490E+04  0.23072922490E+04  0.25500000920E-02 0. -1.
       -2   -1    0    0    0  501  0.00000000000E+00  0.00000000000E+00 -0.28108065939E+03  0.28108065940E+03  0.25500000920E-02 0.  1.
    10030    2    1    2    0    0  0.00000000000E+00  0.00000000000E+00  0.20262115896E+04  0.25883729084E+04  0.16106336974E+04 0.  0.
        5    1    3    3  502    0  0.34117446517E+03 -0.17776671502E+03  0.21500453128E+04  0.21841973257E+04  0.46999998093E+01 0. -1.
       -5    1    3    3    0  502 -0.34117446517E+03  0.17776671502E+03 -0.12383372316E+03  0.40417558269E+03  0.46999998093E+01 0.  1.
</event>
<event>
 5   0  0.9939872E-05  0.1609794E+04  0.7818609E-02  0.8814554E-01
       -1   -1    0    0    0  501  0.00000000000E+00  0.00000000000E+00  0.64490138285E+03  0.64490138287E+03  0.50400001928E-02 0. -1.
        1   -1    0    0  501    0  0.00000000000E+00  0.00000000000E+00 -0.10045866612E+04  0.10045866612E+04  0.50400001928E-02 0.  1.
    10030    2    1    2    0    0  0.00000000000E+00  0.00000000000E+00 -0.35968527833E+03  0.16494880441E+04  0.16097941819E+04 0.  0.
        3    1    3    3  502    0  0.55659492774E+03  0.53969227588E+03 -0.40149495974E+03  0.87307724694E+03  0.10100000352E+00 0.  1.
       -3    1    3    3    0  502 -0.55659492774E+03 -0.53969227588E+03  0.41809681414E+02  0.77641079712E+03  0.10100000352E+00 0. -1.
</event>
<event>
 5   0  0.9673017E-05  0.1599411E+04  0.7818609E-02  0.8820910E-01
        1   -1    0    0  501    0  0.00000000000E+00  0.00000000000E+00  0.37555742277E+03  0.37555742280E+03  0.50400001928E-02 0.  1.
       -1   -1    0    0    0  501  0.00000000000E+00  0.00000000000E+00 -0.17028789684E+04  0.17028789684E+04  0.50400001928E-02 0. -1.
    10030    2    1    2    0    0  0.00000000000E+00  0.00000000000E+00 -0.13273215456E+04  0.20784363912E+04  0.15994109374E+04 0.  0.
        1    1    3    3  502    0 -0.60176470645E+03 -0.35821864823E+03 -0.11654221812E+04  0.13596507722E+04  0.50400001928E-02 0. -1.
       -1    1    3    3    0  502  0.60176470645E+03  0.35821864823E+03 -0.16189936442E+03  0.71878561901E+03  0.50400001928E-02 0.  1.
</event>
<event>
 5   0  0.1858913E-04  0.1626905E+04  0.7818609E-02  0.8804188E-01
        2   -1    0    0  501    0  0.00000000000E+00  0.00000000000E+00  0.67789212426E+03  0.67789212427E+03  0.25500000920E-02 0.  1.
       -2   -1    0    0    0  501  0.00000000000E+00  0.00000000000E+00 -0.97612149752E+03  0.97612149753E+03  0.25500000920E-02 0. -1.
    10030    2    1    2    0    0  0.00000000000E+00  0.00000000000E+00 -0.29822937326E+03  0.16540136218E+04  0.16269051300E+04 0.  0.
        4    1    3    3  502    0 -0.79506785812E+03 -0.31104765046E+02  0.22827751405E+02  0.79600447521E+03  0.12699999809E+01 0.  1.
       -4    1    3    3    0  502  0.79506785812E+03  0.31104765046E+02 -0.32105712466E+03  0.85800914658E+03  0.12699999809E+01 0. -1.
</event>
<event>
 5   0  0.1832646E-04  0.1597971E+04  0.7818609E-02  0.8821795E-01
       -2   -1    0    0    0  501  0.00000000000E+00  0.00000000000E+00  0.13806948275E+04  0.13806948275E+04  0.25500000920E-02 0. -1.
        2   -1    0    0  501    0  0.00000000000E+00  0.00000000000E+00 -0.46236000225E+03  0.46236000225E+03  0.25500000920E-02 0.  1.
    10030    2    1    2    0    0  0.00000000000E+00  0.00000000000E+00  0.91833482527E+03  0.18430548298E+04  0.15979712933E+04 0.  0.
        2    1    3    3  502    0  0.36686166372E+03 -0.59333322041E+03  0.98758131127E+01  0.69765989023E+03  0.25500000920E-02 0.  1.
       -2    1    3    3    0  502 -0.36686166372E+03  0.59333322041E+03  0.90845901216E+03  0.11453949395E+04  0.25500000920E-02 0. -1.
</event>
<event>
 5   0  0.9726935E-05  0.1603702E+04  0.7818609E-02  0.8818277E-01
        1   -1    0    0  501    0  0.00000000000E+00  0.00000000000E+00  0.13830227060E+04  0.13830227060E+04  0.50400001928E-02 0.  1.
       -1   -1    0    0    0  501  0.00000000000E+00  0.00000000000E+00 -0.46489863792E+03  0.46489863795E+03  0.50400001928E-02 0. -1.
    10030    2    1    2    0    0  0.00000000000E+00  0.00000000000E+00  0.91812406811E+03  0.18479213440E+04  0.16037024316E+04 0.  0.
        2    1    3    3  502    0 -0.47147621175E+03 -0.34496509971E+03 -0.17382921576E+03  0.60951401503E+03  0.25500000920E-02 0. -1.
       -2    1    3    3    0  502  0.47147621175E+03  0.34496509971E+03  0.10919532839E+04  0.12384073290E+04  0.25500000920E-02 0.  1.
</event>
<event>
 5   0  0.1832646E-04  0.1606755E+04  0.7818609E-02  0.8816409E-01
       -2   -1    0    0    0  501  0.00000000000E+00  0.00000000000E+00  0.48963231564E+03  0.48963231564E+03  0.25500000920E-02 0. -1.
        2   -1    0    0  501    0  0.00000000000E+00  0.00000000000E+00 -0.13181640717E+04  0.13181640717E+04  0.25500000920E-02 0.  1.
    10030    2    1    2    0    0  0.00000000000E+00  0.00000000000E+00 -0.82853175607E+03  0.18077963874E+04  0.16067553975E+04 0.  0.
        2    1    3    3  502    0 -0.64081545884E+03  0.45170435055E+03 -0.61151382856E+03  0.99429896667E+03  0.25500000920E-02 0. -1.
       -2    1    3    3    0  502  0.64081545884E+03 -0.45170435055E+03 -0.21701792751E+03  0.81349742068E+03  0.25500000920E-02 0.  1.
</event>
<event>
 5   0  0.9726935E-05  0.1598904E+04  0.7818609E-02  0.8821222E-01
       -1   -1    0    0    0  501  0.00000000000E+00  0.00000000000E+00  0.24300750720E+03  0.24300750725E+03  0.50400001928E-02 0. -1.
        1   -1    0    0  501    0  0.00000000000E+00  0.00000000000E+00 -0.26300563039E+04  0.26300563039E+04  0.50400001928E-02 0.  1.
    10030    2    1    2    0    0  0.00000000000E+00  0.00000000000E+00 -0.23870487967E+04  0.28730638112E+04  0.15989039074E+04 0.  0.
        2    1    3    3  502    0  0.62603902584E+03  0.21909840110E+03 -0.19955006914E+04  0.21028437842E+04  0.25500000920E-02 0.  1.
       -2    1    3    3    0  502 -0.62603902584E+03 -0.21909840110E+03 -0.39154810537E+03  0.77022002704E+03  0.25500000920E-02 0. -1.
</event>
<event>
 5   0  0.6838750E-05  0.1606038E+04  0.7818609E-02  0.8816847E-01
       -3   -1    0    0    0  501  0.00000000000E+00  0.00000000000E+00  0.54306674150E+03  0.54306675090E+03  0.10100000352E+00 0. -1.
        3   -1    0    0  501    0  0.00000000000E+00  0.00000000000E+00 -0.11874033748E+04  0.11874033791E+04  0.10100000352E+00 0.  1.
    10030    2    1    2    0    0  0.00000000000E+00  0.00000000000E+00 -0.64433663327E+03  0.17304701300E+04  0.16060377249E+04 0.  0.
        4    1    3    3  502    0  0.41079407061E+03 -0.18395463849E+03 -0.10387086109E+04  0.11320372205E+04  0.12699999809E+01 0.  1.
       -4    1    3    3    0  502 -0.41079407061E+03  0.18395463849E+03  0.39437197761E+03  0.59843290943E+03  0.12699999809E+01 0. -1.
</event>
<event>
 5   0  0.9673017E-05  0.1597343E+04  0.7818609E-02  0.8822182E-01
       -1   -1    0    0    0  501  0.00000000000E+00  0.00000000000E+00  0.44604877871E+03  0.44604877874E+03  0.50400001928E-02 0.  1.
        1   -1    0    0  501    0  0.00000000000E+00  0.00000000000E+00 -0.14300599346E+04  0.14300599346E+04  0.50400001928E-02 0. -1.
    10030    2    1    2    0    0  0.00000000000E+00  0.00000000000E+00 -0.98401115592E+03  0.18761087134E+04  0.15973434037E+04 0.  0.
        1    1    3    3  502    0  0.53866969990E+02 -0.74182807694E+03 -0.15025120685E+03  0.75880562160E+03  0.50400001928E-02 0.  1.
       -1    1    3    3    0  502 -0.53866969990E+02  0.74182807694E+03 -0.83375994907E+03  0.11173030918E+04  0.50400001928E-02 0. -1.
</event>
<event>
 5   0  0.1832646E-04  0.1602151E+04  0.7818609E-02  0.8819228E-01
        2   -1    0    0  501    0  0.00000000000E+00  0.00000000000E+00  0.11531034053E+04  0.11531034053E+04  0.25500000920E-02 0.  1.
       -2   -1    0    0    0  501  0.00000000000E+00  0.00000000000E+00 -0.55651695058E+03  0.55651695059E+03  0.25500000920E-02 0. -1.
    10030    2    1    2    0    0  0.00000000000E+00  0.00000000000E+00  0.59658645468E+03  0.17096203559E+04  0.16021505433E+04 0.  0.
        2    1    3    3  502    0  0.39606828934E+02  0.23114697324E+03  0.11156530256E+04  0.11400347792E+04  0.25500000920E-02 0.  1.
       -2    1    3    3    0  502 -0.39606828934E+02 -0.23114697324E+03 -0.51906657092E+03  0.56958557670E+03  0.25500000920E-02 0. -1.
</event>
<event>
 5   0  0.1858913E-04  0.1599423E+04  0.7818609E-02  0.8820902E-01
       -2   -1    0    0    0  501  0.00000000000E+00  0.00000000000E+00  0.40486229363E+03  0.40486229364E+03  0.25500000920E-02 0.  1.
        2   -1    0    0  501    0  0.00000000000E+00  0.00000000000E+00 -0.15796451140E+04  0.15796451140E+04  0.25500000920E-02 0. -1.
    10030    2    1    2    0    0  0.00000000000E+00  0.00000000000E+00 -0.11747828204E+04  0.19845074076E+04  0.15994233261E+04 0.  0.
        4    1    3    3  502    0 -0.46758196537E+03  0.26943313271E+03  0.14488034873E+03  0.55876563575E+03  0.12699999809E+01 0.  1.
       -4    1    3    3    0  502  0.46758196537E+03 -0.26943313271E+03 -0.13196631691E+04  0.14257417719E+04  0.12699999809E+01 0. -1.
</event>
<event>
 5   0  0.1774934E-04  0.1597437E+04  0.7818609E-02  0.8822124E-01
        2   -1    0    0  501    0  0.00000000000E+00  0.00000000000E+00  0.20733096135E+04  0.20733096135E+04  0.25500000920E-02 0.  1.
       -2   -1    0    0    0  501  0.00000000000E+00  0.00000000000E+00 -0.30769715833E+03  0.30769715834E+03  0.25500000920E-02 0. -1.
    10030    2    1    2    0    0  0.00000000000E+00  0.00000000000E+00  0.17656124552E+04  0.23810067719E+04  0.15974372932E+04 0.  0.
        1    1    3    3  502    0  0.60995090585E+03 -0.31992734752E+03  0.14856052271E+04  0.16375031317E+04  0.50400001928E-02 0.  1.
       -1    1    3    3    0  502 -0.60995090585E+03  0.31992734752E+03  0.28000722806E+03  0.74350364023E+03  0.50400001928E-02 0. -1.
</event>
<event>
 5   0  0.1774934E-04  0.1601002E+04  0.7818609E-02  0.8819933E-01
        2   -1    0    0  501    0  0.00000000000E+00  0.00000000000E+00  0.20271742043E+04  0.20271742043E+04  0.25500000920E-02 0.  1.
       -2   -1    0    0    0  501  0.00000000000E+00  0.00000000000E+00 -0.31610577172E+03  0.31610577173E+03  0.25500000920E-02 0. -1.
    10030    2    1    2    0    0  0.00000000000E+00  0.00000000000E+00  0.17110684325E+04  0.23432799760E+04  0.16010015194E+04 0.  0.
        1    1    3    3  502    0  0.44949663254E+03 -0.65221324927E+03  0.10247857398E+04  0.12952278401E+04  0.50400001928E-02 0.  1.
       -1    1    3    3    0  502 -0.44949663254E+03  0.65221324927E+03  0.68628269270E+03  0.10480521359E+04  0.50400001928E-02 0. -1.
</event>
<event>
 5   0  0.9726935E-05  0.1614515E+04  0.7818609E-02  0.8811680E-01
       -1   -1    0    0    0  501  0.00000000000E+00  0.00000000000E+00  0.82467190033E+03  0.82467190034E+03  0.50400001928E-02 0. -1.
        1   -1    0    0  501    0  0.00000000000E+00  0.00000000000E+00 -0.79021065554E+03  0.79021065555E+03  0.50400001928E-02 0.  1.
    10030    2    1    2    0    0  0.00000000000E+00  0.00000000000E+00  0.34461244788E+02  0.16148825559E+04  0.16145148163E+04 0.  0.
        2    1    3    3  502    0 -0.19345399741E+03 -0.23162710302E+03 -0.73166480414E+03  0.79146001137E+03  0.25500000920E-02 0.  1.
       -2    1    3    3    0  502  0.19345399741E+03  0.23162710302E+03  0.76612604893E+03  0.82342254452E+03  0.25500000920E-02 0. -1.
</event>
<event>
 5   0  0.6838750E-05  0.1600997E+04  0.7818609E-02  0.8819936E-01
       -4   -1    0    0    0  501  0.00000000000E+00  0.00000000000E+00  0.41689281674E+03  0.41689475116E+03  0.12699999809E+01 0. -1.
        4   -1    0    0  501    0  0.00000000000E+00  0.00000000000E+00 -0.15370744955E+04  0.15370750202E+04  0.12699999809E+01 0.  1.
    10030    2    1    2    0    0  0.00000000000E+00  0.00000000000E+00 -0.11201816788E+04  0.19539697713E+04  0.16009968375E+04 0.  0.
        1    1    3    3  502    0  0.47652423365E+03  0.48601075105E+03 -0.45874320248E+02  0.68219223733E+03  0.50400001928E-02 0. -1.
       -1    1    3    3    0  502 -0.47652423365E+03 -0.48601075105E+03 -0.10743073585E+04  0.12717775340E+04  0.50400001928E-02 0.  1.
</event>
<event>
 5   0  0.1774934E-04  0.1599850E+04  0.7818609E-02  0.8820640E-01
       -2   -1    0    0    0  501  0.00000000000E+00  0.00000000000E+00  0.21018476834E+03  0.21018476836E+03  0.25500000920E-02 0.  1.
        2   -1    0    0  501    0  0.00000000000E+00  0.00000000000E+00 -0.30443673358E+04  0.30443673358E+04  0.25500000920E-02 0. -1.
    10030    2    1    2    0    0  0.00000000000E+00  0.00000000000E+00 -0.28341825675E+04  0.32545521042E+04  0.15998495470E+04 0.  0.
        1    1    3    3  502    0 -0.47645894040E+03  0.33056388684E+03 -0.25379702138E+04  0.26033782690E+04  0.50400001928E-02 0. -1.
       -1    1    3    3    0  502  0.47645894040E+03 -0.33056388684E+03 -0.29621235368E+03  0.65117383521E+03  0.50400001928E-02 0.  1.
</event>
<event>
 5   0  0.1835088E-04  0.1596690E+04  0.7818609E-02  0.8822584E-01
        2   -1    0    0  501    0  0.00000000000E+00  0.00000000000E+00  0.83477710757E+03  0.83477710757E+03  0.25500000920E-02 0. -1.
       -2   -1    0    0    0  501  0.00000000000E+00  0.00000000000E+00 -0.76350271341E+03  0.76350271341E+03  0.25500000920E-02 0.  1.
    10030    2    1    2    0    0  0.00000000000E+00  0.00000000000E+00  0.71274394159E+02  0.15982798210E+04  0.15966898092E+04 0.  0.
        5    1    3    3  502    0 -0.39369237155E+03 -0.63615352968E+03  0.31456769464E+03  0.81157865993E+03  0.46999998093E+01 0. -1.
       -5    1    3    3    0  502  0.39369237155E+03  0.63615352968E+03 -0.24329330048E+03  0.78670116105E+03  0.46999998093E+01 0.  1.
</event>
<event>
 5   0  0.1858913E-04  0.1600131E+04  0.7818609E-02  0.8820468E-01
        2   -1    0    0  501    0  0.00000000000E+00  0.00000000000E+00  0.58931154679E+03  0.58931154680E+03  0.25500000920E-02 0. -1.
       -2   -1    0    0    0  501  0.00000000000E+00  0.00000000000E+00 -0.10861905791E+04  0.10861905791E+04  0.25500000920E-02 0.  1.
    10030    2    1    2    0    0  0.00000000000E+00  0.00000000000E+00 -0.49687903231E+03  0.16755021259E+04  0.16001308075E+04 0.  0.
        4    1    3    3  502    0  0.25764185748E+03  0.32043173931E+03 -0.96709660664E+03  0.10508726306E+04  0.12699999809E+01 0.  1.
       -4    1    3    3    0  502 -0.25764185748E+03 -0.32043173931E+03  0.47021757433E+03  0.62462949529E+03  0.12699999809E+01 0. -1.
</event>
<event>
 5   0  0.9673017E-05  0.1597175E+04  0.7818609E-02  0.8822286E-01
        1   -1    0    0  501    0  0.00000000000E+00  0.00000000000E+00  0.11486633769E+04  0.11486633769E+04  0.50400001928E-02 0.  1.
       -1   -1    0    0    0  501  0.00000000000E+00  0.00000000000E+00 -0.55520323319E+03  0.55520323321E+03  0.50400001928E-02 0. -1.
    10030    2    1    2    0    0  0.00000000000E+00  0.00000000000E+00  0.59346014374E+03  0.17038666102E+04  0.15971745312E+04 0.  0.
        1    1    3    3  502    0 -0.46365047129E+03  0.63678950582E+03  0.15654019936E+03  0.80310489245E+03  0.50400001928E-02 0. -1.
       -1    1    3    3    0  502  0.46365047129E+03 -0.63678950582E+03  0.43691994438E+03  0.90076171770E+03  0.50400001928E-02 0.  1.
</event>
<event>
 5   0  0.1914170E-04  0.1601869E+04  0.7818609E-02  0.8819400E-01
        2   -1    0    0  501    0  0.00000000000E+00  0.00000000000E+00  0.77911126256E+03  0.77911126256E+03  0.25500000920E-02 0.  1.
       -2   -1    0    0    0  501  0.00000000000E+00  0.00000000000E+00 -0.82336952713E+03  0.82336952713E+03  0.25500000920E-02 0. -1.
    10030    2    1    2    0    0  0.00000000000E+00  0.00000000000E+00 -0.44258264569E+02  0.16024807897E+04  0.16018694976E+04 0.  0.
        3    1    3    3  502    0 -0.14934493348E+03  0.75487142034E+03  0.20013056361E+03  0.79510189479E+03  0.10100000352E+00 0.  1.
       -3    1    3    3    0  502  0.14934493348E+03 -0.75487142034E+03 -0.24438882818E+03  0.80737889491E+03  0.10100000352E+00 0. -1.
</event>
<event>
 5   0  0.1774934E-04  0.1584875E+04  0.7818609E-02  0.8829894E-01
        2   -1    0    0  501    0  0.00000000000E+00  0.00000000000E+00  0.89930221074E+03  0.89930221075E+03  0.25500000920E-02 0.  1.
       -2   -1    0    0    0  501  0.00000000000E+00  0.00000000000E+00 -0.69827183050E+03  0.69827183050E+03  0.25500000920E-02 0. -1.
    10030    2    1    2    0    0  0.00000000000E+00  0.00000000000E+00  0.20103038024E+03  0.15975740413E+04  0.15848752643E+04 0.  0.
        1    1    3    3  502    0  0.29533742643E+03  0.67701553305E+03  0.38983966019E+03  0.83519410207E+03  0.50400001928E-02 0.  1.
       -1    1    3    3    0  502 -0.29533742643E+03 -0.67701553305E+03 -0.18880927995E+03  0.76237993918E+03  0.50400001928E-02 0. -1.
</event>
<event>
 5   0  0.9432152E-05  0.1598792E+04  0.7818609E-02  0.8821290E-01
       -1   -1    0    0    0  501  0.00000000000E+00  0.00000000000E+00  0.58830147619E+03  0.58830147621E+03  0.50400001928E-02 0.  1.
        1   -1    0    0  501    0  0.00000000000E+00  0.00000000000E+00 -0.10862362024E+04  0.10862362024E+04  0.50400001928E-02 0. -1.
    10030    2    1    2    0    0  0.00000000000E+00  0.00000000000E+00 -0.49793472619E+03  0.16745376786E+04  0.15987924961E+04 0.  0.
        4    1    3    3  502    0  0.65510928541E+03  0.40005977206E+03 -0.48273830381E+03  0.90678215682E+03  0.12699999809E+01 0.  1.
       -4    1    3    3    0  502 -0.65510928541E+03 -0.40005977206E+03 -0.15196422374E+02  0.76775552177E+03  0.12699999809E+01 0. -1.
</event>
<event>
 5   0  0.1914170E-04  0.1603094E+04  0.7818609E-02  0.8818650E-01
        2   -1    0    0  501    0  0.00000000000E+00  0.00000000000E+00  0.85494465983E+03  0.85494465983E+03  0.25500000920E-02 0. -1.
       -2   -1    0    0    0  501  0.00000000000E+00  0.00000000000E+00 -0.75148407577E+03  0.75148407577E+03  0.25500000920E-02 0.  1.
    10030    2    1    2    0    0  0.00000000000E+00  0.00000000000E+00  0.10346058406E+03  0.16064287356E+04  0.16030936311E+04 0.  0.
        3    1    3    3  502    0 -0.32905814916E+03  0.64067301169E+03 -0.30076296332E+03  0.78051235976E+03  0.10100000352E+00 0.  1.
       -3    1    3    3    0  502  0.32905814916E+03 -0.64067301169E+03  0.40422354738E+03  0.82591637585E+03  0.10100000352E+00 0. -1.
</event>
<event>
 5   0  0.1774934E-04  0.1598435E+04  0.7818609E-02  0.8821510E-01
       -2   -1    0    0    0  501  0.00000000000E+00  0.00000000000E+00  0.52339279945E+03  0.52339279946E+03  0.25500000920E-02 0.  1.
        2   -1    0    0  501    0  0.00000000000E+00  0.00000000000E+00 -0.12204000338E+04  0.12204000339E+04  0.25500000920E-02 0. -1.
    10030    2    1    2    0    0  0.00000000000E+00  0.00000000000E+00 -0.69700723440E+03  0.17437928333E+04  0.15984349723E+04 0.  0.
        1    1    3    3  502    0  0.50107058367E+03 -0.39145730811E+03  0.17971530284E+03  0.66076330406E+03  0.50400001928E-02 0.  1.
       -1    1    3    3    0  502 -0.50107058367E+03  0.39145730811E+03 -0.87672253723E+03  0.10830295292E+04  0.50400001928E-02 0. -1.
</event>
<event>
 5   0  0.9726935E-05  0.1601000E+04  0.7818609E-02  0.8819934E-01
       -1   -1    0    0    0  501  0.00000000000E+00  0.00000000000E+00  0.90829114775E+03  0.90829114776E+03  0.50400001928E-02 0.  1.
        1   -1    0    0  501    0  0.00000000000E+00  0.00000000000E+00 -0.70550062657E+03  0.70550062659E+03  0.50400001928E-02 0. -1.
    10030    2    1    2    0    0  0.00000000000E+00  0.00000000000E+00  0.20279052118E+03  0.16137917743E+04  0.16009996550E+04 0.  0.
        2    1    3    3  502    0 -0.71265558952E+03  0.29147833945E+03 -0.11935770240E+03  0.77915587193E+03  0.25500000920E-02 0. -1.
       -2    1    3    3    0  502  0.71265558952E+03 -0.29147833945E+03  0.32214822358E+03  0.83463590241E+03  0.25500000920E-02 0.  1.
</event>
<event>
 5   0  0.1835088E-04  0.1601078E+04  0.7818609E-02  0.8819886E-01
       -2   -1    0    0    0  501  0.00000000000E+00  0.00000000000E+00  0.90118664963E+03  0.90118664963E+03  0.25500000920E-02 0.  1.
        2   -1    0    0  501    0  0.00000000000E+00  0.00000000000E+00 -0.71113184550E+03  0.71113184550E+03  0.25500000920E-02 0. -1.
    10030    2    1    2    0    0  0.00000000000E+00  0.00000000000E+00  0.19005480413E+03  0.16123184951E+04  0.16010777936E+04 0.  0.
        5    1    3    3  502    0  0.32862406334E+03  0.27470255218E+03 -0.58602329302E+03  0.72587923041E+03  0.46999998093E+01 0. -1.
       -5    1    3    3    0  502 -0.32862406334E+03 -0.27470255218E+03  0.77607809715E+03  0.88643926473E+03  0.46999998093E+01 0.  1.
</event>
<event>
 5   0  0.9673017E-05  0.1550326E+04  0.7818609E-02  0.8851660E-01
       -1   -1    0    0    0  501  0.00000000000E+00  0.00000000000E+00  0.41719019230E+03  0.41719019233E+03  0.50400001928E-02 0.  1.
        1   -1    0    0  501    0  0.00000000000E+00  0.00000000000E+00 -0.14402965923E+04  0.14402965923E+04  0.50400001928E-02 0. -1.
    10030    2    1    2    0    0  0.00000000000E+00  0.00000000000E+00 -0.10231064000E+04  0.18574867846E+04  0.15503259171E+04 0.  0.
        1    1    3    3  502    0 -0.21220319998E+03 -0.43355261814E+03  0.21514744154E+03  0.52847563085E+03  0.50400001928E-02 0.  1.
       -1    1    3    3    0  502  0.21220319998E+03  0.43355261814E+03 -0.12382538415E+04  0.13290111538E+04  0.50400001928E-02 0. -1.
</event>
<event>
 5   0  0.1774934E-04  0.1598814E+04  0.7818609E-02  0.8821277E-01
        2   -1    0    0  501    0  0.00000000000E+00  0.00000000000E+00  0.13399308313E+04  0.13399308313E+04  0.25500000920E-02 0.  1.
       -2   -1    0    0    0  501  0.00000000000E+00  0.00000000000E+00 -0.47692860813E+03  0.47692860814E+03  0.25500000920E-02 0. -1.
    10030    2    1    2    0    0  0.00000000000E+00  0.00000000000E+00  0.86300222314E+03  0.18168594394E+04  0.15988137432E+04 0.  0.
        1    1    3    3  502    0  0.69845957159E+03 -0.30721666229E+03  0.70238765413E+03  0.10370999313E+04  0.50400001928E-02 0. -1.
       -1    1    3    3    0  502 -0.69845957159E+03  0.30721666229E+03  0.16061456902E+03  0.77975950815E+03  0.50400001928E-02 0.  1.
</event>
<event>
 5   0  0.1832646E-04  0.1598295E+04  0.7818609E-02  0.8821596E-01
       -2   -1    0    0    0  501  0.00000000000E+00  0.00000000000E+00  0.36020142751E+03  0.36020142752E+03  0.25500000920E-02 0.  1.
        2   -1    0    0  501    0  0.00000000000E+00  0.00000000000E+00 -0.17729987282E+04  0.17729987282E+04  0.25500000920E-02 0. -1.
    10030    2    1    2    0    0  0.00000000000E+00  0.00000000000E+00 -0.14127973007E+04  0.21332001557E+04  0.15982949326E+04 0.  0.
        2    1    3    3  502    0  0.43058163939E+03  0.26188480232E+03  0.12136995280E+03  0.51837714389E+03  0.25500000920E-02 0.  1.
       -2    1    3    3    0  502 -0.43058163939E+03 -0.26188480232E+03 -0.15341672535E+04  0.16148230118E+04  0.25500000920E-02 0. -1.
</event>
<event>
 5   0  0.9616567E-05  0.1592372E+04  0.7818609E-02  0.8825248E-01
        1   -1    0    0  501    0  0.00000000000E+00  0.00000000000E+00  0.70700842372E+03  0.70700842374E+03  0.50400001928E-02 0. -1.
       -1   -1    0    0    0  501  0.00000000000E+00  0.00000000000E+00 -0.89661168890E+03  0.89661168892E+03  0.50400001928E-02 0.  1.
    10030    2    1    2    0    0  0.00000000000E+00  0.00000000000E+00 -0.18960326518E+03  0.16036201127E+04  0.15923718371E+04 0.  0.
        5    1    3    3  502    0  0.64533902583E+02 -0.14576963645E+03  0.69075756355E+03  0.70892983651E+03  0.46999998093E+01 0. -1.
       -5    1    3    3    0  502 -0.64533902583E+02  0.14576963645E+03 -0.88036082873E+03  0.89469027616E+03  0.46999998093E+01 0.  1.
</event>
<event>
 5   0  0.9939872E-05  0.1624320E+04  0.7818609E-02  0.8805745E-01
       -1   -1    0    0    0  501  0.00000000000E+00  0.00000000000E+00  0.57661537882E+03  0.57661537884E+03  0.50400001928E-02 0.  1.
        1   -1    0    0  501    0  0.00000000000E+00  0.00000000000E+00 -0.11439236986E+04  0.11439236986E+04  0.50400001928E-02 0. -1.
    10030    2    1    2    0    0  0.00000000000E+00  0.00000000000E+00 -0.56730831982E+03  0.17205390775E+04  0.16243201616E+04 0.  0.
        3    1    3    3  502    0 -0.51259738642E+03 -0.29917895213E+03  0.30356788491E+03  0.66664653071E+03  0.10100000352E+00 0.  1.
       -3    1    3    3    0  502  0.51259738642E+03  0.29917895213E+03 -0.87087620473E+03  0.10538925468E+04  0.10100000352E+00 0. -1.
</event>
<event>
 5   0  0.1914170E-04  0.1599233E+04  0.7818609E-02  0.8821019E-01
        2   -1    0    0  501    0  0.00000000000E+00  0.00000000000E+00  0.90488111399E+03  0.90488111400E+03  0.25500000920E-02 0. -1.
       -2   -1    0    0    0  501  0.00000000000E+00  0.00000000000E+00 -0.70659755147E+03  0.70659755147E+03  0.25500000920E-02 0.  1.
    10030    2    1    2    0    0  0.00000000000E+00  0.00000000000E+00  0.19828356253E+03  0.16114786655E+04  0.15992332907E+04 0.  0.
        3    1    3    3  502    0  0.41622335816E+03  0.40762582330E+03  0.65104545549E+03  0.87364803611E+03  0.10100000352E+00 0. -1.
       -3    1    3    3    0  502 -0.41622335816E+03 -0.40762582330E+03 -0.45276189296E+03  0.73783062935E+03  0.10100000352E+00 0.  1.
</event>
<event>
 5   0  0.1835088E-04  0.1603827E+04  0.7818609E-02  0.8818200E-01
        2   -1    0    0  501    0  0.00000000000E+00  0.00000000000E+00  0.43574686397E+03  0.43574686398E+03  0.25500000920E-02 0. -1.
       -2   -1    0    0    0  501  0.00000000000E+00  0.00000000000E+00 -0.14757778559E+04  0.14757778559E+04  0.25500000920E-02 0.  1.
    10030    2    1    2    0    0  0.00000000000E+00  0.00000000000E+00 -0.10400309919E+04  0.19115247199E+04  0.16038273880E+04 0.  0.
        5    1    3    3  502    0 -0.17638091859E+03 -0.27222555873E+03  0.35404882234E+03  0.48019750298E+03  0.46999998093E+01 0. -1.
       -5    1    3    3    0  502  0.17638091859E+03  0.27222555873E+03 -0.13940798143E+04  0.14313272169E+04  0.46999998093E+01 0.  1.
</event>
<event>
 5   0  0.9616567E-05  0.1597709E+04  0.7818609E-02  0.8821957E-01
        1   -1    0    0  501    0  0.00000000000E+00  0.00000000000E+00  0.32785206791E+03  0.32785206795E+03  0.50400001928E-02 0. -1.
       -1   -1    0    0    0  501  0.00000000000E+00  0.00000000000E+00 -0.19465136999E+04  0.19465136999E+04  0.50400001928E-02 0.  1.
    10030    2    1    2    0    0  0.00000000000E+00  0.00000000000E+00 -0.16186616320E+04  0.22743657678E+04  0.15977090371E+04 0.  0.
        5    1    3    3  502    0  0.58114203707E+03  0.36866203903E+02 -0.30859341790E+02  0.58314627086E+03  0.46999998093E+01 0. -1.
       -5    1    3    3    0  502 -0.58114203707E+03 -0.36866203903E+02 -0.15878022902E+04  0.16912194970E+04  0.46999998093E+01 0.  1.
</event>
<event>
 5   0  0.1774934E-04  0.1601924E+04  0.7818609E-02  0.8819367E-01
       -2   -1    0    0    0  501  0.00000000000E+00  0.00000000000E+00  0.33935489972E+03  0.33935489973E+03  0.25500000920E-02 0.  1.
        2   -1    0    0  501    0  0.00000000000E+00  0.00000000000E+00 -0.18904692572E+04  0.18904692572E+04  0.25500000920E-02 0. -1.
    10030    2    1    2    0    0  0.00000000000E+00  0.00000000000E+00 -0.15511143574E+04  0.22298241569E+04  0.16019238499E+04 0.  0.
        1    1    3    3  502    0  0.79504864875E+03 -0.95520040225E+02 -0.80020611741E+03  0.11320584183E+04  0.50400001928E-02 0.  1.
       -1    1    3    3    0  502 -0.79504864875E+03  0.95520040225E+02 -0.75090824004E+03  0.10977657386E+04  0.50400001928E-02 0. -1.
</event>
<event>
 5   0  0.9673017E-05  0.1575103E+04  0.7818609E-02  0.8835991E-01
       -1   -1    0    0    0  501  0.00000000000E+00  0.00000000000E+00  0.57563779878E+03  0.57563779880E+03  0.50400001928E-02 0.  1.
        1   -1    0    0  501    0  0.00000000000E+00  0.00000000000E+00 -0.10774780422E+04  0.10774780422E+04  0.50400001928E-02 0. -1.
    10030    2    1    2    0    0  0.00000000000E+00  0.00000000000E+00 -0.50184024338E+03  0.16531158410E+04  0.15751026487E+04 0.  0.
        1    1    3    3  502    0 -0.89967665366E+02  0.59009985652E+03 -0.79010132788E+03  0.99023842069E+03  0.50400001928E-02 0. -1.
       -1    1    3    3    0  502  0.89967665366E+02 -0.59009985652E+03  0.28826108449E+03  0.66287742029E+03  0.50400001928E-02 0.  1.
</event>
<event>
 5   0  0.1914170E-04  0.1591603E+04  0.7818609E-02  0.8825723E-01
        2   -1    0    0  501    0  0.00000000000E+00  0.00000000000E+00  0.77866369938E+03  0.77866369938E+03  0.25500000920E-02 0.  1.
       -2   -1    0    0    0  501  0.00000000000E+00  0.00000000000E+00 -0.81331694621E+03  0.81331694622E+03  0.25500000920E-02 0. -1.
    10030    2    1    2    0    0  0.00000000000E+00  0.00000000000E+00 -0.34653246834E+02  0.15919806456E+04  0.15916034457E+04 0.  0.
        3    1    3    3  502    0  0.24316056635E+03 -0.45755897203E+03 -0.62146736467E+03  0.80914088357E+03  0.10100000352E+00 0. -1.
       -3    1    3    3    0  502 -0.24316056635E+03  0.45755897203E+03  0.58681411784E+03  0.78283976203E+03  0.10100000352E+00 0.  1.
</event>
<event>
 5   0  0.1858913E-04  0.1598667E+04  0.7818609E-02  0.8821367E-01
        2   -1    0    0  501    0  0.00000000000E+00  0.00000000000E+00  0.61554566208E+03  0.61554566209E+03  0.25500000920E-02 0.  1.
       -2   -1    0    0    0  501  0.00000000000E+00  0.00000000000E+00 -0.10379968004E+04  0.10379968004E+04  0.25500000920E-02 0. -1.
    10030    2    1    2    0    0  0.00000000000E+00  0.00000000000E+00 -0.42245113829E+03  0.16535424625E+04  0.15986674798E+04 0.  0.
        4    1    3    3  502    0 -0.63064848094E+03  0.39910207313E+03 -0.50728999369E+03  0.90241050630E+03  0.12699999809E+01 0. -1.
       -4    1    3    3    0  502  0.63064848094E+03 -0.39910207313E+03  0.84838855396E+02  0.75113195616E+03  0.12699999809E+01 0.  1.
</event>
<event>
 5   0  0.1832646E-04  0.1582179E+04  0.7818609E-02  0.8831572E-01
       -2   -1    0    0    0  501  0.00000000000E+00  0.00000000000E+00  0.41541055457E+03  0.41541055458E+03  0.25500000920E-02 0. -1.
        2   -1    0    0  501    0  0.00000000000E+00  0.00000000000E+00 -0.15065150755E+04  0.15065150755E+04  0.25500000920E-02 0.  1.
    10030    2    1    2    0    0  0.00000000000E+00  0.00000000000E+00 -0.10911045209E+04  0.19219256301E+04  0.15821785778E+04 0.  0.
        2    1    3    3  502    0  0.10139152898E+00 -0.78629383849E+03 -0.43990357933E+03  0.90098455583E+03  0.25500000920E-02 0. -1.
       -2    1    3    3    0  502 -0.10139152898E+00  0.78629383849E+03 -0.65120094159E+03  0.10209410742E+04  0.25500000920E-02 0.  1.
</event>
<event>
 5   0  0.1832646E-04  0.1600218E+04  0.7818609E-02  0.8820414E-01
        2   -1    0    0  501    0  0.00000000000E+00  0.00000000000E+00  0.86074427265E+03  0.86074427266E+03  0.25500000920E-02 0.  1.
       -2   -1    0    0    0  501  0.00000000000E+00  0.00000000000E+00 -0.74374510248E+03  0.74374510248E+03  0.25500000920E-02 0. -1.
    10030    2    1    2    0    0  0.00000000000E+00  0.00000000000E+00  0.11699917018E+03  0.16044893751E+04  0.16002179068E+04 0.  0.
        2    1    3    3  502    0 -0.31170958887E+03  0.73031853701E+03  0.15697735185E+03  0.80942567435E+03  0.25500000920E-02 0.  1.
       -2    1    3    3    0  502  0.31170958887E+03 -0.73031853701E+03 -0.39978181672E+02  0.79506370079E+03  0.25500000920E-02 0. -1.
</event>
<event>
 5   0  0.1774934E-04  0.1581797E+04  0.7818609E-02  0.8831810E-01
       -2   -1    0    0    0  501  0.00000000000E+00  0.00000000000E+00  0.51560171811E+03  0.51560171812E+03  0.25500000920E-02 0.  1.
        2   -1    0    0  501    0  0.00000000000E+00  0.00000000000E+00 -0.12131848323E+04  0.12131848323E+04  0.25500000920E-02 0. -1.
    10030    2    1    2    0    0  0.00000000000E+00  0.00000000000E+00 -0.69758311422E+03  0.17287865504E+04  0.15817966797E+04 0.  0.
        1    1    3    3  502    0 -0.47416505625E+03  0.28254539179E+03  0.27028684438E+03  0.61458878713E+03  0.50400001928E-02 0.  1.
       -1    1    3    3    0  502  0.47416505625E+03 -0.28254539179E+03 -0.96786995860E+03  0.11141977633E+04  0.50400001928E-02 0. -1.
</event>
<event>
 5   0  0.9616567E-05  0.1598452E+04  0.7818609E-02  0.8821499E-01
        1   -1    0    0  501    0  0.00000000000E+00  0.00000000000E+00  0.76521380634E+03  0.76521380636E+03  0.50400001928E-02 0.  1.
       -1   -1    0    0    0  501  0.00000000000E+00  0.00000000000E+00 -0.83475012728E+03  0.83475012729E+03  0.50400001928E-02 0. -1.
    10030    2    1    2    0    0  0.00000000000E+00  0.00000000000E+00 -0.69536320933E+02  0.15999639337E+04  0.15984521541E+04 0.  0.
        5    1    3    3  502    0  0.51719219804E+02 -0.62080108839E+03 -0.53591259667E+03  0.82176229550E+03  0.46999998093E+01 0.  1.
       -5    1    3    3    0  502 -0.51719219804E+02  0.62080108839E+03  0.46637627573E+03  0.77820163815E+03  0.46999998093E+01 0. -1.
</event>
<event>
 5   0  0.9673017E-05  0.1599437E+04  0.7818609E-02  0.8820894E-01
       -1   -1    0    0    0  501  0.00000000000E+00  0.00000000000E+00  0.81968015577E+03  0.81968015579E+03  0.50400001928E-02 0. -1.
        1   -1    0    0  501    0  0.00000000000E+00  0.00000000000E+00 -0.78024306607E+03  0.78024306608E+03  0.50400001928E-02 0.  1.
    10030    2    1    2    0    0  0.00000000000E+00  0.00000000000E+00  0.39437089707E+02  0.15999232219E+04  0.15994370984E+04 0.  0.
        1    1    3    3  502    0 -0.36542215833E+03 -0.16148811243E+03 -0.67326758563E+03  0.78287994363E+03  0.50400001928E-02 0.  1.
       -1    1    3    3    0  502  0.36542215833E+03  0.16148811243E+03  0.71270467533E+03  0.81704327824E+03  0.50400001928E-02 0. -1.
</event>
<event>
 5   0  0.1774934E-04  0.1599751E+04  0.7818609E-02  0.8820701E-01
        2   -1    0    0  501    0  0.00000000000E+00  0.00000000000E+00  0.15942278859E+04  0.15942278859E+04  0.25500000920E-02 0. -1.
       -2   -1    0    0    0  501  0.00000000000E+00  0.00000000000E+00 -0.40132323594E+03  0.40132323595E+03  0.25500000920E-02 0.  1.
    10030    2    1    2    0    0  0.00000000000E+00  0.00000000000E+00  0.11929046499E+04  0.19955511218E+04  0.15997508481E+04 0.  0.
        1    1    3    3  502    0 -0.64049397373E+03 -0.46507905224E+03  0.45275785360E+03  0.91187758457E+03  0.50400001928E-02 0.  1.
       -1    1    3    3    0  502  0.64049397373E+03  0.46507905224E+03  0.74014679634E+03  0.10836735373E+04  0.50400001928E-02 0. -1.
</event>
<event>
 5   0  0.9726935E-05  0.1551929E+04  0.7818609E-02  0.8850636E-01
       -1   -1    0    0    0  501  0.00000000000E+00  0.00000000000E+00  0.54861765900E+03  0.54861765902E+03  0.50400001928E-02 0.  1.
        1   -1    0    0  501    0  0.00000000000E+00  0.00000000000E+00 -0.10975240806E+04  0.10975240806E+04  0.50400001928E-02 0. -1.
    10030    2    1    2    0    0  0.00000000000E+00  0.00000000000E+00 -0.54890642163E+03  0.16461417397E+04  0.15519292405E+04 0.  0.
        2    1    3    3  502    0  0.17562102167E+03 -0.48722748744E+03 -0.88736155942E+03  0.10274453294E+04  0.25500000920E-02 0. -1.
       -2    1    3    3    0  502 -0.17562102167E+03  0.48722748744E+03  0.33845513779E+03  0.61869641026E+03  0.25500000920E-02 0.  1.
</event>
<event>
 5   0  0.9939872E-05  0.1677382E+04  0.7818609E-02  0.8774370E-01
        1   -1    0    0  501    0  0.00000000000E+00  0.00000000000E+00  0.19446449198E+04  0.19446449198E+04  0.50400001928E-02 0.  1.
       -1   -1    0    0    0  501  0.00000000000E+00  0.00000000000E+00 -0.36171282678E+03  0.36171282681E+03  0.50400001928E-02 0. -1.
    10030    2    1    2    0    0  0.00000000000E+00  0.00000000000E+00  0.15829320930E+04  0.23063577466E+04  0.16773824979E+04 0.  0.
        3    1    3    3  502    0 -0.71112824615E+03  0.35026049609E+03  0.11680614373E+04  0.14116491523E+04  0.10100000352E+00 0.  1.
       -3    1    3    3    0  502  0.71112824615E+03 -0.35026049609E+03  0.41487065570E+03  0.89470859432E+03  0.10100000352E+00 0. -1.
</event>
<event>
 5   0  0.9432152E-05  0.1606501E+04  0.7818609E-02  0.8816564E-01
       -1   -1    0    0    0  501  0.00000000000E+00  0.00000000000E+00  0.44657622070E+03  0.44657622073E+03  0.50400001928E-02 0.  1.
        1   -1    0    0  501    0  0.00000000000E+00  0.00000000000E+00 -0.14447963065E+04  0.14447963065E+04  0.50400001928E-02 0. -1.
    10030    2    1    2    0    0  0.00000000000E+00  0.00000000000E+00 -0.99822008579E+03  0.18913725272E+04  0.16065013841E+04 0.  0.
        4    1    3    3  502    0  0.61615135932E+03 -0.43860154642E+03 -0.18058734895E+03  0.77757778879E+03  0.12699999809E+01 0.  1.
       -4    1    3    3    0  502 -0.61615135932E+03  0.43860154642E+03 -0.81763273685E+03  0.11137947384E+04  0.12699999809E+01 0. -1.
</event>
<event>
 5   0  0.1774934E-04  0.1601085E+04  0.7818609E-02  0.8819882E-01
       -2   -1    0    0    0  501  0.00000000000E+00  0.00000000000E+00  0.27274618641E+03  0.27274618642E+03  0.25500000920E-02 0.  1.
        2   -1    0    0  501    0  0.00000000000E+00  0.00000000000E+00 -0.23496860052E+04  0.23496860052E+04  0.25500000920E-02 0. -1.
    10030    2    1    2    0    0  0.00000000000E+00  0.00000000000E+00 -0.20769398188E+04  0.26224321916E+04  0.16010845039E+04 0.  0.
        1    1    3    3  502    0 -0.29539875667E+02  0.68440568669E+03 -0.17169367013E+04  0.18485549450E+04  0.50400001928E-02 0. -1.
       -1    1    3    3    0  502  0.29539875667E+02 -0.68440568669E+03 -0.36000311744E+03  0.77387724661E+03  0.50400001928E-02 0.  1.
</event>
<event>
 5   0  0.9726935E-05  0.1599781E+04  0.7818609E-02  0.8820682E-01
        1   -1    0    0  501    0  0.00000000000E+00  0.00000000000E+00  0.79626582887E+03  0.79626582888E+03  0.50400001928E-02 0. -1.
       -1   -1    0    0    0  501  0.00000000000E+00  0.00000000000E+00 -0.80353201990E+03  0.80353201992E+03  0.50400001928E-02 0.  1.
    10030    2    1    2    0    0  0.00000000000E+00  0.00000000000E+00 -0.72661910343E+01  0.15997978488E+04  0.15997813474E+04 0.  0.
        2    1    3    3  502    0 -0.57762495387E+02  0.57059013990E+03 -0.56123679917E+03  0.80243152878E+03  0.25500000920E-02 0.  1.
       -2    1    3    3    0  502  0.57762495387E+02 -0.57059013990E+03  0.55397060814E+03  0.79736632003E+03  0.25500000920E-02 0. -1.
</event>
<event>
 5   0  0.9939872E-05  0.1598416E+04  0.7818609E-02  0.8821522E-01
       -1   -1    0    0    0  501  0.00000000000E+00  0.00000000000E+00  0.74523255148E+03  0.74523255149E+03  0.50400001928E-02 0.  1.
        1   -1    0    0  501    0  0.00000000000E+00  0.00000000000E+00 -0.85709306414E+03  0.85709306415E+03  0.50400001928E-02 0. -1.
    10030    2    1    2    0    0  0.00000000000E+00  0.00000000000E+00 -0.11186051266E+03  0.16023256156E+04  0.15984162800E+04 0.  0.
        3    1    3    3  502    0 -0.22002726420E+03  0.22417376053E+03  0.68076014477E+03  0.74973345717E+03  0.10100000352E+00 0.  1.
       -3    1    3    3    0  502  0.22002726420E+03 -0.22417376053E+03 -0.79262065743E+03  0.85259215847E+03  0.10100000352E+00 0. -1.
</event>
<event>
 5   0  0.9616567E-05  0.1622662E+04  0.7818609E-02  0.8806746E-01
       -1   -1    0    0    0  501  0.00000000000E+00  0.00000000000E+00  0.71792851658E+03  0.71792851660E+03  0.50400001928E-02 0.  1.
        1   -1    0    0  501    0  0.00000000000E+00  0.00000000000E+00 -0.91688495853E+03  0.91688495855E+03  0.50400001928E-02 0. -1.
    10030    2    1    2    0    0  0.00000000000E+00  0.00000000000E+00 -0.19895644195E+03  0.16348134752E+04  0.16226618356E+04 0.  0.
        5    1    3    3  502    0  0.28522484952E+03  0.46772723909E+03  0.50342930519E+03  0.74403302366E+03  0.46999998093E+01 0.  1.
       -5    1    3    3    0  502 -0.28522484952E+03 -0.46772723909E+03 -0.70238574714E+03  0.89078045149E+03  0.46999998093E+01 0. -1.
</event>
<event>
 5   0  0.1774934E-04  0.1592258E+04  0.7818609E-02  0.8825318E-01
        2   -1    0    0  501    0  0.00000000000E+00  0.00000000000E+00  0.86337574369E+03  0.86337574369E+03  0.25500000920E-02 0.  1.
       -2   -1    0    0    0  501  0.00000000000E+00  0.00000000000E+00 -0.73412030072E+03  0.73412030072E+03  0.25500000920E-02 0. -1.
    10030    2    1    2    0    0  0.00000000000E+00  0.00000000000E+00  0.12925544297E+03  0.15974960444E+04  0.15922583466E+04 0.  0.
        1    1    3    3  502    0  0.14437081402E+03 -0.47757395229E+03  0.68707311303E+03  0.84911087292E+03  0.50400001928E-02 0.  1.
       -1    1    3    3    0  502 -0.14437081402E+03  0.47757395229E+03 -0.55781767006E+03  0.74838517149E+03  0.50400001928E-02 0. -1.
</event>
<event>
 5   0  0.6838750E-05  0.1600329E+04  0.7818609E-02  0.8820346E-01
        3   -1    0    0  501    0  0.00000000000E+00  0.00000000000E+00  0.93247121671E+03  0.93247122218E+03  0.10100000352E+00 0. -1.
       -3   -1    0    0    0  501  0.00000000000E+00  0.00000000000E+00 -0.68663066123E+03  0.68663066866E+03  0.10100000352E+00 0.  1.
    10030    2    1    2    0    0  0.00000000000E+00  0.00000000000E+00  0.24584055547E+03  0.16191018908E+04  0.16003291393E+04 0.  0.
        5    1    3    3  502    0 -0.69030606377E+03 -0.39802232712E+03  0.19655462255E+03  0.82073140808E+03  0.46999998093E+01 0.  1.
       -5    1    3    3    0  502  0.69030606377E+03  0.39802232712E+03  0.49285932921E+02  0.79837048276E+03  0.46999998093E+01 0. -1.
</event>
<event>
 5   0  0.9616567E-05  0.1599033E+04  0.7818609E-02  0.8821142E-01
        1   -1    0    0  501    0  0.00000000000E+00  0.00000000000E+00  0.14903810740E+04  0.14903810740E+04  0.50400001928E-02 0.  1.
       -1   -1    0    0    0  501  0.00000000000E+00  0.00000000000E+00 -0.42890129172E+03  0.42890129175E+03  0.50400001928E-02 0. -1.
    10030    2    1    2    0    0  0.00000000000E+00  0.00000000000E+00  0.10614797822E+04  0.19192823657E+04  0.15990326674E+04 0.  0.
        5    1    3    3  502    0 -0.25379075517E+03  0.11622944796E+03 -0.36849541497E+03  0.46230941244E+03  0.46999998093E+01 0. -1.
       -5    1    3    3    0  502  0.25379075517E+03 -0.11622944796E+03  0.14299751972E+04  0.14569729533E+04  0.46999998093E+01 0.  1.
</event>
<event>
 5   0  0.1832646E-04  0.1600912E+04  0.7818609E-02  0.8819988E-01
       -2   -1    0    0    0  501  0.00000000000E+00  0.00000000000E+00  0.40302399934E+03  0.40302399935E+03  0.25500000920E-02 0. -1.
        2   -1    0    0  501    0  0.00000000000E+00  0.00000000000E+00 -0.15898063281E+04  0.15898063281E+04  0.25500000920E-02 0.  1.
    10030    2    1    2    0    0  0.00000000000E+00  0.00000000000E+00 -0.11867823288E+04  0.19928303275E+04  0.16009123705E+04 0.  0.
        2    1    3    3  502    0 -0.27628108663E+03 -0.74682560673E+03 -0.49187716080E+03  0.93596093242E+03  0.25500000920E-02 0. -1.
       -2    1    3    3    0  502  0.27628108663E+03  0.74682560673E+03 -0.69490516797E+03  0.10568693950E+04  0.25500000920E-02 0.  1.
</event>
<event>
 5   0  0.9726935E-05  0.1598413E+04  0.7818609E-02  0.8821523E-01
        1   -1    0    0  501    0  0.00000000000E+00  0.00000000000E+00  0.17750273989E+04  0.17750273989E+04  0.50400001928E-02 0. -1.
       -1   -1    0    0    0  501  0.00000000000E+00  0.00000000000E+00 -0.35984301371E+03  0.35984301375E+03  0.50400001928E-02 0.  1.
    10030    2    1    2    0    0  0.00000000000E+00  0.00000000000E+00  0.14151843851E+04  0.21348704126E+04  0.15984132240E+04 0.  0.
        2    1    3    3  502    0 -0.27421354624E+03 -0.42304372222E+02 -0.29345236157E+03  0.40385271742E+03  0.25500000920E-02 0.  1.
       -2    1    3    3    0  502  0.27421354624E+03  0.42304372222E+02  0.17086367467E+04  0.17310176952E+04  0.25500000920E-02 0. -1.
</event>
<event>
 5   0  0.1835088E-04  0.1602137E+04  0.7818609E-02  0.8819237E-01
        2   -1    0    0  501    0  0.00000000000E+00  0.00000000000E+00  0.12431255873E+04  0.12431255873E+04  0.25500000920E-02 0. -1.
       -2   -1    0    0    0  501  0.00000000000E+00  0.00000000000E+00 -0.51620721756E+03  0.51620721756E+03  0.25500000920E-02 0.  1.
    10030    2    1    2    0    0  0.00000000000E+00  0.00000000000E+00  0.72691836974E+03  0.17593328049E+04  0.16021365741E+04 0.  0.
        5    1    3    3  502    0  0.21911041773E+03 -0.55354253663E+03  0.95202264655E+03  0.11228481307E+04  0.46999998093E+01 0. -1.
       -5    1    3    3    0  502 -0.21911041773E+03  0.55354253663E+03 -0.22510427682E+03  0.63648467418E+03  0.46999998093E+01 0.  1.
</event>
<event>
 5   0  0.1858913E-04  0.1595164E+04  0.7818609E-02  0.8823524E-01
        2   -1    0    0  501    0  0.00000000000E+00  0.00000000000E+00  0.52794868629E+03  0.52794868629E+03  0.25500000920E-02 0.  1.
       -2   -1    0    0    0  501  0.00000000000E+00  0.00000000000E+00 -0.12049221056E+04  0.12049221056E+04  0.25500000920E-02 0. -1.
    10030    2    1    2    0    0  0.00000000000E+00  0.00000000000E+00 -0.67697341931E+03  0.17328707919E+04  0.15951639950E+04 0.  0.
        4    1    3    3  502    0 -0.10524796442E+03  0.58680511049E+02 -0.11949752347E+04  0.12010362029E+04  0.12699999809E+01 0. -1.
       -4    1    3    3    0  502  0.10524796442E+03 -0.58680511049E+02  0.51800181536E+03  0.53183458895E+03  0.12699999809E+01 0.  1.
</event>
<event>
 5   0  0.1858913E-04  0.1599458E+04  0.7818609E-02  0.8820881E-01
        2   -1    0    0  501    0  0.00000000000E+00  0.00000000000E+00  0.17186838335E+04  0.17186838335E+04  0.25500000920E-02 0. -1.
       -2   -1    0    0    0  501  0.00000000000E+00  0.00000000000E+00 -0.37212579473E+03  0.37212579474E+03  0.25500000920E-02 0.  1.
    10030    2    1    2    0    0  0.00000000000E+00  0.00000000000E+00  0.13465580388E+04  0.20908096282E+04  0.15994581425E+04 0.  0.
        4    1    3    3  502    0 -0.16574463466E+03 -0.77008517734E+03  0.85376008954E+03  0.11616412388E+04  0.12699999809E+01 0.  1.
       -4    1    3    3    0  502  0.16574463466E+03  0.77008517734E+03  0.49279794924E+03  0.92916838945E+03  0.12699999809E+01 0. -1.
</event>
<event>
 5   0  0.9616567E-05  0.1618313E+04  0.7818609E-02  0.8809376E-01
       -1   -1    0    0    0  501  0.00000000000E+00  0.00000000000E+00  0.12663071590E+04  0.12663071590E+04  0.50400001928E-02 0. -1.
        1   -1    0    0  501    0  0.00000000000E+00  0.00000000000E+00 -0.51704192464E+03  0.51704192466E+03  0.50400001928E-02 0.  1.
    10030    2    1    2    0    0  0.00000000000E+00  0.00000000000E+00  0.74926523438E+03  0.17833490837E+04  0.16183125665E+04 0.  0.
        5    1    3    3  502    0  0.37348555758E+03 -0.62188849495E+02 -0.41338207017E+03  0.56059409617E+03  0.46999998093E+01 0.  1.
       -5    1    3    3    0  502 -0.37348555758E+03  0.62188849495E+02  0.11626473046E+04  0.12227549875E+04  0.46999998093E+01 0. -1.
</event>
<event>
 5   0  0.9616567E-05  0.1600669E+04  0.7818609E-02  0.8820137E-01
       -1   -1    0    0    0  501  0.00000000000E+00  0.00000000000E+00  0.35237916634E+03  0.35237916638E+03  0.50400001928E-02 0. -1.
        1   -1    0    0  501    0  0.00000000000E+00  0.00000000000E+00 -0.18177455662E+04  0.18177455663E+04  0.50400001928E-02 0.  1.
    10030    2    1    2    0    0  0.00000000000E+00  0.00000000000E+00 -0.14653663999E+04  0.21701247326E+04  0.16006694441E+04 0.  0.
        5    1    3    3  502    0 -0.71861160065E+03  0.34944100881E+03 -0.79334385004E+03  0.11260231817E+04  0.46999998093E+01 0. -1.
       -5    1    3    3    0  502  0.71861160065E+03 -0.34944100881E+03 -0.67202254987E+03  0.10441015510E+04  0.46999998093E+01 0.  1.
</event>
<event>
 5   0  0.9616567E-05  0.1561036E+04  0.7818609E-02  0.8844849E-01
       -1   -1    0    0    0  501  0.00000000000E+00  0.00000000000E+00  0.96871927911E+03  0.96871927912E+03  0.50400001928E-02 0. -1.
        1   -1    0    0  501    0  0.00000000000E+00  0.00000000000E+00 -0.62887984569E+03  0.62887984571E+03  0.50400001928E-02 0.  1.
    10030    2    1    2    0    0  0.00000000000E+00  0.00000000000E+00  0.33983943342E+03  0.15975991248E+04  0.15610355932E+04 0.  0.
        5    1    3    3  502    0  0.55683696784E+03  0.46008925379E+03 -0.13270275131E+03  0.73442606191E+03  0.46999998093E+01 0.  1.
       -5    1    3    3    0  502 -0.55683696784E+03 -0.46008925379E+03  0.47254218472E+03  0.86317306292E+03  0.46999998093E+01 0. -1.
</event>
<event>
 5   0  0.1858913E-04  0.1600721E+04  0.7818609E-02  0.8820105E-01
       -2   -1    0    0    0  501  0.00000000000E+00  0.00000000000E+00  0.29752498392E+03  0.29752498393E+03  0.25500000920E-02 0. -1.
        2   -1    0    0  501    0  0.00000000000E+00  0.00000000000E+00 -0.21530195347E+04  0.21530195347E+04  0.25500000920E-02 0.  1.
    10030    2    1    2    0    0  0.00000000000E+00  0.00000000000E+00 -0.18554945508E+04  0.24505445186E+04  0.16007212155E+04 0.  0.
        4    1    3    3  502    0  0.67690226143E+02  0.79747815407E+03 -0.93494684107E+03  0.12307236008E+04  0.12699999809E+01 0. -1.
       -4    1    3    3    0  502 -0.67690226143E+02 -0.79747815407E+03 -0.92054770970E+03  0.12198209179E+04  0.12699999809E+01 0.  1.
</event>
<event>
 5   0  0.1835088E-04  0.1601315E+04  0.7818609E-02  0.8819740E-01
        2   -1    0    0  501    0  0.00000000000E+00  0.00000000000E+00  0.22749261378E+04  0.22749261378E+04  0.25500000920E-02 0. -1.
       -2   -1    0    0    0  501  0.00000000000E+00  0.00000000000E+00 -0.28179057930E+03  0.28179057932E+03  0.25500000920E-02 0.  1.
    10030    2    1    2    0    0  0.00000000000E+00  0.00000000000E+00  0.19931355585E+04  0.25567167171E+04  0.16013154021E+04 0.  0.
        5    1    3    3  502    0 -0.55110393883E+02  0.47249870595E+03 -0.31668438139E+02  0.47677789652E+03  0.46999998093E+01 0.  1.
       -5    1    3    3    0  502  0.55110393883E+02 -0.47249870595E+03  0.20248039966E+04  0.20799388206E+04  0.46999998093E+01 0. -1.
</event>
<event>
 5   0  0.9939872E-05  0.1603862E+04  0.7818609E-02  0.8818179E-01
        1   -1    0    0  501    0  0.00000000000E+00  0.00000000000E+00  0.41258460563E+03  0.41258460566E+03  0.50400001928E-02 0.  1.
       -1   -1    0    0    0  501  0.00000000000E+00  0.00000000000E+00 -0.15586943101E+04  0.15586943101E+04  0.50400001928E-02 0. -1.
    10030    2    1    2    0    0  0.00000000000E+00  0.00000000000E+00 -0.11461097045E+04  0.19712789158E+04  0.16038619358E+04 0.  0.
        3    1    3    3  502    0  0.28225433342E+03  0.25456245628E+02  0.34898469993E+03  0.44956185354E+03  0.10100000352E+00 0.  1.
       -3    1    3    3    0  502 -0.28225433342E+03 -0.25456245628E+02 -0.14950944044E+04  0.15217170622E+04  0.10100000352E+00 0. -1.
</event>
<event>
 5   0  0.1858913E-04  0.1600278E+04  0.7818609E-02  0.8820377E-01
       -2   -1    0    0    0  501  0.00000000000E+00  0.00000000000E+00  0.57155551142E+03  0.57155551143E+03  0.25500000920E-02 0. -1.
        2   -1    0    0  501    0  0.00000000000E+00  0.00000000000E+00 -0.11201408420E+04  0.11201408420E+04  0.25500000920E-02 0.  1.
    10030    2    1    2    0    0  0.00000000000E+00  0.00000000000E+00 -0.54858533055E+03  0.16916963534E+04  0.16002783155E+04 0.  0.
        4    1    3    3  502    0 -0.66032552863E+03  0.37029772080E+02  0.20178996500E+03  0.69146352808E+03  0.12699999809E+01 0. -1.
       -4    1    3    3    0  502  0.66032552863E+03 -0.37029772080E+02 -0.75037529555E+03  0.10002328253E+04  0.12699999809E+01 0.  1.
</event>
<event>
 5   0  0.1774934E-04  0.1597248E+04  0.7818609E-02  0.8822240E-01
       -2   -1    0    0    0  501  0.00000000000E+00  0.00000000000E+00  0.36970131561E+03  0.36970131562E+03  0.25500000920E-02 0. -1.
        2   -1    0    0  501    0  0.00000000000E+00  0.00000000000E+00 -0.17251782742E+04  0.17251782742E+04  0.25500000920E-02 0.  1.
    10030    2    1    2    0    0  0.00000000000E+00  0.00000000000E+00 -0.13554769586E+04  0.20948795898E+04  0.15972484812E+04 0.  0.
        1    1    3    3  502    0  0.70486778999E+03  0.28080185487E+03 -0.35086798640E+03  0.83594056426E+03  0.50400001928E-02 0. -1.
       -1    1    3    3    0  502 -0.70486778999E+03 -0.28080185487E+03 -0.10046089722E+04  0.12589390256E+04  0.50400001928E-02 0.  1.
</event>
<event>
 5   0  0.9673017E-05  0.1602442E+04  0.7818609E-02  0.8819049E-01
        1   -1    0    0  501    0  0.00000000000E+00  0.00000000000E+00  0.64894604434E+03  0.64894604435E+03  0.50400001928E-02 0. -1.
       -1   -1    0    0    0  501  0.00000000000E+00  0.00000000000E+00 -0.98922692157E+03  0.98922692158E+03  0.50400001928E-02 0.  1.
    10030    2    1    2    0    0  0.00000000000E+00  0.00000000000E+00 -0.34028087723E+03  0.16381729659E+04  0.16024417590E+04 0.  0.
        1    1    3    3  502    0  0.44109914359E+03 -0.60722360785E+03  0.11658805328E+03  0.75952731261E+03  0.50400001928E-02 0. -1.
       -1    1    3    3    0  502 -0.44109914359E+03  0.60722360785E+03 -0.45686893052E+03  0.87864565332E+03  0.50400001928E-02 0.  1.
</event>
<event>
 5   0  0.1914170E-04  0.1598363E+04  0.7818609E-02  0.8821555E-01
        2   -1    0    0  501    0  0.00000000000E+00  0.00000000000E+00  0.61908822425E+03  0.61908822426E+03  0.25500000920E-02 0. -1.
       -2   -1    0    0    0  501  0.00000000000E+00  0.00000000000E+00 -0.10316634287E+04  0.10316634287E+04  0.25500000920E-02 0.  1.
    10030    2    1    2    0    0  0.00000000000E+00  0.00000000000E+00 -0.41257520446E+03  0.16507516530E+04  0.15983625122E+04 0.  0.
        3    1    3    3  502    0 -0.19200958973E+03  0.48616462188E+03  0.41806583766E+03  0.66933009565E+03  0.10100000352E+00 0. -1.
       -3    1    3    3    0  502  0.19200958973E+03 -0.48616462188E+03 -0.83064104213E+03  0.98142155733E+03  0.10100000352E+00 0.  1.
</event>
<event>
 5   0  0.9939872E-05  0.1602572E+04  0.7818609E-02  0.8818970E-01
        1   -1    0    0  501    0  0.00000000000E+00  0.00000000000E+00  0.22482378093E+04  0.22482378093E+04  0.50400001928E-02 0.  1.
       -1   -1    0    0    0  501  0.00000000000E+00  0.00000000000E+00 -0.28558332120E+03  0.28558332124E+03  0.50400001928E-02 0. -1.
    10030    2    1    2    0    0  0.00000000000E+00  0.00000000000E+00  0.19626544881E+04  0.25338211305E+04  0.16025719584E+04 0.  0.
        3    1    3    3  502    0 -0.59671242765E+03  0.53242735352E+03  0.10606126144E+04  0.13283236564E+04  0.10100000352E+00 0.  1.
       -3    1    3    3    0  502  0.59671242765E+03 -0.53242735352E+03  0.90204187369E+03  0.12054974741E+04  0.10100000352E+00 0. -1.
</event>
<event>
 5   0  0.9616567E-05  0.1584291E+04  0.7818609E-02  0.8830257E-01
       -1   -1    0    0    0  501  0.00000000000E+00  0.00000000000E+00  0.52972265835E+03  0.52972265837E+03  0.50400001928E-02 0. -1.
        1   -1    0    0  501    0  0.00000000000E+00  0.00000000000E+00 -0.11845723594E+04  0.11845723594E+04  0.50400001928E-02 0.  1.
    10030    2    1    2    0    0  0.00000000000E+00  0.00000000000E+00 -0.65484970102E+03  0.17142950178E+04  0.15842914116E+04 0.  0.
        5    1    3    3  502    0 -0.11008139061E+03  0.78117781146E+03 -0.40482068943E+03  0.88671222291E+03  0.46999998093E+01 0.  1.
       -5    1    3    3    0  502  0.11008139061E+03 -0.78117781146E+03 -0.25002901159E+03  0.82758279484E+03  0.46999998093E+01 0. -1.
</event>
<event>
 5   0  0.9673017E-05  0.1605240E+04  0.7818609E-02  0.8817335E-01
       -1   -1    0    0    0  501  0.00000000000E+00  0.00000000000E+00  0.30223354060E+03  0.30223354064E+03  0.50400001928E-02 0. -1.
        1   -1    0    0  501    0  0.00000000000E+00  0.00000000000E+00 -0.21314617605E+04  0.21314617605E+04  0.50400001928E-02 0.  1.
    10030    2    1    2    0    0  0.00000000000E+00  0.00000000000E+00 -0.18292282199E+04  0.24336953011E+04  0.16052404612E+04 0.  0.
        1    1    3    3  502    0  0.31294821108E+03 -0.25650590905E+03 -0.19655060356E+04  0.20067251531E+04  0.50400001928E-02 0.  1.
       -1    1    3    3    0  502 -0.31294821108E+03  0.25650590905E+03  0.13627781572E+03  0.42697014799E+03  0.50400001928E-02 0. -1.
</event>
<event>
 5   0  0.9673017E-05  0.1598150E+04  0.7818609E-02  0.8821685E-01
        1   -1    0    0  501    0  0.00000000000E+00  0.00000000000E+00  0.68743051394E+03  0.68743051396E+03  0.50400001928E-02 0. -1.
       -1   -1    0    0    0  501  0.00000000000E+00  0.00000000000E+00 -0.92885166759E+03  0.92885166761E+03  0.50400001928E-02 0.  1.
    10030    2    1    2    0    0  0.00000000000E+00  0.00000000000E+00 -0.24142115365E+03  0.16162821816E+04  0.15981501547E+04 0.  0.
        1    1    3    3  502    0 -0.23080032136E+02 -0.47823868224E+03  0.52629462428E+03  0.71149909110E+03  0.50400001928E-02 0. -1.
       -1    1    3    3    0  502  0.23080032136E+02  0.47823868224E+03 -0.76771577793E+03  0.90478309046E+03  0.50400001928E-02 0.  1.
</event>
<event>
 5   0  0.1914170E-04  0.1596953E+04  0.7818609E-02  0.8822422E-01
       -2   -1    0    0    0  501  0.00000000000E+00  0.00000000000E+00  0.41088225382E+03  0.41088225383E+03  0.25500000920E-02 0.  1.
        2   -1    0    0  501    0  0.00000000000E+00  0.00000000000E+00 -0.15516967614E+04  0.15516967614E+04  0.25500000920E-02 0. -1.
    10030    2    1    2    0    0  0.00000000000E+00  0.00000000000E+00 -0.11408145075E+04  0.19625790152E+04  0.15969529267E+04 0.  0.
        3    1    3    3  502    0 -0.12103384186E+03 -0.69155833462E+03 -0.10378334695E+04  0.12529965848E+04  0.10100000352E+00 0. -1.
       -3    1    3    3    0  502  0.12103384186E+03  0.69155833462E+03 -0.10298103806E+03  0.70958243035E+03  0.10100000352E+00 0.  1.
</event>
<event>
 5   0  0.9673017E-05  0.1601501E+04  0.7818609E-02  0.8819626E-01
        1   -1    0    0  501    0  0.00000000000E+00  0.00000000000E+00  0.73999994953E+03  0.73999994955E+03  0.50400001928E-02 0.  1.
       -1   -1    0    0    0  501  0.00000000000E+00  0.00000000000E+00 -0.86648890205E+03  0.86648890207E+03  0.50400001928E-02 0. -1.
    10030    2    1    2    0    0  0.00000000000E+00  0.00000000000E+00 -0.12648895252E+03  0.16064888516E+04  0.16015014753E+04 0.  0.
        1    1    3    3  502    0  0.51251900679E+02 -0.72805322727E+03 -0.39368418310E+03  0.82926201836E+03  0.50400001928E-02 0. -1.
       -1    1    3    3    0  502 -0.51251900679E+02  0.72805322727E+03  0.26719523058E+03  0.77722683325E+03  0.50400001928E-02 0.  1.
</event>
<event>
 5   0  0.9726935E-05  0.1595886E+04  0.7818609E-02  0.8823079E-01
       -1   -1    0    0    0  501  0.00000000000E+00  0.00000000000E+00  0.72333848666E+03  0.72333848668E+03  0.50400001928E-02 0. -1.
        1   -1    0    0  501    0  0.00000000000E+00  0.00000000000E+00 -0.88024244773E+03  0.88024244774E+03  0.50400001928E-02 0.  1.
    10030    2    1    2    0    0  0.00000000000E+00  0.00000000000E+00 -0.15690396107E+03  0.16035809344E+04  0.15958862617E+04 0.  0.
        2    1    3    3  502    0 -0.57358248235E+03 -0.50982083297E+02 -0.63348944102E+03  0.85609865598E+03  0.25500000920E-02 0.  1.
       -2    1    3    3    0  502  0.57358248235E+03  0.50982083297E+02  0.47658547996E+03  0.74748227844E+03  0.25500000920E-02 0. -1.
</event>
<event>
 5   0  0.9616567E-05  0.1600248E+04  0.7818609E-02  0.8820396E-01
       -1   -1    0    0    0  501  0.00000000000E+00  0.00000000000E+00  0.50714544304E+03  0.50714544307E+03  0.50400001928E-02 0. -1.
        1   -1    0    0  501    0  0.00000000000E+00  0.00000000000E+00 -0.12623564503E+04  0.12623564503E+04  0.50400001928E-02 0.  1.
    10030    2    1    2    0    0  0.00000000000E+00  0.00000000000E+00 -0.75521100724E+03  0.17695018934E+04  0.16002478824E+04 0.  0.
        5    1    3    3  502    0  0.13425593700E+03  0.67344756731E+03  0.76459726245E+02  0.69095908871E+03  0.46999998093E+01 0. -1.
       -5    1    3    3    0  502 -0.13425593700E+03 -0.67344756731E+03 -0.83167073349E+03  0.10785428047E+04  0.46999998093E+01 0.  1.
</event>
<event>
 5   0  0.1858913E-04  0.1609161E+04  0.7818609E-02  0.8814940E-01
       -2   -1    0    0    0  501  0.00000000000E+00  0.00000000000E+00  0.29704145199E+03  0.29704145200E+03  0.25500000920E-02 0. -1.
        2   -1    0    0  501    0  0.00000000000E+00  0.00000000000E+00 -0.21793256176E+04  0.21793256176E+04  0.25500000920E-02 0.  1.
    10030    2    1    2    0    0  0.00000000000E+00  0.00000000000E+00 -0.18822841656E+04  0.24763670696E+04  0.16091613292E+04 0.  0.
        4    1    3    3  502    0  0.60722367320E+03 -0.48738117222E+02 -0.17499930217E+04  0.18529903352E+04  0.12699999809E+01 0.  1.
       -4    1    3    3    0  502 -0.60722367320E+03  0.48738117222E+02 -0.13229114390E+03  0.62337673442E+03  0.12699999809E+01 0. -1.
</event>
<event>
 5   0  0.1914170E-04  0.1599823E+04  0.7818609E-02  0.8820657E-01
        2   -1    0    0  501    0  0.00000000000E+00  0.00000000000E+00  0.39545328938E+03  0.39545328939E+03  0.25500000920E-02 0. -1.
       -2   -1    0    0    0  501  0.00000000000E+00  0.00000000000E+00 -0.16180373744E+04  0.16180373744E+04  0.25500000920E-02 0.  1.
    10030    2    1    2    0    0  0.00000000000E+00  0.00000000000E+00 -0.12225840850E+04  0.20134906637E+04  0.15998227427E+04 0.  0.
        3    1    3    3  502    0  0.27096204558E+01  0.41405918347E+03 -0.14726603835E+04  0.15297650031E+04  0.10100000352E+00 0.  1.
       -3    1    3    3    0  502 -0.27096204558E+01 -0.41405918347E+03  0.25007629852E+03  0.48372566062E+03  0.10100000352E+00 0. -1.
</event>
<event>
 5   0  0.9432152E-05  0.1603576E+04  0.7818609E-02  0.8818354E-01
       -1   -1    0    0    0  501  0.00000000000E+00  0.00000000000E+00  0.56680539171E+03  0.56680539173E+03  0.50400001928E-02 0.  1.
        1   -1    0    0  501    0  0.00000000000E+00  0.00000000000E+00 -0.11341875195E+04  0.11341875195E+04  0.50400001928E-02 0. -1.
    10030    2    1    2    0    0  0.00000000000E+00  0.00000000000E+00 -0.56738212778E+03  0.17009929112E+04  0.16035755065E+04 0.  0.
        4    1    3    3  502    0 -0.38565522541E+03  0.49429749066E+03 -0.81385608168E+03  0.10273379662E+04  0.12699999809E+01 0. -1.
       -4    1    3    3    0  502  0.38565522541E+03 -0.49429749066E+03  0.24647395390E+03  0.67365494506E+03  0.12699999809E+01 0.  1.
</event>
<event>
 5   0  0.9726935E-05  0.1595053E+04  0.7818609E-02  0.8823593E-01
       -1   -1    0    0    0  501  0.00000000000E+00  0.00000000000E+00  0.76646603133E+03  0.76646603135E+03  0.50400001928E-02 0. -1.
        1   -1    0    0  501    0  0.00000000000E+00  0.00000000000E+00 -0.82984550276E+03  0.82984550277E+03  0.50400001928E-02 0.  1.
    10030    2    1    2    0    0  0.00000000000E+00  0.00000000000E+00 -0.63379471425E+02  0.15963115341E+04  0.15950528382E+04 0.  0.
        2    1    3    3  502    0 -0.39301105482E+03 -0.68146131921E+03  0.99566992869E+02  0.79294438952E+03  0.25500000920E-02 0. -1.
       -2    1    3    3    0  502  0.39301105482E+03  0.68146131921E+03 -0.16294646429E+03  0.80336714460E+03  0.25500000920E-02 0.  1.
</event>
<event>
 5   0  0.9432152E-05  0.1585592E+04  0.7818609E-02  0.8829449E-01
       -1   -1    0    0    0  501  0.00000000000E+00  0.00000000000E+00  0.12108249919E+04  0.12108249919E+04  0.50400001928E-02 0. -1.
        1   -1    0    0  501    0  0.00000000000E+00  0.00000000000E+00 -0.51908847817E+03  0.51908847819E+03  0.50400001928E-02 0.  1.
    10030    2    1    2    0    0  0.00000000000E+00  0.00000000000E+00  0.69173651369E+03  0.17299134701E+04  0.15855917537E+04 0.  0.
        4    1    3    3  502    0  0.40537337931E+03  0.85491354274E+02 -0.39159020723E+03  0.57007091805E+03  0.12699999809E+01 0.  1.
       -4    1    3    3    0  502 -0.40537337931E+03 -0.85491354274E+02  0.10833267209E+04  0.11598425520E+04  0.12699999809E+01 0. -1.
</event>
<event>
 5   0  0.9673017E-05  0.1582950E+04  0.7818609E-02  0.8831092E-01
        1   -1    0    0  501    0  0.00000000000E+00  0.00000000000E+00  0.19086274922E+04  0.19086274922E+04  0.50400001928E-02 0. -1.
       -1   -1    0    0    0  501  0.00000000000E+00  0.00000000000E+00 -0.32821102910E+03  0.32821102913E+03  0.50400001928E-02 0.  1.
    10030    2    1    2    0    0  0.00000000000E+00  0.00000000000E+00  0.15804164631E+04  0.22368385214E+04  0.15829498962E+04 0.  0.
        1    1    3    3  502    0 -0.60864108969E+02  0.53642252767E+02 -0.32231989472E+03  0.33237335273E+03  0.50400001928E-02 0.  1.
       -1    1    3    3    0  502  0.60864108969E+02 -0.53642252767E+02  0.19027363578E+04  0.19044651686E+04  0.50400001928E-02 0. -1.
</event>
<event>
 5   0  0.6838750E-05  0.1531262E+04  0.7818609E-02  0.8863926E-01
        3   -1    0    0  501    0  0.00000000000E+00  0.00000000000E+00  0.44714296690E+03  0.44714297830E+03  0.10100000352E+00 0. -1.
       -3   -1    0    0    0  501  0.00000000000E+00  0.00000000000E+00 -0.13109691005E+04  0.13109691044E+04  0.10100000352E+00 0.  1.
    10030    2    1    2    0    0  0.00000000000E+00  0.00000000000E+00 -0.86382613358E+03  0.17581120827E+04  0.15312617367E+04 0.  0.
        4    1    3    3  502    0  0.94159355742E+02 -0.75836269611E+03 -0.37794958638E+03  0.85254176782E+03  0.12699999809E+01 0. -1.
       -4    1    3    3    0  502 -0.94159355742E+02  0.75836269611E+03 -0.48587654720E+03  0.90557031486E+03  0.12699999809E+01 0.  1.
</event>
<event>
 5   0  0.9432152E-05  0.1601266E+04  0.7818609E-02  0.8819771E-01
        1   -1    0    0  501    0  0.00000000000E+00  0.00000000000E+00  0.31928367968E+03  0.31928367972E+03  0.50400001928E-02 0.  1.
       -1   -1    0    0    0  501  0.00000000000E+00  0.00000000000E+00 -0.20076595454E+04  0.20076595454E+04  0.50400001928E-02 0. -1.
    10030    2    1    2    0    0  0.00000000000E+00  0.00000000000E+00 -0.16883758657E+04  0.23269432251E+04  0.16012656585E+04 0.  0.
        4    1    3    3  502    0  0.44136650876E+03  0.22373828265E+02 -0.18143556050E+04  0.18674027036E+04  0.12699999809E+01 0. -1.
       -4    1    3    3    0  502 -0.44136650876E+03 -0.22373828265E+02  0.12597973930E+03  0.45954052146E+03  0.12699999809E+01 0.  1.
</event>
<event>
 5   0  0.1858913E-04  0.1605776E+04  0.7818609E-02  0.8817007E-01
        2   -1    0    0  501    0  0.00000000000E+00  0.00000000000E+00  0.14864722068E+04  0.14864722068E+04  0.25500000920E-02 0.  1.
       -2   -1    0    0    0  501  0.00000000000E+00  0.00000000000E+00 -0.43366399817E+03  0.43366399818E+03  0.25500000920E-02 0. -1.
    10030    2    1    2    0    0  0.00000000000E+00  0.00000000000E+00  0.10528082087E+04  0.19201362050E+04  0.16057764233E+04 0.  0.
        4    1    3    3  502    0  0.61660187589E+03  0.47862392403E+03  0.75122483017E+03  0.10833370170E+04  0.12699999809E+01 0. -1.
       -4    1    3    3    0  502 -0.61660187589E+03 -0.47862392403E+03  0.30158337849E+03  0.83679918803E+03  0.12699999809E+01 0.  1.
</event>
<event>
 5   0  0.1858913E-04  0.1595182E+04  0.7818609E-02  0.8823513E-01
       -2   -1    0    0    0  501  0.00000000000E+00  0.00000000000E+00  0.51100615351E+03  0.51100615352E+03  0.25500000920E-02 0. -1.
        2   -1    0    0  501    0  0.00000000000E+00  0.00000000000E+00 -0.12448994855E+04  0.12448994855E+04  0.25500000920E-02 0.  1.
    10030    2    1    2    0    0  0.00000000000E+00  0.00000000000E+00 -0.73389333198E+03  0.17559056390E+04  0.15951818675E+04 0.  0.
        4    1    3    3  502    0  0.37665124535E+03  0.61683521346E+03 -0.73827491124E+03  0.10331521179E+04  0.12699999809E+01 0.  1.
       -4    1    3    3    0  502 -0.37665124535E+03 -0.61683521346E+03  0.43815792643E+01  0.72275352115E+03  0.12699999809E+01 0. -1.
</event>
<event>
 5   0  0.9673017E-05  0.1597541E+04  0.7818609E-02  0.8822060E-01
       -1   -1    0    0    0  501  0.00000000000E+00  0.00000000000E+00  0.48748512926E+03  0.48748512928E+03  0.50400001928E-02 0. -1.
        1   -1    0    0  501    0  0.00000000000E+00  0.00000000000E+00 -0.13088284808E+04  0.13088284808E+04  0.50400001928E-02 0.  1.
    10030    2    1    2    0    0  0.00000000000E+00  0.00000000000E+00 -0.82134335153E+03  0.17963136101E+04  0.15975411371E+04 0.  0.
        1    1    3    3  502    0  0.72231516890E+03  0.33961128281E+03 -0.37584366053E+03  0.88223210314E+03  0.50400001928E-02 0. -1.
       -1    1    3    3    0  502 -0.72231516890E+03 -0.33961128281E+03 -0.44549969100E+03  0.91408150694E+03  0.50400001928E-02 0.  1.
</event>
<event>
 5   0  0.9432152E-05  0.1605819E+04  0.7818609E-02  0.8816981E-01
        1   -1    0    0  501    0  0.00000000000E+00  0.00000000000E+00  0.11348990262E+04  0.11348990262E+04  0.50400001928E-02 0.  1.
       -1   -1    0    0    0  501  0.00000000000E+00  0.00000000000E+00 -0.56803634637E+03  0.56803634639E+03  0.50400001928E-02 0. -1.
    10030    2    1    2    0    0  0.00000000000E+00  0.00000000000E+00  0.56686267980E+03  0.17029353726E+04  0.16058192879E+04 0.  0.
        4    1    3    3  502    0 -0.27990904410E+03  0.28764450575E+03 -0.45401920321E+03  0.60598967354E+03  0.12699999809E+01 0. -1.
       -4    1    3    3    0  502  0.27990904410E+03 -0.28764450575E+03  0.10208818830E+04  0.10969456990E+04  0.12699999809E+01 0.  1.
</event>
<event>
 5   0  0.1858913E-04  0.1600447E+04  0.7818609E-02  0.8820273E-01
       -2   -1    0    0    0  501  0.00000000000E+00  0.00000000000E+00  0.13625481147E+04  0.13625481147E+04  0.25500000920E-02 0.  1.
        2   -1    0    0  501    0  0.00000000000E+00  0.00000000000E+00 -0.46997082806E+03  0.46997082807E+03  0.25500000920E-02 0. -1.
    10030    2    1    2    0    0  0.00000000000E+00  0.00000000000E+00  0.89257728663E+03  0.18325189428E+04  0.16004472697E+04 0.  0.
        4    1    3    3  502    0  0.18541172448E+03  0.41279332961E+03 -0.30939717763E+03  0.54818251246E+03  0.12699999809E+01 0. -1.
       -4    1    3    3    0  502 -0.18541172448E+03 -0.41279332961E+03  0.12019744643E+04  0.12843364303E+04  0.12699999809E+01 0.  1.
</event>
<event>
 5   0  0.1858913E-04  0.1602230E+04  0.7818609E-02  0.8819179E-01
        2   -1    0    0  501    0  0.00000000000E+00  0.00000000000E+00  0.10996969896E+04  0.10996969897E+04  0.25500000920E-02 0. -1.
       -2   -1    0    0    0  501  0.00000000000E+00  0.00000000000E+00 -0.58360187012E+03  0.58360187013E+03  0.25500000920E-02 0.  1.
    10030    2    1    2    0    0  0.00000000000E+00  0.00000000000E+00  0.51609511953E+03  0.16832988598E+04  0.16022299707E+04 0.  0.
        4    1    3    3  502    0 -0.28773794773E+03 -0.74357215363E+03  0.34004084273E+03  0.86678836046E+03  0.12699999809E+01 0.  1.
       -4    1    3    3    0  502  0.28773794773E+03  0.74357215363E+03  0.17605427680E+03  0.81651049931E+03  0.12699999809E+01 0. -1.
</event>
<event>
 5   0  0.1835088E-04  0.1591049E+04  0.7818609E-02  0.8826066E-01
        2   -1    0    0  501    0  0.00000000000E+00  0.00000000000E+00  0.85174931961E+03  0.85174931961E+03  0.25500000920E-02 0.  1.
       -2   -1    0    0    0  501  0.00000000000E+00  0.00000000000E+00 -0.74301086091E+03  0.74301086092E+03  0.25500000920E-02 0. -1.
    10030    2    1    2    0    0  0.00000000000E+00  0.00000000000E+00  0.10873845869E+03  0.15947601805E+04  0.15910487048E+04 0.  0.
        5    1    3    3  502    0 -0.39631085891E+03 -0.29062265084E+03 -0.57264023033E+03  0.75462755414E+03  0.46999998093E+01 0. -1.
       -5    1    3    3    0  502  0.39631085891E+03  0.29062265084E+03  0.68137868902E+03  0.84013262639E+03  0.46999998093E+01 0.  1.
</event>
<event>
 5   0  0.1774934E-04  0.1563834E+04  0.7818609E-02  0.8843079E-01
       -2   -1    0    0    0  501  0.00000000000E+00  0.00000000000E+00  0.48814706121E+03  0.48814706121E+03  0.25500000920E-02 0. -1.
        2   -1    0    0  501    0  0.00000000000E+00  0.00000000000E+00 -0.12524802830E+04  0.12524802830E+04  0.25500000920E-02 0.  1.
    10030    2    1    2    0    0  0.00000000000E+00  0.00000000000E+00 -0.76433322175E+03  0.17406273442E+04  0.15638344789E+04 0.  0.
        1    1    3    3  502    0 -0.44165570844E+03  0.69131816927E+00 -0.11003512757E+04  0.11856783597E+04  0.50400001928E-02 0.  1.
       -1    1    3    3    0  502  0.44165570844E+03 -0.69131816927E+00  0.33601805397E+03  0.55494898445E+03  0.50400001928E-02 0. -1.
</event>
<event>
 5   0  0.9616567E-05  0.1607664E+04  0.7818609E-02  0.8815854E-01
        1   -1    0    0  501    0  0.00000000000E+00  0.00000000000E+00  0.82828493786E+03  0.82828493788E+03  0.50400001928E-02 0. -1.
       -1   -1    0    0    0  501  0.00000000000E+00  0.00000000000E+00 -0.78010072947E+03  0.78010072949E+03  0.50400001928E-02 0.  1.
    10030    2    1    2    0    0  0.00000000000E+00  0.00000000000E+00  0.48184208391E+02  0.16083856674E+04  0.16076637512E+04 0.  0.
        5    1    3    3  502    0 -0.16286888773E+03  0.72361801809E+03 -0.28584417442E+03  0.79490772593E+03  0.46999998093E+01 0.  1.
       -5    1    3    3    0  502  0.16286888773E+03 -0.72361801809E+03  0.33402838281E+03  0.81347794144E+03  0.46999998093E+01 0. -1.
</event>
<event>
 5   0  0.1835088E-04  0.1606843E+04  0.7818609E-02  0.8816355E-01
        2   -1    0    0  501    0  0.00000000000E+00  0.00000000000E+00  0.10799424113E+04  0.10799424113E+04  0.25500000920E-02 0.  1.
       -2   -1    0    0    0  501  0.00000000000E+00  0.00000000000E+00 -0.59770392705E+03  0.59770392705E+03  0.25500000920E-02 0. -1.
    10030    2    1    2    0    0  0.00000000000E+00  0.00000000000E+00  0.48223848426E+03  0.16776463384E+04  0.16068426435E+04 0.  0.
        5    1    3    3  502    0  0.80296953600E+03 -0.25895674910E+02  0.24712315532E+03  0.84054899061E+03  0.46999998093E+01 0.  1.
       -5    1    3    3    0  502 -0.80296953600E+03  0.25895674910E+02  0.23511532894E+03  0.83709734775E+03  0.46999998093E+01 0. -1.
</event>
<event>
 5   0  0.9726935E-05  0.1545147E+04  0.7818609E-02  0.8854974E-01
        1   -1    0    0  501    0  0.00000000000E+00  0.00000000000E+00  0.14066476984E+04  0.14066476984E+04  0.50400001928E-02 0. -1.
       -1   -1    0    0    0  501  0.00000000000E+00  0.00000000000E+00 -0.42432048047E+03  0.42432048050E+03  0.50400001928E-02 0.  1.
    10030    2    1    2    0    0  0.00000000000E+00  0.00000000000E+00  0.98232721790E+03  0.18309681789E+04  0.15451465008E+04 0.  0.
        2    1    3    3  502    0  0.58350623700E+03 -0.44141120564E+03  0.19718805799E+03  0.75776415283E+03  0.25500000920E-02 0.  1.
       -2    1    3    3    0  502 -0.58350623700E+03  0.44141120564E+03  0.78513915991E+03  0.10732040260E+04  0.25500000920E-02 0. -1.
</event>
<event>
 5   0  0.1835088E-04  0.1596818E+04  0.7818609E-02  0.8822505E-01
        2   -1    0    0  501    0  0.00000000000E+00  0.00000000000E+00  0.51598188934E+03  0.51598188935E+03  0.25500000920E-02 0. -1.
       -2   -1    0    0    0  501  0.00000000000E+00  0.00000000000E+00 -0.12354252261E+04  0.12354252261E+04  0.25500000920E-02 0.  1.
    10030    2    1    2    0    0  0.00000000000E+00  0.00000000000E+00 -0.71944333679E+03  0.17514071155E+04  0.15968181391E+04 0.  0.
        5    1    3    3  502    0  0.35520543762E+03 -0.49270314463E+03  0.20862064785E+03  0.64223979662E+03  0.46999998093E+01 0. -1.
       -5    1    3    3    0  502 -0.35520543762E+03  0.49270314463E+03 -0.92806398465E+03  0.11091673189E+04  0.46999998093E+01 0.  1.
</event>
<event>
 5   0  0.9939872E-05  0.1615675E+04  0.7818609E-02  0.8810976E-01
        1   -1    0    0  501    0  0.00000000000E+00  0.00000000000E+00  0.11979978453E+04  0.11979978453E+04  0.50400001928E-02 0.  1.
       -1   -1    0    0    0  501  0.00000000000E+00  0.00000000000E+00 -0.54474343133E+03  0.54474343135E+03  0.50400001928E-02 0. -1.
    10030    2    1    2    0    0  0.00000000000E+00  0.00000000000E+00  0.65325441396E+03  0.17427412766E+04  0.16156750379E+04 0.  0.
        3    1    3    3  502    0  0.15532798785E+03 -0.18756662240E+03  0.11574600771E+04  0.11828025456E+04  0.10100000352E+00 0.  1.
       -3    1    3    3    0  502 -0.15532798785E+03  0.18756662240E+03 -0.50420566310E+03  0.55993873107E+03  0.10100000352E+00 0. -1.
</event>
<event>
 5   0  0.9432152E-05  0.1599822E+04  0.7818609E-02  0.8820657E-01
       -1   -1    0    0    0  501  0.00000000000E+00  0.00000000000E+00  0.33392762702E+03  0.33392762706E+03  0.50400001928E-02 0. -1.
        1   -1    0    0  501    0  0.00000000000E+00  0.00000000000E+00 -0.19161568118E+04  0.19161568118E+04  0.50400001928E-02 0.  1.
    10030    2    1    2    0    0  0.00000000000E+00  0.00000000000E+00 -0.15822291848E+04  0.22500844389E+04  0.15998221116E+04 0.  0.
        4    1    3    3  502    0 -0.76409384475E+03 -0.90958667771E+02 -0.48380020695E+03  0.90894286727E+03  0.12699999809E+01 0. -1.
       -4    1    3    3    0  502  0.76409384475E+03  0.90958667771E+02 -0.10984289779E+04  0.13411415716E+04  0.12699999809E+01 0.  1.
</event>
<event>
 5   0  0.9939872E-05  0.1603419E+04  0.7818609E-02  0.8818450E-01
        1   -1    0    0  501    0  0.00000000000E+00  0.00000000000E+00  0.94983542325E+03  0.94983542326E+03  0.50400001928E-02 0. -1.
       -1   -1    0    0    0  501  0.00000000000E+00  0.00000000000E+00 -0.67668363286E+03  0.67668363288E+03  0.50400001928E-02 0.  1.
    10030    2    1    2    0    0  0.00000000000E+00  0.00000000000E+00  0.27315179039E+03  0.16265190561E+04  0.16034189532E+04 0.  0.
        3    1    3    3  502    0 -0.58008388901E+03 -0.47788287489E+03  0.41964576476E+03  0.86079726910E+03  0.10100000352E+00 0. -1.
       -3    1    3    3    0  502  0.58008388901E+03  0.47788287489E+03 -0.14649397438E+03  0.76572178703E+03  0.10100000352E+00 0.  1.
</event>
<event>
 5   0  0.9939872E-05  0.1599295E+04  0.7818609E-02  0.8820981E-01
       -1   -1    0    0    0  501  0.00000000000E+00  0.00000000000E+00  0.57107456224E+03  0.57107456226E+03  0.50400001928E-02 0. -1.
        1   -1    0    0  501    0  0.00000000000E+00  0.00000000000E+00 -0.11197070947E+04  0.11197070947E+04  0.50400001928E-02 0.  1.
    10030    2    1    2    0    0  0.00000000000E+00  0.00000000000E+00 -0.54863253242E+03  0.16907816569E+04  0.15992951434E+04 0.  0.
        3    1    3    3  502    0  0.29090061088E+03 -0.36432773839E+03  0.41252353456E+03  0.62252192181E+03  0.10100000352E+00 0. -1.
       -3    1    3    3    0  502 -0.29090061088E+03  0.36432773839E+03 -0.96115606699E+03  0.10682597351E+04  0.10100000352E+00 0.  1.
</event>
<event>
 5   0  0.1832646E-04  0.1599599E+04  0.7818609E-02  0.8820794E-01
        2   -1    0    0  501    0  0.00000000000E+00  0.00000000000E+00  0.20352341383E+04  0.20352341383E+04  0.25500000920E-02 0.  1.
       -2   -1    0    0    0  501  0.00000000000E+00  0.00000000000E+00 -0.31430249394E+03  0.31430249395E+03  0.25500000920E-02 0. -1.
    10030    2    1    2    0    0  0.00000000000E+00  0.00000000000E+00  0.17209316443E+04  0.23495366322E+04  0.15995989065E+04 0.  0.
        2    1    3    3  502    0  0.22969199732E+03 -0.41994678126E+03 -0.80691712243E+02  0.48541205708E+03  0.25500000920E-02 0. -1.
       -2    1    3    3    0  502 -0.22969199732E+03  0.41994678126E+03  0.18016233565E+04  0.18641245751E+04  0.25500000920E-02 0.  1.
</event>
<event>
 5   0  0.9616567E-05  0.1593645E+04  0.7818609E-02  0.8824462E-01
        1   -1    0    0  501    0  0.00000000000E+00  0.00000000000E+00  0.65495730951E+03  0.65495730953E+03  0.50400001928E-02 0.  1.
       -1   -1    0    0    0  501  0.00000000000E+00  0.00000000000E+00 -0.96941569922E+03  0.96941569923E+03  0.50400001928E-02 0. -1.
    10030    2    1    2    0    0  0.00000000000E+00  0.00000000000E+00 -0.31445838971E+03  0.16243730088E+04  0.15936447511E+04 0.  0.
        5    1    3    3  502    0 -0.73278179974E+02 -0.12593199139E+03 -0.95570829275E+03  0.96676211601E+03  0.46999998093E+01 0. -1.
       -5    1    3    3    0  502  0.73278179974E+02  0.12593199139E+03  0.64124990304E+03  0.65761089275E+03  0.46999998093E+01 0.  1.
</event>
<event>
 5   0  0.9726935E-05  0.1599058E+04  0.7818609E-02  0.8821127E-01
        1   -1    0    0  501    0  0.00000000000E+00  0.00000000000E+00  0.78951262915E+03  0.78951262916E+03  0.50400001928E-02 0. -1.
       -1   -1    0    0    0  501  0.00000000000E+00  0.00000000000E+00 -0.80967259396E+03  0.80967259398E+03  0.50400001928E-02 0.  1.
    10030    2    1    2    0    0  0.00000000000E+00  0.00000000000E+00 -0.20159964815E+02  0.15991852231E+04  0.15990581458E+04 0.  0.
        2    1    3    3  502    0 -0.44744414243E+03 -0.61641608239E+03 -0.25314598258E+03  0.80265679822E+03  0.25500000920E-02 0.  1.
       -2    1    3    3    0  502  0.44744414243E+03  0.61641608239E+03  0.23298601777E+03  0.79652842492E+03  0.25500000920E-02 0. -1.
</event>
<event>
 5   0  0.9939872E-05  0.1571047E+04  0.7818609E-02  0.8838535E-01
       -1   -1    0    0    0  501  0.00000000000E+00  0.00000000000E+00  0.71938744927E+03  0.71938744928E+03  0.50400001928E-02 0. -1.
        1   -1    0    0  501    0  0.00000000000E+00  0.00000000000E+00 -0.85773952920E+03  0.85773952921E+03  0.50400001928E-02 0.  1.
    10030    2    1    2    0    0  0.00000000000E+00  0.00000000000E+00 -0.13835207993E+03  0.15771269785E+04  0.15710468511E+04 0.  0.
        3    1    3    3  502    0  0.81744839768E+02 -0.21783173809E+03  0.68400366627E+03  0.72249146059E+03  0.10100000352E+00 0. -1.
       -3    1    3    3    0  502 -0.81744839768E+02  0.21783173809E+03 -0.82235574621E+03  0.85463551791E+03  0.10100000352E+00 0.  1.
</event>
<event>
 5   0  0.1774934E-04  0.1595836E+04  0.7818609E-02  0.8823110E-01
        2   -1    0    0  501    0  0.00000000000E+00  0.00000000000E+00  0.76354230507E+03  0.76354230507E+03  0.25500000920E-02 0.  1.
       -2   -1    0    0    0  501  0.00000000000E+00  0.00000000000E+00 -0.83384101138E+03  0.83384101138E+03  0.25500000920E-02 0. -1.
    10030    2    1    2    0    0  0.00000000000E+00  0.00000000000E+00 -0.70298706315E+02  0.15973833165E+04  0.15958356907E+04 0.  0.
        1    1    3    3  502    0 -0.44054091627E+03 -0.45921861647E+03  0.44668516071E+03  0.77748676480E+03  0.50400001928E-02 0.  1.
       -1    1    3    3    0  502  0.44054091627E+03  0.45921861647E+03 -0.51698386702E+03  0.81989655165E+03  0.50400001928E-02 0. -1.
</event>
<event>
 5   0  0.1832646E-04  0.1600924E+04  0.7818609E-02  0.8819981E-01
        2   -1    0    0  501    0  0.00000000000E+00  0.00000000000E+00  0.10572019948E+04  0.10572019948E+04  0.25500000920E-02 0. -1.
       -2   -1    0    0    0  501  0.00000000000E+00  0.00000000000E+00 -0.60607074842E+03  0.60607074842E+03  0.25500000920E-02 0.  1.
    10030    2    1    2    0    0  0.00000000000E+00  0.00000000000E+00  0.45113124637E+03  0.16632727432E+04  0.16009237386E+04 0.  0.
        2    1    3    3  502    0  0.54522139927E+03  0.55767960128E+03  0.41276705813E+03  0.88241121717E+03  0.25500000920E-02 0. -1.
       -2    1    3    3    0  502 -0.54522139927E+03 -0.55767960128E+03  0.38364188236E+02  0.78086152604E+03  0.25500000920E-02 0.  1.
</event>
<event>
 5   0  0.9939872E-05  0.1594761E+04  0.7818609E-02  0.8823773E-01
       -1   -1    0    0    0  501  0.00000000000E+00  0.00000000000E+00  0.50186540656E+03  0.50186540658E+03  0.50400001928E-02 0. -1.
        1   -1    0    0  501    0  0.00000000000E+00  0.00000000000E+00 -0.12669045171E+04  0.12669045171E+04  0.50400001928E-02 0.  1.
    10030    2    1    2    0    0  0.00000000000E+00  0.00000000000E+00 -0.76503911055E+03  0.17687699237E+04  0.15947608605E+04 0.  0.
        3    1    3    3  502    0 -0.46081767668E+03 -0.36168569145E+03 -0.98251385507E+03  0.11438981406E+04  0.10100000352E+00 0.  1.
       -3    1    3    3    0  502  0.46081767668E+03  0.36168569145E+03  0.21747474453E+03  0.62487178305E+03  0.10100000352E+00 0. -1.
</event>
<event>
 5   0  0.1774934E-04  0.1599192E+04  0.7818609E-02  0.8821044E-01
       -2   -1    0    0    0  501  0.00000000000E+00  0.00000000000E+00  0.30059586706E+03  0.30059586707E+03  0.25500000920E-02 0.  1.
        2   -1    0    0  501    0  0.00000000000E+00  0.00000000000E+00 -0.21269549606E+04  0.21269549606E+04  0.25500000920E-02 0. -1.
    10030    2    1    2    0    0  0.00000000000E+00  0.00000000000E+00 -0.18263590935E+04  0.24275508277E+04  0.15991921343E+04 0.  0.
        1    1    3    3  502    0 -0.37622373789E+02  0.32272959392E+03 -0.20222278908E+04  0.20481639281E+04  0.50400001928E-02 0. -1.
       -1    1    3    3    0  502  0.37622373789E+02 -0.32272959392E+03  0.19586879730E+03  0.37938689959E+03  0.50400001928E-02 0.  1.
</event>
<event>
 5   0  0.9673017E-05  0.1601755E+04  0.7818609E-02  0.8819471E-01
       -1   -1    0    0    0  501  0.00000000000E+00  0.00000000000E+00  0.38233950787E+03  0.38233950790E+03  0.50400001928E-02 0. -1.
        1   -1    0    0  501    0  0.00000000000E+00  0.00000000000E+00 -0.16775784868E+04  0.16775784868E+04  0.50400001928E-02 0.  1.
    10030    2    1    2    0    0  0.00000000000E+00  0.00000000000E+00 -0.12952389790E+04  0.20599179947E+04  0.16017547042E+04 0.  0.
        1    1    3    3  502    0  0.77548316663E+03  0.90830910494E+02 -0.41835763227E+03  0.88580331030E+03  0.50400001928E-02 0. -1.
       -1    1    3    3    0  502 -0.77548316663E+03 -0.90830910494E+02 -0.87688134669E+03  0.11741146844E+04  0.50400001928E-02 0.  1.
</event>
<event>
 5   0  0.9939872E-05  0.1598369E+04  0.7818609E-02  0.8821551E-01
       -1   -1    0    0    0  501  0.00000000000E+00  0.00000000000E+00  0.77610745398E+03  0.77610745400E+03  0.50400001928E-02 0. -1.
        1   -1    0    0  501    0  0.00000000000E+00  0.00000000000E+00 -0.82294736618E+03  0.82294736620E+03  0.50400001928E-02 0.  1.
    10030    2    1    2    0    0  0.00000000000E+00  0.00000000000E+00 -0.46839912202E+02  0.15990548202E+04  0.15983686498E+04 0.  0.
        3    1    3    3  502    0 -0.65667187674E+03 -0.17142599515E+03 -0.44560911858E+03  0.81189428023E+03  0.10100000352E+00 0.  1.
       -3    1    3    3    0  502  0.65667187674E+03  0.17142599515E+03  0.39876920637E+03  0.78716053996E+03  0.10100000352E+00 0. -1.
</event>
<event>
 5   0  0.1858913E-04  0.1598806E+04  0.7818609E-02  0.8821282E-01
        2   -1    0    0  501    0  0.00000000000E+00  0.00000000000E+00  0.15296644826E+04  0.15296644826E+04  0.25500000920E-02 0. -1.
       -2   -1    0    0    0  501  0.00000000000E+00  0.00000000000E+00 -0.41776823134E+03  0.41776823135E+03  0.25500000920E-02 0.  1.
    10030    2    1    2    0    0  0.00000000000E+00  0.00000000000E+00  0.11118962512E+04  0.19474327139E+04  0.15988060863E+04 0.  0.
        4    1    3    3  502    0  0.27510764730E+01 -0.11435727422E+03  0.15196427232E+04  0.15239425099E+04  0.12699999809E+01 0. -1.
       -4    1    3    3    0  502 -0.27510764730E+01  0.11435727422E+03 -0.40774647195E+03  0.42349020399E+03  0.12699999809E+01 0.  1.
</event>
<event>
 5   0  0.6838750E-05  0.1602510E+04  0.7818609E-02  0.8819008E-01
        4   -1    0    0  501    0  0.00000000000E+00  0.00000000000E+00  0.14512051122E+04  0.14512056679E+04  0.12699999809E+01 0. -1.
       -4   -1    0    0    0  501  0.00000000000E+00  0.00000000000E+00 -0.44239587163E+03  0.44239769455E+03  0.12699999809E+01 0.  1.
    10030    2    1    2    0    0  0.00000000000E+00  0.00000000000E+00  0.10088092406E+04  0.18936033624E+04  0.16025097848E+04 0.  0.
        2    1    3    3  502    0  0.31740725873E+03  0.59727334912E+01  0.13737208681E+04  0.14099262622E+04  0.25500000920E-02 0. -1.
       -2    1    3    3    0  502 -0.31740725873E+03 -0.59727334912E+01 -0.36491162750E+03  0.48367710027E+03  0.25500000920E-02 0.  1.
</event>
<event>
 5   0  0.6838750E-05  0.1565432E+04  0.7818609E-02  0.8842070E-01
        3   -1    0    0  501    0  0.00000000000E+00  0.00000000000E+00  0.14965312356E+04  0.14965312390E+04  0.10100000352E+00 0.  1.
       -3   -1    0    0    0  501  0.00000000000E+00  0.00000000000E+00 -0.40937634075E+03  0.40937635320E+03  0.10100000352E+00 0. -1.
    10030    2    1    2    0    0  0.00000000000E+00  0.00000000000E+00  0.10871548949E+04  0.19059075922E+04  0.15654322038E+04 0.  0.
        3    1    3    3  502    0 -0.12553603527E+03 -0.72829872077E+03  0.85746050961E+03  0.11319968457E+04  0.10100000352E+00 0. -1.
       -3    1    3    3    0  502  0.12553603527E+03  0.72829872077E+03  0.22969438525E+03  0.77391074657E+03  0.10100000352E+00 0.  1.
</event>
<event>
 5   0  0.1774934E-04  0.1604155E+04  0.7818609E-02  0.8818000E-01
        2   -1    0    0  501    0  0.00000000000E+00  0.00000000000E+00  0.91933818805E+03  0.91933818806E+03  0.25500000920E-02 0. -1.
       -2   -1    0    0    0  501  0.00000000000E+00  0.00000000000E+00 -0.69977318812E+03  0.69977318813E+03  0.25500000920E-02 0.  1.
    10030    2    1    2    0    0  0.00000000000E+00  0.00000000000E+00  0.21956499993E+03  0.16191113762E+04  0.16041548738E+04 0.  0.
        1    1    3    3  502    0 -0.43258978927E+03  0.47956825713E+03  0.58983082842E+03  0.87465424323E+03  0.50400001928E-02 0.  1.
       -1    1    3    3    0  502  0.43258978927E+03 -0.47956825713E+03 -0.37026582849E+03  0.74445713295E+03  0.50400001928E-02 0. -1.
</event>
<event>
 5   0  0.1835088E-04  0.1606221E+04  0.7818609E-02  0.8816735E-01
       -2   -1    0    0    0  501  0.00000000000E+00  0.00000000000E+00  0.63589313004E+03  0.63589313005E+03  0.25500000920E-02 0.  1.
        2   -1    0    0  501    0  0.00000000000E+00  0.00000000000E+00 -0.10142998886E+04  0.10142998886E+04  0.25500000920E-02 0. -1.
    10030    2    1    2    0    0  0.00000000000E+00  0.00000000000E+00 -0.37840675851E+03  0.16501930186E+04  0.16062208204E+04 0.  0.
        5    1    3    3  502    0  0.67789504528E+03 -0.40858147107E+03 -0.32888018758E+03  0.85712588264E+03  0.46999998093E+01 0. -1.
       -5    1    3    3    0  502 -0.67789504528E+03  0.40858147107E+03 -0.49526570933E+02  0.79306713596E+03  0.46999998093E+01 0.  1.
</event>
<event>
 5   0  0.1858913E-04  0.1599941E+04  0.7818609E-02  0.8820584E-01
        2   -1    0    0  501    0  0.00000000000E+00  0.00000000000E+00  0.15217535096E+04  0.15217535096E+04  0.25500000920E-02 0.  1.
       -2   -1    0    0    0  501  0.00000000000E+00  0.00000000000E+00 -0.42053645286E+03  0.42053645287E+03  0.25500000920E-02 0. -1.
    10030    2    1    2    0    0  0.00000000000E+00  0.00000000000E+00  0.11012170568E+04  0.19422899625E+04  0.15999410278E+04 0.  0.
        4    1    3    3  502    0 -0.78749720537E+02  0.74540917865E+03  0.21131397602E+03  0.77877568751E+03  0.12699999809E+01 0. -1.
       -4    1    3    3    0  502  0.78749720537E+02 -0.74540917865E+03  0.88990308076E+03  0.11635142750E+04  0.12699999809E+01 0.  1.
</event>
<event>
 5   0  0.9939872E-05  0.1604246E+04  0.7818609E-02  0.8817944E-01
       -1   -1    0    0    0  501  0.00000000000E+00  0.00000000000E+00  0.30536231175E+03  0.30536231180E+03  0.50400001928E-02 0.  1.
        1   -1    0    0  501    0  0.00000000000E+00  0.00000000000E+00 -0.21070084702E+04  0.21070084702E+04  0.50400001928E-02 0. -1.
    10030    2    1    2    0    0  0.00000000000E+00  0.00000000000E+00 -0.18016461585E+04  0.24123707820E+04  0.16042455889E+04 0.  0.
        3    1    3    3  502    0  0.27902949841E+03 -0.52537736024E+03 -0.17099452338E+04  0.18104672172E+04  0.10100000352E+00 0. -1.
       -3    1    3    3    0  502 -0.27902949841E+03  0.52537736024E+03 -0.91700924698E+02  0.60190356489E+03  0.10100000352E+00 0.  1.
</event>
<event>
 5   0  0.9939872E-05  0.1594540E+04  0.7818609E-02  0.8823910E-01
        1   -1    0    0  501    0  0.00000000000E+00  0.00000000000E+00  0.56217559353E+03  0.56217559356E+03  0.50400001928E-02 0.  1.
       -1   -1    0    0    0  501  0.00000000000E+00  0.00000000000E+00 -0.11306771002E+04  0.11306771002E+04  0.50400001928E-02 0. -1.
    10030    2    1    2    0    0  0.00000000000E+00  0.00000000000E+00 -0.56850150665E+03  0.16928526938E+04  0.15945395196E+04 0.  0.
        3    1    3    3  502    0 -0.23679267245E+02 -0.22071585731E+03 -0.10972068823E+04  0.11194369791E+04  0.10100000352E+00 0. -1.
       -3    1    3    3    0  502  0.23679267245E+02  0.22071585731E+03  0.52870537566E+03  0.57341571466E+03  0.10100000352E+00 0.  1.
</event>
<event>
 5   0  0.1914170E-04  0.1606724E+04  0.7818609E-02  0.8816428E-01
       -2   -1    0    0    0  501  0.00000000000E+00  0.00000000000E+00  0.46207724050E+03  0.46207724051E+03  0.25500000920E-02 0.  1.
        2   -1    0    0  501    0  0.00000000000E+00  0.00000000000E+00 -0.13967161351E+04  0.13967161351E+04  0.25500000920E-02 0. -1.
    10030    2    1    2    0    0  0.00000000000E+00  0.00000000000E+00 -0.93463889462E+03  0.18587933756E+04  0.16067242918E+04 0.  0.
        3    1    3    3  502    0  0.17236704300E+03  0.23983586939E+02 -0.13746476834E+04  0.13856196714E+04  0.10100000352E+00 0. -1.
       -3    1    3    3    0  502 -0.17236704300E+03 -0.23983586939E+02  0.44000878882E+03  0.47317370425E+03  0.10100000352E+00 0.  1.
</event>
<event>
 5   0  0.1858913E-04  0.1599913E+04  0.7818609E-02  0.8820601E-01
       -2   -1    0    0    0  501  0.00000000000E+00  0.00000000000E+00  0.86823773648E+03  0.86823773648E+03  0.25500000920E-02 0. -1.
        2   -1    0    0  501    0  0.00000000000E+00  0.00000000000E+00 -0.73704536180E+03  0.73704536180E+03  0.25500000920E-02 0.  1.
    10030    2    1    2    0    0  0.00000000000E+00  0.00000000000E+00  0.13119237468E+03  0.16052830983E+04  0.15999132434E+04 0.  0.
        4    1    3    3  502    0 -0.26146609699E+03  0.61612966066E+03 -0.37399380132E+03  0.76671588932E+03  0.12699999809E+01 0.  1.
       -4    1    3    3    0  502  0.26146609699E+03 -0.61612966066E+03  0.50518617600E+03  0.83856720896E+03  0.12699999809E+01 0. -1.
</event>
<event>
 5   0  0.9726935E-05  0.1602686E+04  0.7818609E-02  0.8818900E-01
       -1   -1    0    0    0  501  0.00000000000E+00  0.00000000000E+00  0.71352095664E+03  0.71352095666E+03  0.50400001928E-02 0. -1.
        1   -1    0    0  501    0  0.00000000000E+00  0.00000000000E+00 -0.89997437934E+03  0.89997437935E+03  0.50400001928E-02 0.  1.
    10030    2    1    2    0    0  0.00000000000E+00  0.00000000000E+00 -0.18645342270E+03  0.16134953360E+04  0.16026859706E+04 0.  0.
        2    1    3    3  502    0 -0.50797117382E+03  0.41728884110E+03  0.36810609096E+03  0.75343664933E+03  0.25500000920E-02 0. -1.
       -2    1    3    3    0  502  0.50797117382E+03 -0.41728884110E+03 -0.55455951366E+03  0.86005868668E+03  0.25500000920E-02 0.  1.
</event>
<event>
 5   0  0.9673017E-05  0.1595947E+04  0.7818609E-02  0.8823042E-01
        1   -1    0    0  501    0  0.00000000000E+00  0.00000000000E+00  0.12982923791E+04  0.12982923791E+04  0.50400001928E-02 0.  1.
       -1   -1    0    0    0  501  0.00000000000E+00  0.00000000000E+00 -0.49046117196E+03  0.49046117199E+03  0.50400001928E-02 0. -1.
    10030    2    1    2    0    0  0.00000000000E+00  0.00000000000E+00  0.80783120710E+03  0.17887535511E+04  0.15959473698E+04 0.  0.
        1    1    3    3  502    0  0.19080287403E+03 -0.51173828690E+03  0.10559921382E+04  0.11888655126E+04  0.50400001928E-02 0.  1.
       -1    1    3    3    0  502 -0.19080287403E+03  0.51173828690E+03 -0.24816093108E+03  0.59988803851E+03  0.50400001928E-02 0. -1.
</event>
<event>
 5   0  0.9726935E-05  0.1600134E+04  0.7818609E-02  0.8820466E-01
        1   -1    0    0  501    0  0.00000000000E+00  0.00000000000E+00  0.50999248699E+03  0.50999248701E+03  0.50400001928E-02 0.  1.
       -1   -1    0    0    0  501  0.00000000000E+00  0.00000000000E+00 -0.12551304205E+04  0.12551304205E+04  0.50400001928E-02 0. -1.
    10030    2    1    2    0    0  0.00000000000E+00  0.00000000000E+00 -0.74513793353E+03  0.17651229075E+04  0.16001338503E+04 0.  0.
        2    1    3    3  502    0  0.70872756366E+03 -0.94206931754E+02  0.23533965830E+02  0.71534855353E+03  0.25500000920E-02 0. -1.
       -2    1    3    3    0  502 -0.70872756366E+03  0.94206931754E+02 -0.76867189936E+03  0.10497743540E+04  0.25500000920E-02 0.  1.
</event>
<event>
 5   0  0.1858913E-04  0.1606716E+04  0.7818609E-02  0.8816433E-01
       -2   -1    0    0    0  501  0.00000000000E+00  0.00000000000E+00  0.75184687085E+03  0.75184687085E+03  0.25500000920E-02 0.  1.
        2   -1    0    0  501    0  0.00000000000E+00  0.00000000000E+00 -0.85839851650E+03  0.85839851650E+03  0.25500000920E-02 0. -1.
    10030    2    1    2    0    0  0.00000000000E+00  0.00000000000E+00 -0.10655164565E+03  0.16102453874E+04  0.16067162022E+04 0.  0.
        4    1    3    3  502    0 -0.57561091233E+03  0.12392303747E+03 -0.60100880234E+03  0.84136676604E+03  0.12699999809E+01 0. -1.
       -4    1    3    3    0  502  0.57561091233E+03 -0.12392303747E+03  0.49445715669E+03  0.76887862131E+03  0.12699999809E+01 0.  1.
</event>
<event>
 5   0  0.1858913E-04  0.1601311E+04  0.7818609E-02  0.8819743E-01
        2   -1    0    0  501    0  0.00000000000E+00  0.00000000000E+00  0.18090956211E+04  0.18090956211E+04  0.25500000920E-02 0. -1.
       -2   -1    0    0    0  501  0.00000000000E+00  0.00000000000E+00 -0.35434802247E+03  0.35434802248E+03  0.25500000920E-02 0.  1.
    10030    2    1    2    0    0  0.00000000000E+00  0.00000000000E+00  0.14547475986E+04  0.21634436435E+04  0.16013112824E+04 0.  0.
        4    1    3    3  502    0  0.91364186326E+01 -0.36261591188E+03 -0.23696771940E+03  0.43327714760E+03  0.12699999809E+01 0.  1.
       -4    1    3    3    0  502 -0.91364186326E+01  0.36261591188E+03  0.16917153180E+04  0.17301664959E+04  0.12699999809E+01 0. -1.
</event>
<event>
 5   0  0.1835088E-04  0.1596722E+04  0.7818609E-02  0.8822564E-01
        2   -1    0    0  501    0  0.00000000000E+00  0.00000000000E+00  0.21631262573E+04  0.21631262573E+04  0.25500000920E-02 0.  1.
       -2   -1    0    0    0  501  0.00000000000E+00  0.00000000000E+00 -0.29465713246E+03  0.29465713247E+03  0.25500000920E-02 0. -1.
    10030    2    1    2    0    0  0.00000000000E+00  0.00000000000E+00  0.18684691248E+04  0.24577833898E+04  0.15967223680E+04 0.  0.
        5    1    3    3  502    0 -0.42162603695E+03  0.20894633315E+03 -0.58481507324E+02  0.47420381891E+03  0.46999998093E+01 0. -1.
       -5    1    3    3    0  502  0.42162603695E+03 -0.20894633315E+03  0.19269506321E+04  0.19835795708E+04  0.46999998093E+01 0.  1.
</event>
<event>
 5   0  0.9939872E-05  0.1601555E+04  0.7818609E-02  0.8819593E-01
       -1   -1    0    0    0  501  0.00000000000E+00  0.00000000000E+00  0.86717895103E+03  0.86717895104E+03  0.50400001928E-02 0.  1.
        1   -1    0    0  501    0  0.00000000000E+00  0.00000000000E+00 -0.73946040125E+03  0.73946040127E+03  0.50400001928E-02 0. -1.
    10030    2    1    2    0    0  0.00000000000E+00  0.00000000000E+00  0.12771854977E+03  0.16066393523E+04  0.16015548634E+04 0.  0.
        3    1    3    3  502    0  0.24727081959E+03  0.32628623963E+03 -0.62653990858E+03  0.74843692829E+03  0.10100000352E+00 0. -1.
       -3    1    3    3    0  502 -0.24727081959E+03 -0.32628623963E+03  0.75425845835E+03  0.85820242402E+03  0.10100000352E+00 0.  1.
</event>
<event>
 5   0  0.9726935E-05  0.1597997E+04  0.7818609E-02  0.8821779E-01
        1   -1    0    0  501    0  0.00000000000E+00  0.00000000000E+00  0.50820364068E+03  0.50820364070E+03  0.50400001928E-02 0. -1.
       -1   -1    0    0    0  501  0.00000000000E+00  0.00000000000E+00 -0.12561870801E+04  0.12561870801E+04  0.50400001928E-02 0.  1.
    10030    2    1    2    0    0  0.00000000000E+00  0.00000000000E+00 -0.74798343944E+03  0.17643907208E+04  0.15979973060E+04 0.  0.
        2    1    3    3  502    0  0.71387082356E+03  0.63279193084E+02  0.16036922015E+02  0.71684935090E+03  0.25500000920E-02 0. -1.
       -2    1    3    3    0  502 -0.71387082356E+03 -0.63279193084E+02 -0.76402036145E+03  0.10475413699E+04  0.25500000920E-02 0.  1.
</event>
<event>
 5   0  0.1774934E-04  0.1594576E+04  0.7818609E-02  0.8823887E-01
       -2   -1    0    0    0  501  0.00000000000E+00  0.00000000000E+00  0.11690810652E+04  0.11690810653E+04  0.25500000920E-02 0.  1.
        2   -1    0    0  501    0  0.00000000000E+00  0.00000000000E+00 -0.54373319702E+03  0.54373319702E+03  0.25500000920E-02 0. -1.
    10030    2    1    2    0    0  0.00000000000E+00  0.00000000000E+00  0.62534786823E+03  0.17128142623E+04  0.15945760379E+04 0.  0.
        1    1    3    3  502    0 -0.71755342487E+03  0.20025346951E+03  0.75626631250E+01  0.74501111635E+03  0.50400001928E-02 0. -1.
       -1    1    3    3    0  502  0.71755342487E+03 -0.20025346951E+03  0.61778520511E+03  0.96780314592E+03  0.50400001928E-02 0.  1.
</event>
<event>
 5   0  0.9432152E-05  0.1602123E+04  0.7818609E-02  0.8819245E-01
       -1   -1    0    0    0  501  0.00000000000E+00  0.00000000000E+00  0.98433695876E+03  0.98433695877E+03  0.50400001928E-02 0.  1.
        1   -1    0    0  501    0  0.00000000000E+00  0.00000000000E+00 -0.65191081699E+03  0.65191081701E+03  0.50400001928E-02 0. -1.
    10030    2    1    2    0    0  0.00000000000E+00  0.00000000000E+00  0.33242614177E+03  0.16362477758E+04  0.16021234796E+04 0.  0.
        4    1    3    3  502    0 -0.74541523597E+02  0.59152971440E+03 -0.38019114310E+03  0.70711438958E+03  0.12699999809E+01 0. -1.
       -4    1    3    3    0  502  0.74541523597E+02 -0.59152971440E+03  0.71261728487E+03  0.92913338620E+03  0.12699999809E+01 0.  1.
</event>
<event>
 5   0  0.1858913E-04  0.1599234E+04  0.7818609E-02  0.8821019E-01
        2   -1    0    0  501    0  0.00000000000E+00  0.00000000000E+00  0.18313902536E+04  0.18313902536E+04  0.25500000920E-02 0.  1.
       -2   -1    0    0    0  501  0.00000000000E+00  0.00000000000E+00 -0.34912663957E+03  0.34912663958E+03  0.25500000920E-02 0. -1.
    10030    2    1    2    0    0  0.00000000000E+00  0.00000000000E+00  0.14822636140E+04  0.21805168932E+04  0.15992337228E+04 0.  0.
        4    1    3    3  502    0  0.23528940190E+02 -0.69806995738E+03  0.12718905610E+04  0.14510556463E+04  0.12699999809E+01 0.  1.
       -4    1    3    3    0  502 -0.23528940190E+02  0.69806995738E+03  0.21037305299E+03  0.72946124692E+03  0.12699999809E+01 0. -1.
</event>
<event>
 5   0  0.6838750E-05  0.1593447E+04  0.7818609E-02  0.8824584E-01
        3   -1    0    0  501    0  0.00000000000E+00  0.00000000000E+00  0.63444513490E+03  0.63444514294E+03  0.10100000352E+00 0. -1.
       -3   -1    0    0    0  501  0.00000000000E+00  0.00000000000E+00 -0.10005090107E+04  0.10005090158E+04  0.10100000352E+00 0.  1.
    10030    2    1    2    0    0  0.00000000000E+00  0.00000000000E+00 -0.36606387577E+03  0.16349541587E+04  0.15934466856E+04 0.  0.
        1    1    3    3  502    0  0.76973334014E+03 -0.14939351084E+03 -0.32799288570E+03  0.84993362629E+03  0.50400001928E-02 0. -1.
       -1    1    3    3    0  502 -0.76973334014E+03  0.14939351084E+03 -0.38070990067E+02  0.78502053242E+03  0.50400001928E-02 0.  1.
</event>
<event>
 5   0  0.1832646E-04  0.1598633E+04  0.7818609E-02  0.8821388E-01
        2   -1    0    0  501    0  0.00000000000E+00  0.00000000000E+00  0.11589650744E+04  0.11589650744E+04  0.25500000920E-02 0. -1.
       -2   -1    0    0    0  501  0.00000000000E+00  0.00000000000E+00 -0.55127351335E+03  0.55127351336E+03  0.25500000920E-02 0.  1.
    10030    2    1    2    0    0  0.00000000000E+00  0.00000000000E+00  0.60769156106E+03  0.17102385878E+04  0.15986328514E+04 0.  0.
        2    1    3    3  502    0 -0.24110278368E+03 -0.70636551643E+03  0.60986464344E+03  0.96385563152E+03  0.25500000920E-02 0. -1.
       -2    1    3    3    0  502  0.24110278368E+03  0.70636551643E+03 -0.21730823793E+01  0.74638295625E+03  0.25500000920E-02 0.  1.
</event>
<event>
 5   0  0.9432152E-05  0.1603340E+04  0.7818609E-02  0.8818499E-01
        1   -1    0    0  501    0  0.00000000000E+00  0.00000000000E+00  0.74349887932E+03  0.74349887934E+03  0.50400001928E-02 0. -1.
       -1   -1    0    0    0  501  0.00000000000E+00  0.00000000000E+00 -0.86439244846E+03  0.86439244847E+03  0.50400001928E-02 0.  1.
    10030    2    1    2    0    0  0.00000000000E+00  0.00000000000E+00 -0.12089356914E+03  0.16078913278E+04  0.16033400347E+04 0.  0.
        4    1    3    3  502    0  0.16008128557E+03 -0.43868564943E+03  0.59301789447E+03  0.75481319084E+03  0.12699999809E+01 0. -1.
       -4    1    3    3    0  502 -0.16008128557E+03  0.43868564943E+03 -0.71391146361E+03  0.85307813697E+03  0.12699999809E+01 0.  1.
</event>
<event>
 5   0  0.1858913E-04  0.1598713E+04  0.7818609E-02  0.8821339E-01
        2   -1    0    0  501    0  0.00000000000E+00  0.00000000000E+00  0.45404551147E+03  0.45404551147E+03  0.25500000920E-02 0.  1.
       -2   -1    0    0    0  501  0.00000000000E+00  0.00000000000E+00 -0.14072843185E+04  0.14072843185E+04  0.25500000920E-02 0. -1.
    10030    2    1    2    0    0  0.00000000000E+00  0.00000000000E+00 -0.95323880707E+03  0.18613298300E+04  0.15987133929E+04 0.  0.
        4    1    3    3  502    0 -0.51945799366E+03 -0.36131142560E+02 -0.11827333538E+04  0.12922855202E+04  0.12699999809E+01 0. -1.
       -4    1    3    3    0  502  0.51945799366E+03  0.36131142560E+02  0.22949454674E+03  0.56904430980E+03  0.12699999809E+01 0.  1.
</event>
<event>
 5   0  0.9939872E-05  0.1598816E+04  0.7818609E-02  0.8821275E-01
       -1   -1    0    0    0  501  0.00000000000E+00  0.00000000000E+00  0.61369958216E+03  0.61369958219E+03  0.50400001928E-02 0.  1.
        1   -1    0    0  501    0  0.00000000000E+00  0.00000000000E+00 -0.10413133174E+04  0.10413133174E+04  0.50400001928E-02 0. -1.
    10030    2    1    2    0    0  0.00000000000E+00  0.00000000000E+00 -0.42761373526E+03  0.16550128996E+04  0.15988164971E+04 0.  0.
        3    1    3    3  502    0  0.64589002182E+03  0.39083420565E+03 -0.48597076514E+03  0.89782676021E+03  0.10100000352E+00 0. -1.
       -3    1    3    3    0  502 -0.64589002182E+03 -0.39083420565E+03  0.58357029875E+02  0.75718613941E+03  0.10100000352E+00 0.  1.
</event>
<event>
 5   0  0.1835088E-04  0.1601520E+04  0.7818609E-02  0.8819615E-01
        2   -1    0    0  501    0  0.00000000000E+00  0.00000000000E+00  0.20063120322E+04  0.20063120322E+04  0.25500000920E-02 0. -1.
       -2   -1    0    0    0  501  0.00000000000E+00  0.00000000000E+00 -0.31959962681E+03  0.31959962682E+03  0.25500000920E-02 0.  1.
    10030    2    1    2    0    0  0.00000000000E+00  0.00000000000E+00  0.16867124054E+04  0.23259116591E+04  0.16015199990E+04 0.  0.
        5    1    3    3  502    0  0.36416724666E+03 -0.65099391169E+03  0.42047648749E+03  0.85629050160E+03  0.46999998093E+01 0.  1.
       -5    1    3    3    0  502 -0.36416724666E+03  0.65099391169E+03  0.12662359179E+04  0.14696211575E+04  0.46999998093E+01 0. -1.
</event>
<event>
 5   0  0.1835088E-04  0.1611205E+04  0.7818609E-02  0.8813694E-01
       -2   -1    0    0    0  501  0.00000000000E+00  0.00000000000E+00  0.74833930052E+03  0.74833930052E+03  0.25500000920E-02 0.  1.
        2   -1    0    0  501    0  0.00000000000E+00  0.00000000000E+00 -0.86724757485E+03  0.86724757485E+03  0.25500000920E-02 0. -1.
    10030    2    1    2    0    0  0.00000000000E+00  0.00000000000E+00 -0.11890827433E+03  0.16155868754E+04  0.16112050689E+04 0.  0.
        5    1    3    3  502    0  0.61218046440E+03 -0.37794203195E+03  0.30397915585E+03  0.78104450430E+03  0.46999998093E+01 0.  1.
       -5    1    3    3    0  502 -0.61218046440E+03  0.37794203195E+03 -0.42288743018E+03  0.83454237107E+03  0.46999998093E+01 0. -1.
</event>
<event>
 5   0  0.1774934E-04  0.1605543E+04  0.7818609E-02  0.8817150E-01
        2   -1    0    0  501    0  0.00000000000E+00  0.00000000000E+00  0.12868328612E+04  0.12868328612E+04  0.25500000920E-02 0.  1.
       -2   -1    0    0    0  501  0.00000000000E+00  0.00000000000E+00 -0.50079727857E+03  0.50079727858E+03  0.25500000920E-02 0. -1.
    10030    2    1    2    0    0  0.00000000000E+00  0.00000000000E+00  0.78603558263E+03  0.17876301398E+04  0.16055433907E+04 0.  0.
        1    1    3    3  502    0  0.78400624393E+02  0.73064527874E+03  0.75286366266E+03  0.10520422405E+04  0.50400001928E-02 0.  1.
       -1    1    3    3    0  502 -0.78400624393E+02 -0.73064527874E+03  0.33171919972E+02  0.73558789927E+03  0.50400001928E-02 0. -1.
</event>
<event>
 5   0  0.9726935E-05  0.1599771E+04  0.7818609E-02  0.8820689E-01
       -1   -1    0    0    0  501  0.00000000000E+00  0.00000000000E+00  0.35453565407E+03  0.35453565411E+03  0.50400001928E-02 0.  1.
        1   -1    0    0  501    0  0.00000000000E+00  0.00000000000E+00 -0.18046606882E+04  0.18046606882E+04  0.50400001928E-02 0. -1.
    10030    2    1    2    0    0  0.00000000000E+00  0.00000000000E+00 -0.14501250341E+04  0.21591963423E+04  0.15997706804E+04 0.  0.
        2    1    3    3  502    0  0.10566755920E+03  0.49131017922E+03  0.11485890340E+03  0.51550353342E+03  0.25500000920E-02 0.  1.
       -2    1    3    3    0  502 -0.10566755920E+03 -0.49131017922E+03 -0.15649839375E+04  0.16436928089E+04  0.25500000920E-02 0. -1.
</event>
<event>
 5   0  0.9939872E-05  0.1596235E+04  0.7818609E-02  0.8822864E-01
        1   -1    0    0  501    0  0.00000000000E+00  0.00000000000E+00  0.56698702718E+03  0.56698702720E+03  0.50400001928E-02 0. -1.
       -1   -1    0    0    0  501  0.00000000000E+00  0.00000000000E+00 -0.11234680692E+04  0.11234680692E+04  0.50400001928E-02 0.  1.
    10030    2    1    2    0    0  0.00000000000E+00  0.00000000000E+00 -0.55648104197E+03  0.16904550964E+04  0.15962353469E+04 0.  0.
        3    1    3    3  502    0  0.73202410608E+03  0.10228810540E+03  0.40647139345E+02  0.74025289498E+03  0.10100000352E+00 0.  1.
       -3    1    3    3    0  502 -0.73202410608E+03 -0.10228810540E+03 -0.59712818132E+03  0.95020220138E+03  0.10100000352E+00 0. -1.
</event>
<event>
 5   0  0.9673017E-05  0.1602097E+04  0.7818609E-02  0.8819261E-01
       -1   -1    0    0    0  501  0.00000000000E+00  0.00000000000E+00  0.70708648546E+03  0.70708648548E+03  0.50400001928E-02 0.  1.
        1   -1    0    0  501    0  0.00000000000E+00  0.00000000000E+00 -0.90749630130E+03  0.90749630131E+03  0.50400001928E-02 0. -1.
    10030    2    1    2    0    0  0.00000000000E+00  0.00000000000E+00 -0.20040981584E+03  0.16145827868E+04  0.16020965892E+04 0.  0.
        1    1    3    3  502    0  0.24151198819E+03 -0.73714078914E+03  0.10128776970E+03  0.78228114880E+03  0.50400001928E-02 0.  1.
       -1    1    3    3    0  502 -0.24151198819E+03  0.73714078914E+03 -0.30169758553E+03  0.83230163799E+03  0.50400001928E-02 0. -1.
</event>
<event>
 5   0  0.1858913E-04  0.1605385E+04  0.7818609E-02  0.8817246E-01
       -2   -1    0    0    0  501  0.00000000000E+00  0.00000000000E+00  0.11994463852E+04  0.11994463852E+04  0.25500000920E-02 0.  1.
        2   -1    0    0  501    0  0.00000000000E+00  0.00000000000E+00 -0.53717740496E+03  0.53717740497E+03  0.25500000920E-02 0. -1.
    10030    2    1    2    0    0  0.00000000000E+00  0.00000000000E+00  0.66226898028E+03  0.17366237902E+04  0.16053853078E+04 0.  0.
        4    1    3    3  502    0  0.66793013542E+03 -0.29738892967E+03  0.68949072103E+03  0.10049725910E+04  0.12699999809E+01 0.  1.
       -4    1    3    3    0  502 -0.66793013542E+03  0.29738892967E+03 -0.27221740750E+02  0.73165119925E+03  0.12699999809E+01 0. -1.
</event>
<event>
 5   0  0.9616567E-05  0.1598603E+04  0.7818609E-02  0.8821407E-01
       -1   -1    0    0    0  501  0.00000000000E+00  0.00000000000E+00  0.11492724469E+04  0.11492724469E+04  0.50400001928E-02 0. -1.
        1   -1    0    0  501    0  0.00000000000E+00  0.00000000000E+00 -0.55590193970E+03  0.55590193973E+03  0.50400001928E-02 0.  1.
    10030    2    1    2    0    0  0.00000000000E+00  0.00000000000E+00  0.59337050720E+03  0.17051743866E+04  0.15986028681E+04 0.  0.
        5    1    3    3  502    0 -0.21100563923E+03 -0.61331223445E+03  0.79492809944E+03  0.10259668854E+04  0.46999998093E+01 0. -1.
       -5    1    3    3    0  502  0.21100563923E+03  0.61331223445E+03 -0.20155759224E+03  0.67920750121E+03  0.46999998093E+01 0.  1.
</event>
<event>
 5   0  0.9432152E-05  0.1599520E+04  0.7818609E-02  0.8820843E-01
       -1   -1    0    0    0  501  0.00000000000E+00  0.00000000000E+00  0.10515622708E+04  0.10515622708E+04  0.50400001928E-02 0.  1.
        1   -1    0    0  501    0  0.00000000000E+00  0.00000000000E+00 -0.60825321113E+03  0.60825321115E+03  0.50400001928E-02 0. -1.
    10030    2    1    2    0    0  0.00000000000E+00  0.00000000000E+00  0.44330905964E+03  0.16598154819E+04  0.15995200879E+04 0.  0.
        4    1    3    3  502    0 -0.69612665830E+03  0.35242123495E+03  0.40383287080E+03  0.87856454041E+03  0.12699999809E+01 0.  1.
       -4    1    3    3    0  502  0.69612665830E+03 -0.35242123495E+03  0.39476188842E+02  0.78125094151E+03  0.12699999809E+01 0. -1.
</event>
<event>
 5   0  0.9726935E-05  0.1599309E+04  0.7818609E-02  0.8820973E-01
       -1   -1    0    0    0  501  0.00000000000E+00  0.00000000000E+00  0.83821698156E+03  0.83821698157E+03  0.50400001928E-02 0. -1.
        1   -1    0    0  501    0  0.00000000000E+00  0.00000000000E+00 -0.76286569823E+03  0.76286569825E+03  0.50400001928E-02 0.  1.
    10030    2    1    2    0    0  0.00000000000E+00  0.00000000000E+00  0.75351283322E+02  0.16010826798E+04  0.15993085793E+04 0.  0.
        2    1    3    3  502    0 -0.63880947902E+03  0.46665993294E+03 -0.79063916047E+02  0.79504726044E+03  0.25500000920E-02 0.  1.
       -2    1    3    3    0  502  0.63880947902E+03 -0.46665993294E+03  0.15441519937E+03  0.80603541939E+03  0.25500000920E-02 0. -1.
</event>
<event>
 5   0  0.1914170E-04  0.1597657E+04  0.7818609E-02  0.8821988E-01
        2   -1    0    0  501    0  0.00000000000E+00  0.00000000000E+00  0.13536225336E+04  0.13536225336E+04  0.25500000920E-02 0.  1.
       -2   -1    0    0    0  501  0.00000000000E+00  0.00000000000E+00 -0.47142191054E+03  0.47142191055E+03  0.25500000920E-02 0. -1.
    10030    2    1    2    0    0  0.00000000000E+00  0.00000000000E+00  0.88220062304E+03  0.18250444441E+04  0.15976574363E+04 0.  0.
        3    1    3    3  502    0  0.69352246393E+02  0.57669204135E+03 -0.18535222063E+03  0.60970394499E+03  0.10100000352E+00 0. -1.
       -3    1    3    3    0  502 -0.69352246393E+02 -0.57669204135E+03  0.10675528437E+04  0.12153404991E+04  0.10100000352E+00 0.  1.
</event>
<event>
 5   0  0.1858913E-04  0.1683382E+04  0.7818609E-02  0.8770899E-01
        2   -1    0    0  501    0  0.00000000000E+00  0.00000000000E+00  0.12589819442E+04  0.12589819442E+04  0.25500000920E-02 0. -1.
       -2   -1    0    0    0  501  0.00000000000E+00  0.00000000000E+00 -0.56271151595E+03  0.56271151596E+03  0.25500000920E-02 0.  1.
    10030    2    1    2    0    0  0.00000000000E+00  0.00000000000E+00  0.69627042826E+03  0.18216934602E+04  0.16833818799E+04 0.  0.
        4    1    3    3  502    0  0.91959890242E+02  0.40839457123E+03  0.11383359460E+04  0.12128697730E+04  0.12699999809E+01 0. -1.
       -4    1    3    3    0  502 -0.91959890242E+02 -0.40839457123E+03 -0.44206551777E+03  0.60882368722E+03  0.12699999809E+01 0.  1.
</event>
<event>
 5   0  0.1774934E-04  0.1599163E+04  0.7818609E-02  0.8821063E-01
        2   -1    0    0  501    0  0.00000000000E+00  0.00000000000E+00  0.19424755775E+04  0.19424755775E+04  0.25500000920E-02 0. -1.
       -2   -1    0    0    0  501  0.00000000000E+00  0.00000000000E+00 -0.32913167157E+03  0.32913167158E+03  0.25500000920E-02 0.  1.
    10030    2    1    2    0    0  0.00000000000E+00  0.00000000000E+00  0.16133439059E+04  0.22716072491E+04  0.15991625731E+04 0.  0.
        1    1    3    3  502    0 -0.26331301365E+02  0.20963445856E+03 -0.28876163420E+03  0.35780333293E+03  0.50400001928E-02 0.  1.
       -1    1    3    3    0  502  0.26331301365E+02 -0.20963445856E+03  0.19021055401E+04  0.19138039161E+04  0.50400001928E-02 0. -1.
</event>
<event>
 5   0  0.1914170E-04  0.1608853E+04  0.7818609E-02  0.8815128E-01
       -2   -1    0    0    0  501  0.00000000000E+00  0.00000000000E+00  0.33547101226E+03  0.33547101227E+03  0.25500000920E-02 0.  1.
        2   -1    0    0  501    0  0.00000000000E+00  0.00000000000E+00 -0.19289355711E+04  0.19289355711E+04  0.25500000920E-02 0. -1.
    10030    2    1    2    0    0  0.00000000000E+00  0.00000000000E+00 -0.15934645588E+04  0.22644065833E+04  0.16088529686E+04 0.  0.
        3    1    3    3  502    0 -0.33627390247E+03  0.39173762544E+03  0.71531316555E+02  0.52120556801E+03  0.10100000352E+00 0.  1.
       -3    1    3    3    0  502  0.33627390247E+03 -0.39173762544E+03 -0.16649958754E+04  0.17432010153E+04  0.10100000352E+00 0. -1.
</event>
<event>
 5   0  0.9616567E-05  0.1599723E+04  0.7818609E-02  0.8820718E-01
        1   -1    0    0  501    0  0.00000000000E+00  0.00000000000E+00  0.10434835269E+04  0.10434835269E+04  0.50400001928E-02 0.  1.
       -1   -1    0    0    0  501  0.00000000000E+00  0.00000000000E+00 -0.61311795307E+03  0.61311795309E+03  0.50400001928E-02 0. -1.
    10030    2    1    2    0    0  0.00000000000E+00  0.00000000000E+00  0.43036557380E+03  0.16566014800E+04  0.15997230811E+04 0.  0.
        5    1    3    3  502    0 -0.36173959271E+03  0.61702070132E+03  0.58594380498E+03  0.92462009031E+03  0.46999998093E+01 0.  1.
       -5    1    3    3    0  502  0.36173959271E+03 -0.61702070132E+03 -0.15557823118E+03  0.73198138966E+03  0.46999998093E+01 0. -1.
</event>
<event>
 5   0  0.9432152E-05  0.1599726E+04  0.7818609E-02  0.8820717E-01
       -1   -1    0    0    0  501  0.00000000000E+00  0.00000000000E+00  0.73111532776E+03  0.73111532777E+03  0.50400001928E-02 0.  1.
        1   -1    0    0  501    0  0.00000000000E+00  0.00000000000E+00 -0.87507463292E+03  0.87507463294E+03  0.50400001928E-02 0. -1.
    10030    2    1    2    0    0  0.00000000000E+00  0.00000000000E+00 -0.14395930517E+03  0.16061899607E+04  0.15997255728E+04 0.  0.
        4    1    3    3  502    0 -0.31050720614E+03 -0.30308472737E+03  0.60267593008E+03  0.74262707103E+03  0.12699999809E+01 0.  1.
       -4    1    3    3    0  502  0.31050720614E+03  0.30308472737E+03 -0.74663523524E+03  0.86356288968E+03  0.12699999809E+01 0. -1.
</event>
<event>
 5   0  0.9616567E-05  0.1599389E+04  0.7818609E-02  0.8820923E-01
       -1   -1    0    0    0  501  0.00000000000E+00  0.00000000000E+00  0.47369455228E+03  0.47369455231E+03  0.50400001928E-02 0. -1.
        1   -1    0    0  501    0  0.00000000000E+00  0.00000000000E+00 -0.13500498817E+04  0.13500498817E+04  0.50400001928E-02 0.  1.
    10030    2    1    2    0    0  0.00000000000E+00  0.00000000000E+00 -0.87635532943E+03  0.18237444340E+04  0.15993889762E+04 0.  0.
        5    1    3    3  502    0 -0.47752810599E+03 -0.64088276827E+03 -0.46888835422E+03  0.92662948011E+03  0.46999998093E+01 0. -1.
       -5    1    3    3    0  502  0.47752810599E+03  0.64088276827E+03 -0.40746697521E+03  0.89711495393E+03  0.46999998093E+01 0.  1.
</event>
<event>
 5   0  0.9673017E-05  0.1598705E+04  0.7818609E-02  0.8821344E-01
       -1   -1    0    0    0  501  0.00000000000E+00  0.00000000000E+00  0.46966712538E+03  0.46966712541E+03  0.50400001928E-02 0.  1.
        1   -1    0    0  501    0  0.00000000000E+00  0.00000000000E+00 -0.13604625300E+04  0.13604625300E+04  0.50400001928E-02 0. -1.
    10030    2    1    2    0    0  0.00000000000E+00  0.00000000000E+00 -0.89079540466E+03  0.18301296555E+04  0.15987051332E+04 0.  0.
        1    1    3    3  502    0 -0.44635068827E+03 -0.45093242552E+03  0.11118938288E+03  0.64415220888E+03  0.50400001928E-02 0.  1.
       -1    1    3    3    0  502  0.44635068827E+03  0.45093242552E+03 -0.10019847875E+04  0.11859774466E+04  0.50400001928E-02 0. -1.
</event>
<event>
 5   0  0.1858913E-04  0.1609198E+04  0.7818609E-02  0.8814917E-01
       -2   -1    0    0    0  501  0.00000000000E+00  0.00000000000E+00  0.27373664801E+03  0.27373664802E+03  0.25500000920E-02 0. -1.
        2   -1    0    0  501    0  0.00000000000E+00  0.00000000000E+00 -0.23649717679E+04  0.23649717679E+04  0.25500000920E-02 0.  1.
    10030    2    1    2    0    0  0.00000000000E+00  0.00000000000E+00 -0.20912351199E+04  0.26387084159E+04  0.16091978678E+04 0.  0.
        4    1    3    3  502    0  0.35291331497E+02 -0.28555048673E+03 -0.22777284707E+04  0.22958295141E+04  0.12699999809E+01 0.  1.
       -4    1    3    3    0  502 -0.35291331497E+02  0.28555048673E+03  0.18649335080E+03  0.34287890186E+03  0.12699999809E+01 0. -1.
</event>
<event>
 5   0  0.1774934E-04  0.1578480E+04  0.7818609E-02  0.8833879E-01
       -2   -1    0    0    0  501  0.00000000000E+00  0.00000000000E+00  0.34216697498E+03  0.34216697499E+03  0.25500000920E-02 0. -1.
        2   -1    0    0  501    0  0.00000000000E+00  0.00000000000E+00 -0.18204553759E+04  0.18204553759E+04  0.25500000920E-02 0.  1.
    10030    2    1    2    0    0  0.00000000000E+00  0.00000000000E+00 -0.14782884009E+04  0.21626223509E+04  0.15784799132E+04 0.  0.
        1    1    3    3  502    0  0.71326032475E+03 -0.20603721349E+03 -0.37226280497E+03  0.83052466561E+03  0.50400001928E-02 0. -1.
       -1    1    3    3    0  502 -0.71326032475E+03  0.20603721349E+03 -0.11060255960E+04  0.13320976853E+04  0.50400001928E-02 0.  1.
</event>
<event>
 5   0  0.1832646E-04  0.1618637E+04  0.7818609E-02  0.8809180E-01
        2   -1    0    0  501    0  0.00000000000E+00  0.00000000000E+00  0.99417477578E+03  0.99417477579E+03  0.25500000920E-02 0.  1.
       -2   -1    0    0    0  501  0.00000000000E+00  0.00000000000E+00 -0.65883434980E+03  0.65883434980E+03  0.25500000920E-02 0. -1.
    10030    2    1    2    0    0  0.00000000000E+00  0.00000000000E+00  0.33534042599E+03  0.16530091256E+04  0.16186370711E+04 0.  0.
        2    1    3    3  502    0 -0.33856084946E+03  0.13229565164E+03  0.90612346283E+03  0.97631210078E+03  0.25500000920E-02 0.  1.
       -2    1    3    3    0  502  0.33856084946E+03 -0.13229565164E+03 -0.57078303684E+03  0.67669702481E+03  0.25500000920E-02 0. -1.
</event>
<event>
 5   0  0.9939872E-05  0.1602008E+04  0.7818609E-02  0.8819316E-01
       -1   -1    0    0    0  501  0.00000000000E+00  0.00000000000E+00  0.35522809597E+03  0.35522809600E+03  0.50400001928E-02 0.  1.
        1   -1    0    0  501    0  0.00000000000E+00  0.00000000000E+00 -0.18061834599E+04  0.18061834599E+04  0.50400001928E-02 0. -1.
    10030    2    1    2    0    0  0.00000000000E+00  0.00000000000E+00 -0.14509553640E+04  0.21614115559E+04  0.16020076298E+04 0.  0.
        3    1    3    3  502    0  0.57220477475E+03 -0.55298230530E+03 -0.60182709874E+03  0.99769915365E+03  0.10100000352E+00 0.  1.
       -3    1    3    3    0  502 -0.57220477475E+03  0.55298230530E+03 -0.84912826523E+03  0.11637124023E+04  0.10100000352E+00 0. -1.
</event>
<event>
 5   0  0.1914170E-04  0.1597143E+04  0.7818609E-02  0.8822305E-01
       -2   -1    0    0    0  501  0.00000000000E+00  0.00000000000E+00  0.47363079781E+03  0.47363079782E+03  0.25500000920E-02 0.  1.
        2   -1    0    0  501    0  0.00000000000E+00  0.00000000000E+00 -0.13464413285E+04  0.13464413285E+04  0.25500000920E-02 0. -1.
    10030    2    1    2    0    0  0.00000000000E+00  0.00000000000E+00 -0.87281053071E+03  0.18200721263E+04  0.15971425492E+04 0.  0.
        3    1    3    3  502    0  0.63233054648E+03  0.32542682855E+03 -0.22419847214E+02  0.71151050625E+03  0.10100000352E+00 0.  1.
       -3    1    3    3    0  502 -0.63233054648E+03 -0.32542682855E+03 -0.85039068350E+03  0.11085616201E+04  0.10100000352E+00 0. -1.
</event>
<event>
 5   0  0.1835088E-04  0.1599314E+04  0.7818609E-02  0.8820969E-01
       -2   -1    0    0    0  501  0.00000000000E+00  0.00000000000E+00  0.49074284427E+03  0.49074284428E+03  0.25500000920E-02 0.  1.
        2   -1    0    0  501    0  0.00000000000E+00  0.00000000000E+00 -0.13030276947E+04  0.13030276947E+04  0.25500000920E-02 0. -1.
    10030    2    1    2    0    0  0.00000000000E+00  0.00000000000E+00 -0.81228485038E+03  0.17937705389E+04  0.15993142494E+04 0.  0.
        5    1    3    3  502    0  0.60584995956E+03  0.66560240556E+02  0.17442932390E+03  0.63398116546E+03  0.46999998093E+01 0.  1.
       -5    1    3    3    0  502 -0.60584995956E+03 -0.66560240556E+02 -0.98671417428E+03  0.11597893735E+04  0.46999998093E+01 0. -1.
</event>
<event>
 5   0  0.1774934E-04  0.1605435E+04  0.7818609E-02  0.8817216E-01
        2   -1    0    0  501    0  0.00000000000E+00  0.00000000000E+00  0.98786649106E+03  0.98786649106E+03  0.25500000920E-02 0.  1.
       -2   -1    0    0    0  501  0.00000000000E+00  0.00000000000E+00 -0.65226946697E+03  0.65226946697E+03  0.25500000920E-02 0. -1.
    10030    2    1    2    0    0  0.00000000000E+00  0.00000000000E+00  0.33559702409E+03  0.16401359580E+04  0.16054347069E+04 0.  0.
        1    1    3    3  502    0  0.12720561768E+03 -0.65148297927E+03  0.62893491988E+03  0.91442357522E+03  0.50400001928E-02 0.  1.
       -1    1    3    3    0  502 -0.12720561768E+03  0.65148297927E+03 -0.29333789578E+03  0.72571238282E+03  0.50400001928E-02 0. -1.
</event>
<event>
 5   0  0.9939872E-05  0.1503183E+04  0.7818609E-02  0.8882339E-01
       -1   -1    0    0    0  501  0.00000000000E+00  0.00000000000E+00  0.72355921140E+03  0.72355921141E+03  0.50400001928E-02 0.  1.
        1   -1    0    0  501    0  0.00000000000E+00  0.00000000000E+00 -0.78071032941E+03  0.78071032942E+03  0.50400001928E-02 0. -1.
    10030    2    1    2    0    0  0.00000000000E+00  0.00000000000E+00 -0.57151118010E+02  0.15042695408E+04  0.15031834889E+04 0.  0.
        3    1    3    3  502    0  0.87372194641E+01 -0.68609941468E+03  0.27837295659E+03  0.74047299681E+03  0.10100000352E+00 0. -1.
       -3    1    3    3    0  502 -0.87372194641E+01  0.68609941468E+03 -0.33552407461E+03  0.76379654403E+03  0.10100000352E+00 0.  1.
</event>
<event>
 5   0  0.9432152E-05  0.1600624E+04  0.7818609E-02  0.8820165E-01
       -1   -1    0    0    0  501  0.00000000000E+00  0.00000000000E+00  0.37797888142E+03  0.37797888145E+03  0.50400001928E-02 0.  1.
        1   -1    0    0  501    0  0.00000000000E+00  0.00000000000E+00 -0.16945373732E+04  0.16945373732E+04  0.50400001928E-02 0. -1.
    10030    2    1    2    0    0  0.00000000000E+00  0.00000000000E+00 -0.13165584918E+04  0.20725162547E+04  0.16006240544E+04 0.  0.
        4    1    3    3  502    0 -0.31425146717E+03  0.43507093037E+03  0.11042927325E+03  0.54793880713E+03  0.12699999809E+01 0.  1.
       -4    1    3    3    0  502  0.31425146717E+03 -0.43507093037E+03 -0.14269877651E+04  0.15245774476E+04  0.12699999809E+01 0. -1.
</event>
<event>
 5   0  0.9939872E-05  0.1611005E+04  0.7818609E-02  0.8813816E-01
        1   -1    0    0  501    0  0.00000000000E+00  0.00000000000E+00  0.71120873565E+03  0.71120873566E+03  0.50400001928E-02 0.  1.
       -1   -1    0    0    0  501  0.00000000000E+00  0.00000000000E+00 -0.91229745303E+03  0.91229745304E+03  0.50400001928E-02 0. -1.
    10030    2    1    2    0    0  0.00000000000E+00  0.00000000000E+00 -0.20108871738E+03  0.16235061887E+04  0.16110045538E+04 0.  0.
        3    1    3    3  502    0 -0.56888972022E+03  0.16381332674E+03 -0.65100984096E+03  0.87993416971E+03  0.10100000352E+00 0. -1.
       -3    1    3    3    0  502  0.56888972022E+03 -0.16381332674E+03  0.44992112358E+03  0.74357201900E+03  0.10100000352E+00 0.  1.
</event>
<event>
 5   0  0.1858913E-04  0.1601204E+04  0.7818609E-02  0.8819808E-01
        2   -1    0    0  501    0  0.00000000000E+00  0.00000000000E+00  0.72782097230E+03  0.72782097230E+03  0.25500000920E-02 0. -1.
       -2   -1    0    0    0  501  0.00000000000E+00  0.00000000000E+00 -0.88066152875E+03  0.88066152875E+03  0.25500000920E-02 0.  1.
    10030    2    1    2    0    0  0.00000000000E+00  0.00000000000E+00 -0.15284055645E+03  0.16084825010E+04  0.16012044593E+04 0.  0.
        4    1    3    3  502    0  0.28693821591E+02  0.57844773917E+03  0.47884637575E+03  0.75147893305E+03  0.12699999809E+01 0. -1.
       -4    1    3    3    0  502 -0.28693821591E+02 -0.57844773917E+03 -0.63168693220E+03  0.85700356800E+03  0.12699999809E+01 0.  1.
</event>
<event>
 5   0  0.1835088E-04  0.1612809E+04  0.7818609E-02  0.8812717E-01
        2   -1    0    0  501    0  0.00000000000E+00  0.00000000000E+00  0.19199517582E+04  0.19199517582E+04  0.25500000920E-02 0.  1.
       -2   -1    0    0    0  501  0.00000000000E+00  0.00000000000E+00 -0.33870048953E+03  0.33870048954E+03  0.25500000920E-02 0. -1.
    10030    2    1    2    0    0  0.00000000000E+00  0.00000000000E+00  0.15812512687E+04  0.22586522478E+04  0.16128094747E+04 0.  0.
        5    1    3    3  502    0 -0.31866289782E+03 -0.72515780058E+03  0.10023970830E+04  0.12775843926E+04  0.46999998093E+01 0. -1.
       -5    1    3    3    0  502  0.31866289782E+03  0.72515780058E+03  0.57885418572E+03  0.98106785520E+03  0.46999998093E+01 0.  1.
</event>
<event>
 5   0  0.1832646E-04  0.1602038E+04  0.7818609E-02  0.8819297E-01
       -2   -1    0    0    0  501  0.00000000000E+00  0.00000000000E+00  0.36159840858E+03  0.36159840859E+03  0.25500000920E-02 0. -1.
        2   -1    0    0  501    0  0.00000000000E+00  0.00000000000E+00 -0.17744317945E+04  0.17744317945E+04  0.25500000920E-02 0.  1.
    10030    2    1    2    0    0  0.00000000000E+00  0.00000000000E+00 -0.14128333859E+04  0.21360302031E+04  0.16020383429E+04 0.  0.
        2    1    3    3  502    0 -0.22451141804E+03  0.76758898799E+03 -0.76654162748E+03  0.11077835068E+04  0.25500000920E-02 0.  1.
       -2    1    3    3    0  502  0.22451141804E+03 -0.76758898799E+03 -0.64629175842E+03  0.10282466962E+04  0.25500000920E-02 0. -1.
</event>
<event>
 5   0  0.1914170E-04  0.1541582E+04  0.7818609E-02  0.8857262E-01
       -2   -1    0    0    0  501  0.00000000000E+00  0.00000000000E+00  0.12947159146E+04  0.12947159146E+04  0.25500000920E-02 0.  1.
        2   -1    0    0  501    0  0.00000000000E+00  0.00000000000E+00 -0.45887989885E+03  0.45887989886E+03  0.25500000920E-02 0. -1.
    10030    2    1    2    0    0  0.00000000000E+00  0.00000000000E+00  0.83583601578E+03  0.17535958135E+04  0.15415824441E+04 0.  0.
        3    1    3    3  502    0  0.31492839604E+03 -0.56678363110E+03  0.89200392107E+03  0.11027667861E+04  0.10100000352E+00 0.  1.
       -3    1    3    3    0  502 -0.31492839604E+03  0.56678363110E+03 -0.56167905287E+02  0.65082902740E+03  0.10100000352E+00 0. -1.
</event>
<event>
 5   0  0.1832646E-04  0.1599275E+04  0.7818609E-02  0.8820994E-01
        2   -1    0    0  501    0  0.00000000000E+00  0.00000000000E+00  0.46936408776E+03  0.46936408777E+03  0.25500000920E-02 0. -1.
       -2   -1    0    0    0  501  0.00000000000E+00  0.00000000000E+00 -0.13623109057E+04  0.13623109057E+04  0.25500000920E-02 0.  1.
    10030    2    1    2    0    0  0.00000000000E+00  0.00000000000E+00 -0.89294681793E+03  0.18316749935E+04  0.15992746049E+04 0.  0.
        2    1    3    3  502    0 -0.67882122743E+03 -0.20487936994E+03 -0.23099746502E+02  0.70944162080E+03  0.25500000920E-02 0. -1.
       -2    1    3    3    0  502  0.67882122743E+03  0.20487936994E+03 -0.86984707142E+03  0.11222333727E+04  0.25500000920E-02 0.  1.
</event>
<event>
 5   0  0.1914170E-04  0.1593180E+04  0.7818609E-02  0.8824749E-01
        2   -1    0    0  501    0  0.00000000000E+00  0.00000000000E+00  0.94698833243E+03  0.94698833244E+03  0.25500000920E-02 0. -1.
       -2   -1    0    0    0  501  0.00000000000E+00  0.00000000000E+00 -0.67007769954E+03  0.67007769954E+03  0.25500000920E-02 0.  1.
    10030    2    1    2    0    0  0.00000000000E+00  0.00000000000E+00  0.27691063289E+03  0.16170660320E+04  0.15931801697E+04 0.  0.
        3    1    3    3  502    0 -0.55540120727E+03 -0.56488186765E+03  0.22333763236E+03  0.82306848662E+03  0.10100000352E+00 0.  1.
       -3    1    3    3    0  502  0.55540120727E+03  0.56488186765E+03  0.53573000531E+02  0.79399754536E+03  0.10100000352E+00 0. -1.
</event>
<event>
 5   0  0.1914170E-04  0.1605187E+04  0.7818609E-02  0.8817368E-01
       -2   -1    0    0    0  501  0.00000000000E+00  0.00000000000E+00  0.76366225710E+03  0.76366225711E+03  0.25500000920E-02 0. -1.
        2   -1    0    0  501    0  0.00000000000E+00  0.00000000000E+00 -0.84350944556E+03  0.84350944556E+03  0.25500000920E-02 0.  1.
    10030    2    1    2    0    0  0.00000000000E+00  0.00000000000E+00 -0.79847188452E+02  0.16071717027E+04  0.16051870011E+04 0.  0.
        3    1    3    3  502    0 -0.42049209627E+02 -0.50635007725E+03  0.58213178017E+03  0.77268101856E+03  0.10100000352E+00 0. -1.
       -3    1    3    3    0  502  0.42049209627E+02  0.50635007725E+03 -0.66197896862E+03  0.83449068411E+03  0.10100000352E+00 0.  1.
</event>
<event>
 5   0  0.1858913E-04  0.1607170E+04  0.7818609E-02  0.8816155E-01
       -2   -1    0    0    0  501  0.00000000000E+00  0.00000000000E+00  0.60660734529E+03  0.60660734530E+03  0.25500000920E-02 0. -1.
        2   -1    0    0  501    0  0.00000000000E+00  0.00000000000E+00 -0.10645257056E+04  0.10645257056E+04  0.25500000920E-02 0.  1.
    10030    2    1    2    0    0  0.00000000000E+00  0.00000000000E+00 -0.45791836028E+03  0.16711330509E+04  0.16071703236E+04 0.  0.
        4    1    3    3  502    0 -0.60184067253E+03  0.42370194078E+03 -0.56430336850E+03  0.92745643258E+03  0.12699999809E+01 0.  1.
       -4    1    3    3    0  502  0.60184067253E+03 -0.42370194078E+03  0.10638500822E+03  0.74367661830E+03  0.12699999809E+01 0. -1.
</event>
<event>
 5   0  0.9939872E-05  0.1582654E+04  0.7818609E-02  0.8831276E-01
        1   -1    0    0  501    0  0.00000000000E+00  0.00000000000E+00  0.12647195089E+04  0.12647195089E+04  0.50400001928E-02 0. -1.
       -1   -1    0    0    0  501  0.00000000000E+00  0.00000000000E+00 -0.49512825696E+03  0.49512825698E+03  0.50400001928E-02 0.  1.
    10030    2    1    2    0    0  0.00000000000E+00  0.00000000000E+00  0.76959125196E+03  0.17598477659E+04  0.15826539306E+04 0.  0.
        3    1    3    3  502    0 -0.52929922845E+03  0.10012239408E+03 -0.25977311670E+03  0.59805037363E+03  0.10100000352E+00 0.  1.
       -3    1    3    3    0  502  0.52929922845E+03 -0.10012239408E+03  0.10293643687E+04  0.11617973923E+04  0.10100000352E+00 0. -1.
</event>
<event>
 5   0  0.9726935E-05  0.1594811E+04  0.7818609E-02  0.8823742E-01
        1   -1    0    0  501    0  0.00000000000E+00  0.00000000000E+00  0.79756127462E+03  0.79756127463E+03  0.50400001928E-02 0. -1.
       -1   -1    0    0    0  501  0.00000000000E+00  0.00000000000E+00 -0.79724944774E+03  0.79724944775E+03  0.50400001928E-02 0.  1.
    10030    2    1    2    0    0  0.00000000000E+00  0.00000000000E+00  0.31182688312E+00  0.15948107224E+04  0.15948106919E+04 0.  0.
        2    1    3    3  502    0  0.20071612196E+03  0.13959141479E+03  0.75915695631E+03  0.79755376559E+03  0.25500000920E-02 0. -1.
       -2    1    3    3    0  502 -0.20071612196E+03 -0.13959141479E+03 -0.75884512942E+03  0.79725695679E+03  0.25500000920E-02 0.  1.
</event>
<event>
 5   0  0.9726935E-05  0.1585694E+04  0.7818609E-02  0.8829386E-01
       -1   -1    0    0    0  501  0.00000000000E+00  0.00000000000E+00  0.35023057292E+03  0.35023057296E+03  0.50400001928E-02 0. -1.
        1   -1    0    0  501    0  0.00000000000E+00  0.00000000000E+00 -0.17948347822E+04  0.17948347822E+04  0.50400001928E-02 0.  1.
    10030    2    1    2    0    0  0.00000000000E+00  0.00000000000E+00 -0.14446042093E+04  0.21450653552E+04  0.15856935569E+04 0.  0.
        2    1    3    3  502    0  0.24143001516E+03 -0.18386154813E+03 -0.17131595721E+04  0.17398302333E+04  0.25500000920E-02 0.  1.
       -2    1    3    3    0  502 -0.24143001516E+03  0.18386154813E+03  0.26855536283E+03  0.40523512189E+03  0.25500000920E-02 0. -1.
</event>
<event>
 5   0  0.9939872E-05  0.1602081E+04  0.7818609E-02  0.8819271E-01
        1   -1    0    0  501    0  0.00000000000E+00  0.00000000000E+00  0.45757315367E+03  0.45757315370E+03  0.50400001928E-02 0. -1.
       -1   -1    0    0    0  501  0.00000000000E+00  0.00000000000E+00 -0.14023239279E+04  0.14023239279E+04  0.50400001928E-02 0.  1.
    10030    2    1    2    0    0  0.00000000000E+00  0.00000000000E+00 -0.94475077421E+03  0.18598970816E+04  0.16020808746E+04 0.  0.
        3    1    3    3  502    0  0.76663086119E+03  0.15858938647E+03 -0.27538607435E+03  0.82988611928E+03  0.10100000352E+00 0.  1.
       -3    1    3    3    0  502 -0.76663086119E+03 -0.15858938647E+03 -0.66936469987E+03  0.10300109623E+04  0.10100000352E+00 0. -1.
</event>
<event>
 5   0  0.1774934E-04  0.1587476E+04  0.7818609E-02  0.8828279E-01
        2   -1    0    0  501    0  0.00000000000E+00  0.00000000000E+00  0.20044878341E+04  0.20044878341E+04  0.25500000920E-02 0.  1.
       -2   -1    0    0    0  501  0.00000000000E+00  0.00000000000E+00 -0.31430486166E+03  0.31430486167E+03  0.25500000920E-02 0. -1.
    10030    2    1    2    0    0  0.00000000000E+00  0.00000000000E+00  0.16901829724E+04  0.23187926958E+04  0.15874763260E+04 0.  0.
        1    1    3    3  502    0  0.77497460044E+03 -0.16631667901E+03  0.90660326775E+03  0.12042326827E+04  0.50400001928E-02 0. -1.
       -1    1    3    3    0  502 -0.77497460044E+03  0.16631667901E+03  0.78357970467E+03  0.11145600130E+04  0.50400001928E-02 0.  1.
</event>
<event>
 5   0  0.9939872E-05  0.1608880E+04  0.7818609E-02  0.8815111E-01
        1   -1    0    0  501    0  0.00000000000E+00  0.00000000000E+00  0.87557041005E+03  0.87557041007E+03  0.50400001928E-02 0. -1.
       -1   -1    0    0    0  501  0.00000000000E+00  0.00000000000E+00 -0.73908790991E+03  0.73908790992E+03  0.50400001928E-02 0.  1.
    10030    2    1    2    0    0  0.00000000000E+00  0.00000000000E+00  0.13648250015E+03  0.16146583200E+04  0.16088797399E+04 0.  0.
        3    1    3    3  502    0  0.32743594815E+03  0.52810769231E+03 -0.44448651918E+03  0.76398973209E+03  0.10100000352E+00 0.  1.
       -3    1    3    3    0  502 -0.32743594815E+03 -0.52810769231E+03  0.58096901933E+03  0.85066858790E+03  0.10100000352E+00 0. -1.
</event>
<event>
 5   0  0.1914170E-04  0.1599703E+04  0.7818609E-02  0.8820730E-01
        2   -1    0    0  501    0  0.00000000000E+00  0.00000000000E+00  0.98939111481E+03  0.98939111481E+03  0.25500000920E-02 0. -1.
       -2   -1    0    0    0  501  0.00000000000E+00  0.00000000000E+00 -0.64662258022E+03  0.64662258023E+03  0.25500000920E-02 0.  1.
    10030    2    1    2    0    0  0.00000000000E+00  0.00000000000E+00  0.34276853459E+03  0.16360136950E+04  0.15997032669E+04 0.  0.
        3    1    3    3  502    0  0.78314249758E+02  0.75366063295E+03 -0.90604499533E+02  0.76311641111E+03  0.10100000352E+00 0.  1.
       -3    1    3    3    0  502 -0.78314249758E+02 -0.75366063295E+03  0.43337303412E+03  0.87289728392E+03  0.10100000352E+00 0. -1.
</event>
<event>
 5   0  0.9673017E-05  0.1587740E+04  0.7818609E-02  0.8828115E-01
       -1   -1    0    0    0  501  0.00000000000E+00  0.00000000000E+00  0.10591599065E+04  0.10591599065E+04  0.50400001928E-02 0.  1.
        1   -1    0    0  501    0  0.00000000000E+00  0.00000000000E+00 -0.59502799228E+03  0.59502799230E+03  0.50400001928E-02 0. -1.
    10030    2    1    2    0    0  0.00000000000E+00  0.00000000000E+00  0.46413191417E+03  0.16541878988E+04  0.15877402718E+04 0.  0.
        1    1    3    3  502    0 -0.24084323879E+03 -0.32165685189E+03 -0.48124879547E+03  0.62695215065E+03  0.50400001928E-02 0. -1.
       -1    1    3    3    0  502  0.24084323879E+03  0.32165685189E+03  0.94538070964E+03  0.10272357481E+04  0.50400001928E-02 0.  1.
</event>
<event>
 5   0  0.1858913E-04  0.1603374E+04  0.7818609E-02  0.8818478E-01
       -2   -1    0    0    0  501  0.00000000000E+00  0.00000000000E+00  0.35696798134E+03  0.35696798135E+03  0.25500000920E-02 0.  1.
        2   -1    0    0  501    0  0.00000000000E+00  0.00000000000E+00 -0.18004471819E+04  0.18004471819E+04  0.25500000920E-02 0. -1.
    10030    2    1    2    0    0  0.00000000000E+00  0.00000000000E+00 -0.14434792006E+04  0.21574151633E+04  0.16033739377E+04 0.  0.
        4    1    3    3  502    0  0.30578689683E+03 -0.85692293719E+02  0.26872528205E+03  0.41600923738E+03  0.12699999809E+01 0.  1.
       -4    1    3    3    0  502 -0.30578689683E+03  0.85692293719E+02 -0.17122044827E+04  0.17414059259E+04  0.12699999809E+01 0. -1.
</event>
<event>
 5   0  0.1858913E-04  0.1578598E+04  0.7818609E-02  0.8833805E-01
       -2   -1    0    0    0  501  0.00000000000E+00  0.00000000000E+00  0.90176137633E+03  0.90176137634E+03  0.25500000920E-02 0.  1.
        2   -1    0    0  501    0  0.00000000000E+00  0.00000000000E+00 -0.69086239093E+03  0.69086239094E+03  0.25500000920E-02 0. -1.
    10030    2    1    2    0    0  0.00000000000E+00  0.00000000000E+00  0.21089898540E+03  0.15926237673E+04  0.15785981382E+04 0.  0.
        4    1    3    3  502    0  0.44693727809E+03 -0.53627421310E+03 -0.26612767221E+03  0.74710676144E+03  0.12699999809E+01 0. -1.
       -4    1    3    3    0  502 -0.44693727809E+03  0.53627421310E+03  0.47702665761E+03  0.84551700583E+03  0.12699999809E+01 0.  1.
</event>
<event>
 5   0  0.9616567E-05  0.1604759E+04  0.7818609E-02  0.8817630E-01
        1   -1    0    0  501    0  0.00000000000E+00  0.00000000000E+00  0.11528380468E+04  0.11528380469E+04  0.50400001928E-02 0.  1.
       -1   -1    0    0    0  501  0.00000000000E+00  0.00000000000E+00 -0.55845927178E+03  0.55845927181E+03  0.50400001928E-02 0. -1.
    10030    2    1    2    0    0  0.00000000000E+00  0.00000000000E+00  0.59437877506E+03  0.17112973187E+04  0.16047592918E+04 0.  0.
        5    1    3    3  502    0  0.18585319637E+03  0.65681564127E+02  0.11266010094E+04  0.11437252305E+04  0.46999998093E+01 0.  1.
       -5    1    3    3    0  502 -0.18585319637E+03 -0.65681564127E+02 -0.53222223438E+03  0.56757208814E+03  0.46999998093E+01 0. -1.
</event>
<event>
 5   0  0.9939872E-05  0.1599973E+04  0.7818609E-02  0.8820565E-01
        1   -1    0    0  501    0  0.00000000000E+00  0.00000000000E+00  0.68851394177E+03  0.68851394179E+03  0.50400001928E-02 0.  1.
       -1   -1    0    0    0  501  0.00000000000E+00  0.00000000000E+00 -0.92950631342E+03  0.92950631343E+03  0.50400001928E-02 0. -1.
    10030    2    1    2    0    0  0.00000000000E+00  0.00000000000E+00 -0.24099237164E+03  0.16180202552E+04  0.15999725695E+04 0.  0.
        3    1    3    3  502    0  0.35727274666E+03 -0.70640509378E+03 -0.23723694685E+03  0.82639781653E+03  0.10100000352E+00 0.  1.
       -3    1    3    3    0  502 -0.35727274666E+03  0.70640509378E+03 -0.37554247948E+01  0.79162243869E+03  0.10100000352E+00 0. -1.
</event>
<event>
 5   0  0.9726935E-05  0.1600786E+04  0.7818609E-02  0.8820065E-01
       -1   -1    0    0    0  501  0.00000000000E+00  0.00000000000E+00  0.66013229176E+03  0.66013229178E+03  0.50400001928E-02 0. -1.
        1   -1    0    0  501    0  0.00000000000E+00  0.00000000000E+00 -0.97045506648E+03  0.97045506649E+03  0.50400001928E-02 0.  1.
    10030    2    1    2    0    0  0.00000000000E+00  0.00000000000E+00 -0.31032277472E+03  0.16305873583E+04  0.16007857160E+04 0.  0.
        2    1    3    3  502    0 -0.15377898974E+03  0.58175266946E+03  0.38243733448E+03  0.71298138890E+03  0.25500000920E-02 0. -1.
       -2    1    3    3    0  502  0.15377898974E+03 -0.58175266946E+03 -0.69276010920E+03  0.91760596936E+03  0.25500000920E-02 0.  1.
</event>
<event>
 5   0  0.1858913E-04  0.1601604E+04  0.7818609E-02  0.8819563E-01
        2   -1    0    0  501    0  0.00000000000E+00  0.00000000000E+00  0.27017778378E+04  0.27017778378E+04  0.25500000920E-02 0. -1.
       -2   -1    0    0    0  501  0.00000000000E+00  0.00000000000E+00 -0.23735623690E+03  0.23735623691E+03  0.25500000920E-02 0.  1.
    10030    2    1    2    0    0  0.00000000000E+00  0.00000000000E+00  0.24644216009E+04  0.29391340747E+04  0.16016039717E+04 0.  0.
        4    1    3    3  502    0  0.43011887531E+03 -0.62954031812E+03  0.78285405541E+03  0.10927878769E+04  0.12699999809E+01 0.  1.
       -4    1    3    3    0  502 -0.43011887531E+03  0.62954031812E+03  0.16815675455E+04  0.18463461977E+04  0.12699999809E+01 0. -1.
</event>
<event>
 5   0  0.9939872E-05  0.1579940E+04  0.7818609E-02  0.8832967E-01
        1   -1    0    0  501    0  0.00000000000E+00  0.00000000000E+00  0.16094306055E+04  0.16094306055E+04  0.50400001928E-02 0. -1.
       -1   -1    0    0    0  501  0.00000000000E+00  0.00000000000E+00 -0.38774761860E+03  0.38774761864E+03  0.50400001928E-02 0.  1.
    10030    2    1    2    0    0  0.00000000000E+00  0.00000000000E+00  0.12216829869E+04  0.19971782242E+04  0.15799403592E+04 0.  0.
        3    1    3    3  502    0  0.75443781988E+03 -0.22654750951E+03  0.53549657818E+03  0.95250028534E+03  0.10100000352E+00 0. -1.
       -3    1    3    3    0  502 -0.75443781988E+03  0.22654750951E+03  0.68618640875E+03  0.10446779388E+04  0.10100000352E+00 0.  1.
</event>
<event>
 5   0  0.1832646E-04  0.1589727E+04  0.7818609E-02  0.8826884E-01
       -2   -1    0    0    0  501  0.00000000000E+00  0.00000000000E+00  0.63297977242E+03  0.63297977243E+03  0.25500000920E-02 0. -1.
        2   -1    0    0  501    0  0.00000000000E+00  0.00000000000E+00 -0.99814891710E+03  0.99814891710E+03  0.25500000920E-02 0.  1.
    10030    2    1    2    0    0  0.00000000000E+00  0.00000000000E+00 -0.36516914467E+03  0.16311286895E+04  0.15897271142E+04 0.  0.
        2    1    3    3  502    0 -0.80608815058E+02 -0.75922829388E+03 -0.40943687831E+03  0.86635093387E+03  0.25500000920E-02 0. -1.
       -2    1    3    3    0  502  0.80608815058E+02  0.75922829388E+03  0.44267733636E+02  0.76477775565E+03  0.25500000920E-02 0.  1.
</event>
<event>
 5   0  0.1858913E-04  0.1601765E+04  0.7818609E-02  0.8819464E-01
        2   -1    0    0  501    0  0.00000000000E+00  0.00000000000E+00  0.27522075732E+04  0.27522075732E+04  0.25500000920E-02 0. -1.
       -2   -1    0    0    0  501  0.00000000000E+00  0.00000000000E+00 -0.23305394841E+03  0.23305394842E+03  0.25500000920E-02 0.  1.
    10030    2    1    2    0    0  0.00000000000E+00  0.00000000000E+00  0.25191536248E+04  0.29852615217E+04  0.16017650787E+04 0.  0.
        4    1    3    3  502    0  0.23944429493E+03  0.52396406077E+03  0.22964877973E+04  0.23676422287E+04  0.12699999809E+01 0. -1.
       -4    1    3    3    0  502 -0.23944429493E+03 -0.52396406077E+03  0.22266582757E+03  0.61761929295E+03  0.12699999809E+01 0.  1.
</event>
<event>
 5   0  0.9616567E-05  0.1606007E+04  0.7818609E-02  0.8816866E-01
        1   -1    0    0  501    0  0.00000000000E+00  0.00000000000E+00  0.11338897918E+04  0.11338897918E+04  0.50400001928E-02 0.  1.
       -1   -1    0    0    0  501  0.00000000000E+00  0.00000000000E+00 -0.56867475990E+03  0.56867475993E+03  0.50400001928E-02 0. -1.
    10030    2    1    2    0    0  0.00000000000E+00  0.00000000000E+00  0.56521503190E+03  0.17025645517E+04  0.16060068557E+04 0.  0.
        5    1    3    3  502    0  0.75901172275E+03 -0.21917235652E+03  0.43497449152E+03  0.90186485429E+03  0.46999998093E+01 0.  1.
       -5    1    3    3    0  502 -0.75901172275E+03  0.21917235652E+03  0.13024054037E+03  0.80069969745E+03  0.46999998093E+01 0. -1.
</event>
<event>
 5   0  0.6838750E-05  0.1602715E+04  0.7818609E-02  0.8818882E-01
        4   -1    0    0  501    0  0.00000000000E+00  0.00000000000E+00  0.56095575238E+03  0.56095719002E+03  0.12699999809E+01 0. -1.
       -4   -1    0    0    0  501  0.00000000000E+00  0.00000000000E+00 -0.11447815747E+04  0.11447822792E+04  0.12699999809E+01 0.  1.
    10030    2    1    2    0    0  0.00000000000E+00  0.00000000000E+00 -0.58382582235E+03  0.17057394692E+04  0.16027147425E+04 0.  0.
        5    1    3    3  502    0  0.20917360893E+03  0.15082752505E+03 -0.10993995525E+04  0.11292493113E+04  0.46999998093E+01 0.  1.
       -5    1    3    3    0  502 -0.20917360893E+03 -0.15082752505E+03  0.51557373014E+03  0.57649015793E+03  0.46999998093E+01 0. -1.
</event>
<event>
 5   0  0.1832646E-04  0.1598227E+04  0.7818609E-02  0.8821638E-01
       -2   -1    0    0    0  501  0.00000000000E+00  0.00000000000E+00  0.69817605716E+03  0.69817605717E+03  0.25500000920E-02 0. -1.
        2   -1    0    0  501    0  0.00000000000E+00  0.00000000000E+00 -0.91464353979E+03  0.91464353979E+03  0.25500000920E-02 0.  1.
    10030    2    1    2    0    0  0.00000000000E+00  0.00000000000E+00 -0.21646748262E+03  0.16128195970E+04  0.15982267928E+04 0.  0.
        2    1    3    3  502    0  0.42565337856E+03  0.65984247269E+03 -0.25794374609E+03  0.82650339600E+03  0.25500000920E-02 0.  1.
       -2    1    3    3    0  502 -0.42565337856E+03 -0.65984247269E+03  0.41476263461E+02  0.78631620096E+03  0.25500000920E-02 0. -1.
</event>
<event>
 5   0  0.1914170E-04  0.1599853E+04  0.7818609E-02  0.8820638E-01
       -2   -1    0    0    0  501  0.00000000000E+00  0.00000000000E+00  0.71244143419E+03  0.71244143419E+03  0.25500000920E-02 0.  1.
        2   -1    0    0  501    0  0.00000000000E+00  0.00000000000E+00 -0.89815442256E+03  0.89815442256E+03  0.25500000920E-02 0. -1.
    10030    2    1    2    0    0  0.00000000000E+00  0.00000000000E+00 -0.18571298837E+03  0.16105958568E+04  0.15998530244E+04 0.  0.
        3    1    3    3  502    0  0.67317993509E+03 -0.38309938052E+03 -0.29406365611E+03  0.82849852409E+03  0.10100000352E+00 0. -1.
       -3    1    3    3    0  502 -0.67317993509E+03  0.38309938052E+03  0.10835066774E+03  0.78209733267E+03  0.10100000352E+00 0.  1.
</event>
<event>
 5   0  0.1835088E-04  0.1598645E+04  0.7818609E-02  0.8821381E-01
       -2   -1    0    0    0  501  0.00000000000E+00  0.00000000000E+00  0.98566115366E+03  0.98566115367E+03  0.25500000920E-02 0. -1.
        2   -1    0    0  501    0  0.00000000000E+00  0.00000000000E+00 -0.64821128351E+03  0.64821128351E+03  0.25500000920E-02 0.  1.
    10030    2    1    2    0    0  0.00000000000E+00  0.00000000000E+00  0.33744987016E+03  0.16338724372E+04  0.15986452784E+04 0.  0.
        5    1    3    3  502    0 -0.64455642034E-02  0.22185531884E+03 -0.61609915402E+03  0.65484352338E+03  0.46999998093E+01 0.  1.
       -5    1    3    3    0  502  0.64455642034E-02 -0.22185531884E+03  0.95354902418E+03  0.97902891379E+03  0.46999998093E+01 0. -1.
</event>
<event>
 5   0  0.9726935E-05  0.1600728E+04  0.7818609E-02  0.8820101E-01
        1   -1    0    0  501    0  0.00000000000E+00  0.00000000000E+00  0.94897717542E+03  0.94897717543E+03  0.50400001928E-02 0.  1.
       -1   -1    0    0    0  501  0.00000000000E+00  0.00000000000E+00 -0.67502418921E+03  0.67502418923E+03  0.50400001928E-02 0. -1.
    10030    2    1    2    0    0  0.00000000000E+00  0.00000000000E+00  0.27395298621E+03  0.16240013647E+04  0.16007280199E+04 0.  0.
        2    1    3    3  502    0  0.47392187348E+03 -0.62513749681E+03 -0.24024573208E+02  0.78484139302E+03  0.25500000920E-02 0.  1.
       -2    1    3    3    0  502 -0.47392187348E+03  0.62513749681E+03  0.29797755942E+03  0.83915997164E+03  0.25500000920E-02 0. -1.
</event>
<event>
 5   0  0.1832646E-04  0.1596545E+04  0.7818609E-02  0.8822674E-01
        2   -1    0    0  501    0  0.00000000000E+00  0.00000000000E+00  0.15609265766E+04  0.15609265766E+04  0.25500000920E-02 0.  1.
       -2   -1    0    0    0  501  0.00000000000E+00  0.00000000000E+00 -0.40824385401E+03  0.40824385402E+03  0.25500000920E-02 0. -1.
    10030    2    1    2    0    0  0.00000000000E+00  0.00000000000E+00  0.11526827226E+04  0.19691704306E+04  0.15965446207E+04 0.  0.
        2    1    3    3  502    0  0.80586685230E+02  0.71860542911E+03  0.15925914956E+03  0.74044004032E+03  0.25500000920E-02 0. -1.
       -2    1    3    3    0  502 -0.80586685230E+02 -0.71860542911E+03  0.99342357303E+03  0.12287303903E+04  0.25500000920E-02 0.  1.
</event>
<event>
 5   0  0.9726935E-05  0.1610055E+04  0.7818609E-02  0.8814394E-01
        1   -1    0    0  501    0  0.00000000000E+00  0.00000000000E+00  0.98047206114E+03  0.98047206115E+03  0.50400001928E-02 0. -1.
       -1   -1    0    0    0  501  0.00000000000E+00  0.00000000000E+00 -0.66097701534E+03  0.66097701536E+03  0.50400001928E-02 0.  1.
    10030    2    1    2    0    0  0.00000000000E+00  0.00000000000E+00  0.31949504580E+03  0.16414490765E+04  0.16100552744E+04 0.  0.
        2    1    3    3  502    0  0.70094421642E+03  0.30107251706E+03  0.42186384437E+03  0.87174340161E+03  0.25500000920E-02 0.  1.
       -2    1    3    3    0  502 -0.70094421642E+03 -0.30107251706E+03 -0.10236879857E+03  0.76970567490E+03  0.25500000920E-02 0. -1.
</event>
<event>
 5   0  0.1835088E-04  0.1579835E+04  0.7818609E-02  0.8833033E-01
       -2   -1    0    0    0  501  0.00000000000E+00  0.00000000000E+00  0.29131034990E+03  0.29131034991E+03  0.25500000920E-02 0. -1.
        2   -1    0    0  501    0  0.00000000000E+00  0.00000000000E+00 -0.21419412949E+04  0.21419412949E+04  0.25500000920E-02 0.  1.
    10030    2    1    2    0    0  0.00000000000E+00  0.00000000000E+00 -0.18506309450E+04  0.24332516448E+04  0.15798350143E+04 0.  0.
        5    1    3    3  502    0 -0.12191815052E+03 -0.14177142441E+03  0.25671096137E+03  0.31762521923E+03  0.46999998093E+01 0. -1.
       -5    1    3    3    0  502  0.12191815052E+03  0.14177142441E+03 -0.21073419063E+04  0.21156264255E+04  0.46999998093E+01 0.  1.
</event>
<event>
 5   0  0.9673017E-05  0.1599402E+04  0.7818609E-02  0.8820916E-01
        1   -1    0    0  501    0  0.00000000000E+00  0.00000000000E+00  0.30231038540E+03  0.30231038545E+03  0.50400001928E-02 0.  1.
       -1   -1    0    0    0  501  0.00000000000E+00  0.00000000000E+00 -0.21154470731E+04  0.21154470731E+04  0.50400001928E-02 0. -1.
    10030    2    1    2    0    0  0.00000000000E+00  0.00000000000E+00 -0.18131366876E+04  0.24177574585E+04  0.15994019132E+04 0.  0.
        1    1    3    3  502    0 -0.58679701272E+03  0.35378509971E+02 -0.17261342982E+04  0.18234917024E+04  0.50400001928E-02 0. -1.
       -1    1    3    3    0  502  0.58679701272E+03 -0.35378509971E+02 -0.87002389416E+02  0.59426575612E+03  0.50400001928E-02 0.  1.
</event>
<event>
 5   0  0.9726935E-05  0.1657550E+04  0.7818609E-02  0.8785952E-01
        1   -1    0    0  501    0  0.00000000000E+00  0.00000000000E+00  0.71619568572E+03  0.71619568574E+03  0.50400001928E-02 0.  1.
       -1   -1    0    0    0  501  0.00000000000E+00  0.00000000000E+00 -0.95905093826E+03  0.95905093827E+03  0.50400001928E-02 0. -1.
    10030    2    1    2    0    0  0.00000000000E+00  0.00000000000E+00 -0.24285525254E+03  0.16752466240E+04  0.16575501735E+04 0.  0.
        2    1    3    3  502    0  0.10638554462E+03 -0.44470066134E+03  0.57717677137E+03  0.73634882204E+03  0.25500000920E-02 0.  1.
       -2    1    3    3    0  502 -0.10638554462E+03  0.44470066134E+03 -0.82003202391E+03  0.93889780197E+03  0.25500000920E-02 0. -1.
</event>
<event>
 5   0  0.9673017E-05  0.1591516E+04  0.7818609E-02  0.8825777E-01
        1   -1    0    0  501    0  0.00000000000E+00  0.00000000000E+00  0.79293974530E+03  0.79293974531E+03  0.50400001928E-02 0. -1.
       -1   -1    0    0    0  501  0.00000000000E+00  0.00000000000E+00 -0.79858607044E+03  0.79858607045E+03  0.50400001928E-02 0.  1.
    10030    2    1    2    0    0  0.00000000000E+00  0.00000000000E+00 -0.56463251398E+01  0.15915258158E+04  0.15915157999E+04 0.  0.
        1    1    3    3  502    0 -0.78515218417E+02  0.37314671195E+03 -0.70127406796E+03  0.79824083244E+03  0.50400001928E-02 0.  1.
       -1    1    3    3    0  502  0.78515218417E+02 -0.37314671195E+03  0.69562774282E+03  0.79328498332E+03  0.50400001928E-02 0. -1.
</event>
<event>
 5   0  0.1835088E-04  0.1603216E+04  0.7818609E-02  0.8818575E-01
        2   -1    0    0  501    0  0.00000000000E+00  0.00000000000E+00  0.18591996381E+04  0.18591996381E+04  0.25500000920E-02 0. -1.
       -2   -1    0    0    0  501  0.00000000000E+00  0.00000000000E+00 -0.34561919139E+03  0.34561919140E+03  0.25500000920E-02 0.  1.
    10030    2    1    2    0    0  0.00000000000E+00  0.00000000000E+00  0.15135804467E+04  0.22048188295E+04  0.16032156132E+04 0.  0.
        5    1    3    3  502    0 -0.43906175143E+03  0.20890930611E+03 -0.11963729613E+03  0.50075292547E+03  0.46999998093E+01 0.  1.
       -5    1    3    3    0  502  0.43906175143E+03 -0.20890930611E+03  0.16332177429E+04  0.17040659040E+04  0.46999998093E+01 0. -1.
</event>
<event>
 5   0  0.9616567E-05  0.1596497E+04  0.7818609E-02  0.8822703E-01
       -1   -1    0    0    0  501  0.00000000000E+00  0.00000000000E+00  0.13759893438E+04  0.13759893438E+04  0.50400001928E-02 0. -1.
        1   -1    0    0  501    0  0.00000000000E+00  0.00000000000E+00 -0.46308565104E+03  0.46308565107E+03  0.50400001928E-02 0.  1.
    10030    2    1    2    0    0  0.00000000000E+00  0.00000000000E+00  0.91290369276E+03  0.18390749949E+04  0.15964973174E+04 0.  0.
        5    1    3    3  502    0  0.75544508567E+03  0.15683639069E+03  0.22070016187E+03  0.80251204499E+03  0.46999998093E+01 0.  1.
       -5    1    3    3    0  502 -0.75544508567E+03 -0.15683639069E+03  0.69220353089E+03  0.10365629499E+04  0.46999998093E+01 0. -1.
</event>
<event>
 5   0  0.9939872E-05  0.1606764E+04  0.7818609E-02  0.8816404E-01
       -1   -1    0    0    0  501  0.00000000000E+00  0.00000000000E+00  0.31710251436E+03  0.31710251440E+03  0.50400001928E-02 0. -1.
        1   -1    0    0  501    0  0.00000000000E+00  0.00000000000E+00 -0.20353745040E+04  0.20353745040E+04  0.50400001928E-02 0.  1.
    10030    2    1    2    0    0  0.00000000000E+00  0.00000000000E+00 -0.17182719896E+04  0.23524770184E+04  0.16067636701E+04 0.  0.
        3    1    3    3  502    0 -0.63533413289E+02 -0.73333646992E+03 -0.13303959945E+04  0.15204513754E+04  0.10100000352E+00 0.  1.
       -3    1    3    3    0  502  0.63533413289E+02  0.73333646992E+03 -0.38787599516E+03  0.83202564296E+03  0.10100000352E+00 0. -1.
</event>
<event>
 5   0  0.1774934E-04  0.1599651E+04  0.7818609E-02  0.8820763E-01
        2   -1    0    0  501    0  0.00000000000E+00  0.00000000000E+00  0.16694766960E+04  0.16694766960E+04  0.25500000920E-02 0.  1.
       -2   -1    0    0    0  501  0.00000000000E+00  0.00000000000E+00 -0.38318638034E+03  0.38318638034E+03  0.25500000920E-02 0. -1.
    10030    2    1    2    0    0  0.00000000000E+00  0.00000000000E+00  0.12862903157E+04  0.20526630764E+04  0.15996508772E+04 0.  0.
        1    1    3    3  502    0 -0.82443418869E+02 -0.51660743758E+03 -0.13320397706E+03  0.53983651359E+03  0.50400001928E-02 0. -1.
       -1    1    3    3    0  502  0.82443418869E+02  0.51660743758E+03  0.14194942928E+04  0.15128265628E+04  0.50400001928E-02 0.  1.
</event>
<event>
 5   0  0.9673017E-05  0.1597683E+04  0.7818609E-02  0.8821972E-01
        1   -1    0    0  501    0  0.00000000000E+00  0.00000000000E+00  0.79089471735E+03  0.79089471737E+03  0.50400001928E-02 0.  1.
       -1   -1    0    0    0  501  0.00000000000E+00  0.00000000000E+00 -0.80686849826E+03  0.80686849828E+03  0.50400001928E-02 0. -1.
    10030    2    1    2    0    0  0.00000000000E+00  0.00000000000E+00 -0.15973780907E+02  0.15977632156E+04  0.15976833640E+04 0.  0.
        1    1    3    3  502    0 -0.77412945204E+02 -0.78133472303E+03 -0.15520606613E+03  0.80035344472E+03  0.50400001928E-02 0.  1.
       -1    1    3    3    0  502  0.77412945204E+02  0.78133472303E+03  0.13923228522E+03  0.79740977092E+03  0.50400001928E-02 0. -1.
</event>
<event>
 5   0  0.1914170E-04  0.1604384E+04  0.7818609E-02  0.8817860E-01
       -2   -1    0    0    0  501  0.00000000000E+00  0.00000000000E+00  0.59578970645E+03  0.59578970645E+03  0.25500000920E-02 0. -1.
        2   -1    0    0  501    0  0.00000000000E+00  0.00000000000E+00 -0.10800987015E+04  0.10800987015E+04  0.25500000920E-02 0.  1.
    10030    2    1    2    0    0  0.00000000000E+00  0.00000000000E+00 -0.48430899502E+03  0.16758884079E+04  0.16043836054E+04 0.  0.
        3    1    3    3  502    0  0.72427642335E+03  0.33569947026E+03 -0.32467676477E+03  0.86179201873E+03  0.10100000352E+00 0. -1.
       -3    1    3    3    0  502 -0.72427642335E+03 -0.33569947026E+03 -0.15963223025E+03  0.81409638919E+03  0.10100000352E+00 0.  1.
</event>
<event>
 5   0  0.9673017E-05  0.1597284E+04  0.7818609E-02  0.8822218E-01
        1   -1    0    0  501    0  0.00000000000E+00  0.00000000000E+00  0.71253103832E+03  0.71253103834E+03  0.50400001928E-02 0. -1.
       -1   -1    0    0    0  501  0.00000000000E+00  0.00000000000E+00 -0.89515985904E+03  0.89515985906E+03  0.50400001928E-02 0.  1.
    10030    2    1    2    0    0  0.00000000000E+00  0.00000000000E+00 -0.18262882072E+03  0.16076908974E+04  0.15972841749E+04 0.  0.
        1    1    3    3  502    0  0.57311365556E+03  0.27923950171E+03  0.39285523453E+03  0.74884524224E+03  0.50400001928E-02 0. -1.
       -1    1    3    3    0  502 -0.57311365556E+03 -0.27923950171E+03 -0.57548405525E+03  0.85884565516E+03  0.50400001928E-02 0.  1.
</event>
<event>
 5   0  0.9432152E-05  0.1598177E+04  0.7818609E-02  0.8821669E-01
        1   -1    0    0  501    0  0.00000000000E+00  0.00000000000E+00  0.72833099950E+03  0.72833099952E+03  0.50400001928E-02 0.  1.
       -1   -1    0    0    0  501  0.00000000000E+00  0.00000000000E+00 -0.87671963173E+03  0.87671963175E+03  0.50400001928E-02 0. -1.
    10030    2    1    2    0    0  0.00000000000E+00  0.00000000000E+00 -0.14838863223E+03  0.16050506313E+04  0.15981765681E+04 0.  0.
        4    1    3    3  502    0 -0.10226857480E+03 -0.14988075217E+03  0.70736715170E+03  0.73026912947E+03  0.12699999809E+01 0.  1.
       -4    1    3    3    0  502  0.10226857480E+03  0.14988075217E+03 -0.85575578392E+03  0.87478150179E+03  0.12699999809E+01 0. -1.
</event>
<event>
 5   0  0.1774934E-04  0.1598811E+04  0.7818609E-02  0.8821279E-01
        2   -1    0    0  501    0  0.00000000000E+00  0.00000000000E+00  0.57697772699E+03  0.57697772700E+03  0.25500000920E-02 0.  1.
       -2   -1    0    0    0  501  0.00000000000E+00  0.00000000000E+00 -0.11075805985E+04  0.11075805985E+04  0.25500000920E-02 0. -1.
    10030    2    1    2    0    0  0.00000000000E+00  0.00000000000E+00 -0.53060287155E+03  0.16845583255E+04  0.15988112287E+04 0.  0.
        1    1    3    3  502    0 -0.76673925203E+03  0.22002922426E+03 -0.32052818719E+03  0.85967450756E+03  0.50400001928E-02 0. -1.
       -1    1    3    3    0  502  0.76673925203E+03 -0.22002922426E+03 -0.21007468436E+03  0.82488381798E+03  0.50400001928E-02 0.  1.
</event>
<event>
 5   0  0.9673017E-05  0.1611391E+04  0.7818609E-02  0.8813581E-01
       -1   -1    0    0    0  501  0.00000000000E+00  0.00000000000E+00  0.96786732197E+03  0.96786732198E+03  0.50400001928E-02 0.  1.
        1   -1    0    0  501    0  0.00000000000E+00  0.00000000000E+00 -0.67069628399E+03  0.67069628401E+03  0.50400001928E-02 0. -1.
    10030    2    1    2    0    0  0.00000000000E+00  0.00000000000E+00  0.29717103798E+03  0.16385636060E+04  0.16113907239E+04 0.  0.
        1    1    3    3  502    0  0.49084761564E+03  0.19215022594E+01  0.79827260510E+03  0.93710950589E+03  0.50400001928E-02 0.  1.
       -1    1    3    3    0  502 -0.49084761564E+03 -0.19215022594E+01 -0.50110156712E+03  0.70145410010E+03  0.50400001928E-02 0. -1.
</event>
<event>
 5   0  0.9673017E-05  0.1602243E+04  0.7818609E-02  0.8819171E-01
       -1   -1    0    0    0  501  0.00000000000E+00  0.00000000000E+00  0.50824278982E+03  0.50824278985E+03  0.50400001928E-02 0. -1.
        1   -1    0    0  501    0  0.00000000000E+00  0.00000000000E+00 -0.12627742162E+04  0.12627742162E+04  0.50400001928E-02 0.  1.
    10030    2    1    2    0    0  0.00000000000E+00  0.00000000000E+00 -0.75453142640E+03  0.17710170061E+04  0.16022432906E+04 0.  0.
        1    1    3    3  502    0 -0.61446697210E+03 -0.39508922557E+03 -0.13795482547E+02  0.73065413934E+03  0.50400001928E-02 0. -1.
       -1    1    3    3    0  502  0.61446697210E+03  0.39508922557E+03 -0.74073594385E+03  0.10403628667E+04  0.50400001928E-02 0.  1.
</event>
<event>
 5   0  0.1914170E-04  0.1606989E+04  0.7818609E-02  0.8816266E-01
       -2   -1    0    0    0  501  0.00000000000E+00  0.00000000000E+00  0.69595833787E+03  0.69595833787E+03  0.25500000920E-02 0. -1.
        2   -1    0    0  501    0  0.00000000000E+00  0.00000000000E+00 -0.92764685186E+03  0.92764685186E+03  0.25500000920E-02 0.  1.
    10030    2    1    2    0    0  0.00000000000E+00  0.00000000000E+00 -0.23168851399E+03  0.16236051897E+04  0.16069891862E+04 0.  0.
        3    1    3    3  502    0  0.99427656613E+02 -0.33872511928E+03 -0.84509897353E+03  0.91586726691E+03  0.10100000352E+00 0.  1.
       -3    1    3    3    0  502 -0.99427656613E+02  0.33872511928E+03  0.61341045954E+03  0.70773792283E+03  0.10100000352E+00 0. -1.
</event>
<event>
 5   0  0.1835088E-04  0.1598458E+04  0.7818609E-02  0.8821496E-01
       -2   -1    0    0    0  501  0.00000000000E+00  0.00000000000E+00  0.46410111056E+03  0.46410111057E+03  0.25500000920E-02 0.  1.
        2   -1    0    0  501    0  0.00000000000E+00  0.00000000000E+00 -0.13763528143E+04  0.13763528143E+04  0.25500000920E-02 0. -1.
    10030    2    1    2    0    0  0.00000000000E+00  0.00000000000E+00 -0.91225170376E+03  0.18404539249E+04  0.15984578439E+04 0.  0.
        5    1    3    3  502    0  0.67971437379E+03  0.31256962476E+02 -0.93882777626E+03  0.11594862272E+04  0.46999998093E+01 0.  1.
       -5    1    3    3    0  502 -0.67971437379E+03 -0.31256962476E+02  0.26576072498E+02  0.68096769767E+03  0.46999998093E+01 0. -1.
</event>
<event>
 5   0  0.1832646E-04  0.1597652E+04  0.7818609E-02  0.8821992E-01
        2   -1    0    0  501    0  0.00000000000E+00  0.00000000000E+00  0.11684627427E+04  0.11684627428E+04  0.25500000920E-02 0. -1.
       -2   -1    0    0    0  501  0.00000000000E+00  0.00000000000E+00 -0.54612163627E+03  0.54612163627E+03  0.25500000920E-02 0.  1.
    10030    2    1    2    0    0  0.00000000000E+00  0.00000000000E+00  0.62234110648E+03  0.17145843790E+04  0.15976517580E+04 0.  0.
        2    1    3    3  502    0 -0.45322742323E+02  0.29481810154E+03  0.11064552016E+04  0.11459559229E+04  0.25500000920E-02 0. -1.
       -2    1    3    3    0  502  0.45322742323E+02 -0.29481810154E+03 -0.48411409517E+03  0.56862845612E+03  0.25500000920E-02 0.  1.
</event>
<event>
 5   0  0.1832646E-04  0.1599332E+04  0.7818609E-02  0.8820958E-01
       -2   -1    0    0    0  501  0.00000000000E+00  0.00000000000E+00  0.44889509617E+03  0.44889509618E+03  0.25500000920E-02 0.  1.
        2   -1    0    0  501    0  0.00000000000E+00  0.00000000000E+00 -0.14245330893E+04  0.14245330893E+04  0.25500000920E-02 0. -1.
    10030    2    1    2    0    0  0.00000000000E+00  0.00000000000E+00 -0.97563799316E+03  0.18734281855E+04  0.15993322583E+04 0.  0.
        2    1    3    3  502    0  0.89735378778E+02  0.30808460458E+03  0.37017084514E+03  0.48989286214E+03  0.25500000920E-02 0.  1.
       -2    1    3    3    0  502 -0.89735378778E+02 -0.30808460458E+03 -0.13458088383E+04  0.13835353234E+04  0.25500000920E-02 0. -1.
</event>
<event>
 5   0  0.1914170E-04  0.1601188E+04  0.7818609E-02  0.8819819E-01
       -2   -1    0    0    0  501  0.00000000000E+00  0.00000000000E+00  0.11902438063E+04  0.11902438063E+04  0.25500000920E-02 0. -1.
        2   -1    0    0  501    0  0.00000000000E+00  0.00000000000E+00 -0.53850361793E+03  0.53850361794E+03  0.25500000920E-02 0.  1.
    10030    2    1    2    0    0  0.00000000000E+00  0.00000000000E+00  0.65174018835E+03  0.17287474242E+04  0.16011878040E+04 0.  0.
        3    1    3    3  502    0  0.22368565266E+03 -0.39238758271E+03  0.10395505476E+04  0.11334322377E+04  0.10100000352E+00 0. -1.
       -3    1    3    3    0  502 -0.22368565266E+03  0.39238758271E+03 -0.38781035929E+03  0.59531518647E+03  0.10100000352E+00 0.  1.
</event>
<event>
 5   0  0.9726935E-05  0.1597599E+04  0.7818609E-02  0.8822024E-01
        1   -1    0    0  501    0  0.00000000000E+00  0.00000000000E+00  0.60891363422E+03  0.60891363424E+03  0.50400001928E-02 0.  1.
       -1   -1    0    0    0  501  0.00000000000E+00  0.00000000000E+00 -0.10478999486E+04  0.10478999486E+04  0.50400001928E-02 0. -1.
    10030    2    1    2    0    0  0.00000000000E+00  0.00000000000E+00 -0.43898631439E+03  0.16568135829E+04  0.15975989059E+04 0.  0.
        2    1    3    3  502    0 -0.76410753472E+03  0.15826097903E+03 -0.39662705425E+03  0.87533986672E+03  0.25500000920E-02 0. -1.
       -2    1    3    3    0  502  0.76410753472E+03 -0.15826097903E+03 -0.42359260147E+02  0.78147371614E+03  0.25500000920E-02 0.  1.
</event>
<event>
 5   0  0.1774934E-04  0.1599341E+04  0.7818609E-02  0.8820953E-01
        2   -1    0    0  501    0  0.00000000000E+00  0.00000000000E+00  0.12967386241E+04  0.12967386241E+04  0.25500000920E-02 0. -1.
       -2   -1    0    0    0  501  0.00000000000E+00  0.00000000000E+00 -0.49313919071E+03  0.49313919072E+03  0.25500000920E-02 0.  1.
    10030    2    1    2    0    0  0.00000000000E+00  0.00000000000E+00  0.80359943341E+03  0.17898778148E+04  0.15993406587E+04 0.  0.
        1    1    3    3  502    0  0.70713057231E+02 -0.40193263725E+03 -0.36782210722E+03  0.54940266102E+03  0.50400001928E-02 0.  1.
       -1    1    3    3    0  502 -0.70713057231E+02  0.40193263725E+03  0.11714215406E+04  0.12404751538E+04  0.50400001928E-02 0. -1.
</event>
<event>
 5   0  0.9939872E-05  0.1605572E+04  0.7818609E-02  0.8817132E-01
        1   -1    0    0  501    0  0.00000000000E+00  0.00000000000E+00  0.73581357402E+03  0.73581357404E+03  0.50400001928E-02 0.  1.
       -1   -1    0    0    0  501  0.00000000000E+00  0.00000000000E+00 -0.87585376721E+03  0.87585376722E+03  0.50400001928E-02 0. -1.
    10030    2    1    2    0    0  0.00000000000E+00  0.00000000000E+00 -0.14004019319E+03  0.16116673413E+04  0.16055716624E+04 0.  0.
        3    1    3    3  502    0  0.21895031271E+03 -0.76286357517E+03 -0.19116385893E+03  0.81636003388E+03  0.10100000352E+00 0. -1.
       -3    1    3    3    0  502 -0.21895031271E+03  0.76286357517E+03  0.51123665739E+02  0.79530730737E+03  0.10100000352E+00 0.  1.
</event>
<event>
 5   0  0.9939872E-05  0.1595684E+04  0.7818609E-02  0.8823204E-01
        1   -1    0    0  501    0  0.00000000000E+00  0.00000000000E+00  0.20017102031E+04  0.20017102031E+04  0.50400001928E-02 0.  1.
       -1   -1    0    0    0  501  0.00000000000E+00  0.00000000000E+00 -0.31800407940E+03  0.31800407944E+03  0.50400001928E-02 0. -1.
    10030    2    1    2    0    0  0.00000000000E+00  0.00000000000E+00  0.16837061237E+04  0.23197142825E+04  0.15956841923E+04 0.  0.
        3    1    3    3  502    0  0.45511118539E+02  0.14191368438E+03 -0.29758937563E+03  0.33282157745E+03  0.10100000352E+00 0. -1.
       -3    1    3    3    0  502 -0.45511118539E+02 -0.14191368438E+03  0.19812954993E+04  0.19868927051E+04  0.10100000352E+00 0.  1.
</event>
<event>
 5   0  0.9432152E-05  0.1602589E+04  0.7818609E-02  0.8818959E-01
        1   -1    0    0  501    0  0.00000000000E+00  0.00000000000E+00  0.12906015630E+04  0.12906015630E+04  0.50400001928E-02 0.  1.
       -1   -1    0    0    0  501  0.00000000000E+00  0.00000000000E+00 -0.49749908724E+03  0.49749908726E+03  0.50400001928E-02 0. -1.
    10030    2    1    2    0    0  0.00000000000E+00  0.00000000000E+00  0.79310247577E+03  0.17881006503E+04  0.16025892794E+04 0.  0.
        4    1    3    3  502    0  0.78549977972E+03 -0.16798253283E+01  0.57317516008E+03  0.97239092076E+03  0.12699999809E+01 0.  1.
       -4    1    3    3    0  502 -0.78549977972E+03  0.16798253283E+01  0.21992731570E+03  0.81570972952E+03  0.12699999809E+01 0. -1.
</event>
<event>
 5   0  0.1858913E-04  0.1597474E+04  0.7818609E-02  0.8822101E-01
        2   -1    0    0  501    0  0.00000000000E+00  0.00000000000E+00  0.64062202690E+03  0.64062202690E+03  0.25500000920E-02 0. -1.
       -2   -1    0    0    0  501  0.00000000000E+00  0.00000000000E+00 -0.99587711153E+03  0.99587711153E+03  0.25500000920E-02 0.  1.
    10030    2    1    2    0    0  0.00000000000E+00  0.00000000000E+00 -0.35525508463E+03  0.16364991384E+04  0.15974740232E+04 0.  0.
        4    1    3    3  502    0  0.62019364730E+02 -0.26011828240E+03 -0.94865691621E+03  0.98562644040E+03  0.12699999809E+01 0.  1.
       -4    1    3    3    0  502 -0.62019364730E+02  0.26011828240E+03  0.59340183157E+03  0.65087269804E+03  0.12699999809E+01 0. -1.
</event>
<event>
 5   0  0.9939872E-05  0.1586957E+04  0.7818609E-02  0.8828601E-01
        1   -1    0    0  501    0  0.00000000000E+00  0.00000000000E+00  0.19501889206E+04  0.19501889206E+04  0.50400001928E-02 0.  1.
       -1   -1    0    0    0  501  0.00000000000E+00  0.00000000000E+00 -0.32284453818E+03  0.32284453822E+03  0.50400001928E-02 0. -1.
    10030    2    1    2    0    0  0.00000000000E+00  0.00000000000E+00  0.16273443824E+04  0.22730334588E+04  0.15869566365E+04 0.  0.
        3    1    3    3  502    0 -0.55593518018E+03 -0.37710019024E+03  0.14185454186E+04  0.15695666895E+04  0.10100000352E+00 0.  1.
       -3    1    3    3    0  502  0.55593518018E+03  0.37710019024E+03  0.20879896384E+03  0.70346676932E+03  0.10100000352E+00 0. -1.
</event>
<event>
 5   0  0.1835088E-04  0.1580700E+04  0.7818609E-02  0.8832493E-01
       -2   -1    0    0    0  501  0.00000000000E+00  0.00000000000E+00  0.41671538482E+03  0.41671538482E+03  0.25500000920E-02 0.  1.
        2   -1    0    0  501    0  0.00000000000E+00  0.00000000000E+00 -0.14989917726E+04  0.14989917726E+04  0.25500000920E-02 0. -1.
    10030    2    1    2    0    0  0.00000000000E+00  0.00000000000E+00 -0.10822763878E+04  0.19157071574E+04  0.15806997607E+04 0.  0.
        5    1    3    3  502    0  0.78673333633E+03  0.74541866271E+02 -0.52758773774E+03  0.95019826528E+03  0.46999998093E+01 0. -1.
       -5    1    3    3    0  502 -0.78673333633E+03 -0.74541866271E+02 -0.55468865003E+03  0.96550889214E+03  0.46999998093E+01 0.  1.
</event>
<event>
 5   0  0.9939872E-05  0.1611825E+04  0.7818609E-02  0.8813316E-01
       -1   -1    0    0    0  501  0.00000000000E+00  0.00000000000E+00  0.43563466152E+03  0.43563466155E+03  0.50400001928E-02 0. -1.
        1   -1    0    0  501    0  0.00000000000E+00  0.00000000000E+00 -0.14909166986E+04  0.14909166986E+04  0.50400001928E-02 0.  1.
    10030    2    1    2    0    0  0.00000000000E+00  0.00000000000E+00 -0.10552820371E+04  0.19265513602E+04  0.16118250419E+04 0.  0.
        3    1    3    3  502    0 -0.19920034444E+03 -0.16925644060E+03 -0.14388394518E+04  0.14623910210E+04  0.10100000352E+00 0.  1.
       -3    1    3    3    0  502  0.19920034444E+03  0.16925644060E+03  0.38355741472E+03  0.46416033921E+03  0.10100000352E+00 0. -1.
</event>
<event>
 5   0  0.1774934E-04  0.1591097E+04  0.7818609E-02  0.8826036E-01
        2   -1    0    0  501    0  0.00000000000E+00  0.00000000000E+00  0.17112654560E+04  0.17112654560E+04  0.25500000920E-02 0.  1.
       -2   -1    0    0    0  501  0.00000000000E+00  0.00000000000E+00 -0.36984172111E+03  0.36984172112E+03  0.25500000920E-02 0. -1.
    10030    2    1    2    0    0  0.00000000000E+00  0.00000000000E+00  0.13414237349E+04  0.20811071771E+04  0.15910969317E+04 0.  0.
        1    1    3    3  502    0 -0.10190590395E+02  0.32271218983E+03 -0.28029154039E+03  0.42756327396E+03  0.50400001928E-02 0. -1.
       -1    1    3    3    0  502  0.10190590395E+02 -0.32271218983E+03  0.16217152753E+04  0.16535439032E+04  0.50400001928E-02 0.  1.
</event>
<event>
 5   0  0.9939872E-05  0.1607599E+04  0.7818609E-02  0.8815893E-01
       -1   -1    0    0    0  501  0.00000000000E+00  0.00000000000E+00  0.39968683793E+03  0.39968683796E+03  0.50400001928E-02 0.  1.
        1   -1    0    0  501    0  0.00000000000E+00  0.00000000000E+00 -0.16164994501E+04  0.16164994501E+04  0.50400001928E-02 0. -1.
    10030    2    1    2    0    0  0.00000000000E+00  0.00000000000E+00 -0.12168126121E+04  0.20161862880E+04  0.16075988974E+04 0.  0.
        3    1    3    3  502    0  0.18805257357E+03 -0.53825372560E+03 -0.13189880808E+04  0.14369448184E+04  0.10100000352E+00 0. -1.
       -3    1    3    3    0  502 -0.18805257357E+03  0.53825372560E+03  0.10217546869E+03  0.57924146964E+03  0.10100000352E+00 0.  1.
</event>
<event>
 5   0  0.1835088E-04  0.1594150E+04  0.7818609E-02  0.8824150E-01
        2   -1    0    0  501    0  0.00000000000E+00  0.00000000000E+00  0.77637881291E+03  0.77637881291E+03  0.25500000920E-02 0. -1.
       -2   -1    0    0    0  501  0.00000000000E+00  0.00000000000E+00 -0.81832272786E+03  0.81832272786E+03  0.25500000920E-02 0.  1.
    10030    2    1    2    0    0  0.00000000000E+00  0.00000000000E+00 -0.41943914954E+02  0.15947015408E+04  0.15941498399E+04 0.  0.
        5    1    3    3  502    0  0.39490701849E+01 -0.51840935497E+03  0.58466508923E+03  0.78142127629E+03  0.46999998093E+01 0. -1.
       -5    1    3    3    0  502 -0.39490701849E+01  0.51840935497E+03 -0.62660900418E+03  0.81328026448E+03  0.46999998093E+01 0.  1.
</event>
<event>
 5   0  0.1914170E-04  0.1596121E+04  0.7818609E-02  0.8822935E-01
        2   -1    0    0  501    0  0.00000000000E+00  0.00000000000E+00  0.13855109811E+04  0.13855109812E+04  0.25500000920E-02 0.  1.
       -2   -1    0    0    0  501  0.00000000000E+00  0.00000000000E+00 -0.45968633580E+03  0.45968633580E+03  0.25500000920E-02 0. -1.
    10030    2    1    2    0    0  0.00000000000E+00  0.00000000000E+00  0.92582464535E+03  0.18451973170E+04  0.15961208803E+04 0.  0.
        3    1    3    3  502    0  0.39436076055E+03 -0.64120636233E+03  0.15653817205E+03  0.76887594452E+03  0.10100000352E+00 0.  1.
       -3    1    3    3    0  502 -0.39436076055E+03  0.64120636233E+03  0.76928647330E+03  0.10763213724E+04  0.10100000352E+00 0. -1.
</event>
<event>
 5   0  0.1914170E-04  0.1598233E+04  0.7818609E-02  0.8821635E-01
        2   -1    0    0  501    0  0.00000000000E+00  0.00000000000E+00  0.65564152230E+03  0.65564152230E+03  0.25500000920E-02 0. -1.
       -2   -1    0    0    0  501  0.00000000000E+00  0.00000000000E+00 -0.97398774944E+03  0.97398774944E+03  0.25500000920E-02 0.  1.
    10030    2    1    2    0    0  0.00000000000E+00  0.00000000000E+00 -0.31834622714E+03  0.16296292717E+04  0.15982325372E+04 0.  0.
        3    1    3    3  502    0  0.30862236413E+03 -0.65886619717E+03 -0.49617203076E+03  0.88064699155E+03  0.10100000352E+00 0.  1.
       -3    1    3    3    0  502 -0.30862236413E+03  0.65886619717E+03  0.17782580362E+03  0.74898228020E+03  0.10100000352E+00 0. -1.
</event>
<event>
 5   0  0.9673017E-05  0.1605057E+04  0.7818609E-02  0.8817447E-01
       -1   -1    0    0    0  501  0.00000000000E+00  0.00000000000E+00  0.56671103398E+03  0.56671103400E+03  0.50400001928E-02 0. -1.
        1   -1    0    0  501    0  0.00000000000E+00  0.00000000000E+00 -0.11364736105E+04  0.11364736105E+04  0.50400001928E-02 0.  1.
    10030    2    1    2    0    0  0.00000000000E+00  0.00000000000E+00 -0.56976257653E+03  0.17031846445E+04  0.16050571765E+04 0.  0.
        1    1    3    3  502    0  0.10021950196E+03  0.14013243743E+03 -0.11166194142E+04  0.11298318303E+04  0.50400001928E-02 0.  1.
       -1    1    3    3    0  502 -0.10021950196E+03 -0.14013243743E+03  0.54685683769E+03  0.57335281419E+03  0.50400001928E-02 0. -1.
</event>
<event>
 5   0  0.9432152E-05  0.1600979E+04  0.7818609E-02  0.8819947E-01
        1   -1    0    0  501    0  0.00000000000E+00  0.00000000000E+00  0.80700079493E+03  0.80700079495E+03  0.50400001928E-02 0. -1.
       -1   -1    0    0    0  501  0.00000000000E+00  0.00000000000E+00 -0.79403107158E+03  0.79403107160E+03  0.50400001928E-02 0.  1.
    10030    2    1    2    0    0  0.00000000000E+00  0.00000000000E+00  0.12969723349E+02  0.16010318665E+04  0.16009793328E+04 0.  0.
        4    1    3    3  502    0  0.46113487317E+03  0.47765721512E+03  0.45369111276E+03  0.80413868525E+03  0.12699999809E+01 0. -1.
       -4    1    3    3    0  502 -0.46113487317E+03 -0.47765721512E+03 -0.44072138941E+03  0.79689318130E+03  0.12699999809E+01 0.  1.
</event>
<event>
 5   0  0.9673017E-05  0.1603235E+04  0.7818609E-02  0.8818563E-01
       -1   -1    0    0    0  501  0.00000000000E+00  0.00000000000E+00  0.37920321816E+03  0.37920321819E+03  0.50400001928E-02 0. -1.
        1   -1    0    0  501    0  0.00000000000E+00  0.00000000000E+00 -0.16945813157E+04  0.16945813157E+04  0.50400001928E-02 0.  1.
    10030    2    1    2    0    0  0.00000000000E+00  0.00000000000E+00 -0.13153780975E+04  0.20737845339E+04  0.16032350899E+04 0.  0.
        1    1    3    3  502    0  0.42499085291E+03  0.67127107703E+03 -0.51977135084E+03  0.94941262952E+03  0.50400001928E-02 0.  1.
       -1    1    3    3    0  502 -0.42499085291E+03 -0.67127107703E+03 -0.79560674668E+03  0.11243719044E+04  0.50400001928E-02 0. -1.
</event>
<event>
 5   0  0.9616567E-05  0.1598033E+04  0.7818609E-02  0.8821757E-01
        1   -1    0    0  501    0  0.00000000000E+00  0.00000000000E+00  0.23205234032E+04  0.23205234032E+04  0.50400001928E-02 0.  1.
       -1   -1    0    0    0  501  0.00000000000E+00  0.00000000000E+00 -0.27512204695E+03  0.27512204700E+03  0.50400001928E-02 0. -1.
    10030    2    1    2    0    0  0.00000000000E+00  0.00000000000E+00  0.20454013563E+04  0.25956454502E+04  0.15980327265E+04 0.  0.
        5    1    3    3  502    0  0.66914827289E+03 -0.10249838302E+03  0.33331151263E+03  0.75457536673E+03  0.46999998093E+01 0. -1.
       -5    1    3    3    0  502 -0.66914827289E+03  0.10249838302E+03  0.17120898437E+04  0.18410700835E+04  0.46999998093E+01 0.  1.
</event>
<event>
 5   0  0.9939872E-05  0.1597255E+04  0.7818609E-02  0.8822236E-01
       -1   -1    0    0    0  501  0.00000000000E+00  0.00000000000E+00  0.77415472659E+03  0.77415472661E+03  0.50400001928E-02 0. -1.
        1   -1    0    0  501    0  0.00000000000E+00  0.00000000000E+00 -0.82387380693E+03  0.82387380694E+03  0.50400001928E-02 0.  1.
    10030    2    1    2    0    0  0.00000000000E+00  0.00000000000E+00 -0.49719080338E+02  0.15980285335E+04  0.15972548973E+04 0.  0.
        3    1    3    3  502    0 -0.46803303204E+03  0.45038359382E+03 -0.48974091297E+03  0.81347800997E+03  0.10100000352E+00 0.  1.
       -3    1    3    3    0  502  0.46803303204E+03 -0.45038359382E+03  0.44002183263E+03  0.78455052358E+03  0.10100000352E+00 0. -1.
</event>
<event>
 5   0  0.9432152E-05  0.1601981E+04  0.7818609E-02  0.8819332E-01
        1   -1    0    0  501    0  0.00000000000E+00  0.00000000000E+00  0.83839886373E+03  0.83839886374E+03  0.50400001928E-02 0.  1.
       -1   -1    0    0    0  501  0.00000000000E+00  0.00000000000E+00 -0.76525103842E+03  0.76525103843E+03  0.50400001928E-02 0. -1.
    10030    2    1    2    0    0  0.00000000000E+00  0.00000000000E+00  0.73147825309E+02  0.16036499022E+04  0.16019807753E+04 0.  0.
        4    1    3    3  502    0  0.15471600165E+03  0.10666160861E+03 -0.74287093458E+03  0.76627186968E+03  0.12699999809E+01 0. -1.
       -4    1    3    3    0  502 -0.15471600165E+03 -0.10666160861E+03  0.81601875989E+03  0.83737803250E+03  0.12699999809E+01 0.  1.
</event>
<event>
 5   0  0.9726935E-05  0.1603422E+04  0.7818609E-02  0.8818448E-01
        1   -1    0    0  501    0  0.00000000000E+00  0.00000000000E+00  0.65059669215E+03  0.65059669217E+03  0.50400001928E-02 0.  1.
       -1   -1    0    0    0  501  0.00000000000E+00  0.00000000000E+00 -0.98792474852E+03  0.98792474853E+03  0.50400001928E-02 0. -1.
    10030    2    1    2    0    0  0.00000000000E+00  0.00000000000E+00 -0.33732805637E+03  0.16385214407E+04  0.16034220574E+04 0.  0.
        2    1    3    3  502    0  0.67433822044E+03 -0.42898536255E+03 -0.23313305059E+03  0.83253318019E+03  0.25500000920E-02 0. -1.
       -2    1    3    3    0  502 -0.67433822044E+03  0.42898536255E+03 -0.10419500578E+03  0.80598826051E+03  0.25500000920E-02 0.  1.
</event>
<event>
 5   0  0.1832646E-04  0.1598890E+04  0.7818609E-02  0.8821230E-01
       -2   -1    0    0    0  501  0.00000000000E+00  0.00000000000E+00  0.27999486759E+03  0.27999486761E+03  0.25500000920E-02 0. -1.
        2   -1    0    0  501    0  0.00000000000E+00  0.00000000000E+00 -0.22825863556E+04  0.22825863556E+04  0.25500000920E-02 0.  1.
    10030    2    1    2    0    0  0.00000000000E+00  0.00000000000E+00 -0.20025914880E+04  0.25625812232E+04  0.15988901956E+04 0.  0.
        2    1    3    3  502    0 -0.50879507901E+03 -0.61637961545E+03 -0.97279599329E+03  0.12590187875E+04  0.25500000920E-02 0. -1.
       -2    1    3    3    0  502  0.50879507901E+03  0.61637961545E+03 -0.10297954947E+04  0.13035624357E+04  0.25500000920E-02 0.  1.
</event>
<event>
 5   0  0.9616567E-05  0.1603068E+04  0.7818609E-02  0.8818666E-01
        1   -1    0    0  501    0  0.00000000000E+00  0.00000000000E+00  0.77254096027E+03  0.77254096029E+03  0.50400001928E-02 0.  1.
       -1   -1    0    0    0  501  0.00000000000E+00  0.00000000000E+00 -0.83161465017E+03  0.83161465019E+03  0.50400001928E-02 0. -1.
    10030    2    1    2    0    0  0.00000000000E+00  0.00000000000E+00 -0.59073689902E+02  0.16041556105E+04  0.16030675350E+04 0.  0.
        5    1    3    3  502    0 -0.25558592056E+03 -0.13212488856E+02  0.73054144631E+03  0.77408760966E+03  0.46999998093E+01 0.  1.
       -5    1    3    3    0  502  0.25558592056E+03  0.13212488856E+02 -0.78961513621E+03  0.83006800082E+03  0.46999998093E+01 0. -1.
</event>
<event>
 5   0  0.9939872E-05  0.1600634E+04  0.7818609E-02  0.8820159E-01
        1   -1    0    0  501    0  0.00000000000E+00  0.00000000000E+00  0.10443294014E+04  0.10443294014E+04  0.50400001928E-02 0.  1.
       -1   -1    0    0    0  501  0.00000000000E+00  0.00000000000E+00 -0.61331892504E+03  0.61331892506E+03  0.50400001928E-02 0. -1.
    10030    2    1    2    0    0  0.00000000000E+00  0.00000000000E+00  0.43101047638E+03  0.16576483265E+04  0.16006336069E+04 0.  0.
        3    1    3    3  502    0 -0.69993524760E+03 -0.56104025173E+02 -0.18216473746E+03  0.72542471301E+03  0.10100000352E+00 0.  1.
       -3    1    3    3    0  502  0.69993524760E+03  0.56104025173E+02  0.61317521383E+03  0.93222361348E+03  0.10100000352E+00 0. -1.
</event>
<event>
 5   0  0.1832646E-04  0.1666993E+04  0.7818609E-02  0.8780416E-01
       -2   -1    0    0    0  501  0.00000000000E+00  0.00000000000E+00  0.49140885631E+03  0.49140885631E+03  0.25500000920E-02 0. -1.
        2   -1    0    0  501    0  0.00000000000E+00  0.00000000000E+00 -0.14137241578E+04  0.14137241578E+04  0.25500000920E-02 0.  1.
    10030    2    1    2    0    0  0.00000000000E+00  0.00000000000E+00 -0.92231530146E+03  0.19051330141E+04  0.16669931872E+04 0.  0.
        2    1    3    3  502    0 -0.69265648981E+03 -0.38095668756E+03 -0.15918501227E+03  0.80637514769E+03  0.25500000920E-02 0. -1.
       -2    1    3    3    0  502  0.69265648981E+03  0.38095668756E+03 -0.76313028919E+03  0.10987578664E+04  0.25500000920E-02 0.  1.
</event>
<event>
 5   0  0.9726935E-05  0.1590736E+04  0.7818609E-02  0.8826259E-01
        1   -1    0    0  501    0  0.00000000000E+00  0.00000000000E+00  0.20629240190E+04  0.20629240190E+04  0.50400001928E-02 0. -1.
       -1   -1    0    0    0  501  0.00000000000E+00  0.00000000000E+00 -0.30665727183E+03  0.30665727187E+03  0.50400001928E-02 0.  1.
    10030    2    1    2    0    0  0.00000000000E+00  0.00000000000E+00  0.17562667472E+04  0.23695812909E+04  0.15907364982E+04 0.  0.
        2    1    3    3  502    0  0.33265412268E+03  0.43613970412E+03  0.20170710626E+02  0.54889294441E+03  0.25500000920E-02 0.  1.
       -2    1    3    3    0  502 -0.33265412268E+03 -0.43613970412E+03  0.17360960365E+04  0.18206883465E+04  0.25500000920E-02 0. -1.
</event>
<event>
 5   0  0.9616567E-05  0.1598360E+04  0.7818609E-02  0.8821556E-01
       -1   -1    0    0    0  501  0.00000000000E+00  0.00000000000E+00  0.10010255109E+04  0.10010255110E+04  0.50400001928E-02 0. -1.
        1   -1    0    0  501    0  0.00000000000E+00  0.00000000000E+00 -0.63803436081E+03  0.63803436083E+03  0.50400001928E-02 0.  1.
    10030    2    1    2    0    0  0.00000000000E+00  0.00000000000E+00  0.36299115013E+03  0.16390598718E+04  0.15983599996E+04 0.  0.
        5    1    3    3  502    0  0.25302125424E+03 -0.31621625556E+03 -0.52499900876E+03  0.66306751133E+03  0.46999998093E+01 0.  1.
       -5    1    3    3    0  502 -0.25302125424E+03  0.31621625556E+03  0.88799015889E+03  0.97599236045E+03  0.46999998093E+01 0. -1.
</event>
<event>
 5   0  0.1774934E-04  0.1601487E+04  0.7818609E-02  0.8819635E-01
        2   -1    0    0  501    0  0.00000000000E+00  0.00000000000E+00  0.10447222303E+04  0.10447222303E+04  0.25500000920E-02 0.  1.
       -2   -1    0    0    0  501  0.00000000000E+00  0.00000000000E+00 -0.61374252256E+03  0.61374252256E+03  0.25500000920E-02 0. -1.
    10030    2    1    2    0    0  0.00000000000E+00  0.00000000000E+00  0.43097970778E+03  0.16584647529E+04  0.16014873799E+04 0.  0.
        1    1    3    3  502    0  0.57859867330E+03 -0.18680926156E+03 -0.32412103442E+03  0.68900549340E+03  0.50400001928E-02 0. -1.
       -1    1    3    3    0  502 -0.57859867330E+03  0.18680926156E+03  0.75510074220E+03  0.96945925951E+03  0.50400001928E-02 0.  1.
</event>
<event>
 5   0  0.1832646E-04  0.1603859E+04  0.7818609E-02  0.8818181E-01
        2   -1    0    0  501    0  0.00000000000E+00  0.00000000000E+00  0.13523586639E+04  0.13523586639E+04  0.25500000920E-02 0.  1.
       -2   -1    0    0    0  501  0.00000000000E+00  0.00000000000E+00 -0.47553263098E+03  0.47553263098E+03  0.25500000920E-02 0. -1.
    10030    2    1    2    0    0  0.00000000000E+00  0.00000000000E+00  0.87682603288E+03  0.18278912948E+04  0.16038586889E+04 0.  0.
        2    1    3    3  502    0 -0.28234746004E+03  0.11559366337E+03  0.12836316036E+04  0.13193907977E+04  0.25500000920E-02 0.  1.
       -2    1    3    3    0  502  0.28234746004E+03 -0.11559366337E+03 -0.40680557074E+03  0.50850049715E+03  0.25500000920E-02 0. -1.
</event>
<event>
 5   0  0.1858913E-04  0.1598558E+04  0.7818609E-02  0.8821434E-01
        2   -1    0    0  501    0  0.00000000000E+00  0.00000000000E+00  0.13298795816E+04  0.13298795816E+04  0.25500000920E-02 0. -1.
       -2   -1    0    0    0  501  0.00000000000E+00  0.00000000000E+00 -0.48037974051E+03  0.48037974052E+03  0.25500000920E-02 0.  1.
    10030    2    1    2    0    0  0.00000000000E+00  0.00000000000E+00  0.84949984113E+03  0.18102593222E+04  0.15985583610E+04 0.  0.
        4    1    3    3  502    0 -0.33738495590E+03 -0.17741715558E+03  0.12203110144E+04  0.12784623734E+04  0.12699999809E+01 0. -1.
       -4    1    3    3    0  502  0.33738495590E+03  0.17741715558E+03 -0.37081117325E+03  0.53179694872E+03  0.12699999809E+01 0.  1.
</event>
<event>
 5   0  0.1835088E-04  0.1591014E+04  0.7818609E-02  0.8826087E-01
        2   -1    0    0  501    0  0.00000000000E+00  0.00000000000E+00  0.16466742762E+04  0.16466742762E+04  0.25500000920E-02 0. -1.
       -2   -1    0    0    0  501  0.00000000000E+00  0.00000000000E+00 -0.38430899174E+03  0.38430899175E+03  0.25500000920E-02 0.  1.
    10030    2    1    2    0    0  0.00000000000E+00  0.00000000000E+00  0.12623652845E+04  0.20309832680E+04  0.15910144322E+04 0.  0.
        5    1    3    3  502    0 -0.46996652969E+03 -0.60016102311E+03  0.34079483730E+03  0.83500000229E+03  0.46999998093E+01 0. -1.
       -5    1    3    3    0  502  0.46996652969E+03  0.60016102311E+03  0.92157044717E+03  0.11959832657E+04  0.46999998093E+01 0.  1.
</event>
<event>
 5   0  0.1858913E-04  0.1604347E+04  0.7818609E-02  0.8817882E-01
       -2   -1    0    0    0  501  0.00000000000E+00  0.00000000000E+00  0.39914434624E+03  0.39914434625E+03  0.25500000920E-02 0.  1.
        2   -1    0    0  501    0  0.00000000000E+00  0.00000000000E+00 -0.16121546665E+04  0.16121546665E+04  0.25500000920E-02 0. -1.
    10030    2    1    2    0    0  0.00000000000E+00  0.00000000000E+00 -0.12130103203E+04  0.20112990127E+04  0.16043471201E+04 0.  0.
        4    1    3    3  502    0 -0.67940178047E+03 -0.17909718793E+03 -0.10917496648E+04  0.12982994745E+04  0.12699999809E+01 0. -1.
       -4    1    3    3    0  502  0.67940178047E+03  0.17909718793E+03 -0.12126065544E+03  0.71299953821E+03  0.12699999809E+01 0.  1.
</event>
<event>
 5   0  0.1774934E-04  0.1604496E+04  0.7818609E-02  0.8817791E-01
       -2   -1    0    0    0  501  0.00000000000E+00  0.00000000000E+00  0.78908402514E+03  0.78908402514E+03  0.25500000920E-02 0.  1.
        2   -1    0    0  501    0  0.00000000000E+00  0.00000000000E+00 -0.81563189810E+03  0.81563189810E+03  0.25500000920E-02 0. -1.
    10030    2    1    2    0    0  0.00000000000E+00  0.00000000000E+00 -0.26547872964E+02  0.16047159232E+04  0.16044963087E+04 0.  0.
        1    1    3    3  502    0  0.29485926072E+03  0.35513501470E+03 -0.66951863669E+03  0.81321465014E+03  0.50400001928E-02 0. -1.
       -1    1    3    3    0  502 -0.29485926072E+03 -0.35513501470E+03  0.64297076372E+03  0.79150127311E+03  0.50400001928E-02 0.  1.
</event>
<event>
 5   0  0.9726935E-05  0.1601096E+04  0.7818609E-02  0.8819875E-01
       -1   -1    0    0    0  501  0.00000000000E+00  0.00000000000E+00  0.14698005221E+04  0.14698005221E+04  0.50400001928E-02 0. -1.
        1   -1    0    0  501    0  0.00000000000E+00  0.00000000000E+00 -0.43602997958E+03  0.43602997961E+03  0.50400001928E-02 0.  1.
    10030    2    1    2    0    0  0.00000000000E+00  0.00000000000E+00  0.10337705425E+04  0.19058305017E+04  0.16010959892E+04 0.  0.
        2    1    3    3  502    0 -0.10943570388E+03  0.78259690389E+03  0.66952145189E+03  0.10357089658E+04  0.25500000920E-02 0. -1.
       -2    1    3    3    0  502  0.10943570388E+03 -0.78259690389E+03  0.36424909063E+03  0.87012153593E+03  0.25500000920E-02 0.  1.
</event>
<event>
 5   0  0.1832646E-04  0.1595708E+04  0.7818609E-02  0.8823189E-01
        2   -1    0    0  501    0  0.00000000000E+00  0.00000000000E+00  0.96011550699E+03  0.96011550699E+03  0.25500000920E-02 0. -1.
       -2   -1    0    0    0  501  0.00000000000E+00  0.00000000000E+00 -0.66301535085E+03  0.66301535085E+03  0.25500000920E-02 0.  1.
    10030    2    1    2    0    0  0.00000000000E+00  0.00000000000E+00  0.29710015614E+03  0.16231308578E+04  0.15957083941E+04 0.  0.
        2    1    3    3  502    0  0.31957354101E+03  0.31963170937E+03  0.81732872188E+03  0.93397961293E+03  0.25500000920E-02 0. -1.
       -2    1    3    3    0  502 -0.31957354101E+03 -0.31963170937E+03 -0.52022856574E+03  0.68915124491E+03  0.25500000920E-02 0.  1.
</event>
<event>
 5   0  0.1914170E-04  0.1603775E+04  0.7818609E-02  0.8818232E-01
        2   -1    0    0  501    0  0.00000000000E+00  0.00000000000E+00  0.17957912859E+04  0.17957912859E+04  0.25500000920E-02 0. -1.
       -2   -1    0    0    0  501  0.00000000000E+00  0.00000000000E+00 -0.35807237997E+03  0.35807237998E+03  0.25500000920E-02 0.  1.
    10030    2    1    2    0    0  0.00000000000E+00  0.00000000000E+00  0.14377189059E+04  0.21538636659E+04  0.16037746222E+04 0.  0.
        3    1    3    3  502    0 -0.55113588244E+03 -0.54417486523E+03  0.43989673072E+03  0.89072228487E+03  0.10100000352E+00 0. -1.
       -3    1    3    3    0  502  0.55113588244E+03  0.54417486523E+03  0.99782217520E+03  0.12631413810E+04  0.10100000352E+00 0.  1.
</event>
<event>
 5   0  0.1835088E-04  0.1604068E+04  0.7818609E-02  0.8818053E-01
       -2   -1    0    0    0  501  0.00000000000E+00  0.00000000000E+00  0.17376263771E+04  0.17376263771E+04  0.25500000920E-02 0. -1.
        2   -1    0    0  501    0  0.00000000000E+00  0.00000000000E+00 -0.37019375886E+03  0.37019375887E+03  0.25500000920E-02 0.  1.
    10030    2    1    2    0    0  0.00000000000E+00  0.00000000000E+00  0.13674326183E+04  0.21078201360E+04  0.16040678789E+04 0.  0.
        5    1    3    3  502    0 -0.78655296997E+03 -0.96566166892E+02  0.52146611823E+03  0.94865146478E+03  0.46999998093E+01 0.  1.
       -5    1    3    3    0  502  0.78655296997E+03  0.96566166892E+02  0.84596650003E+03  0.11591686712E+04  0.46999998093E+01 0. -1.
</event>
<event>
 5   0  0.1774934E-04  0.1616341E+04  0.7818609E-02  0.8810572E-01
       -2   -1    0    0    0  501  0.00000000000E+00  0.00000000000E+00  0.40663988701E+03  0.40663988702E+03  0.25500000920E-02 0.  1.
        2   -1    0    0  501    0  0.00000000000E+00  0.00000000000E+00 -0.16061860161E+04  0.16061860161E+04  0.25500000920E-02 0. -1.
    10030    2    1    2    0    0  0.00000000000E+00  0.00000000000E+00 -0.11995461291E+04  0.20128259031E+04  0.16163406821E+04 0.  0.
        1    1    3    3  502    0 -0.45611469322E+03  0.21227220261E+03 -0.13874072967E+04  0.14758045631E+04  0.50400001928E-02 0. -1.
       -1    1    3    3    0  502  0.45611469322E+03 -0.21227220261E+03  0.18786116761E+03  0.53702134007E+03  0.50400001928E-02 0.  1.
</event>
<event>
 5   0  0.9673017E-05  0.1602933E+04  0.7818609E-02  0.8818748E-01
        1   -1    0    0  501    0  0.00000000000E+00  0.00000000000E+00  0.98908041648E+03  0.98908041650E+03  0.50400001928E-02 0. -1.
       -1   -1    0    0    0  501  0.00000000000E+00  0.00000000000E+00 -0.64944033768E+03  0.64944033770E+03  0.50400001928E-02 0.  1.
    10030    2    1    2    0    0  0.00000000000E+00  0.00000000000E+00  0.33964007881E+03  0.16385207542E+04  0.16029332110E+04 0.  0.
        1    1    3    3  502    0  0.58831114730E+02 -0.26366452272E+03 -0.60149764869E+03  0.65937811763E+03  0.50400001928E-02 0.  1.
       -1    1    3    3    0  502 -0.58831114730E+02  0.26366452272E+03  0.94113772749E+03  0.97914263657E+03  0.50400001928E-02 0. -1.
</event>
<event>
 5   0  0.1832646E-04  0.1596327E+04  0.7818609E-02  0.8822807E-01
       -2   -1    0    0    0  501  0.00000000000E+00  0.00000000000E+00  0.24705435998E+03  0.24705435999E+03  0.25500000920E-02 0. -1.
        2   -1    0    0  501    0  0.00000000000E+00  0.00000000000E+00 -0.25786438079E+04  0.25786438079E+04  0.25500000920E-02 0.  1.
    10030    2    1    2    0    0  0.00000000000E+00  0.00000000000E+00 -0.23315894479E+04  0.28256981679E+04  0.15963272792E+04 0.  0.
        2    1    3    3  502    0  0.11072016047E+03 -0.69570394805E+03 -0.18300096719E+04  0.19609177281E+04  0.25500000920E-02 0.  1.
       -2    1    3    3    0  502 -0.11072016047E+03  0.69570394805E+03 -0.50157977603E+03  0.86478043976E+03  0.25500000920E-02 0. -1.
</event>
<event>
 5   0  0.9939872E-05  0.1601696E+04  0.7818609E-02  0.8819507E-01
       -1   -1    0    0    0  501  0.00000000000E+00  0.00000000000E+00  0.50489695778E+03  0.50489695780E+03  0.50400001928E-02 0. -1.
        1   -1    0    0  501    0  0.00000000000E+00  0.00000000000E+00 -0.12702745419E+04  0.12702745419E+04  0.50400001928E-02 0.  1.
    10030    2    1    2    0    0  0.00000000000E+00  0.00000000000E+00 -0.76537758416E+03  0.17751714997E+04  0.16016962906E+04 0.  0.
        3    1    3    3  502    0  0.73345176455E+03 -0.19895264734E+03 -0.66268521233E+03  0.10083081611E+04  0.10100000352E+00 0. -1.
       -3    1    3    3    0  502 -0.73345176455E+03  0.19895264734E+03 -0.10269237183E+03  0.76686333870E+03  0.10100000352E+00 0.  1.
</event>
<event>
 5   0  0.1835088E-04  0.1597000E+04  0.7818609E-02  0.8822393E-01
        2   -1    0    0  501    0  0.00000000000E+00  0.00000000000E+00  0.16010546522E+04  0.16010546522E+04  0.25500000920E-02 0. -1.
       -2   -1    0    0    0  501  0.00000000000E+00  0.00000000000E+00 -0.39823882592E+03  0.39823882593E+03  0.25500000920E-02 0.  1.
    10030    2    1    2    0    0  0.00000000000E+00  0.00000000000E+00  0.12028158263E+04  0.19992934781E+04  0.15969998434E+04 0.  0.
        5    1    3    3  502    0 -0.40063785709E+03 -0.54581783918E+03  0.11312943259E+04  0.13184372370E+04  0.46999998093E+01 0. -1.
       -5    1    3    3    0  502  0.40063785709E+03  0.54581783918E+03  0.71521500418E+02  0.68085624116E+03  0.46999998093E+01 0.  1.
</event>
<event>
 5   0  0.9432152E-05  0.1602923E+04  0.7818609E-02  0.8818754E-01
        1   -1    0    0  501    0  0.00000000000E+00  0.00000000000E+00  0.78526816492E+03  0.78526816494E+03  0.50400001928E-02 0. -1.
       -1   -1    0    0    0  501  0.00000000000E+00  0.00000000000E+00 -0.81798893395E+03  0.81798893396E+03  0.50400001928E-02 0.  1.
    10030    2    1    2    0    0  0.00000000000E+00  0.00000000000E+00 -0.32720769025E+02  0.16032570989E+04  0.16029231661E+04 0.  0.
        4    1    3    3  502    0  0.42691373331E+03  0.38142387794E+03 -0.57736897528E+03  0.81307813700E+03  0.12699999809E+01 0.  1.
       -4    1    3    3    0  502 -0.42691373331E+03 -0.38142387794E+03  0.54464820626E+03  0.79017896190E+03  0.12699999809E+01 0. -1.
</event>
<event>
 5   0  0.1858913E-04  0.1601972E+04  0.7818609E-02  0.8819337E-01
        2   -1    0    0  501    0  0.00000000000E+00  0.00000000000E+00  0.13115994475E+04  0.13115994475E+04  0.25500000920E-02 0. -1.
       -2   -1    0    0    0  501  0.00000000000E+00  0.00000000000E+00 -0.48915754592E+03  0.48915754593E+03  0.25500000920E-02 0.  1.
    10030    2    1    2    0    0  0.00000000000E+00  0.00000000000E+00  0.82244190157E+03  0.18007569934E+04  0.16019722432E+04 0.  0.
        4    1    3    3  502    0  0.69346561683E+02  0.33468032566E+03 -0.40306953899E+03  0.52847566847E+03  0.12699999809E+01 0.  1.
       -4    1    3    3    0  502 -0.69346561683E+02 -0.33468032566E+03  0.12255114406E+04  0.12722813250E+04  0.12699999809E+01 0. -1.
</event>
<event>
 5   0  0.9673017E-05  0.1583513E+04  0.7818609E-02  0.8830741E-01
        1   -1    0    0  501    0  0.00000000000E+00  0.00000000000E+00  0.17714849557E+04  0.17714849557E+04  0.50400001928E-02 0.  1.
       -1   -1    0    0    0  501  0.00000000000E+00  0.00000000000E+00 -0.35387168801E+03  0.35387168804E+03  0.50400001928E-02 0. -1.
    10030    2    1    2    0    0  0.00000000000E+00  0.00000000000E+00  0.14176132677E+04  0.21253566437E+04  0.15835130206E+04 0.  0.
        1    1    3    3  502    0  0.15223450604E+03  0.55672603794E+03  0.14362612033E+04  0.15478906519E+04  0.50400001928E-02 0.  1.
       -1    1    3    3    0  502 -0.15223450604E+03 -0.55672603794E+03 -0.18647935650E+02  0.57746599179E+03  0.50400001928E-02 0. -1.
</event>
<event>
 5   0  0.1774934E-04  0.1580854E+04  0.7818609E-02  0.8832397E-01
        2   -1    0    0  501    0  0.00000000000E+00  0.00000000000E+00  0.11345892501E+04  0.11345892501E+04  0.25500000920E-02 0.  1.
       -2   -1    0    0    0  501  0.00000000000E+00  0.00000000000E+00 -0.55066172532E+03  0.55066172533E+03  0.25500000920E-02 0. -1.
    10030    2    1    2    0    0  0.00000000000E+00  0.00000000000E+00  0.58392752478E+03  0.16852509754E+04  0.15808540401E+04 0.  0.
        1    1    3    3  502    0  0.15300675267E+03 -0.69332703966E+02  0.11153407182E+04  0.11279197702E+04  0.50400001928E-02 0.  1.
       -1    1    3    3    0  502 -0.15300675267E+03  0.69332703966E+02 -0.53141319342E+03  0.55733120527E+03  0.50400001928E-02 0. -1.
</event>
<event>
 5   0  0.9432152E-05  0.1608927E+04  0.7818609E-02  0.8815083E-01
       -1   -1    0    0    0  501  0.00000000000E+00  0.00000000000E+00  0.26806381864E+03  0.26806381869E+03  0.50400001928E-02 0. -1.
        1   -1    0    0  501    0  0.00000000000E+00  0.00000000000E+00 -0.24142059342E+04  0.24142059342E+04  0.50400001928E-02 0.  1.
    10030    2    1    2    0    0  0.00000000000E+00  0.00000000000E+00 -0.21461421156E+04  0.26822697529E+04  0.16089266755E+04 0.  0.
        4    1    3    3  502    0  0.35607053488E+03 -0.29651348650E+02  0.12851964735E+03  0.37971613205E+03  0.12699999809E+01 0. -1.
       -4    1    3    3    0  502 -0.35607053488E+03  0.29651348650E+02 -0.22746617629E+04  0.23025536209E+04  0.12699999809E+01 0.  1.
</event>
<event>
 5   0  0.6838750E-05  0.1587129E+04  0.7818609E-02  0.8828495E-01
        3   -1    0    0  501    0  0.00000000000E+00  0.00000000000E+00  0.60082704209E+03  0.60082705058E+03  0.10100000352E+00 0.  1.
       -3   -1    0    0    0  501  0.00000000000E+00  0.00000000000E+00 -0.10481290629E+04  0.10481290678E+04  0.10100000352E+00 0. -1.
    10030    2    1    2    0    0  0.00000000000E+00  0.00000000000E+00 -0.44730202083E+03  0.16489561184E+04  0.15871285967E+04 0.  0.
        5    1    3    3  502    0  0.54158388227E+03 -0.26258634767E+03 -0.76096034249E+03  0.97023060370E+03  0.46999998093E+01 0. -1.
       -5    1    3    3    0  502 -0.54158388227E+03  0.26258634767E+03  0.31365832166E+03  0.67872551467E+03  0.46999998093E+01 0.  1.
</event>
<event>
 5   0  0.1914170E-04  0.1594878E+04  0.7818609E-02  0.8823701E-01
       -2   -1    0    0    0  501  0.00000000000E+00  0.00000000000E+00  0.64292361375E+03  0.64292361376E+03  0.25500000920E-02 0. -1.
        2   -1    0    0  501    0  0.00000000000E+00  0.00000000000E+00 -0.98908917609E+03  0.98908917609E+03  0.25500000920E-02 0.  1.
    10030    2    1    2    0    0  0.00000000000E+00  0.00000000000E+00 -0.34616556234E+03  0.16320127899E+04  0.15948777852E+04 0.  0.
        3    1    3    3  502    0  0.15665549875E+03 -0.48671414484E+03 -0.79927666857E+03  0.94882812311E+03  0.10100000352E+00 0.  1.
       -3    1    3    3    0  502 -0.15665549875E+03  0.48671414484E+03  0.45311110624E+03  0.68318466674E+03  0.10100000352E+00 0. -1.
</event>
<event>
 5   0  0.9939872E-05  0.1578290E+04  0.7818609E-02  0.8833998E-01
        1   -1    0    0  501    0  0.00000000000E+00  0.00000000000E+00  0.23376939583E+04  0.23376939583E+04  0.50400001928E-02 0.  1.
       -1   -1    0    0    0  501  0.00000000000E+00  0.00000000000E+00 -0.26639477560E+03  0.26639477565E+03  0.50400001928E-02 0. -1.
    10030    2    1    2    0    0  0.00000000000E+00  0.00000000000E+00  0.20712991827E+04  0.26040887340E+04  0.15782895267E+04 0.  0.
        3    1    3    3  502    0 -0.71588863736E+02  0.95463550762E+02  0.23227232123E+04  0.23257861867E+04  0.10100000352E+00 0.  1.
       -3    1    3    3    0  502  0.71588863736E+02 -0.95463550762E+02 -0.25142402963E+03  0.27830254726E+03  0.10100000352E+00 0. -1.
</event>
<event>
 5   0  0.1774934E-04  0.1603651E+04  0.7818609E-02  0.8818308E-01
        2   -1    0    0  501    0  0.00000000000E+00  0.00000000000E+00  0.15576404528E+04  0.15576404528E+04  0.25500000920E-02 0.  1.
       -2   -1    0    0    0  501  0.00000000000E+00  0.00000000000E+00 -0.41275529750E+03  0.41275529751E+03  0.25500000920E-02 0. -1.
    10030    2    1    2    0    0  0.00000000000E+00  0.00000000000E+00  0.11448851553E+04  0.19703957503E+04  0.16036512694E+04 0.  0.
        1    1    3    3  502    0  0.16446355703E+03  0.28958184513E+03 -0.32376141260E+03  0.46446459384E+03  0.50400001928E-02 0. -1.
       -1    1    3    3    0  502 -0.16446355703E+03 -0.28958184513E+03  0.14686465679E+04  0.15059311564E+04  0.50400001928E-02 0.  1.
</event>
<event>
 5   0  0.9432152E-05  0.1596842E+04  0.7818609E-02  0.8822491E-01
        1   -1    0    0  501    0  0.00000000000E+00  0.00000000000E+00  0.84748631362E+03  0.84748631364E+03  0.50400001928E-02 0. -1.
       -1   -1    0    0    0  501  0.00000000000E+00  0.00000000000E+00 -0.75219588902E+03  0.75219588903E+03  0.50400001928E-02 0.  1.
    10030    2    1    2    0    0  0.00000000000E+00  0.00000000000E+00  0.95290424605E+02  0.15996822027E+04  0.15968415339E+04 0.  0.
        4    1    3    3  502    0  0.62002426304E+03  0.12803455522E+03 -0.43968824090E+03  0.77081145307E+03  0.12699999809E+01 0.  1.
       -4    1    3    3    0  502 -0.62002426304E+03 -0.12803455522E+03  0.53497866551E+03  0.82887074960E+03  0.12699999809E+01 0. -1.
</event>
<event>
 5   0  0.1914170E-04  0.1602651E+04  0.7818609E-02  0.8818921E-01
        2   -1    0    0  501    0  0.00000000000E+00  0.00000000000E+00  0.71051460001E+03  0.71051460001E+03  0.25500000920E-02 0.  1.
       -2   -1    0    0    0  501  0.00000000000E+00  0.00000000000E+00 -0.90374309533E+03  0.90374309534E+03  0.25500000920E-02 0. -1.
    10030    2    1    2    0    0  0.00000000000E+00  0.00000000000E+00 -0.19322849532E+03  0.16142576954E+04  0.16026511335E+04 0.  0.
        3    1    3    3  502    0 -0.68419475428E+03 -0.15987013338E+03  0.29145736683E+03  0.76067623087E+03  0.10100000352E+00 0.  1.
       -3    1    3    3    0  502  0.68419475428E+03  0.15987013338E+03 -0.48468586216E+03  0.85358146448E+03  0.10100000352E+00 0. -1.
</event>
<event>
 5   0  0.9432152E-05  0.1588792E+04  0.7818609E-02  0.8827463E-01
       -1   -1    0    0    0  501  0.00000000000E+00  0.00000000000E+00  0.48773873457E+03  0.48773873459E+03  0.50400001928E-02 0. -1.
        1   -1    0    0  501    0  0.00000000000E+00  0.00000000000E+00 -0.12938587183E+04  0.12938587183E+04  0.50400001928E-02 0.  1.
    10030    2    1    2    0    0  0.00000000000E+00  0.00000000000E+00 -0.80611998373E+03  0.17815974529E+04  0.15887920116E+04 0.  0.
        4    1    3    3  502    0 -0.52988712389E+03 -0.56276580563E+03 -0.19758077055E+03  0.79782547580E+03  0.12699999809E+01 0.  1.
       -4    1    3    3    0  502  0.52988712389E+03  0.56276580563E+03 -0.60853921317E+03  0.98377197709E+03  0.12699999809E+01 0. -1.
</event>
<event>
 5   0  0.9616567E-05  0.1601205E+04  0.7818609E-02  0.8819808E-01
       -1   -1    0    0    0  501  0.00000000000E+00  0.00000000000E+00  0.43444254425E+03  0.43444254428E+03  0.50400001928E-02 0.  1.
        1   -1    0    0  501    0  0.00000000000E+00  0.00000000000E+00 -0.14753715766E+04  0.14753715766E+04  0.50400001928E-02 0. -1.
    10030    2    1    2    0    0  0.00000000000E+00  0.00000000000E+00 -0.10409290323E+04  0.19098141209E+04  0.16012047733E+04 0.  0.
        5    1    3    3  502    0 -0.12096773965E+03  0.22934986200E+03  0.38295507075E+03  0.46250538315E+03  0.46999998093E+01 0.  1.
       -5    1    3    3    0  502  0.12096773965E+03 -0.22934986200E+03 -0.14238841031E+04  0.14473087377E+04  0.46999998093E+01 0. -1.
</event>
<event>
 5   0  0.9432152E-05  0.1612285E+04  0.7818609E-02  0.8813036E-01
       -1   -1    0    0    0  501  0.00000000000E+00  0.00000000000E+00  0.47251703849E+03  0.47251703852E+03  0.50400001928E-02 0.  1.
        1   -1    0    0  501    0  0.00000000000E+00  0.00000000000E+00 -0.13753281019E+04  0.13753281019E+04  0.50400001928E-02 0. -1.
    10030    2    1    2    0    0  0.00000000000E+00  0.00000000000E+00 -0.90281106345E+03  0.18478451405E+04  0.16122852871E+04 0.  0.
        4    1    3    3  502    0  0.29215491688E+03  0.23851013901E+03 -0.12679770491E+04  0.13228790541E+04  0.12699999809E+01 0. -1.
       -4    1    3    3    0  502 -0.29215491688E+03 -0.23851013901E+03  0.36516598563E+03  0.52496608637E+03  0.12699999809E+01 0.  1.
</event>
<event>
 5   0  0.9616567E-05  0.1623430E+04  0.7818609E-02  0.8806282E-01
        1   -1    0    0  501    0  0.00000000000E+00  0.00000000000E+00  0.80208794365E+03  0.80208794367E+03  0.50400001928E-02 0. -1.
       -1   -1    0    0    0  501  0.00000000000E+00  0.00000000000E+00 -0.82145781347E+03  0.82145781348E+03  0.50400001928E-02 0.  1.
    10030    2    1    2    0    0  0.00000000000E+00  0.00000000000E+00 -0.19369869820E+02  0.16235457571E+04  0.16234302060E+04 0.  0.
        5    1    3    3  502    0 -0.53796887564E+03 -0.16098609262E+03 -0.59584292582E+03  0.81876609323E+03  0.46999998093E+01 0.  1.
       -5    1    3    3    0  502  0.53796887564E+03  0.16098609262E+03  0.57647305600E+03  0.80477966392E+03  0.46999998093E+01 0. -1.
</event>
<event>
 5   0  0.1832646E-04  0.1602935E+04  0.7818609E-02  0.8818747E-01
        2   -1    0    0  501    0  0.00000000000E+00  0.00000000000E+00  0.18560613587E+04  0.18560613587E+04  0.25500000920E-02 0. -1.
       -2   -1    0    0    0  501  0.00000000000E+00  0.00000000000E+00 -0.34608252934E+03  0.34608252935E+03  0.25500000920E-02 0.  1.
    10030    2    1    2    0    0  0.00000000000E+00  0.00000000000E+00  0.15099788293E+04  0.22021438880E+04  0.16029353195E+04 0.  0.
        2    1    3    3  502    0  0.15608536902E+03 -0.77034585296E+03  0.53971125901E+03  0.95345876613E+03  0.25500000920E-02 0.  1.
       -2    1    3    3    0  502 -0.15608536902E+03  0.77034585296E+03  0.97026757030E+03  0.12486851219E+04  0.25500000920E-02 0. -1.
</event>
<event>
 5   0  0.1858913E-04  0.1593375E+04  0.7818609E-02  0.8824628E-01
       -2   -1    0    0    0  501  0.00000000000E+00  0.00000000000E+00  0.28942877647E+03  0.28942877648E+03  0.25500000920E-02 0.  1.
        2   -1    0    0  501    0  0.00000000000E+00  0.00000000000E+00 -0.21929783380E+04  0.21929783380E+04  0.25500000920E-02 0. -1.
    10030    2    1    2    0    0  0.00000000000E+00  0.00000000000E+00 -0.19035495615E+04  0.24824071145E+04  0.15933750810E+04 0.  0.
        4    1    3    3  502    0 -0.21419385462E+03  0.25397880665E+03 -0.20798949004E+04  0.21062641456E+04  0.12699999809E+01 0. -1.
       -4    1    3    3    0  502  0.21419385462E+03 -0.25397880665E+03  0.17634533885E+03  0.37614296886E+03  0.12699999809E+01 0.  1.
</event>
<event>
 5   0  0.1835088E-04  0.1606921E+04  0.7818609E-02  0.8816308E-01
        2   -1    0    0  501    0  0.00000000000E+00  0.00000000000E+00  0.11000131676E+04  0.11000131676E+04  0.25500000920E-02 0.  1.
       -2   -1    0    0    0  501  0.00000000000E+00  0.00000000000E+00 -0.58685533972E+03  0.58685533973E+03  0.25500000920E-02 0. -1.
    10030    2    1    2    0    0  0.00000000000E+00  0.00000000000E+00  0.51315782783E+03  0.16868685073E+04  0.16069207835E+04 0.  0.
        5    1    3    3  502    0  0.29114950895E+03  0.25861766222E+03 -0.48114769905E+03  0.61901238281E+03  0.46999998093E+01 0. -1.
       -5    1    3    3    0  502 -0.29114950895E+03 -0.25861766222E+03  0.99430552688E+03  0.10678561245E+04  0.46999998093E+01 0.  1.
</event>
<event>
 5   0  0.1835088E-04  0.1607237E+04  0.7818609E-02  0.8816115E-01
       -2   -1    0    0    0  501  0.00000000000E+00  0.00000000000E+00  0.11247472938E+04  0.11247472938E+04  0.25500000920E-02 0. -1.
        2   -1    0    0  501    0  0.00000000000E+00  0.00000000000E+00 -0.57417548001E+03  0.57417548002E+03  0.25500000920E-02 0.  1.
    10030    2    1    2    0    0  0.00000000000E+00  0.00000000000E+00  0.55057181376E+03  0.16989227738E+04  0.16072365318E+04 0.  0.
        5    1    3    3  502    0  0.23856684867E+03 -0.30208514286E+03 -0.47037036862E+03  0.60781571919E+03  0.46999998093E+01 0.  1.
       -5    1    3    3    0  502 -0.23856684867E+03  0.30208514286E+03  0.10209421824E+04  0.10911070546E+04  0.46999998093E+01 0. -1.
</event>
<event>
 5   0  0.9432152E-05  0.1524724E+04  0.7818609E-02  0.8868176E-01
       -1   -1    0    0    0  501  0.00000000000E+00  0.00000000000E+00  0.78464987211E+03  0.78464987212E+03  0.50400001928E-02 0.  1.
        1   -1    0    0  501    0  0.00000000000E+00  0.00000000000E+00 -0.74070692029E+03  0.74070692031E+03  0.50400001928E-02 0. -1.
    10030    2    1    2    0    0  0.00000000000E+00  0.00000000000E+00  0.43942951814E+02  0.15253567924E+04  0.15247237000E+04 0.  0.
        4    1    3    3  502    0  0.75502905558E+02  0.19075857213E+03  0.75651367370E+03  0.78383931579E+03  0.12699999809E+01 0.  1.
       -4    1    3    3    0  502 -0.75502905558E+02 -0.19075857213E+03 -0.71257072188E+03  0.74151747665E+03  0.12699999809E+01 0. -1.
</event>
<event>
 5   0  0.9673017E-05  0.1606076E+04  0.7818609E-02  0.8816824E-01
       -1   -1    0    0    0  501  0.00000000000E+00  0.00000000000E+00  0.55389591606E+03  0.55389591609E+03  0.50400001928E-02 0. -1.
        1   -1    0    0  501    0  0.00000000000E+00  0.00000000000E+00 -0.11642436588E+04  0.11642436588E+04  0.50400001928E-02 0.  1.
    10030    2    1    2    0    0  0.00000000000E+00  0.00000000000E+00 -0.61034774271E+03  0.17181395749E+04  0.16060757241E+04 0.  0.
        1    1    3    3  502    0  0.32424040667E+03 -0.16911107314E+03 -0.10699989285E+04  0.11307643890E+04  0.50400001928E-02 0.  1.
       -1    1    3    3    0  502 -0.32424040667E+03  0.16911107314E+03  0.45965118579E+03  0.58737518589E+03  0.50400001928E-02 0. -1.
</event>
<event>
 5   0  0.1914170E-04  0.1601808E+04  0.7818609E-02  0.8819438E-01
       -2   -1    0    0    0  501  0.00000000000E+00  0.00000000000E+00  0.76441372194E+03  0.76441372195E+03  0.25500000920E-02 0.  1.
        2   -1    0    0  501    0  0.00000000000E+00  0.00000000000E+00 -0.83913611149E+03  0.83913611149E+03  0.25500000920E-02 0. -1.
    10030    2    1    2    0    0  0.00000000000E+00  0.00000000000E+00 -0.74722389541E+02  0.16035498334E+04  0.16018079263E+04 0.  0.
        3    1    3    3  502    0 -0.53058308855E+03  0.21902120312E+03  0.52177859302E+03  0.77572006008E+03  0.10100000352E+00 0.  1.
       -3    1    3    3    0  502  0.53058308855E+03 -0.21902120312E+03 -0.59650098256E+03  0.82782977336E+03  0.10100000352E+00 0. -1.
</event>
<event>
 5   0  0.1774934E-04  0.1602875E+04  0.7818609E-02  0.8818784E-01
        2   -1    0    0  501    0  0.00000000000E+00  0.00000000000E+00  0.17285597040E+04  0.17285597040E+04  0.25500000920E-02 0.  1.
       -2   -1    0    0    0  501  0.00000000000E+00  0.00000000000E+00 -0.37158216673E+03  0.37158216674E+03  0.25500000920E-02 0. -1.
    10030    2    1    2    0    0  0.00000000000E+00  0.00000000000E+00  0.13569775372E+04  0.21001418707E+04  0.16028748674E+04 0.  0.
        1    1    3    3  502    0 -0.58193179808E+03 -0.18742220227E+03  0.13574510226E+04  0.14887729774E+04  0.50400001928E-02 0.  1.
       -1    1    3    3    0  502  0.58193179808E+03  0.18742220227E+03 -0.47348531402E+00  0.61136889333E+03  0.50400001928E-02 0. -1.
</event>
<event>
 5   0  0.6838750E-05  0.1581584E+04  0.7818609E-02  0.8831942E-01
       -3   -1    0    0    0  501  0.00000000000E+00  0.00000000000E+00  0.36096644618E+03  0.36096646031E+03  0.10100000352E+00 0.  1.
        3   -1    0    0  501    0  0.00000000000E+00  0.00000000000E+00 -0.17324381582E+04  0.17324381611E+04  0.10100000352E+00 0. -1.
    10030    2    1    2    0    0  0.00000000000E+00  0.00000000000E+00 -0.13714717120E+04  0.20934046214E+04  0.15815840958E+04 0.  0.
        3    1    3    3  502    0 -0.78014113162E+03 -0.87328759740E+02 -0.81203898455E+03  0.11294484584E+04  0.10100000352E+00 0.  1.
       -3    1    3    3    0  502  0.78014113162E+03  0.87328759740E+02 -0.55943272746E+03  0.96395616305E+03  0.10100000352E+00 0. -1.
</event>
<event>
 5   0  0.1835088E-04  0.1587535E+04  0.7818609E-02  0.8828243E-01
        2   -1    0    0  501    0  0.00000000000E+00  0.00000000000E+00  0.11202378358E+04  0.11202378358E+04  0.25500000920E-02 0.  1.
       -2   -1    0    0    0  501  0.00000000000E+00  0.00000000000E+00 -0.56244006376E+03  0.56244006376E+03  0.25500000920E-02 0. -1.
    10030    2    1    2    0    0  0.00000000000E+00  0.00000000000E+00  0.55779777203E+03  0.16826778995E+04  0.15875347427E+04 0.  0.
        5    1    3    3  502    0  0.70974228797E+03  0.23201625789E+02 -0.96999050135E+02  0.71673100707E+03  0.46999998093E+01 0. -1.
       -5    1    3    3    0  502 -0.70974228797E+03 -0.23201625789E+02  0.65479682216E+03  0.96594689248E+03  0.46999998093E+01 0.  1.
</event>
<event>
 5   0  0.9939872E-05  0.1599419E+04  0.7818609E-02  0.8820905E-01
       -1   -1    0    0    0  501  0.00000000000E+00  0.00000000000E+00  0.39817028735E+03  0.39817028738E+03  0.50400001928E-02 0.  1.
        1   -1    0    0  501    0  0.00000000000E+00  0.00000000000E+00 -0.16061855872E+04  0.16061855872E+04  0.50400001928E-02 0. -1.
    10030    2    1    2    0    0  0.00000000000E+00  0.00000000000E+00 -0.12080152998E+04  0.20043558746E+04  0.15994191156E+04 0.  0.
        3    1    3    3  502    0 -0.42441410483E+03  0.59470789825E+03 -0.10114937479E+04  0.12477677785E+04  0.10100000352E+00 0.  1.
       -3    1    3    3    0  502  0.42441410483E+03 -0.59470789825E+03 -0.19652155188E+03  0.75658809611E+03  0.10100000352E+00 0. -1.
</event>
<event>
 5   0  0.1832646E-04  0.1598710E+04  0.7818609E-02  0.8821341E-01
        2   -1    0    0  501    0  0.00000000000E+00  0.00000000000E+00  0.72778128945E+03  0.72778128946E+03  0.25500000920E-02 0. -1.
       -2   -1    0    0    0  501  0.00000000000E+00  0.00000000000E+00 -0.87796770963E+03  0.87796770964E+03  0.25500000920E-02 0.  1.
    10030    2    1    2    0    0  0.00000000000E+00  0.00000000000E+00 -0.15018642018E+03  0.16057489991E+04  0.15987100698E+04 0.  0.
        2    1    3    3  502    0  0.43312415736E+03 -0.56937753043E+03  0.28310164796E+03  0.76937237469E+03  0.25500000920E-02 0. -1.
       -2    1    3    3    0  502 -0.43312415736E+03  0.56937753043E+03 -0.43328806814E+03  0.83637662440E+03  0.25500000920E-02 0.  1.
</event>
<event>
 5   0  0.9673017E-05  0.1601902E+04  0.7818609E-02  0.8819380E-01
       -1   -1    0    0    0  501  0.00000000000E+00  0.00000000000E+00  0.68207566665E+03  0.68207566667E+03  0.50400001928E-02 0. -1.
        1   -1    0    0  501    0  0.00000000000E+00  0.00000000000E+00 -0.94054467010E+03  0.94054467012E+03  0.50400001928E-02 0.  1.
    10030    2    1    2    0    0  0.00000000000E+00  0.00000000000E+00 -0.25846900345E+03  0.16226203368E+04  0.16019021604E+04 0.  0.
        1    1    3    3  502    0 -0.40374360276E+03 -0.44292336211E+03 -0.66745652643E+03  0.89704415509E+03  0.50400001928E-02 0. -1.
       -1    1    3    3    0  502  0.40374360276E+03  0.44292336211E+03  0.40898752298E+03  0.72557618170E+03  0.50400001928E-02 0.  1.
</event>
<event>
 5   0  0.1914170E-04  0.1600472E+04  0.7818609E-02  0.8820258E-01
        2   -1    0    0  501    0  0.00000000000E+00  0.00000000000E+00  0.16404431003E+04  0.16404431003E+04  0.25500000920E-02 0.  1.
       -2   -1    0    0    0  501  0.00000000000E+00  0.00000000000E+00 -0.39036859069E+03  0.39036859070E+03  0.25500000920E-02 0. -1.
    10030    2    1    2    0    0  0.00000000000E+00  0.00000000000E+00  0.12500745096E+04  0.20308116910E+04  0.16004717569E+04 0.  0.
        3    1    3    3  502    0  0.25382470500E+03 -0.46948261914E+03 -0.13155825808E+03  0.54968035804E+03  0.10100000352E+00 0. -1.
       -3    1    3    3    0  502 -0.25382470500E+03  0.46948261914E+03  0.13816327677E+04  0.14811313329E+04  0.10100000352E+00 0.  1.
</event>
<event>
 5   0  0.1832646E-04  0.1573699E+04  0.7818609E-02  0.8836870E-01
        2   -1    0    0  501    0  0.00000000000E+00  0.00000000000E+00  0.14400432093E+04  0.14400432094E+04  0.25500000920E-02 0.  1.
       -2   -1    0    0    0  501  0.00000000000E+00  0.00000000000E+00 -0.42994014224E+03  0.42994014224E+03  0.25500000920E-02 0. -1.
    10030    2    1    2    0    0  0.00000000000E+00  0.00000000000E+00  0.10101030671E+04  0.18699833516E+04  0.15736993134E+04 0.  0.
        2    1    3    3  502    0 -0.64804274611E+03 -0.43803684564E+03  0.60655463895E+03  0.98982029125E+03  0.25500000920E-02 0.  1.
       -2    1    3    3    0  502  0.64804274611E+03  0.43803684564E+03  0.40354842816E+03  0.88016306035E+03  0.25500000920E-02 0. -1.
</event>
<event>
 5   0  0.9673017E-05  0.1598680E+04  0.7818609E-02  0.8821359E-01
        1   -1    0    0  501    0  0.00000000000E+00  0.00000000000E+00  0.10060523339E+04  0.10060523340E+04  0.50400001928E-02 0.  1.
       -1   -1    0    0    0  501  0.00000000000E+00  0.00000000000E+00 -0.63510045566E+03  0.63510045568E+03  0.50400001928E-02 0. -1.
    10030    2    1    2    0    0  0.00000000000E+00  0.00000000000E+00  0.37095187829E+03  0.16411527896E+04  0.15986798250E+04 0.  0.
        1    1    3    3  502    0  0.65671782641E+02 -0.64917031333E+03  0.65948944094E+03  0.92771827700E+03  0.50400001928E-02 0.  1.
       -1    1    3    3    0  502 -0.65671782641E+02  0.64917031333E+03 -0.28853756265E+03  0.71343451264E+03  0.50400001928E-02 0. -1.
</event>
<event>
 5   0  0.1835088E-04  0.1602960E+04  0.7818609E-02  0.8818732E-01
       -2   -1    0    0    0  501  0.00000000000E+00  0.00000000000E+00  0.71014720285E+03  0.71014720285E+03  0.25500000920E-02 0.  1.
        2   -1    0    0  501    0  0.00000000000E+00  0.00000000000E+00 -0.90455868915E+03  0.90455868916E+03  0.25500000920E-02 0. -1.
    10030    2    1    2    0    0  0.00000000000E+00  0.00000000000E+00 -0.19441148630E+03  0.16147058920E+04  0.16029595415E+04 0.  0.
        5    1    3    3  502    0 -0.41132011918E+02 -0.31562152601E+03 -0.83814931049E+03  0.89656296308E+03  0.46999998093E+01 0. -1.
       -5    1    3    3    0  502  0.41132011918E+02  0.31562152601E+03  0.64373782419E+03  0.71814292893E+03  0.46999998093E+01 0.  1.
</event>
<event>
 5   0  0.1832646E-04  0.1601681E+04  0.7818609E-02  0.8819516E-01
        2   -1    0    0  501    0  0.00000000000E+00  0.00000000000E+00  0.14886544422E+04  0.14886544422E+04  0.25500000920E-02 0.  1.
       -2   -1    0    0    0  501  0.00000000000E+00  0.00000000000E+00 -0.43082217319E+03  0.43082217320E+03  0.25500000920E-02 0. -1.
    10030    2    1    2    0    0  0.00000000000E+00  0.00000000000E+00  0.10578322690E+04  0.19194766154E+04  0.16016807946E+04 0.  0.
        2    1    3    3  502    0 -0.76924957509E+03 -0.21455821763E+03  0.45735963704E+03  0.92030319740E+03  0.25500000920E-02 0. -1.
       -2    1    3    3    0  502  0.76924957509E+03  0.21455821763E+03  0.60047263200E+03  0.99917341804E+03  0.25500000920E-02 0.  1.
</event>
<event>
 5   0  0.1835088E-04  0.1605024E+04  0.7818609E-02  0.8817468E-01
       -2   -1    0    0    0  501  0.00000000000E+00  0.00000000000E+00  0.28883787948E+03  0.28883787949E+03  0.25500000920E-02 0.  1.
        2   -1    0    0  501    0  0.00000000000E+00  0.00000000000E+00 -0.22297115611E+04  0.22297115611E+04  0.25500000920E-02 0. -1.
    10030    2    1    2    0    0  0.00000000000E+00  0.00000000000E+00 -0.19408736816E+04  0.25185494406E+04  0.16050235627E+04 0.  0.
        5    1    3    3  502    0  0.55888368297E+03  0.20194561515E+03 -0.18167256215E+04  0.19114515626E+04  0.46999998093E+01 0. -1.
       -5    1    3    3    0  502 -0.55888368297E+03 -0.20194561515E+03 -0.12414806012E+03  0.60709787794E+03  0.46999998093E+01 0.  1.
</event>
<event>
 5   0  0.9673017E-05  0.1603606E+04  0.7818609E-02  0.8818336E-01
        1   -1    0    0  501    0  0.00000000000E+00  0.00000000000E+00  0.10041495461E+04  0.10041495462E+04  0.50400001928E-02 0.  1.
       -1   -1    0    0    0  501  0.00000000000E+00  0.00000000000E+00 -0.64023167293E+03  0.64023167295E+03  0.50400001928E-02 0. -1.
    10030    2    1    2    0    0  0.00000000000E+00  0.00000000000E+00  0.36391787321E+03  0.16443812191E+04  0.16036063654E+04 0.  0.
        1    1    3    3  502    0  0.44158055941E+02 -0.77331423738E+03  0.39440676732E+03  0.86920742160E+03  0.50400001928E-02 0.  1.
       -1    1    3    3    0  502 -0.44158055941E+02  0.77331423738E+03 -0.30488894111E+02  0.77517379750E+03  0.50400001928E-02 0. -1.
</event>
<event>
 5   0  0.1858913E-04  0.1605786E+04  0.7818609E-02  0.8817001E-01
       -2   -1    0    0    0  501  0.00000000000E+00  0.00000000000E+00  0.39289982580E+03  0.39289982581E+03  0.25500000920E-02 0.  1.
        2   -1    0    0  501    0  0.00000000000E+00  0.00000000000E+00 -0.16407168725E+04  0.16407168725E+04  0.25500000920E-02 0. -1.
    10030    2    1    2    0    0  0.00000000000E+00  0.00000000000E+00 -0.12478170467E+04  0.20336166983E+04  0.16057862540E+04 0.  0.
        4    1    3    3  502    0 -0.79473393801E+03 -0.18032874561E+02 -0.48114105554E+03  0.92920694413E+03  0.12699999809E+01 0.  1.
       -4    1    3    3    0  502  0.79473393801E+03  0.18032874561E+02 -0.76667599114E+03  0.11044097542E+04  0.12699999809E+01 0. -1.
</event>
<event>
 5   0  0.1914170E-04  0.1606853E+04  0.7818609E-02  0.8816349E-01
       -2   -1    0    0    0  501  0.00000000000E+00  0.00000000000E+00  0.69365847484E+03  0.69365847485E+03  0.25500000920E-02 0.  1.
        2   -1    0    0  501    0  0.00000000000E+00  0.00000000000E+00 -0.93056530918E+03  0.93056530918E+03  0.25500000920E-02 0. -1.
    10030    2    1    2    0    0  0.00000000000E+00  0.00000000000E+00 -0.23690683434E+03  0.16242237840E+04  0.16068534633E+04 0.  0.
        3    1    3    3  502    0  0.12190032960E+03  0.38189188060E+03  0.58534444569E+03  0.70945699597E+03  0.10100000352E+00 0.  1.
       -3    1    3    3    0  502 -0.12190032960E+03 -0.38189188060E+03 -0.82225128003E+03  0.91476678806E+03  0.10100000352E+00 0. -1.
</event>
<event>
 5   0  0.1835088E-04  0.1595640E+04  0.7818609E-02  0.8823231E-01
       -2   -1    0    0    0  501  0.00000000000E+00  0.00000000000E+00  0.42735239202E+03  0.42735239203E+03  0.25500000920E-02 0. -1.
        2   -1    0    0  501    0  0.00000000000E+00  0.00000000000E+00 -0.14894422267E+04  0.14894422267E+04  0.25500000920E-02 0.  1.
    10030    2    1    2    0    0  0.00000000000E+00  0.00000000000E+00 -0.10620898347E+04  0.19167946187E+04  0.15956399323E+04 0.  0.
        5    1    3    3  502    0  0.41474069614E+03 -0.33557042263E+03  0.18153943699E+03  0.56355657281E+03  0.46999998093E+01 0. -1.
       -5    1    3    3    0  502 -0.41474069614E+03  0.33557042263E+03 -0.12436292717E+04  0.13532380459E+04  0.46999998093E+01 0.  1.
</event>
<event>
 5   0  0.1914170E-04  0.1595529E+04  0.7818609E-02  0.8823299E-01
        2   -1    0    0  501    0  0.00000000000E+00  0.00000000000E+00  0.20321149202E+04  0.20321149202E+04  0.25500000920E-02 0.  1.
       -2   -1    0    0    0  501  0.00000000000E+00  0.00000000000E+00 -0.31318513413E+03  0.31318513414E+03  0.25500000920E-02 0. -1.
    10030    2    1    2    0    0  0.00000000000E+00  0.00000000000E+00  0.17189297861E+04  0.23453000544E+04  0.15955289830E+04 0.  0.
        3    1    3    3  502    0  0.67540637586E+03 -0.32198927498E+03  0.12662300675E+04  0.14707785217E+04  0.10100000352E+00 0.  1.
       -3    1    3    3    0  502 -0.67540637586E+03  0.32198927498E+03  0.45269971863E+03  0.87452153272E+03  0.10100000352E+00 0. -1.
</event>
<event>
 5   0  0.9939872E-05  0.1599240E+04  0.7818609E-02  0.8821015E-01
        1   -1    0    0  501    0  0.00000000000E+00  0.00000000000E+00  0.23198850355E+04  0.23198850355E+04  0.50400001928E-02 0.  1.
       -1   -1    0    0    0  501  0.00000000000E+00  0.00000000000E+00 -0.27561368765E+03  0.27561368770E+03  0.50400001928E-02 0. -1.
    10030    2    1    2    0    0  0.00000000000E+00  0.00000000000E+00  0.20442713479E+04  0.25954987232E+04  0.15992399065E+04 0.  0.
        3    1    3    3  502    0  0.18777760953E+03  0.62157498080E+03  0.17795131426E+04  0.18942763584E+04  0.10100000352E+00 0.  1.
       -3    1    3    3    0  502 -0.18777760953E+03 -0.62157498080E+03  0.26475820531E+03  0.70122236479E+03  0.10100000352E+00 0. -1.
</event>
<event>
 5   0  0.9939872E-05  0.1604217E+04  0.7818609E-02  0.8817962E-01
       -1   -1    0    0    0  501  0.00000000000E+00  0.00000000000E+00  0.27546618347E+03  0.27546618352E+03  0.50400001928E-02 0.  1.
        1   -1    0    0  501    0  0.00000000000E+00  0.00000000000E+00 -0.23355966219E+04  0.23355966219E+04  0.50400001928E-02 0. -1.
    10030    2    1    2    0    0  0.00000000000E+00  0.00000000000E+00 -0.20601304385E+04  0.26110628054E+04  0.16042168028E+04 0.  0.
        3    1    3    3  502    0  0.18407749343E+03 -0.34383171366E+03  0.11075117235E+03  0.40542644620E+03  0.10100000352E+00 0.  1.
       -3    1    3    3    0  502 -0.18407749343E+03  0.34383171366E+03 -0.21708816108E+04  0.22056363592E+04  0.10100000352E+00 0. -1.
</event>
<event>
 5   0  0.1858913E-04  0.1605444E+04  0.7818609E-02  0.8817211E-01
       -2   -1    0    0    0  501  0.00000000000E+00  0.00000000000E+00  0.74862780265E+03  0.74862780265E+03  0.25500000920E-02 0.  1.
        2   -1    0    0  501    0  0.00000000000E+00  0.00000000000E+00 -0.86072483418E+03  0.86072483419E+03  0.25500000920E-02 0. -1.
    10030    2    1    2    0    0  0.00000000000E+00  0.00000000000E+00 -0.11209703153E+03  0.16093526368E+04  0.16054439153E+04 0.  0.
        4    1    3    3  502    0 -0.32923281813E+03 -0.73151392794E+03 -0.26753177626E+02  0.80263579581E+03  0.12699999809E+01 0.  1.
       -4    1    3    3    0  502  0.32923281813E+03  0.73151392794E+03 -0.85343853909E+02  0.80671684103E+03  0.12699999809E+01 0. -1.
</event>
<event>
 5   0  0.9616567E-05  0.1596888E+04  0.7818609E-02  0.8822462E-01
       -1   -1    0    0    0  501  0.00000000000E+00  0.00000000000E+00  0.34383907812E+03  0.34383907816E+03  0.50400001928E-02 0. -1.
        1   -1    0    0  501    0  0.00000000000E+00  0.00000000000E+00 -0.18541011644E+04  0.18541011644E+04  0.50400001928E-02 0.  1.
    10030    2    1    2    0    0  0.00000000000E+00  0.00000000000E+00 -0.15102620863E+04  0.21979402426E+04  0.15968875166E+04 0.  0.
        5    1    3    3  502    0  0.71752447415E+02 -0.38105965486E+03  0.20552171013E+03  0.43888055050E+03  0.46999998093E+01 0. -1.
       -5    1    3    3    0  502 -0.71752447415E+02  0.38105965486E+03 -0.17157837964E+04  0.17590596921E+04  0.46999998093E+01 0.  1.
</event>
<event>
 5   0  0.6838750E-05  0.1600131E+04  0.7818609E-02  0.8820468E-01
        3   -1    0    0  501    0  0.00000000000E+00  0.00000000000E+00  0.24108377075E+04  0.24108377096E+04  0.10100000352E+00 0. -1.
       -3   -1    0    0    0  501  0.00000000000E+00  0.00000000000E+00 -0.26551121674E+03  0.26551123595E+03  0.10100000352E+00 0.  1.
    10030    2    1    2    0    0  0.00000000000E+00  0.00000000000E+00  0.21453264907E+04  0.26763489455E+04  0.16001305967E+04 0.  0.
        1    1    3    3  502    0 -0.71848893161E+03  0.34676803199E+03  0.97189011920E+03  0.12573960461E+04  0.50400001928E-02 0. -1.
       -1    1    3    3    0  502  0.71848893161E+03 -0.34676803199E+03  0.11734363715E+04  0.14189528994E+04  0.50400001928E-02 0.  1.
</event>
<event>
 5   0  0.9939872E-05  0.1603193E+04  0.7818609E-02  0.8818589E-01
        1   -1    0    0  501    0  0.00000000000E+00  0.00000000000E+00  0.88858975015E+03  0.88858975017E+03  0.50400001928E-02 0. -1.
       -1   -1    0    0    0  501  0.00000000000E+00  0.00000000000E+00 -0.72312025625E+03  0.72312025627E+03  0.50400001928E-02 0.  1.
    10030    2    1    2    0    0  0.00000000000E+00  0.00000000000E+00  0.16546949390E+03  0.16117100064E+04  0.16031933731E+04 0.  0.
        3    1    3    3  502    0  0.23016581438E+03 -0.92483157442E+02 -0.68356635455E+03  0.72718113823E+03  0.10100000352E+00 0.  1.
       -3    1    3    3    0  502 -0.23016581438E+03  0.92483157442E+02  0.84903584845E+03  0.88452886820E+03  0.10100000352E+00 0. -1.
</event>
<event>
 5   0  0.6838750E-05  0.1594905E+04  0.7818609E-02  0.8823684E-01
        3   -1    0    0  501    0  0.00000000000E+00  0.00000000000E+00  0.31446275334E+03  0.31446276956E+03  0.10100000352E+00 0.  1.
       -3   -1    0    0    0  501  0.00000000000E+00  0.00000000000E+00 -0.20222752484E+04  0.20222752509E+04  0.10100000352E+00 0. -1.
    10030    2    1    2    0    0  0.00000000000E+00  0.00000000000E+00 -0.17078124950E+04  0.23367380204E+04  0.15949047176E+04 0.  0.
        2    1    3    3  502    0 -0.46824487784E+02  0.58601629026E+03 -0.64472416558E+02  0.59140875679E+03  0.25500000920E-02 0.  1.
       -2    1    3    3    0  502  0.46824487784E+02 -0.58601629026E+03 -0.16433400785E+04  0.17453292637E+04  0.25500000920E-02 0. -1.
</event>
<event>
 5   0  0.9939872E-05  0.1598323E+04  0.7818609E-02  0.8821579E-01
        1   -1    0    0  501    0  0.00000000000E+00  0.00000000000E+00  0.13254152288E+04  0.13254152288E+04  0.50400001928E-02 0.  1.
       -1   -1    0    0    0  501  0.00000000000E+00  0.00000000000E+00 -0.48185615359E+03  0.48185615361E+03  0.50400001928E-02 0. -1.
    10030    2    1    2    0    0  0.00000000000E+00  0.00000000000E+00  0.84355907517E+03  0.18072713824E+04  0.15983234767E+04 0.  0.
        3    1    3    3  502    0 -0.18158157808E+03  0.73356727178E+02 -0.45430331100E+03  0.49471667397E+03  0.10100000352E+00 0. -1.
       -3    1    3    3    0  502  0.18158157808E+03 -0.73356727178E+02  0.12978623862E+04  0.13125547084E+04  0.10100000352E+00 0.  1.
</event>
<event>
 5   0  0.1774934E-04  0.1605589E+04  0.7818609E-02  0.8817122E-01
       -2   -1    0    0    0  501  0.00000000000E+00  0.00000000000E+00  0.35199268295E+03  0.35199268296E+03  0.25500000920E-02 0. -1.
        2   -1    0    0  501    0  0.00000000000E+00  0.00000000000E+00 -0.18309439313E+04  0.18309439313E+04  0.25500000920E-02 0.  1.
    10030    2    1    2    0    0  0.00000000000E+00  0.00000000000E+00 -0.14789512483E+04  0.21829366142E+04  0.16055888225E+04 0.  0.
        1    1    3    3  502    0  0.14175327221E+03  0.10759257027E+03 -0.18037883520E+04  0.18125458809E+04  0.50400001928E-02 0.  1.
       -1    1    3    3    0  502 -0.14175327221E+03 -0.10759257027E+03  0.32483710373E+03  0.37039073334E+03  0.50400001928E-02 0. -1.
</event>
<event>
 5   0  0.9726935E-05  0.1598912E+04  0.7818609E-02  0.8821217E-01
       -1   -1    0    0    0  501  0.00000000000E+00  0.00000000000E+00  0.27615319247E+03  0.27615319251E+03  0.50400001928E-02 0. -1.
        1   -1    0    0  501    0  0.00000000000E+00  0.00000000000E+00 -0.23144029839E+04  0.23144029839E+04  0.50400001928E-02 0.  1.
    10030    2    1    2    0    0  0.00000000000E+00  0.00000000000E+00 -0.20382497914E+04  0.25905561764E+04  0.15989118459E+04 0.  0.
        2    1    3    3  502    0  0.27926419912E+03 -0.83076962138E+02 -0.22253190816E+04  0.22443117629E+04  0.25500000920E-02 0.  1.
       -2    1    3    3    0  502 -0.27926419912E+03  0.83076962138E+02  0.18706929012E+03  0.34624441347E+03  0.25500000920E-02 0. -1.
</event>
<event>
 5   0  0.9939872E-05  0.1586601E+04  0.7818609E-02  0.8828822E-01
        1   -1    0    0  501    0  0.00000000000E+00  0.00000000000E+00  0.24804278208E+04  0.24804278208E+04  0.50400001928E-02 0.  1.
       -1   -1    0    0    0  501  0.00000000000E+00  0.00000000000E+00 -0.25371646717E+03  0.25371646722E+03  0.50400001928E-02 0. -1.
    10030    2    1    2    0    0  0.00000000000E+00  0.00000000000E+00  0.22267113537E+04  0.27341442881E+04  0.15866006225E+04 0.  0.
        3    1    3    3  502    0 -0.15579374083E+03  0.60543615309E+02  0.24497396055E+04  0.24554350662E+04  0.10100000352E+00 0.  1.
       -3    1    3    3    0  502  0.15579374083E+03 -0.60543615309E+02 -0.22302825187E+03  0.27870922189E+03  0.10100000352E+00 0. -1.
</event>
<event>
 5   0  0.9726935E-05  0.1600211E+04  0.7818609E-02  0.8820418E-01
        1   -1    0    0  501    0  0.00000000000E+00  0.00000000000E+00  0.60873941843E+03  0.60873941845E+03  0.50400001928E-02 0.  1.
       -1   -1    0    0    0  501  0.00000000000E+00  0.00000000000E+00 -0.10516306092E+04  0.10516306092E+04  0.50400001928E-02 0. -1.
    10030    2    1    2    0    0  0.00000000000E+00  0.00000000000E+00 -0.44289119073E+03  0.16603700276E+04  0.16002112429E+04 0.  0.
        2    1    3    3  502    0 -0.28033526528E+03  0.64055715410E+03 -0.62499864740E+03  0.93782974888E+03  0.25500000920E-02 0. -1.
       -2    1    3    3    0  502  0.28033526528E+03 -0.64055715410E+03  0.18210745667E+03  0.72254027874E+03  0.25500000920E-02 0.  1.
</event>
<event>
 5   0  0.9939872E-05  0.1607189E+04  0.7818609E-02  0.8816143E-01
       -1   -1    0    0    0  501  0.00000000000E+00  0.00000000000E+00  0.31350031755E+03  0.31350031759E+03  0.50400001928E-02 0. -1.
        1   -1    0    0  501    0  0.00000000000E+00  0.00000000000E+00 -0.20598524298E+04  0.20598524298E+04  0.50400001928E-02 0.  1.
    10030    2    1    2    0    0  0.00000000000E+00  0.00000000000E+00 -0.17463521122E+04  0.23733527474E+04  0.16071893366E+04 0.  0.
        3    1    3    3  502    0 -0.38893328125E+03 -0.81618514826E+02  0.15823349574E+03  0.42774820701E+03  0.10100000352E+00 0. -1.
       -3    1    3    3    0  502  0.38893328125E+03  0.81618514826E+02 -0.19045856080E+04  0.19456045404E+04  0.10100000352E+00 0.  1.
</event>
<event>
 5   0  0.1835088E-04  0.1594667E+04  0.7818609E-02  0.8823831E-01
        2   -1    0    0  501    0  0.00000000000E+00  0.00000000000E+00  0.14765550154E+04  0.14765550154E+04  0.25500000920E-02 0.  1.
       -2   -1    0    0    0  501  0.00000000000E+00  0.00000000000E+00 -0.43055659744E+03  0.43055659745E+03  0.25500000920E-02 0. -1.
    10030    2    1    2    0    0  0.00000000000E+00  0.00000000000E+00  0.10459984179E+04  0.19071116128E+04  0.15946667406E+04 0.  0.
        5    1    3    3  502    0 -0.65868049948E+02  0.73801960676E+03  0.87515346163E+03  0.11467027563E+04  0.46999998093E+01 0.  1.
       -5    1    3    3    0  502  0.65868049948E+02 -0.73801960676E+03  0.17084495631E+03  0.76040885651E+03  0.46999998093E+01 0. -1.
</event>
<event>
 5   0  0.1774934E-04  0.1599665E+04  0.7818609E-02  0.8820754E-01
       -2   -1    0    0    0  501  0.00000000000E+00  0.00000000000E+00  0.48482408369E+03  0.48482408370E+03  0.25500000920E-02 0.  1.
        2   -1    0    0  501    0  0.00000000000E+00  0.00000000000E+00 -0.13195138557E+04  0.13195138557E+04  0.25500000920E-02 0. -1.
    10030    2    1    2    0    0  0.00000000000E+00  0.00000000000E+00 -0.83468977196E+03  0.18043379394E+04  0.15996650849E+04 0.  0.
        1    1    3    3  502    0  0.65913658490E+03  0.35393963745E+03 -0.98317611290E+02  0.75458641469E+03  0.50400001928E-02 0.  1.
       -1    1    3    3    0  502 -0.65913658490E+03 -0.35393963745E+03 -0.73637216067E+03  0.10497515247E+04  0.50400001928E-02 0. -1.
</event>
<event>
 5   0  0.9673017E-05  0.1574459E+04  0.7818609E-02  0.8836394E-01
        1   -1    0    0  501    0  0.00000000000E+00  0.00000000000E+00  0.19302525047E+04  0.19302525047E+04  0.50400001928E-02 0.  1.
       -1   -1    0    0    0  501  0.00000000000E+00  0.00000000000E+00 -0.32106184194E+03  0.32106184198E+03  0.50400001928E-02 0. -1.
    10030    2    1    2    0    0  0.00000000000E+00  0.00000000000E+00  0.16091906628E+04  0.22513143467E+04  0.15744591765E+04 0.  0.
        1    1    3    3  502    0 -0.72958965629E+03 -0.26864519658E+03  0.98122734797E+03  0.12519099076E+04  0.50400001928E-02 0.  1.
       -1    1    3    3    0  502  0.72958965629E+03  0.26864519658E+03  0.62796331481E+03  0.99940443915E+03  0.50400001928E-02 0. -1.
</event>
<event>
 5   0  0.1832646E-04  0.1594721E+04  0.7818609E-02  0.8823798E-01
       -2   -1    0    0    0  501  0.00000000000E+00  0.00000000000E+00  0.22398190474E+03  0.22398190475E+03  0.25500000920E-02 0.  1.
        2   -1    0    0  501    0  0.00000000000E+00  0.00000000000E+00 -0.28385497693E+04  0.28385497693E+04  0.25500000920E-02 0. -1.
    10030    2    1    2    0    0  0.00000000000E+00  0.00000000000E+00 -0.26145678646E+04  0.30625316740E+04  0.15947210214E+04 0.  0.
        2    1    3    3  502    0  0.37143792170E+02 -0.23944189001E+02  0.22162824291E+03  0.22599129086E+03  0.25500000920E-02 0.  1.
       -2    1    3    3    0  502 -0.37143792170E+02  0.23944189001E+02 -0.28361961075E+04  0.28365403832E+04  0.25500000920E-02 0. -1.
</event>
<event>
 5   0  0.1835088E-04  0.1591829E+04  0.7818609E-02  0.8825583E-01
        2   -1    0    0  501    0  0.00000000000E+00  0.00000000000E+00  0.20164057780E+04  0.20164057780E+04  0.25500000920E-02 0. -1.
       -2   -1    0    0    0  501  0.00000000000E+00  0.00000000000E+00 -0.31416294079E+03  0.31416294080E+03  0.25500000920E-02 0.  1.
    10030    2    1    2    0    0  0.00000000000E+00  0.00000000000E+00  0.17022428372E+04  0.23305687188E+04  0.15918290977E+04 0.  0.
        5    1    3    3  502    0 -0.58448075916E+03  0.53515731021E+03  0.74306883022E+03  0.10863629600E+04  0.46999998093E+01 0. -1.
       -5    1    3    3    0  502  0.58448075916E+03 -0.53515731021E+03  0.95917400703E+03  0.12442057588E+04  0.46999998093E+01 0.  1.
</event>
<event>
 5   0  0.9726935E-05  0.1598460E+04  0.7818609E-02  0.8821495E-01
        1   -1    0    0  501    0  0.00000000000E+00  0.00000000000E+00  0.16413785736E+04  0.16413785736E+04  0.50400001928E-02 0. -1.
       -1   -1    0    0    0  501  0.00000000000E+00  0.00000000000E+00 -0.38916582843E+03  0.38916582846E+03  0.50400001928E-02 0.  1.
    10030    2    1    2    0    0  0.00000000000E+00  0.00000000000E+00  0.12522127452E+04  0.20305444021E+04  0.15984598242E+04 0.  0.
        2    1    3    3  502    0  0.98950821933E+01  0.40985386729E+03  0.14976284869E+04  0.15527295933E+04  0.25500000920E-02 0. -1.
       -2    1    3    3    0  502 -0.98950821933E+01 -0.40985386729E+03 -0.24541574172E+03  0.47781480877E+03  0.25500000920E-02 0.  1.
</event>
<event>
 5   0  0.1832646E-04  0.1599333E+04  0.7818609E-02  0.8820958E-01
        2   -1    0    0  501    0  0.00000000000E+00  0.00000000000E+00  0.84763709770E+03  0.84763709770E+03  0.25500000920E-02 0. -1.
       -2   -1    0    0    0  501  0.00000000000E+00  0.00000000000E+00 -0.75441100940E+03  0.75441100940E+03  0.25500000920E-02 0.  1.
    10030    2    1    2    0    0  0.00000000000E+00  0.00000000000E+00  0.93226088298E+02  0.16020481071E+04  0.15993333092E+04 0.  0.
        2    1    3    3  502    0 -0.26877867594E+03 -0.63524606987E+03 -0.35865648082E+03  0.77744068402E+03  0.25500000920E-02 0.  1.
       -2    1    3    3    0  502  0.26877867594E+03  0.63524606987E+03  0.45188256912E+03  0.82460742308E+03  0.25500000920E-02 0. -1.
</event>
<event>
 5   0  0.1914170E-04  0.1591622E+04  0.7818609E-02  0.8825712E-01
        2   -1    0    0  501    0  0.00000000000E+00  0.00000000000E+00  0.11007512687E+04  0.11007512687E+04  0.25500000920E-02 0.  1.
       -2   -1    0    0    0  501  0.00000000000E+00  0.00000000000E+00 -0.57534783853E+03  0.57534783853E+03  0.25500000920E-02 0. -1.
    10030    2    1    2    0    0  0.00000000000E+00  0.00000000000E+00  0.52540343021E+03  0.16760991073E+04  0.15916216425E+04 0.  0.
        3    1    3    3  502    0  0.15393785280E+03 -0.60310203357E+03  0.78488948483E+03  0.10017387080E+04  0.10100000352E+00 0.  1.
       -3    1    3    3    0  502 -0.15393785280E+03  0.60310203357E+03 -0.25948605463E+03  0.67436039931E+03  0.10100000352E+00 0. -1.
</event>
<event>
 5   0  0.9616567E-05  0.1602325E+04  0.7818609E-02  0.8819121E-01
        1   -1    0    0  501    0  0.00000000000E+00  0.00000000000E+00  0.15595965972E+04  0.15595965972E+04  0.50400001928E-02 0.  1.
       -1   -1    0    0    0  501  0.00000000000E+00  0.00000000000E+00 -0.41155614558E+03  0.41155614561E+03  0.50400001928E-02 0. -1.
    10030    2    1    2    0    0  0.00000000000E+00  0.00000000000E+00  0.11480404516E+04  0.19711527428E+04  0.16023252657E+04 0.  0.
        5    1    3    3  502    0  0.39537234399E+03  0.67619215580E+03  0.78091175843E+03  0.11060743132E+04  0.46999998093E+01 0. -1.
       -5    1    3    3    0  502 -0.39537234399E+03 -0.67619215580E+03  0.36712869319E+03  0.86507842958E+03  0.46999998093E+01 0.  1.
</event>
<event>
 5   0  0.9616567E-05  0.1602474E+04  0.7818609E-02  0.8819030E-01
        1   -1    0    0  501    0  0.00000000000E+00  0.00000000000E+00  0.90890517039E+03  0.90890517040E+03  0.50400001928E-02 0. -1.
       -1   -1    0    0    0  501  0.00000000000E+00  0.00000000000E+00 -0.70632309101E+03  0.70632309103E+03  0.50400001928E-02 0.  1.
    10030    2    1    2    0    0  0.00000000000E+00  0.00000000000E+00  0.20258207938E+03  0.16152282614E+04  0.16024739741E+04 0.  0.
        5    1    3    3  502    0  0.48120050533E+03 -0.59606269267E+03  0.33792317696E+03  0.83729255547E+03  0.46999998093E+01 0. -1.
       -5    1    3    3    0  502 -0.48120050533E+03  0.59606269267E+03 -0.13534109758E+03  0.77793570596E+03  0.46999998093E+01 0.  1.
</event>
<event>
 5   0  0.1774934E-04  0.1596404E+04  0.7818609E-02  0.8822760E-01
        2   -1    0    0  501    0  0.00000000000E+00  0.00000000000E+00  0.96929648348E+03  0.96929648349E+03  0.25500000920E-02 0. -1.
       -2   -1    0    0    0  501  0.00000000000E+00  0.00000000000E+00 -0.65730835362E+03  0.65730835362E+03  0.25500000920E-02 0.  1.
    10030    2    1    2    0    0  0.00000000000E+00  0.00000000000E+00  0.31198812987E+03  0.16266048371E+04  0.15964043043E+04 0.  0.
        1    1    3    3  502    0  0.67052022461E+03 -0.42358571763E+03  0.64266306700E+02  0.79570873440E+03  0.50400001928E-02 0.  1.
       -1    1    3    3    0  502 -0.67052022461E+03  0.42358571763E+03  0.24772182317E+03  0.83089610271E+03  0.50400001928E-02 0. -1.
</event>
<event>
 5   0  0.9432152E-05  0.1597262E+04  0.7818609E-02  0.8822232E-01
        1   -1    0    0  501    0  0.00000000000E+00  0.00000000000E+00  0.12733406341E+04  0.12733406341E+04  0.50400001928E-02 0.  1.
       -1   -1    0    0    0  501  0.00000000000E+00  0.00000000000E+00 -0.50089623135E+03  0.50089623137E+03  0.50400001928E-02 0. -1.
    10030    2    1    2    0    0  0.00000000000E+00  0.00000000000E+00  0.77244440271E+03  0.17742368654E+04  0.15972620635E+04 0.  0.
        4    1    3    3  502    0  0.13502550840E+03 -0.12960861094E+03  0.12486340339E+04  0.12625841926E+04  0.12699999809E+01 0.  1.
       -4    1    3    3    0  502 -0.13502550840E+03  0.12960861094E+03 -0.47618963114E+03  0.51165267287E+03  0.12699999809E+01 0. -1.
</event>
<event>
 5   0  0.9726935E-05  0.1599996E+04  0.7818609E-02  0.8820550E-01
        1   -1    0    0  501    0  0.00000000000E+00  0.00000000000E+00  0.23726114667E+04  0.23726114667E+04  0.50400001928E-02 0.  1.
       -1   -1    0    0    0  501  0.00000000000E+00  0.00000000000E+00 -0.26974362416E+03  0.26974362420E+03  0.50400001928E-02 0. -1.
    10030    2    1    2    0    0  0.00000000000E+00  0.00000000000E+00  0.21028678425E+04  0.26423550909E+04  0.15999960198E+04 0.  0.
        2    1    3    3  502    0 -0.59308741789E+03  0.27365422990E+03  0.18142612212E+04  0.19282590857E+04  0.25500000920E-02 0.  1.
       -2    1    3    3    0  502  0.59308741789E+03 -0.27365422990E+03  0.28860662137E+03  0.71409600524E+03  0.25500000920E-02 0. -1.
</event>
<event>
 5   0  0.1858913E-04  0.1549734E+04  0.7818609E-02  0.8852037E-01
        2   -1    0    0  501    0  0.00000000000E+00  0.00000000000E+00  0.11472584217E+04  0.11472584217E+04  0.25500000920E-02 0.  1.
       -2   -1    0    0    0  501  0.00000000000E+00  0.00000000000E+00 -0.52335133319E+03  0.52335133320E+03  0.25500000920E-02 0. -1.
    10030    2    1    2    0    0  0.00000000000E+00  0.00000000000E+00  0.62390708853E+03  0.16706097549E+04  0.15497344605E+04 0.  0.
        4    1    3    3  502    0 -0.63832783247E+02 -0.40675109486E+03  0.10195802638E+04  0.10995756475E+04  0.12699999809E+01 0.  1.
       -4    1    3    3    0  502  0.63832783247E+02  0.40675109486E+03 -0.39567317522E+03  0.57103410745E+03  0.12699999809E+01 0. -1.
</event>
<event>
 5   0  0.1832646E-04  0.1615706E+04  0.7818609E-02  0.8810957E-01
        2   -1    0    0  501    0  0.00000000000E+00  0.00000000000E+00  0.13675789314E+04  0.13675789314E+04  0.25500000920E-02 0. -1.
       -2   -1    0    0    0  501  0.00000000000E+00  0.00000000000E+00 -0.47721296717E+03  0.47721296717E+03  0.25500000920E-02 0.  1.
    10030    2    1    2    0    0  0.00000000000E+00  0.00000000000E+00  0.89036596427E+03  0.18447918986E+04  0.16157059135E+04 0.  0.
        2    1    3    3  502    0 -0.60297937639E+02 -0.52291771823E+03 -0.25452620199E+03  0.58468997667E+03  0.25500000920E-02 0.  1.
       -2    1    3    3    0  502  0.60297937639E+02  0.52291771823E+03  0.11448921663E+04  0.12601019219E+04  0.25500000920E-02 0. -1.
</event>
<event>
 5   0  0.1914170E-04  0.1590346E+04  0.7818609E-02  0.8826501E-01
       -2   -1    0    0    0  501  0.00000000000E+00  0.00000000000E+00  0.35618822837E+03  0.35618822838E+03  0.25500000920E-02 0.  1.
        2   -1    0    0  501    0  0.00000000000E+00  0.00000000000E+00 -0.17751857672E+04  0.17751857672E+04  0.25500000920E-02 0. -1.
    10030    2    1    2    0    0  0.00000000000E+00  0.00000000000E+00 -0.14189975389E+04  0.21313739956E+04  0.15903462182E+04 0.  0.
        3    1    3    3  502    0  0.62177869584E+03  0.16455458050E+03 -0.82875845242E+02  0.64850240747E+03  0.10100000352E+00 0.  1.
       -3    1    3    3    0  502 -0.62177869584E+03 -0.16455458050E+03 -0.13361216936E+04  0.14828715881E+04  0.10100000352E+00 0. -1.
</event>
<event>
 5   0  0.6838750E-05  0.1596281E+04  0.7818609E-02  0.8822836E-01
       -4   -1    0    0    0  501  0.00000000000E+00  0.00000000000E+00  0.12988892825E+04  0.12988899033E+04  0.12699999809E+01 0. -1.
        4   -1    0    0  501    0  0.00000000000E+00  0.00000000000E+00 -0.49043914652E+03  0.49044079086E+03  0.12699999809E+01 0.  1.
    10030    2    1    2    0    0  0.00000000000E+00  0.00000000000E+00  0.80845013594E+03  0.17893306942E+04  0.15962808997E+04 0.  0.
        3    1    3    3  502    0 -0.59312204002E+03 -0.32101125517E+03 -0.74227641430E+02  0.67849224996E+03  0.10100000352E+00 0.  1.
       -3    1    3    3    0  502  0.59312204002E+03  0.32101125517E+03  0.88267777737E+03  0.11108384442E+04  0.10100000352E+00 0. -1.
</event>
<event>
 5   0  0.1858913E-04  0.1604843E+04  0.7818609E-02  0.8817578E-01
       -2   -1    0    0    0  501  0.00000000000E+00  0.00000000000E+00  0.25564984081E+03  0.25564984082E+03  0.25500000920E-02 0. -1.
        2   -1    0    0  501    0  0.00000000000E+00  0.00000000000E+00 -0.25186013834E+04  0.25186013834E+04  0.25500000920E-02 0.  1.
    10030    2    1    2    0    0  0.00000000000E+00  0.00000000000E+00 -0.22629515426E+04  0.27742512242E+04  0.16048427247E+04 0.  0.
        4    1    3    3  502    0 -0.77194580111E+03  0.19728314797E+03 -0.96695651070E+03  0.12529275585E+04  0.12699999809E+01 0. -1.
       -4    1    3    3    0  502  0.77194580111E+03 -0.19728314797E+03 -0.12959950319E+04  0.15213236657E+04  0.12699999809E+01 0.  1.
</event>
<event>
 5   0  0.1914170E-04  0.1594677E+04  0.7818609E-02  0.8823825E-01
        2   -1    0    0  501    0  0.00000000000E+00  0.00000000000E+00  0.13657876432E+04  0.13657876432E+04  0.25500000920E-02 0. -1.
       -2   -1    0    0    0  501  0.00000000000E+00  0.00000000000E+00 -0.46548115450E+03  0.46548115451E+03  0.25500000920E-02 0.  1.
    10030    2    1    2    0    0  0.00000000000E+00  0.00000000000E+00  0.90030648873E+03  0.18312687977E+04  0.15946766556E+04 0.  0.
        3    1    3    3  502    0  0.13199248475E+01 -0.73423003927E+03  0.93137871317E+02  0.74011496812E+03  0.10100000352E+00 0.  1.
       -3    1    3    3    0  502 -0.13199248475E+01  0.73423003927E+03  0.80716861741E+03  0.10911538296E+04  0.10100000352E+00 0. -1.
</event>
<event>
 5   0  0.9939872E-05  0.1601166E+04  0.7818609E-02  0.8819832E-01
       -1   -1    0    0    0  501  0.00000000000E+00  0.00000000000E+00  0.11271036481E+04  0.11271036481E+04  0.50400001928E-02 0.  1.
        1   -1    0    0  501    0  0.00000000000E+00  0.00000000000E+00 -0.56865488408E+03  0.56865488410E+03  0.50400001928E-02 0. -1.
    10030    2    1    2    0    0  0.00000000000E+00  0.00000000000E+00  0.55844876406E+03  0.16957585322E+04  0.16011658183E+04 0.  0.
        3    1    3    3  502    0  0.36782603010E+03  0.70308207557E+03  0.39186855725E+03  0.88497534981E+03  0.10100000352E+00 0.  1.
       -3    1    3    3    0  502 -0.36782603010E+03 -0.70308207557E+03  0.16658020681E+03  0.81078318243E+03  0.10100000352E+00 0. -1.
</event>
<event>
 5   0  0.1774934E-04  0.1577786E+04  0.7818609E-02  0.8834312E-01
        2   -1    0    0  501    0  0.00000000000E+00  0.00000000000E+00  0.84973562109E+03  0.84973562110E+03  0.25500000920E-02 0. -1.
       -2   -1    0    0    0  501  0.00000000000E+00  0.00000000000E+00 -0.73240692419E+03  0.73240692419E+03  0.25500000920E-02 0.  1.
    10030    2    1    2    0    0  0.00000000000E+00  0.00000000000E+00  0.11732869691E+03  0.15821425453E+04  0.15777861105E+04 0.  0.
        1    1    3    3  502    0 -0.65927902629E+03 -0.57390746534E+02  0.48927957784E+03  0.82300488310E+03  0.50400001928E-02 0. -1.
       -1    1    3    3    0  502  0.65927902629E+03  0.57390746534E+02 -0.37195088094E+03  0.75913766218E+03  0.50400001928E-02 0.  1.
</event>
<event>
 5   0  0.9726935E-05  0.1584952E+04  0.7818609E-02  0.8829846E-01
       -1   -1    0    0    0  501  0.00000000000E+00  0.00000000000E+00  0.32352544638E+03  0.32352544642E+03  0.50400001928E-02 0.  1.
        1   -1    0    0  501    0  0.00000000000E+00  0.00000000000E+00 -0.19411712824E+04  0.19411712824E+04  0.50400001928E-02 0. -1.
    10030    2    1    2    0    0  0.00000000000E+00  0.00000000000E+00 -0.16176458360E+04  0.22646967288E+04  0.15849521200E+04 0.  0.
        2    1    3    3  502    0  0.44777930555E+03 -0.28669563317E+03  0.30836707400E+02  0.53258951838E+03  0.25500000920E-02 0.  1.
       -2    1    3    3    0  502 -0.44777930555E+03  0.28669563317E+03 -0.16484825434E+04  0.17321072104E+04  0.25500000920E-02 0. -1.
</event>
<event>
 5   0  0.9673017E-05  0.1613966E+04  0.7818609E-02  0.8812014E-01
        1   -1    0    0  501    0  0.00000000000E+00  0.00000000000E+00  0.78193062096E+03  0.78193062097E+03  0.50400001928E-02 0.  1.
       -1   -1    0    0    0  501  0.00000000000E+00  0.00000000000E+00 -0.83283774442E+03  0.83283774444E+03  0.50400001928E-02 0. -1.
    10030    2    1    2    0    0  0.00000000000E+00  0.00000000000E+00 -0.50907123462E+02  0.16147683654E+04  0.16139657179E+04 0.  0.
        1    1    3    3  502    0  0.48446677049E+03 -0.46622057116E+03  0.42103248842E+03  0.79330828119E+03  0.50400001928E-02 0.  1.
       -1    1    3    3    0  502 -0.48446677049E+03  0.46622057116E+03 -0.47193961188E+03  0.82146008422E+03  0.50400001928E-02 0. -1.
</event>
<event>
 5   0  0.1858913E-04  0.1600039E+04  0.7818609E-02  0.8820524E-01
       -2   -1    0    0    0  501  0.00000000000E+00  0.00000000000E+00  0.43863832733E+03  0.43863832734E+03  0.25500000920E-02 0. -1.
        2   -1    0    0  501    0  0.00000000000E+00  0.00000000000E+00 -0.14591320359E+04  0.14591320359E+04  0.25500000920E-02 0.  1.
    10030    2    1    2    0    0  0.00000000000E+00  0.00000000000E+00 -0.10204937086E+04  0.18977703632E+04  0.16000390440E+04 0.  0.
        4    1    3    3  502    0 -0.52512920067E+03  0.42675631911E+01 -0.12260824610E+04  0.13338135940E+04  0.12699999809E+01 0.  1.
       -4    1    3    3    0  502  0.52512920067E+03 -0.42675631911E+01  0.20558875246E+03  0.56395676920E+03  0.12699999809E+01 0. -1.
</event>
<event>
 5   0  0.1858913E-04  0.1599814E+04  0.7818609E-02  0.8820662E-01
       -2   -1    0    0    0  501  0.00000000000E+00  0.00000000000E+00  0.72221742892E+03  0.72221742892E+03  0.25500000920E-02 0.  1.
        2   -1    0    0  501    0  0.00000000000E+00  0.00000000000E+00 -0.88595337723E+03  0.88595337723E+03  0.25500000920E-02 0. -1.
    10030    2    1    2    0    0  0.00000000000E+00  0.00000000000E+00 -0.16373594831E+03  0.16081708062E+04  0.15998137020E+04 0.  0.
        4    1    3    3  502    0 -0.28589382528E+03  0.34900404891E+03  0.58212039282E+03  0.73648141194E+03  0.12699999809E+01 0.  1.
       -4    1    3    3    0  502  0.28589382528E+03 -0.34900404891E+03 -0.74585634113E+03  0.87168939422E+03  0.12699999809E+01 0. -1.
</event>
<event>
 5   0  0.1858913E-04  0.1603051E+04  0.7818609E-02  0.8818676E-01
       -2   -1    0    0    0  501  0.00000000000E+00  0.00000000000E+00  0.10654474860E+04  0.10654474860E+04  0.25500000920E-02 0.  1.
        2   -1    0    0  501    0  0.00000000000E+00  0.00000000000E+00 -0.60297928339E+03  0.60297928340E+03  0.25500000920E-02 0. -1.
    10030    2    1    2    0    0  0.00000000000E+00  0.00000000000E+00  0.46246820259E+03  0.16684267694E+04  0.16030505439E+04 0.  0.
        4    1    3    3  502    0 -0.90462055793E+02  0.73800606675E+03  0.54278255254E+03  0.92057093715E+03  0.12699999809E+01 0.  1.
       -4    1    3    3    0  502  0.90462055793E+02 -0.73800606675E+03 -0.80314349948E+02  0.74785583223E+03  0.12699999809E+01 0. -1.
</event>
<event>
 5   0  0.6838750E-05  0.1617406E+04  0.7818609E-02  0.8809926E-01
       -3   -1    0    0    0  501  0.00000000000E+00  0.00000000000E+00  0.34055062879E+03  0.34055064377E+03  0.10100000352E+00 0.  1.
        3   -1    0    0  501    0  0.00000000000E+00  0.00000000000E+00 -0.19204202715E+04  0.19204202742E+04  0.10100000352E+00 0. -1.
    10030    2    1    2    0    0  0.00000000000E+00  0.00000000000E+00 -0.15798696427E+04  0.22609709179E+04  0.16174057635E+04 0.  0.
        3    1    3    3  502    0  0.52042472657E+03 -0.45075811214E+03 -0.13829731561E+04  0.15448752481E+04  0.10100000352E+00 0. -1.
       -3    1    3    3    0  502 -0.52042472657E+03  0.45075811214E+03 -0.19689648667E+03  0.71609566983E+03  0.10100000352E+00 0.  1.
</event>
<event>
 5   0  0.9673017E-05  0.1600140E+04  0.7818609E-02  0.8820462E-01
       -1   -1    0    0    0  501  0.00000000000E+00  0.00000000000E+00  0.52883231746E+03  0.52883231748E+03  0.50400001928E-02 0.  1.
        1   -1    0    0  501    0  0.00000000000E+00  0.00000000000E+00 -0.12104250167E+04  0.12104250167E+04  0.50400001928E-02 0. -1.
    10030    2    1    2    0    0  0.00000000000E+00  0.00000000000E+00 -0.68159269927E+03  0.17392573342E+04  0.16001398273E+04 0.  0.
        1    1    3    3  502    0 -0.34852784692E+03 -0.71230936821E+03 -0.22548032382E+03  0.82443779181E+03  0.50400001928E-02 0.  1.
       -1    1    3    3    0  502  0.34852784692E+03  0.71230936821E+03 -0.45611237545E+03  0.91481954241E+03  0.50400001928E-02 0. -1.
</event>
<event>
 5   0  0.6838750E-05  0.1581159E+04  0.7818609E-02  0.8832207E-01
       -3   -1    0    0    0  501  0.00000000000E+00  0.00000000000E+00  0.31986153054E+03  0.31986154648E+03  0.10100000352E+00 0.  1.
        3   -1    0    0  501    0  0.00000000000E+00  0.00000000000E+00 -0.19540205607E+04  0.19540205633E+04  0.10100000352E+00 0. -1.
    10030    2    1    2    0    0  0.00000000000E+00  0.00000000000E+00 -0.16341590302E+04  0.22738821098E+04  0.15811591044E+04 0.  0.
        3    1    3    3  502    0 -0.21545692145E+03  0.63132836159E+03 -0.20690882431E+03  0.69843285785E+03  0.10100000352E+00 0.  1.
       -3    1    3    3    0  502  0.21545692145E+03 -0.63132836159E+03 -0.14272502059E+04  0.15754492519E+04  0.10100000352E+00 0. -1.
</event>
<event>
 5   0  0.1914170E-04  0.1603680E+04  0.7818609E-02  0.8818291E-01
        2   -1    0    0  501    0  0.00000000000E+00  0.00000000000E+00  0.60828917407E+03  0.60828917407E+03  0.25500000920E-02 0.  1.
       -2   -1    0    0    0  501  0.00000000000E+00  0.00000000000E+00 -0.10569761395E+04  0.10569761395E+04  0.25500000920E-02 0. -1.
    10030    2    1    2    0    0  0.00000000000E+00  0.00000000000E+00 -0.44868696544E+03  0.16652653136E+04  0.16036796973E+04 0.  0.
        3    1    3    3  502    0  0.19349069886E+03 -0.76336609136E+03 -0.38107244862E+03  0.87486150977E+03  0.10100000352E+00 0. -1.
       -3    1    3    3    0  502 -0.19349069886E+03  0.76336609136E+03 -0.67614516824E+02  0.79040380381E+03  0.10100000352E+00 0.  1.
</event>
<event>
 5   0  0.1774934E-04  0.1605277E+04  0.7818609E-02  0.8817313E-01
       -2   -1    0    0    0  501  0.00000000000E+00  0.00000000000E+00  0.73404108307E+03  0.73404108307E+03  0.25500000920E-02 0. -1.
        2   -1    0    0  501    0  0.00000000000E+00  0.00000000000E+00 -0.87764624607E+03  0.87764624607E+03  0.25500000920E-02 0.  1.
    10030    2    1    2    0    0  0.00000000000E+00  0.00000000000E+00 -0.14360516300E+03  0.16116873291E+04  0.16052767998E+04 0.  0.
        1    1    3    3  502    0  0.74342514008E+03 -0.22475689573E+03  0.13156941240E+03  0.78772273764E+03  0.50400001928E-02 0.  1.
       -1    1    3    3    0  502 -0.74342514008E+03  0.22475689573E+03 -0.27517457540E+03  0.82396459151E+03  0.50400001928E-02 0. -1.
</event>
<event>
 5   0  0.6838750E-05  0.1595797E+04  0.7818609E-02  0.8823134E-01
        4   -1    0    0  501    0  0.00000000000E+00  0.00000000000E+00  0.16590900896E+04  0.16590905757E+04  0.12699999809E+01 0.  1.
       -4   -1    0    0    0  501  0.00000000000E+00  0.00000000000E+00 -0.38372824956E+03  0.38373035117E+03  0.12699999809E+01 0. -1.
    10030    2    1    2    0    0  0.00000000000E+00  0.00000000000E+00  0.12753618400E+04  0.20428209268E+04  0.15957974546E+04 0.  0.
        5    1    3    3  502    0  0.25216716988E+03 -0.73811574277E+03  0.42264591512E+03  0.88716108507E+03  0.46999998093E+01 0. -1.
       -5    1    3    3    0  502 -0.25216716988E+03  0.73811574277E+03  0.85271592490E+03  0.11556598418E+04  0.46999998093E+01 0.  1.
</event>
<event>
 5   0  0.9673017E-05  0.1591944E+04  0.7818609E-02  0.8825513E-01
        1   -1    0    0  501    0  0.00000000000E+00  0.00000000000E+00  0.65192583874E+03  0.65192583876E+03  0.50400001928E-02 0. -1.
       -1   -1    0    0    0  501  0.00000000000E+00  0.00000000000E+00 -0.97184565981E+03  0.97184565983E+03  0.50400001928E-02 0.  1.
    10030    2    1    2    0    0  0.00000000000E+00  0.00000000000E+00 -0.31991982107E+03  0.16237714986E+04  0.15919438394E+04 0.  0.
        1    1    3    3  502    0 -0.27580703193E+03 -0.23656625142E+03 -0.88231240066E+03  0.95420557668E+03  0.50400001928E-02 0.  1.
       -1    1    3    3    0  502  0.27580703193E+03  0.23656625142E+03  0.56239257959E+03  0.66956592191E+03  0.50400001928E-02 0. -1.
</event>
<event>
 5   0  0.9726935E-05  0.1596085E+04  0.7818609E-02  0.8822957E-01
       -1   -1    0    0    0  501  0.00000000000E+00  0.00000000000E+00  0.67141310784E+03  0.67141310786E+03  0.50400001928E-02 0. -1.
        1   -1    0    0  501    0  0.00000000000E+00  0.00000000000E+00 -0.94855396129E+03  0.94855396131E+03  0.50400001928E-02 0.  1.
    10030    2    1    2    0    0  0.00000000000E+00  0.00000000000E+00 -0.27714085345E+03  0.16199670692E+04  0.15960846633E+04 0.  0.
        2    1    3    3  502    0  0.38014829486E+03 -0.20523532288E+03  0.54246702770E+03  0.69347295549E+03  0.25500000920E-02 0. -1.
       -2    1    3    3    0  502 -0.38014829486E+03  0.20523532288E+03 -0.81960788115E+03  0.92649411368E+03  0.25500000920E-02 0.  1.
</event>
<event>
 5   0  0.1914170E-04  0.1598025E+04  0.7818609E-02  0.8821762E-01
        2   -1    0    0  501    0  0.00000000000E+00  0.00000000000E+00  0.69761838935E+03  0.69761838935E+03  0.25500000920E-02 0. -1.
       -2   -1    0    0    0  501  0.00000000000E+00  0.00000000000E+00 -0.91514361468E+03  0.91514361469E+03  0.25500000920E-02 0.  1.
    10030    2    1    2    0    0  0.00000000000E+00  0.00000000000E+00 -0.21752522534E+03  0.16127620040E+04  0.15980250492E+04 0.  0.
        3    1    3    3  502    0 -0.19324191678E+03  0.63956230182E+02  0.67101284412E+03  0.70120687743E+03  0.10100000352E+00 0. -1.
       -3    1    3    3    0  502  0.19324191678E+03 -0.63956230182E+02 -0.88853806945E+03  0.91155512661E+03  0.10100000352E+00 0.  1.
</event>
<event>
 5   0  0.9726935E-05  0.1599851E+04  0.7818609E-02  0.8820640E-01
       -1   -1    0    0    0  501  0.00000000000E+00  0.00000000000E+00  0.12588673748E+04  0.12588673748E+04  0.50400001928E-02 0.  1.
        1   -1    0    0  501    0  0.00000000000E+00  0.00000000000E+00 -0.50829885939E+03  0.50829885942E+03  0.50400001928E-02 0. -1.
    10030    2    1    2    0    0  0.00000000000E+00  0.00000000000E+00  0.75056851541E+03  0.17671662342E+04  0.15998510565E+04 0.  0.
        2    1    3    3  502    0  0.77964578345E+02  0.47682466315E+03 -0.32891636165E+03  0.58448798776E+03  0.25500000920E-02 0. -1.
       -2    1    3    3    0  502 -0.77964578345E+02 -0.47682466315E+03  0.10794848771E+04  0.11826782465E+04  0.25500000920E-02 0.  1.
</event>
<event>
 5   0  0.1832646E-04  0.1601645E+04  0.7818609E-02  0.8819538E-01
       -2   -1    0    0    0  501  0.00000000000E+00  0.00000000000E+00  0.53617975247E+03  0.53617975247E+03  0.25500000920E-02 0. -1.
        2   -1    0    0  501    0  0.00000000000E+00  0.00000000000E+00 -0.11960850187E+04  0.11960850187E+04  0.25500000920E-02 0.  1.
    10030    2    1    2    0    0  0.00000000000E+00  0.00000000000E+00 -0.65990526624E+03  0.17322647712E+04  0.16016448661E+04 0.  0.
        2    1    3    3  502    0  0.17083227664E+03 -0.50803558581E+03 -0.97348406536E+03  0.11112853138E+04  0.25500000920E-02 0.  1.
       -2    1    3    3    0  502 -0.17083227664E+03  0.50803558581E+03  0.31357879912E+03  0.62097945736E+03  0.25500000920E-02 0. -1.
</event>
<event>
 5   0  0.9939872E-05  0.1599420E+04  0.7818609E-02  0.8820904E-01
        1   -1    0    0  501    0  0.00000000000E+00  0.00000000000E+00  0.11442316169E+04  0.11442316169E+04  0.50400001928E-02 0. -1.
       -1   -1    0    0    0  501  0.00000000000E+00  0.00000000000E+00 -0.55892208881E+03  0.55892208883E+03  0.50400001928E-02 0.  1.
    10030    2    1    2    0    0  0.00000000000E+00  0.00000000000E+00  0.58530952807E+03  0.17031537057E+04  0.15994203018E+04 0.  0.
        3    1    3    3  502    0  0.31723918882E+03 -0.38450289747E+03  0.95855493283E+03  0.10804215615E+04  0.10100000352E+00 0. -1.
       -3    1    3    3    0  502 -0.31723918882E+03  0.38450289747E+03 -0.37324540476E+03  0.62273214423E+03  0.10100000352E+00 0.  1.
</event>
<event>
 5   0  0.9673017E-05  0.1601815E+04  0.7818609E-02  0.8819434E-01
       -1   -1    0    0    0  501  0.00000000000E+00  0.00000000000E+00  0.80098537233E+03  0.80098537235E+03  0.50400001928E-02 0. -1.
        1   -1    0    0  501    0  0.00000000000E+00  0.00000000000E+00 -0.80083004304E+03  0.80083004306E+03  0.50400001928E-02 0.  1.
    10030    2    1    2    0    0  0.00000000000E+00  0.00000000000E+00  0.15532929220E+00  0.16018154154E+04  0.16018154079E+04 0.  0.
        1    1    3    3  502    0 -0.79308788178E+03  0.53393599068E+02  0.98128088606E+02  0.80091721573E+03  0.50400001928E-02 0.  1.
       -1    1    3    3    0  502  0.79308788178E+03 -0.53393599068E+02 -0.97972759314E+02  0.80089819968E+03  0.50400001928E-02 0. -1.
</event>
<event>
 5   0  0.1858913E-04  0.1602015E+04  0.7818609E-02  0.8819311E-01
       -2   -1    0    0    0  501  0.00000000000E+00  0.00000000000E+00  0.39815102574E+03  0.39815102574E+03  0.25500000920E-02 0. -1.
        2   -1    0    0  501    0  0.00000000000E+00  0.00000000000E+00 -0.16114808543E+04  0.16114808543E+04  0.25500000920E-02 0.  1.
    10030    2    1    2    0    0  0.00000000000E+00  0.00000000000E+00 -0.12133298285E+04  0.20096318800E+04  0.16020146755E+04 0.  0.
        4    1    3    3  502    0 -0.44738060728E+03  0.57367155299E+03 -0.18616968471E+03  0.75093889424E+03  0.12699999809E+01 0. -1.
       -4    1    3    3    0  502  0.44738060728E+03 -0.57367155299E+03 -0.10271601438E+04  0.12586929858E+04  0.12699999809E+01 0.  1.
</event>
<event>
 5   0  0.1835088E-04  0.1594508E+04  0.7818609E-02  0.8823929E-01
        2   -1    0    0  501    0  0.00000000000E+00  0.00000000000E+00  0.62304623336E+03  0.62304623337E+03  0.25500000920E-02 0. -1.
       -2   -1    0    0    0  501  0.00000000000E+00  0.00000000000E+00 -0.10201717661E+04  0.10201717661E+04  0.25500000920E-02 0.  1.
    10030    2    1    2    0    0  0.00000000000E+00  0.00000000000E+00 -0.39712553274E+03  0.16432179995E+04  0.15945082957E+04 0.  0.
        5    1    3    3  502    0 -0.30199353414E+03 -0.32775384951E+03  0.48266747007E+03  0.65697234127E+03  0.46999998093E+01 0. -1.
       -5    1    3    3    0  502  0.30199353414E+03  0.32775384951E+03 -0.87979300281E+03  0.98624565820E+03  0.46999998093E+01 0.  1.
</event>
<event>
 5   0  0.9726935E-05  0.1598671E+04  0.7818609E-02  0.8821365E-01
       -1   -1    0    0    0  501  0.00000000000E+00  0.00000000000E+00  0.44953525049E+03  0.44953525052E+03  0.50400001928E-02 0.  1.
        1   -1    0    0  501    0  0.00000000000E+00  0.00000000000E+00 -0.14213284555E+04  0.14213284555E+04  0.50400001928E-02 0. -1.
    10030    2    1    2    0    0  0.00000000000E+00  0.00000000000E+00 -0.97179320498E+03  0.18708637060E+04  0.15986710022E+04 0.  0.
        2    1    3    3  502    0  0.38810662220E+03 -0.51733757900E+03  0.63842950928E+02  0.64987756019E+03  0.25500000920E-02 0.  1.
       -2    1    3    3    0  502 -0.38810662220E+03  0.51733757900E+03 -0.10356361559E+04  0.12209861458E+04  0.25500000920E-02 0. -1.
</event>
<event>
 5   0  0.9726935E-05  0.1595665E+04  0.7818609E-02  0.8823216E-01
        1   -1    0    0  501    0  0.00000000000E+00  0.00000000000E+00  0.15496107866E+04  0.15496107866E+04  0.50400001928E-02 0. -1.
       -1   -1    0    0    0  501  0.00000000000E+00  0.00000000000E+00 -0.41077187763E+03  0.41077187766E+03  0.50400001928E-02 0.  1.
    10030    2    1    2    0    0  0.00000000000E+00  0.00000000000E+00  0.11388389090E+04  0.19603826642E+04  0.15956647924E+04 0.  0.
        2    1    3    3  502    0  0.45210556747E+01  0.58732341292E+03 -0.93970054429E+02  0.59481056014E+03  0.25500000920E-02 0.  1.
       -2    1    3    3    0  502 -0.45210556747E+01 -0.58732341292E+03  0.12328089634E+04  0.13655721041E+04  0.25500000920E-02 0. -1.
</event>
<event>
 5   0  0.9673017E-05  0.1596448E+04  0.7818609E-02  0.8822733E-01
        1   -1    0    0  501    0  0.00000000000E+00  0.00000000000E+00  0.72772948874E+03  0.72772948875E+03  0.50400001928E-02 0.  1.
       -1   -1    0    0    0  501  0.00000000000E+00  0.00000000000E+00 -0.87554736397E+03  0.87554736398E+03  0.50400001928E-02 0. -1.
    10030    2    1    2    0    0  0.00000000000E+00  0.00000000000E+00 -0.14781787523E+03  0.16032768527E+04  0.15964481020E+04 0.  0.
        1    1    3    3  502    0 -0.30806584060E+03 -0.73508884822E+03 -0.30116697886E+02  0.79760089797E+03  0.50400001928E-02 0. -1.
       -1    1    3    3    0  502  0.30806584060E+03  0.73508884822E+03 -0.11770117735E+03  0.80567595477E+03  0.50400001928E-02 0.  1.
</event>
<event>
 5   0  0.9616567E-05  0.1604349E+04  0.7818609E-02  0.8817881E-01
        1   -1    0    0  501    0  0.00000000000E+00  0.00000000000E+00  0.68230937978E+03  0.68230937980E+03  0.50400001928E-02 0.  1.
       -1   -1    0    0    0  501  0.00000000000E+00  0.00000000000E+00 -0.94309674887E+03  0.94309674888E+03  0.50400001928E-02 0. -1.
    10030    2    1    2    0    0  0.00000000000E+00  0.00000000000E+00 -0.26078736908E+03  0.16254061287E+04  0.16043487873E+04 0.  0.
        5    1    3    3  502    0 -0.74338847241E+03  0.22592244218E+03 -0.33249703868E+03  0.84512942295E+03  0.46999998093E+01 0.  1.
       -5    1    3    3    0  502  0.74338847241E+03 -0.22592244218E+03  0.71709669602E+02  0.78027670573E+03  0.46999998093E+01 0. -1.
</event>
<event>
 5   0  0.9939872E-05  0.1598043E+04  0.7818609E-02  0.8821751E-01
        1   -1    0    0  501    0  0.00000000000E+00  0.00000000000E+00  0.46364967740E+03  0.46364967743E+03  0.50400001928E-02 0.  1.
       -1   -1    0    0    0  501  0.00000000000E+00  0.00000000000E+00 -0.13769777455E+04  0.13769777455E+04  0.50400001928E-02 0. -1.
    10030    2    1    2    0    0  0.00000000000E+00  0.00000000000E+00 -0.91332806805E+03  0.18406274229E+04  0.15980429124E+04 0.  0.
        3    1    3    3  502    0 -0.63878716186E+03  0.14917654973E+03 -0.98213351997E+03  0.11810541657E+04  0.10100000352E+00 0. -1.
       -3    1    3    3    0  502  0.63878716186E+03 -0.14917654973E+03  0.68805451917E+02  0.65957325716E+03  0.10100000352E+00 0.  1.
</event>
<event>
 5   0  0.1774934E-04  0.1600404E+04  0.7818609E-02  0.8820300E-01
       -2   -1    0    0    0  501  0.00000000000E+00  0.00000000000E+00  0.24008178363E+03  0.24008178364E+03  0.25500000920E-02 0.  1.
        2   -1    0    0  501    0  0.00000000000E+00  0.00000000000E+00 -0.26671061564E+04  0.26671061564E+04  0.25500000920E-02 0. -1.
    10030    2    1    2    0    0  0.00000000000E+00  0.00000000000E+00 -0.24270243728E+04  0.29071879401E+04  0.16004044529E+04 0.  0.
        1    1    3    3  502    0  0.14741272542E+03 -0.39665528250E+03 -0.24472280858E+04  0.24835440863E+04  0.50400001928E-02 0. -1.
       -1    1    3    3    0  502 -0.14741272542E+03  0.39665528250E+03  0.20203713034E+02  0.42364385372E+03  0.50400001928E-02 0.  1.
</event>
<event>
 5   0  0.9616567E-05  0.1599203E+04  0.7818609E-02  0.8821038E-01
        1   -1    0    0  501    0  0.00000000000E+00  0.00000000000E+00  0.45671319357E+03  0.45671319360E+03  0.50400001928E-02 0. -1.
       -1   -1    0    0    0  501  0.00000000000E+00  0.00000000000E+00 -0.13999211244E+04  0.13999211244E+04  0.50400001928E-02 0.  1.
    10030    2    1    2    0    0  0.00000000000E+00  0.00000000000E+00 -0.94320793081E+03  0.18566343180E+04  0.15992028608E+04 0.  0.
        5    1    3    3  502    0 -0.78729492504E+02  0.59522450898E+03  0.14146310690E+03  0.61686663849E+03  0.46999998093E+01 0. -1.
       -5    1    3    3    0  502  0.78729492504E+02 -0.59522450898E+03 -0.10846710377E+04  0.12397676795E+04  0.46999998093E+01 0.  1.
</event>
<event>
 5   0  0.9673017E-05  0.1596555E+04  0.7818609E-02  0.8822667E-01
       -1   -1    0    0    0  501  0.00000000000E+00  0.00000000000E+00  0.73139988421E+03  0.73139988423E+03  0.50400001928E-02 0.  1.
        1   -1    0    0  501    0  0.00000000000E+00  0.00000000000E+00 -0.87127021799E+03  0.87127021801E+03  0.50400001928E-02 0. -1.
    10030    2    1    2    0    0  0.00000000000E+00  0.00000000000E+00 -0.13987033378E+03  0.16026701022E+04  0.15965549619E+04 0.  0.
        1    1    3    3  502    0 -0.24587387914E+03  0.12416950602E+03  0.68218417789E+03  0.73569510210E+03  0.50400001928E-02 0.  1.
       -1    1    3    3    0  502  0.24587387914E+03 -0.12416950602E+03 -0.82205451167E+03  0.86697500013E+03  0.50400001928E-02 0. -1.
</event>
<event>
 5   0  0.9673017E-05  0.1605664E+04  0.7818609E-02  0.8817076E-01
       -1   -1    0    0    0  501  0.00000000000E+00  0.00000000000E+00  0.61330843814E+03  0.61330843817E+03  0.50400001928E-02 0.  1.
        1   -1    0    0  501    0  0.00000000000E+00  0.00000000000E+00 -0.10509214812E+04  0.10509214812E+04  0.50400001928E-02 0. -1.
    10030    2    1    2    0    0  0.00000000000E+00  0.00000000000E+00 -0.43761304306E+03  0.16642299194E+04  0.16056637410E+04 0.  0.
        1    1    3    3  502    0  0.15977988006E+03 -0.76268500497E+03 -0.18573695884E+02  0.77946328270E+03  0.50400001928E-02 0.  1.
       -1    1    3    3    0  502 -0.15977988006E+03  0.76268500497E+03 -0.41903934717E+03  0.88476663668E+03  0.50400001928E-02 0. -1.
</event>
<event>
 5   0  0.9432152E-05  0.1605258E+04  0.7818609E-02  0.8817324E-01
        1   -1    0    0  501    0  0.00000000000E+00  0.00000000000E+00  0.10521691615E+04  0.10521691615E+04  0.50400001928E-02 0. -1.
       -1   -1    0    0    0  501  0.00000000000E+00  0.00000000000E+00 -0.61227159412E+03  0.61227159414E+03  0.50400001928E-02 0.  1.
    10030    2    1    2    0    0  0.00000000000E+00  0.00000000000E+00  0.43989756737E+03  0.16644407557E+04  0.16052579728E+04 0.  0.
        4    1    3    3  502    0 -0.17086845429E+03 -0.11904934907E+03  0.10236672982E+04  0.10446363609E+04  0.12699999809E+01 0. -1.
       -4    1    3    3    0  502  0.17086845429E+03  0.11904934907E+03 -0.58376973085E+03  0.61980439474E+03  0.12699999809E+01 0.  1.
</event>
<event>
 5   0  0.9939872E-05  0.1598956E+04  0.7818609E-02  0.8821189E-01
        1   -1    0    0  501    0  0.00000000000E+00  0.00000000000E+00  0.60831057553E+03  0.60831057555E+03  0.50400001928E-02 0. -1.
       -1   -1    0    0    0  501  0.00000000000E+00  0.00000000000E+00 -0.10507222676E+04  0.10507222677E+04  0.50400001928E-02 0.  1.
    10030    2    1    2    0    0  0.00000000000E+00  0.00000000000E+00 -0.44241169211E+03  0.16590328432E+04  0.15989564939E+04 0.  0.
        3    1    3    3  502    0  0.74347766524E+03  0.29156431770E+03 -0.25998200539E+03  0.83985679933E+03  0.10100000352E+00 0.  1.
       -3    1    3    3    0  502 -0.74347766524E+03 -0.29156431770E+03 -0.18242968672E+03  0.81917604387E+03  0.10100000352E+00 0. -1.
</event>
<event>
 5   0  0.1774934E-04  0.1592745E+04  0.7818609E-02  0.8825018E-01
        2   -1    0    0  501    0  0.00000000000E+00  0.00000000000E+00  0.11264441105E+04  0.11264441105E+04  0.25500000920E-02 0.  1.
       -2   -1    0    0    0  501  0.00000000000E+00  0.00000000000E+00 -0.56301870508E+03  0.56301870508E+03  0.25500000920E-02 0. -1.
    10030    2    1    2    0    0  0.00000000000E+00  0.00000000000E+00  0.56342540539E+03  0.16894628155E+04  0.15927449318E+04 0.  0.
        1    1    3    3  502    0 -0.48147369226E+03  0.43919440833E+03  0.76721903197E+03  0.10066447674E+04  0.50400001928E-02 0.  1.
       -1    1    3    3    0  502  0.48147369226E+03 -0.43919440833E+03 -0.20379362658E+03  0.68281804817E+03  0.50400001928E-02 0. -1.
</event>
<event>
 5   0  0.1914170E-04  0.1603722E+04  0.7818609E-02  0.8818265E-01
       -2   -1    0    0    0  501  0.00000000000E+00  0.00000000000E+00  0.35035026414E+03  0.35035026415E+03  0.25500000920E-02 0.  1.
        2   -1    0    0  501    0  0.00000000000E+00  0.00000000000E+00 -0.18352512445E+04  0.18352512445E+04  0.25500000920E-02 0. -1.
    10030    2    1    2    0    0  0.00000000000E+00  0.00000000000E+00 -0.14849009803E+04  0.21856015086E+04  0.16037216196E+04 0.  0.
        3    1    3    3  502    0  0.36322774073E+03  0.51659457170E+03 -0.14158826393E+04  0.15503315780E+04  0.10100000352E+00 0. -1.
       -3    1    3    3    0  502 -0.36322774073E+03 -0.51659457170E+03 -0.69018340984E+02  0.63526993062E+03  0.10100000352E+00 0.  1.
</event>
<event>
 5   0  0.9939872E-05  0.1595630E+04  0.7818609E-02  0.8823237E-01
        1   -1    0    0  501    0  0.00000000000E+00  0.00000000000E+00  0.11401391622E+04  0.11401391622E+04  0.50400001928E-02 0. -1.
       -1   -1    0    0    0  501  0.00000000000E+00  0.00000000000E+00 -0.55827294868E+03  0.55827294870E+03  0.50400001928E-02 0.  1.
    10030    2    1    2    0    0  0.00000000000E+00  0.00000000000E+00  0.58186621356E+03  0.16984121110E+04  0.15956300975E+04 0.  0.
        3    1    3    3  502    0 -0.75184490393E+03 -0.27023346080E+02  0.82957875812E+01  0.75237613671E+03  0.10100000352E+00 0.  1.
       -3    1    3    3    0  502  0.75184490393E+03  0.27023346080E+02  0.57357042598E+03  0.94603597424E+03  0.10100000352E+00 0. -1.
</event>
<event>
 5   0  0.6838750E-05  0.1607218E+04  0.7818609E-02  0.8816126E-01
       -4   -1    0    0    0  501  0.00000000000E+00  0.00000000000E+00  0.73115447065E+03  0.73115557363E+03  0.12699999809E+01 0. -1.
        4   -1    0    0  501    0  0.00000000000E+00  0.00000000000E+00 -0.88324171162E+03  0.88324262467E+03  0.12699999809E+01 0.  1.
    10030    2    1    2    0    0  0.00000000000E+00  0.00000000000E+00 -0.15208724097E+03  0.16143981983E+04  0.16072184089E+04 0.  0.
        2    1    3    3  502    0  0.67919214988E+03 -0.41977363587E+03  0.15334587881E+02  0.79859065323E+03  0.25500000920E-02 0. -1.
       -2    1    3    3    0  502 -0.67919214988E+03  0.41977363587E+03 -0.16742182885E+03  0.81580754508E+03  0.25500000920E-02 0.  1.
</event>
<event>
 5   0  0.9432152E-05  0.1595801E+04  0.7818609E-02  0.8823132E-01
       -1   -1    0    0    0  501  0.00000000000E+00  0.00000000000E+00  0.73244523395E+03  0.73244523397E+03  0.50400001928E-02 0.  1.
        1   -1    0    0  501    0  0.00000000000E+00  0.00000000000E+00 -0.86920484732E+03  0.86920484733E+03  0.50400001928E-02 0. -1.
    10030    2    1    2    0    0  0.00000000000E+00  0.00000000000E+00 -0.13675961337E+03  0.16016500813E+04  0.15958006740E+04 0.  0.
        4    1    3    3  502    0 -0.96123891344E+01  0.68959268316E+03 -0.47111472801E+03  0.83521324615E+03  0.12699999809E+01 0. -1.
       -4    1    3    3    0  502  0.96123891344E+01 -0.68959268316E+03  0.33435511464E+03  0.76643683515E+03  0.12699999809E+01 0.  1.
</event>
<event>
 5   0  0.9726935E-05  0.1597253E+04  0.7818609E-02  0.8822237E-01
        1   -1    0    0  501    0  0.00000000000E+00  0.00000000000E+00  0.82197694470E+03  0.82197694472E+03  0.50400001928E-02 0.  1.
       -1   -1    0    0    0  501  0.00000000000E+00  0.00000000000E+00 -0.77593953580E+03  0.77593953582E+03  0.50400001928E-02 0. -1.
    10030    2    1    2    0    0  0.00000000000E+00  0.00000000000E+00  0.46037408900E+02  0.15979164805E+04  0.15972531533E+04 0.  0.
        2    1    3    3  502    0 -0.16531792098E+03  0.53564651657E+02  0.80283278138E+03  0.82142538418E+03  0.25500000920E-02 0.  1.
       -2    1    3    3    0  502  0.16531792098E+03 -0.53564651657E+02 -0.75679537248E+03  0.77649109636E+03  0.25500000920E-02 0. -1.
</event>
<event>
 5   0  0.9673017E-05  0.1600540E+04  0.7818609E-02  0.8820217E-01
        1   -1    0    0  501    0  0.00000000000E+00  0.00000000000E+00  0.10962977677E+04  0.10962977677E+04  0.50400001928E-02 0.  1.
       -1   -1    0    0    0  501  0.00000000000E+00  0.00000000000E+00 -0.58417684895E+03  0.58417684897E+03  0.50400001928E-02 0. -1.
    10030    2    1    2    0    0  0.00000000000E+00  0.00000000000E+00  0.51212091874E+03  0.16804746167E+04  0.16005396283E+04 0.  0.
        1    1    3    3  502    0 -0.42771972664E+03  0.24717381577E+03  0.91710140036E+03  0.10416880715E+04  0.50400001928E-02 0.  1.
       -1    1    3    3    0  502  0.42771972664E+03 -0.24717381577E+03 -0.40498048161E+03  0.63878654516E+03  0.50400001928E-02 0. -1.
</event>
<event>
 5   0  0.9616567E-05  0.1618638E+04  0.7818609E-02  0.8809179E-01
        1   -1    0    0  501    0  0.00000000000E+00  0.00000000000E+00  0.83757257705E+03  0.83757257707E+03  0.50400001928E-02 0.  1.
       -1   -1    0    0    0  501  0.00000000000E+00  0.00000000000E+00 -0.78201802469E+03  0.78201802471E+03  0.50400001928E-02 0. -1.
    10030    2    1    2    0    0  0.00000000000E+00  0.00000000000E+00  0.55554552362E+02  0.16195906018E+04  0.16186375163E+04 0.  0.
        5    1    3    3  502    0 -0.35827668959E+03 -0.35473570207E+03 -0.60566353806E+03  0.78806726613E+03  0.46999998093E+01 0. -1.
       -5    1    3    3    0  502  0.35827668959E+03  0.35473570207E+03  0.66121809042E+03  0.83152333564E+03  0.46999998093E+01 0.  1.
</event>
<event>
 5   0  0.1835088E-04  0.1597709E+04  0.7818609E-02  0.8821956E-01
       -2   -1    0    0    0  501  0.00000000000E+00  0.00000000000E+00  0.67711675614E+03  0.67711675614E+03  0.25500000920E-02 0. -1.
        2   -1    0    0  501    0  0.00000000000E+00  0.00000000000E+00 -0.94247970660E+03  0.94247970661E+03  0.25500000920E-02 0.  1.
    10030    2    1    2    0    0  0.00000000000E+00  0.00000000000E+00 -0.26536295046E+03  0.16195964627E+04  0.15977093624E+04 0.  0.
        5    1    3    3  502    0 -0.36240058176E+03  0.22463043658E+03  0.55211233483E+03  0.69759811852E+03  0.46999998093E+01 0. -1.
       -5    1    3    3    0  502  0.36240058176E+03 -0.22463043658E+03 -0.81747528529E+03  0.92199834423E+03  0.46999998093E+01 0.  1.
</event>
<event>
 5   0  0.1858913E-04  0.1601316E+04  0.7818609E-02  0.8819740E-01
       -2   -1    0    0    0  501  0.00000000000E+00  0.00000000000E+00  0.31960888650E+03  0.31960888651E+03  0.25500000920E-02 0. -1.
        2   -1    0    0  501    0  0.00000000000E+00  0.00000000000E+00 -0.20057429981E+04  0.20057429981E+04  0.25500000920E-02 0.  1.
    10030    2    1    2    0    0  0.00000000000E+00  0.00000000000E+00 -0.16861341116E+04  0.23253518846E+04  0.16013160665E+04 0.  0.
        4    1    3    3  502    0  0.29978871759E+03  0.14292920622E+03  0.21486182936E+03  0.39556194433E+03  0.12699999809E+01 0. -1.
       -4    1    3    3    0  502 -0.29978871759E+03 -0.14292920622E+03 -0.19009959410E+04  0.19297899403E+04  0.12699999809E+01 0.  1.
</event>
<event>
 5   0  0.9616567E-05  0.1565896E+04  0.7818609E-02  0.8841777E-01
        1   -1    0    0  501    0  0.00000000000E+00  0.00000000000E+00  0.73136383095E+03  0.73136383096E+03  0.50400001928E-02 0.  1.
       -1   -1    0    0    0  501  0.00000000000E+00  0.00000000000E+00 -0.83817096524E+03  0.83817096525E+03  0.50400001928E-02 0. -1.
    10030    2    1    2    0    0  0.00000000000E+00  0.00000000000E+00 -0.10680713429E+03  0.15695347962E+04  0.15658964565E+04 0.  0.
        5    1    3    3  502    0  0.38081719137E+03  0.18223626236E+03  0.60748726136E+03  0.73979365452E+03  0.46999998093E+01 0.  1.
       -5    1    3    3    0  502 -0.38081719137E+03 -0.18223626236E+03 -0.71429439565E+03  0.82974114169E+03  0.46999998093E+01 0. -1.
</event>
<event>
 5   0  0.6838750E-05  0.1597947E+04  0.7818609E-02  0.8821810E-01
        3   -1    0    0  501    0  0.00000000000E+00  0.00000000000E+00  0.79499723033E+03  0.79499723674E+03  0.10100000352E+00 0.  1.
       -3   -1    0    0    0  501  0.00000000000E+00  0.00000000000E+00 -0.80297000937E+03  0.80297001572E+03  0.10100000352E+00 0. -1.
    10030    2    1    2    0    0  0.00000000000E+00  0.00000000000E+00 -0.79727790363E+01  0.15979672525E+04  0.15979473629E+04 0.  0.
        2    1    3    3  502    0 -0.30753970745E+03 -0.73625463302E+03 -0.45307448057E+02  0.79918979045E+03  0.25500000920E-02 0. -1.
       -2    1    3    3    0  502  0.30753970745E+03  0.73625463302E+03  0.37334669020E+02  0.79877746201E+03  0.25500000920E-02 0.  1.
</event>
<event>
 5   0  0.1774934E-04  0.1600104E+04  0.7818609E-02  0.8820484E-01
       -2   -1    0    0    0  501  0.00000000000E+00  0.00000000000E+00  0.88363999969E+03  0.88363999970E+03  0.25500000920E-02 0.  1.
        2   -1    0    0  501    0  0.00000000000E+00  0.00000000000E+00 -0.72437065912E+03  0.72437065912E+03  0.25500000920E-02 0. -1.
    10030    2    1    2    0    0  0.00000000000E+00  0.00000000000E+00  0.15926934058E+03  0.16080106588E+04  0.16001036079E+04 0.  0.
        1    1    3    3  502    0  0.18134420030E+03 -0.57695193929E+03  0.60598200486E+03  0.85613868588E+03  0.50400001928E-02 0.  1.
       -1    1    3    3    0  502 -0.18134420030E+03  0.57695193929E+03 -0.44671266428E+03  0.75187197294E+03  0.50400001928E-02 0. -1.
</event>
<event>
 5   0  0.1858913E-04  0.1606632E+04  0.7818609E-02  0.8816484E-01
        2   -1    0    0  501    0  0.00000000000E+00  0.00000000000E+00  0.13910442118E+04  0.13910442118E+04  0.25500000920E-02 0. -1.
       -2   -1    0    0    0  501  0.00000000000E+00  0.00000000000E+00 -0.46390799404E+03  0.46390799404E+03  0.25500000920E-02 0.  1.
    10030    2    1    2    0    0  0.00000000000E+00  0.00000000000E+00  0.92713621779E+03  0.18549522059E+04  0.16066319179E+04 0.  0.
        4    1    3    3  502    0 -0.22336485317E+03 -0.40698353179E+03 -0.29334008324E+03  0.54916069608E+03  0.12699999809E+01 0.  1.
       -4    1    3    3    0  502  0.22336485317E+03  0.40698353179E+03  0.12204763010E+04  0.13057915098E+04  0.12699999809E+01 0. -1.
</event>
<event>
 5   0  0.1858913E-04  0.1599303E+04  0.7818609E-02  0.8820976E-01
       -2   -1    0    0    0  501  0.00000000000E+00  0.00000000000E+00  0.95598125989E+03  0.95598125989E+03  0.25500000920E-02 0.  1.
        2   -1    0    0  501    0  0.00000000000E+00  0.00000000000E+00 -0.66888640639E+03  0.66888640639E+03  0.25500000920E-02 0. -1.
    10030    2    1    2    0    0  0.00000000000E+00  0.00000000000E+00  0.28709485350E+03  0.16248676663E+04  0.15993034353E+04 0.  0.
        4    1    3    3  502    0  0.77261274327E+03  0.14056278400E+03 -0.97043768243E+01  0.78535605628E+03  0.12699999809E+01 0. -1.
       -4    1    3    3    0  502 -0.77261274327E+03 -0.14056278400E+03  0.29679923033E+03  0.83951161000E+03  0.12699999809E+01 0.  1.
</event>
<event>
 5   0  0.9432152E-05  0.1597767E+04  0.7818609E-02  0.8821921E-01
       -1   -1    0    0    0  501  0.00000000000E+00  0.00000000000E+00  0.15801363220E+04  0.15801363220E+04  0.50400001928E-02 0. -1.
        1   -1    0    0  501    0  0.00000000000E+00  0.00000000000E+00 -0.40389881843E+03  0.40389881846E+03  0.50400001928E-02 0.  1.
    10030    2    1    2    0    0  0.00000000000E+00  0.00000000000E+00  0.11762375036E+04  0.19840351405E+04  0.15977674342E+04 0.  0.
        4    1    3    3  502    0 -0.10067946262E+03  0.34876369590E+03  0.14718094247E+04  0.15159145970E+04  0.12699999809E+01 0. -1.
       -4    1    3    3    0  502  0.10067946262E+03 -0.34876369590E+03 -0.29557192113E+03  0.46812054349E+03  0.12699999809E+01 0.  1.
</event>
<event>
 5   0  0.9939872E-05  0.1598740E+04  0.7818609E-02  0.8821323E-01
        1   -1    0    0  501    0  0.00000000000E+00  0.00000000000E+00  0.75526993731E+03  0.75526993732E+03  0.50400001928E-02 0.  1.
       -1   -1    0    0    0  501  0.00000000000E+00  0.00000000000E+00 -0.84604495542E+03  0.84604495543E+03  0.50400001928E-02 0. -1.
    10030    2    1    2    0    0  0.00000000000E+00  0.00000000000E+00 -0.90775018114E+02  0.16013148928E+04  0.15987399044E+04 0.  0.
        3    1    3    3  502    0  0.26446204853E+03 -0.39855384594E+03  0.59611807904E+03  0.76429190601E+03  0.10100000352E+00 0.  1.
       -3    1    3    3    0  502 -0.26446204853E+03  0.39855384594E+03 -0.68689309716E+03  0.83702298675E+03  0.10100000352E+00 0. -1.
</event>
<event>
 5   0  0.9939872E-05  0.1594263E+04  0.7818609E-02  0.8824080E-01
       -1   -1    0    0    0  501  0.00000000000E+00  0.00000000000E+00  0.51481432758E+03  0.51481432761E+03  0.50400001928E-02 0.  1.
        1   -1    0    0  501    0  0.00000000000E+00  0.00000000000E+00 -0.12342682833E+04  0.12342682833E+04  0.50400001928E-02 0. -1.
    10030    2    1    2    0    0  0.00000000000E+00  0.00000000000E+00 -0.71945395572E+03  0.17490826109E+04  0.15942634617E+04 0.  0.
        3    1    3    3  502    0  0.18365949989E+03  0.63921180632E+03 -0.84182723584E+03  0.10728446535E+04  0.10100000352E+00 0. -1.
       -3    1    3    3    0  502 -0.18365949989E+03 -0.63921180632E+03  0.12237328011E+03  0.67623795747E+03  0.10100000352E+00 0.  1.
</event>
<event>
 5   0  0.1858913E-04  0.1606719E+04  0.7818609E-02  0.8816431E-01
        2   -1    0    0  501    0  0.00000000000E+00  0.00000000000E+00  0.77211339311E+03  0.77211339311E+03  0.25500000920E-02 0. -1.
       -2   -1    0    0    0  501  0.00000000000E+00  0.00000000000E+00 -0.83587044843E+03  0.83587044843E+03  0.25500000920E-02 0.  1.
    10030    2    1    2    0    0  0.00000000000E+00  0.00000000000E+00 -0.63757055317E+02  0.16079838415E+04  0.16067193509E+04 0.  0.
        4    1    3    3  502    0  0.60604445515E+03  0.52274095853E+03  0.37725930620E+02  0.80123208253E+03  0.12699999809E+01 0.  1.
       -4    1    3    3    0  502 -0.60604445515E+03 -0.52274095853E+03 -0.10148298594E+03  0.80675175901E+03  0.12699999809E+01 0. -1.
</event>
<event>
 5   0  0.9432152E-05  0.1600790E+04  0.7818609E-02  0.8820063E-01
       -1   -1    0    0    0  501  0.00000000000E+00  0.00000000000E+00  0.33968568135E+03  0.33968568139E+03  0.50400001928E-02 0. -1.
        1   -1    0    0  501    0  0.00000000000E+00  0.00000000000E+00 -0.18859566619E+04  0.18859566619E+04  0.50400001928E-02 0.  1.
    10030    2    1    2    0    0  0.00000000000E+00  0.00000000000E+00 -0.15462709806E+04  0.22256423433E+04  0.16007903970E+04 0.  0.
        4    1    3    3  502    0  0.30814106904E+03  0.17634743845E+03  0.22421544460E+03  0.41990893772E+03  0.12699999809E+01 0. -1.
       -4    1    3    3    0  502 -0.30814106904E+03 -0.17634743845E+03 -0.17704864252E+04  0.18057334056E+04  0.12699999809E+01 0.  1.
</event>
<event>
 5   0  0.1774934E-04  0.1556122E+04  0.7818609E-02  0.8847967E-01
       -2   -1    0    0    0  501  0.00000000000E+00  0.00000000000E+00  0.63650667927E+03  0.63650667927E+03  0.25500000920E-02 0.  1.
        2   -1    0    0  501    0  0.00000000000E+00  0.00000000000E+00 -0.95109580742E+03  0.95109580743E+03  0.25500000920E-02 0. -1.
    10030    2    1    2    0    0  0.00000000000E+00  0.00000000000E+00 -0.31458912816E+03  0.15876024867E+04  0.15561218899E+04 0.  0.
        1    1    3    3  502    0  0.44742522949E+03 -0.58868597680E+03 -0.40434687099E+03  0.84275554425E+03  0.50400001928E-02 0. -1.
       -1    1    3    3    0  502 -0.44742522949E+03  0.58868597680E+03  0.89757742832E+02  0.74484694245E+03  0.50400001928E-02 0.  1.
</event>
<event>
 5   0  0.9616567E-05  0.1540765E+04  0.7818609E-02  0.8857788E-01
        1   -1    0    0  501    0  0.00000000000E+00  0.00000000000E+00  0.16842064694E+04  0.16842064694E+04  0.50400001928E-02 0. -1.
       -1   -1    0    0    0  501  0.00000000000E+00  0.00000000000E+00 -0.35238497945E+03  0.35238497948E+03  0.50400001928E-02 0.  1.
    10030    2    1    2    0    0  0.00000000000E+00  0.00000000000E+00  0.13318214900E+04  0.20365914489E+04  0.15407648259E+04 0.  0.
        5    1    3    3  502    0 -0.40615752116E+02 -0.45742210240E+03 -0.15166881926E+03  0.48364257445E+03  0.46999998093E+01 0.  1.
       -5    1    3    3    0  502  0.40615752116E+02  0.45742210240E+03  0.14834903092E+04  0.15529488745E+04  0.46999998093E+01 0. -1.
</event>
<event>
 5   0  0.1914170E-04  0.1596824E+04  0.7818609E-02  0.8822501E-01
       -2   -1    0    0    0  501  0.00000000000E+00  0.00000000000E+00  0.82413124130E+03  0.82413124131E+03  0.25500000920E-02 0. -1.
        2   -1    0    0  501    0  0.00000000000E+00  0.00000000000E+00 -0.77349573536E+03  0.77349573537E+03  0.25500000920E-02 0.  1.
    10030    2    1    2    0    0  0.00000000000E+00  0.00000000000E+00  0.50635505943E+02  0.15976269767E+04  0.15968243492E+04 0.  0.
        3    1    3    3  502    0  0.23712976679E+03  0.61053583267E+03  0.48214057626E+03  0.81329212141E+03  0.10100000352E+00 0. -1.
       -3    1    3    3    0  502 -0.23712976679E+03 -0.61053583267E+03 -0.43150507032E+03  0.78433485526E+03  0.10100000352E+00 0.  1.
</event>
<event>
 5   0  0.1774934E-04  0.1625755E+04  0.7818609E-02  0.8804880E-01
        2   -1    0    0  501    0  0.00000000000E+00  0.00000000000E+00  0.17236378086E+04  0.17236378086E+04  0.25500000920E-02 0. -1.
       -2   -1    0    0    0  501  0.00000000000E+00  0.00000000000E+00 -0.38335779328E+03  0.38335779328E+03  0.25500000920E-02 0.  1.
    10030    2    1    2    0    0  0.00000000000E+00  0.00000000000E+00  0.13402800153E+04  0.21069956019E+04  0.16257551928E+04 0.  0.
        1    1    3    3  502    0  0.12021163524E+03 -0.27766620769E+03  0.16479372176E+04  0.16754839401E+04  0.50400001928E-02 0. -1.
       -1    1    3    3    0  502 -0.12021163524E+03  0.27766620769E+03 -0.30765720230E+03  0.43151166183E+03  0.50400001928E-02 0.  1.
</event>
<event>
 5   0  0.9616567E-05  0.1608843E+04  0.7818609E-02  0.8815134E-01
        1   -1    0    0  501    0  0.00000000000E+00  0.00000000000E+00  0.96474505442E+03  0.96474505443E+03  0.50400001928E-02 0. -1.
       -1   -1    0    0    0  501  0.00000000000E+00  0.00000000000E+00 -0.67074113778E+03  0.67074113780E+03  0.50400001928E-02 0.  1.
    10030    2    1    2    0    0  0.00000000000E+00  0.00000000000E+00  0.29400391664E+03  0.16354861922E+04  0.16088433056E+04 0.  0.
        5    1    3    3  502    0 -0.17977672675E+03  0.64115769112E+03  0.60577286111E+03  0.90021425539E+03  0.46999998093E+01 0. -1.
       -5    1    3    3    0  502  0.17977672675E+03 -0.64115769112E+03 -0.31176894447E+03  0.73527193684E+03  0.46999998093E+01 0.  1.
</event>
<event>
 5   0  0.9726935E-05  0.1598095E+04  0.7818609E-02  0.8821719E-01
       -1   -1    0    0    0  501  0.00000000000E+00  0.00000000000E+00  0.72773304607E+03  0.72773304609E+03  0.50400001928E-02 0. -1.
        1   -1    0    0  501    0  0.00000000000E+00  0.00000000000E+00 -0.87735094237E+03  0.87735094238E+03  0.50400001928E-02 0.  1.
    10030    2    1    2    0    0  0.00000000000E+00  0.00000000000E+00 -0.14961789630E+03  0.16050839885E+04  0.15980954587E+04 0.  0.
        2    1    3    3  502    0 -0.67081163831E+03 -0.43034987841E+03 -0.13240080368E+03  0.80791041878E+03  0.25500000920E-02 0.  1.
       -2    1    3    3    0  502  0.67081163831E+03  0.43034987841E+03 -0.17217092613E+02  0.79717356970E+03  0.25500000920E-02 0. -1.
</event>
<event>
 5   0  0.1832646E-04  0.1595497E+04  0.7818609E-02  0.8823319E-01
       -2   -1    0    0    0  501  0.00000000000E+00  0.00000000000E+00  0.50597174123E+03  0.50597174123E+03  0.25500000920E-02 0. -1.
        2   -1    0    0  501    0  0.00000000000E+00  0.00000000000E+00 -0.12577823314E+04  0.12577823314E+04  0.25500000920E-02 0.  1.
    10030    2    1    2    0    0  0.00000000000E+00  0.00000000000E+00 -0.75181059015E+03  0.17637540726E+04  0.15954965576E+04 0.  0.
        2    1    3    3  502    0 -0.52397229710E+03 -0.36332482837E+03 -0.90589179394E+03  0.11077869115E+04  0.25500000920E-02 0.  1.
       -2    1    3    3    0  502  0.52397229710E+03  0.36332482837E+03  0.15408120380E+03  0.65596716107E+03  0.25500000920E-02 0. -1.
</event>
<event>
 5   0  0.1832646E-04  0.1626906E+04  0.7818609E-02  0.8804187E-01
       -2   -1    0    0    0  501  0.00000000000E+00  0.00000000000E+00  0.39247541086E+03  0.39247541087E+03  0.25500000920E-02 0. -1.
        2   -1    0    0  501    0  0.00000000000E+00  0.00000000000E+00 -0.16859800792E+04  0.16859800792E+04  0.25500000920E-02 0.  1.
    10030    2    1    2    0    0  0.00000000000E+00  0.00000000000E+00 -0.12935046684E+04  0.20784554901E+04  0.16269059276E+04 0.  0.
        2    1    3    3  502    0 -0.74862927521E+03 -0.15375604114E+03 -0.10026804892E+04  0.12607358468E+04  0.25500000920E-02 0.  1.
       -2    1    3    3    0  502  0.74862927521E+03  0.15375604114E+03 -0.29082417914E+03  0.81771964332E+03  0.25500000920E-02 0. -1.
</event>
<event>
 5   0  0.9939872E-05  0.1592637E+04  0.7818609E-02  0.8825084E-01
       -1   -1    0    0    0  501  0.00000000000E+00  0.00000000000E+00  0.14004933602E+04  0.14004933602E+04  0.50400001928E-02 0.  1.
        1   -1    0    0  501    0  0.00000000000E+00  0.00000000000E+00 -0.45278542252E+03  0.45278542255E+03  0.50400001928E-02 0. -1.
    10030    2    1    2    0    0  0.00000000000E+00  0.00000000000E+00  0.94770793768E+03  0.18532787828E+04  0.15926367795E+04 0.  0.
        3    1    3    3  502    0 -0.62487276136E+03  0.47909449340E+03  0.61215499666E+03  0.99736214668E+03  0.10100000352E+00 0.  1.
       -3    1    3    3    0  502  0.62487276136E+03 -0.47909449340E+03  0.33555294102E+03  0.85591663608E+03  0.10100000352E+00 0. -1.
</event>
<event>
 5   0  0.9726935E-05  0.1594877E+04  0.7818609E-02  0.8823702E-01
       -1   -1    0    0    0  501  0.00000000000E+00  0.00000000000E+00  0.97274175534E+03  0.97274175535E+03  0.50400001928E-02 0.  1.
        1   -1    0    0  501    0  0.00000000000E+00  0.00000000000E+00 -0.65372733057E+03  0.65372733059E+03  0.50400001928E-02 0. -1.
    10030    2    1    2    0    0  0.00000000000E+00  0.00000000000E+00  0.31901442476E+03  0.16264690859E+04  0.15948766361E+04 0.  0.
        2    1    3    3  502    0 -0.14431194551E+03 -0.51402645709E+02 -0.63858006063E+03  0.65669830474E+03  0.25500000920E-02 0. -1.
       -2    1    3    3    0  502  0.14431194551E+03  0.51402645709E+02  0.95759448540E+03  0.96977078120E+03  0.25500000920E-02 0.  1.
</event>
<event>
 5   0  0.1774934E-04  0.1597456E+04  0.7818609E-02  0.8822113E-01
       -2   -1    0    0    0  501  0.00000000000E+00  0.00000000000E+00  0.58277308358E+03  0.58277308359E+03  0.25500000920E-02 0. -1.
        2   -1    0    0  501    0  0.00000000000E+00  0.00000000000E+00 -0.10947074615E+04  0.10947074615E+04  0.25500000920E-02 0.  1.
    10030    2    1    2    0    0  0.00000000000E+00  0.00000000000E+00 -0.51193437787E+03  0.16774805450E+04  0.15974555305E+04 0.  0.
        1    1    3    3  502    0 -0.73817070314E+03 -0.24157045436E+03 -0.45161708216E+03  0.89844880784E+03  0.50400001928E-02 0.  1.
       -1    1    3    3    0  502  0.73817070314E+03  0.24157045436E+03 -0.60317295713E+02  0.77903173721E+03  0.50400001928E-02 0. -1.
</event>
<event>
 5   0  0.9432152E-05  0.1593465E+04  0.7818609E-02  0.8824573E-01
        1   -1    0    0  501    0  0.00000000000E+00  0.00000000000E+00  0.13914929280E+04  0.13914929280E+04  0.50400001928E-02 0.  1.
       -1   -1    0    0    0  501  0.00000000000E+00  0.00000000000E+00 -0.45618793218E+03  0.45618793221E+03  0.50400001928E-02 0. -1.
    10030    2    1    2    0    0  0.00000000000E+00  0.00000000000E+00  0.93530499578E+03  0.18476808602E+04  0.15934645041E+04 0.  0.
        4    1    3    3  502    0 -0.34720638202E+03  0.70164504812E+03  0.63933689482E+03  0.10107479029E+04  0.12699999809E+01 0.  1.
       -4    1    3    3    0  502  0.34720638202E+03 -0.70164504812E+03  0.29596810096E+03  0.83693295727E+03  0.12699999809E+01 0. -1.
</event>
<event>
 5   0  0.1774934E-04  0.1616209E+04  0.7818609E-02  0.8810652E-01
       -2   -1    0    0    0  501  0.00000000000E+00  0.00000000000E+00  0.55907239634E+03  0.55907239635E+03  0.25500000920E-02 0. -1.
        2   -1    0    0  501    0  0.00000000000E+00  0.00000000000E+00 -0.11680648535E+04  0.11680648535E+04  0.25500000920E-02 0.  1.
    10030    2    1    2    0    0  0.00000000000E+00  0.00000000000E+00 -0.60899245711E+03  0.17271372498E+04  0.16162089181E+04 0.  0.
        1    1    3    3  502    0 -0.80612792185E+03 -0.12694286760E+02 -0.24567813883E+03  0.84282923491E+03  0.50400001928E-02 0. -1.
       -1    1    3    3    0  502  0.80612792185E+03  0.12694286760E+02 -0.36331431828E+03  0.88430801489E+03  0.50400001928E-02 0.  1.
</event>
<event>
 5   0  0.9673017E-05  0.1602835E+04  0.7818609E-02  0.8818808E-01
       -1   -1    0    0    0  501  0.00000000000E+00  0.00000000000E+00  0.13876690741E+04  0.13876690741E+04  0.50400001928E-02 0.  1.
        1   -1    0    0  501    0  0.00000000000E+00  0.00000000000E+00 -0.46284118376E+03  0.46284118378E+03  0.50400001928E-02 0. -1.
    10030    2    1    2    0    0  0.00000000000E+00  0.00000000000E+00  0.92482789030E+03  0.18505102579E+04  0.16028354837E+04 0.  0.
        1    1    3    3  502    0 -0.35556721889E+03 -0.55612541847E+03  0.98714030490E+03  0.11874971620E+04  0.50400001928E-02 0.  1.
       -1    1    3    3    0  502  0.35556721889E+03  0.55612541847E+03 -0.62312414599E+02  0.66301309584E+03  0.50400001928E-02 0. -1.
</event>
<event>
 5   0  0.1858913E-04  0.1608338E+04  0.7818609E-02  0.8815442E-01
        2   -1    0    0  501    0  0.00000000000E+00  0.00000000000E+00  0.89869277564E+03  0.89869277564E+03  0.25500000920E-02 0. -1.
       -2   -1    0    0    0  501  0.00000000000E+00  0.00000000000E+00 -0.71958738947E+03  0.71958738948E+03  0.25500000920E-02 0.  1.
    10030    2    1    2    0    0  0.00000000000E+00  0.00000000000E+00  0.17910538616E+03  0.16182801651E+04  0.16083382584E+04 0.  0.
        4    1    3    3  502    0 -0.65968048341E+02 -0.54977818636E+03 -0.49721464423E+03  0.74419879934E+03  0.12699999809E+01 0.  1.
       -4    1    3    3    0  502  0.65968048341E+02  0.54977818636E+03  0.67632003039E+03  0.87408136578E+03  0.12699999809E+01 0. -1.
</event>
<event>
 5   0  0.6838750E-05  0.1602214E+04  0.7818609E-02  0.8819189E-01
       -3   -1    0    0    0  501  0.00000000000E+00  0.00000000000E+00  0.14174534340E+04  0.14174534376E+04  0.10100000352E+00 0.  1.
        3   -1    0    0  501    0  0.00000000000E+00  0.00000000000E+00 -0.45276426636E+03  0.45276427762E+03  0.10100000352E+00 0. -1.
    10030    2    1    2    0    0  0.00000000000E+00  0.00000000000E+00  0.96468916762E+03  0.18702177152E+04  0.16022138160E+04 0.  0.
        2    1    3    3  502    0  0.48160692139E+03  0.33412192497E+02 -0.26389741128E+03  0.55018491894E+03  0.25500000920E-02 0. -1.
       -2    1    3    3    0  502 -0.48160692139E+03 -0.33412192497E+02  0.12285865789E+04  0.13200327963E+04  0.25500000920E-02 0.  1.
</event>
<event>
 5   0  0.1914170E-04  0.1602687E+04  0.7818609E-02  0.8818899E-01
       -2   -1    0    0    0  501  0.00000000000E+00  0.00000000000E+00  0.50654882498E+03  0.50654882499E+03  0.25500000920E-02 0. -1.
        2   -1    0    0  501    0  0.00000000000E+00  0.00000000000E+00 -0.12676985475E+04  0.12676985475E+04  0.25500000920E-02 0.  1.
    10030    2    1    2    0    0  0.00000000000E+00  0.00000000000E+00 -0.76114972251E+03  0.17742473725E+04  0.16026867563E+04 0.  0.
        3    1    3    3  502    0  0.66320716239E+02 -0.32989616272E+03 -0.11856956570E+04  0.12325194184E+04  0.10100000352E+00 0.  1.
       -3    1    3    3    0  502 -0.66320716239E+02  0.32989616272E+03  0.42454593446E+03  0.54172795409E+03  0.10100000352E+00 0. -1.
</event>
<event>
 5   0  0.1832646E-04  0.1600202E+04  0.7818609E-02  0.8820424E-01
       -2   -1    0    0    0  501  0.00000000000E+00  0.00000000000E+00  0.38748672278E+03  0.38748672278E+03  0.25500000920E-02 0.  1.
        2   -1    0    0  501    0  0.00000000000E+00  0.00000000000E+00 -0.16520871920E+04  0.16520871920E+04  0.25500000920E-02 0. -1.
    10030    2    1    2    0    0  0.00000000000E+00  0.00000000000E+00 -0.12646004693E+04  0.20395739148E+04  0.16002023020E+04 0.  0.
        2    1    3    3  502    0  0.77528059790E+03  0.10331684281E+03 -0.84719889643E+03  0.11530309387E+04  0.25500000920E-02 0. -1.
       -2    1    3    3    0  502 -0.77528059790E+03 -0.10331684281E+03 -0.41740157283E+03  0.88654297612E+03  0.25500000920E-02 0.  1.
</event>
<event>
 5   0  0.1774934E-04  0.1599115E+04  0.7818609E-02  0.8821092E-01
        2   -1    0    0  501    0  0.00000000000E+00  0.00000000000E+00  0.12834857420E+04  0.12834857420E+04  0.25500000920E-02 0. -1.
       -2   -1    0    0    0  501  0.00000000000E+00  0.00000000000E+00 -0.49809088204E+03  0.49809088204E+03  0.25500000920E-02 0.  1.
    10030    2    1    2    0    0  0.00000000000E+00  0.00000000000E+00  0.78539485994E+03  0.17815766240E+04  0.15991154371E+04 0.  0.
        1    1    3    3  502    0  0.41089652831E+03 -0.27808101364E+03 -0.30584280076E+03  0.58284202484E+03  0.50400001928E-02 0.  1.
       -1    1    3    3    0  502 -0.41089652831E+03  0.27808101364E+03  0.10912376607E+04  0.11987345992E+04  0.50400001928E-02 0. -1.
</event>
<event>
 5   0  0.9726935E-05  0.1623567E+04  0.7818609E-02  0.8806199E-01
        1   -1    0    0  501    0  0.00000000000E+00  0.00000000000E+00  0.14968587059E+04  0.14968587059E+04  0.50400001928E-02 0.  1.
       -1   -1    0    0    0  501  0.00000000000E+00  0.00000000000E+00 -0.44025026510E+03  0.44025026513E+03  0.50400001928E-02 0. -1.
    10030    2    1    2    0    0  0.00000000000E+00  0.00000000000E+00  0.10566084408E+04  0.19371089710E+04  0.16235669892E+04 0.  0.
        2    1    3    3  502    0 -0.72815386375E+03 -0.20176272839E+03  0.88239377062E+03  0.11616948886E+04  0.25500000920E-02 0. -1.
       -2    1    3    3    0  502  0.72815386375E+03  0.20176272839E+03  0.17421467018E+03  0.77541408239E+03  0.25500000920E-02 0.  1.
</event>
<event>
 5   0  0.1832646E-04  0.1660219E+04  0.7818609E-02  0.8784384E-01
       -2   -1    0    0    0  501  0.00000000000E+00  0.00000000000E+00  0.51543120540E+03  0.51543120540E+03  0.25500000920E-02 0.  1.
        2   -1    0    0  501    0  0.00000000000E+00  0.00000000000E+00 -0.13369029502E+04  0.13369029502E+04  0.25500000920E-02 0. -1.
    10030    2    1    2    0    0  0.00000000000E+00  0.00000000000E+00 -0.82147174482E+03  0.18523341556E+04  0.16602186593E+04 0.  0.
        2    1    3    3  502    0 -0.76057883793E+03  0.13476277868E+03 -0.71513276304E+02  0.77572889847E+03  0.25500000920E-02 0.  1.
       -2    1    3    3    0  502  0.76057883793E+03 -0.13476277868E+03 -0.74995846852E+03  0.10766052572E+04  0.25500000920E-02 0. -1.
</event>
<event>
 5   0  0.9939872E-05  0.1600037E+04  0.7818609E-02  0.8820525E-01
       -1   -1    0    0    0  501  0.00000000000E+00  0.00000000000E+00  0.61026464941E+03  0.61026464943E+03  0.50400001928E-02 0. -1.
        1   -1    0    0  501    0  0.00000000000E+00  0.00000000000E+00 -0.10487741917E+04  0.10487741917E+04  0.50400001928E-02 0.  1.
    10030    2    1    2    0    0  0.00000000000E+00  0.00000000000E+00 -0.43850954225E+03  0.16590388411E+04  0.16000372676E+04 0.  0.
        3    1    3    3  502    0  0.30925308863E+03 -0.66849957652E+03  0.10451045792E+03  0.74394327919E+03  0.10100000352E+00 0.  1.
       -3    1    3    3    0  502 -0.30925308863E+03  0.66849957652E+03 -0.54302000016E+03  0.91509556190E+03  0.10100000352E+00 0. -1.
</event>
<event>
 5   0  0.9432152E-05  0.1596970E+04  0.7818609E-02  0.8822412E-01
        1   -1    0    0  501    0  0.00000000000E+00  0.00000000000E+00  0.89485246028E+03  0.89485246029E+03  0.50400001928E-02 0. -1.
       -1   -1    0    0    0  501  0.00000000000E+00  0.00000000000E+00 -0.71249541609E+03  0.71249541611E+03  0.50400001928E-02 0.  1.
    10030    2    1    2    0    0  0.00000000000E+00  0.00000000000E+00  0.18235704419E+03  0.16073478764E+04  0.15969699760E+04 0.  0.
        4    1    3    3  502    0 -0.31540357451E+03  0.32878356602E+03  0.75118265939E+03  0.87855281501E+03  0.12699999809E+01 0. -1.
       -4    1    3    3    0  502  0.31540357451E+03 -0.32878356602E+03 -0.56882561520E+03  0.72879506139E+03  0.12699999809E+01 0.  1.
</event>
<event>
 5   0  0.9726935E-05  0.1595060E+04  0.7818609E-02  0.8823588E-01
       -1   -1    0    0    0  501  0.00000000000E+00  0.00000000000E+00  0.66444178189E+03  0.66444178191E+03  0.50400001928E-02 0. -1.
        1   -1    0    0  501    0  0.00000000000E+00  0.00000000000E+00 -0.95727618965E+03  0.95727618967E+03  0.50400001928E-02 0.  1.
    10030    2    1    2    0    0  0.00000000000E+00  0.00000000000E+00 -0.29283440776E+03  0.16217179716E+04  0.15950602462E+04 0.  0.
        2    1    3    3  502    0 -0.36877676517E+02 -0.61382424135E+03  0.36992284366E+03  0.71762321072E+03  0.25500000920E-02 0. -1.
       -2    1    3    3    0  502  0.36877676517E+02  0.61382424135E+03 -0.66275725142E+03  0.90409476086E+03  0.25500000920E-02 0.  1.
</event>
<event>
 5   0  0.9616567E-05  0.1597957E+04  0.7818609E-02  0.8821804E-01
        1   -1    0    0  501    0  0.00000000000E+00  0.00000000000E+00  0.68156269205E+03  0.68156269207E+03  0.50400001928E-02 0.  1.
       -1   -1    0    0    0  501  0.00000000000E+00  0.00000000000E+00 -0.93662156546E+03  0.93662156548E+03  0.50400001928E-02 0. -1.
    10030    2    1    2    0    0  0.00000000000E+00  0.00000000000E+00 -0.25505887342E+03  0.16181842575E+04  0.15979565897E+04 0.  0.
        5    1    3    3  502    0 -0.15798126871E+02  0.45874084629E+03  0.53469924251E+03  0.70471136986E+03  0.46999998093E+01 0.  1.
       -5    1    3    3    0  502  0.15798126871E+02 -0.45874084629E+03 -0.78975811593E+03  0.91347288769E+03  0.46999998093E+01 0. -1.
</event>
<event>
 5   0  0.1774934E-04  0.1604423E+04  0.7818609E-02  0.8817835E-01
       -2   -1    0    0    0  501  0.00000000000E+00  0.00000000000E+00  0.65886942797E+03  0.65886942798E+03  0.25500000920E-02 0.  1.
        2   -1    0    0  501    0  0.00000000000E+00  0.00000000000E+00 -0.97673900115E+03  0.97673900115E+03  0.25500000920E-02 0. -1.
    10030    2    1    2    0    0  0.00000000000E+00  0.00000000000E+00 -0.31786957317E+03  0.16356084291E+04  0.16044232197E+04 0.  0.
        1    1    3    3  502    0  0.18952080475E+03 -0.60245500972E+03 -0.66319381740E+03  0.91580358901E+03  0.50400001928E-02 0.  1.
       -1    1    3    3    0  502 -0.18952080475E+03  0.60245500972E+03  0.34532424423E+03  0.71980484012E+03  0.50400001928E-02 0. -1.
</event>
<event>
 5   0  0.1858913E-04  0.1606767E+04  0.7818609E-02  0.8816402E-01
        2   -1    0    0  501    0  0.00000000000E+00  0.00000000000E+00  0.11513143400E+04  0.11513143400E+04  0.25500000920E-02 0. -1.
       -2   -1    0    0    0  501  0.00000000000E+00  0.00000000000E+00 -0.56059843963E+03  0.56059843964E+03  0.25500000920E-02 0.  1.
    10030    2    1    2    0    0  0.00000000000E+00  0.00000000000E+00  0.59071590038E+03  0.17119127797E+04  0.16067669682E+04 0.  0.
        4    1    3    3  502    0 -0.36446733199E+02 -0.57846384445E+03 -0.29735069573E+03  0.65143521002E+03  0.12699999809E+01 0.  1.
       -4    1    3    3    0  502  0.36446733199E+02  0.57846384445E+03  0.88806659611E+03  0.10604775696E+04  0.12699999809E+01 0. -1.
</event>
<event>
 5   0  0.1914170E-04  0.1598295E+04  0.7818609E-02  0.8821596E-01
        2   -1    0    0  501    0  0.00000000000E+00  0.00000000000E+00  0.18040222417E+04  0.18040222417E+04  0.25500000920E-02 0. -1.
       -2   -1    0    0    0  501  0.00000000000E+00  0.00000000000E+00 -0.35400712362E+03  0.35400712363E+03  0.25500000920E-02 0.  1.
    10030    2    1    2    0    0  0.00000000000E+00  0.00000000000E+00  0.14500151181E+04  0.21580293653E+04  0.15982949975E+04 0.  0.
        3    1    3    3  502    0 -0.66458632999E+03  0.35403398192E+03  0.10863530284E+04  0.13218085954E+04  0.10100000352E+00 0. -1.
       -3    1    3    3    0  502  0.66458632999E+03 -0.35403398192E+03  0.36366208966E+03  0.83622076991E+03  0.10100000352E+00 0.  1.
</event>
<event>
 5   0  0.9726935E-05  0.1597493E+04  0.7818609E-02  0.8822090E-01
        1   -1    0    0  501    0  0.00000000000E+00  0.00000000000E+00  0.12175260279E+04  0.12175260279E+04  0.50400001928E-02 0. -1.
       -1   -1    0    0    0  501  0.00000000000E+00  0.00000000000E+00 -0.52401000982E+03  0.52401000985E+03  0.50400001928E-02 0.  1.
    10030    2    1    2    0    0  0.00000000000E+00  0.00000000000E+00  0.69351601810E+03  0.17415360378E+04  0.15974928180E+04 0.  0.
        2    1    3    3  502    0  0.57396818564E+03  0.49778637581E+03  0.61549073601E+03  0.97778300261E+03  0.25500000920E-02 0. -1.
       -2    1    3    3    0  502 -0.57396818564E+03 -0.49778637581E+03  0.78025282085E+02  0.76375303517E+03  0.25500000920E-02 0.  1.
</event>
<event>
 5   0  0.6838750E-05  0.1582213E+04  0.7818609E-02  0.8831550E-01
        4   -1    0    0  501    0  0.00000000000E+00  0.00000000000E+00  0.64219577237E+03  0.64219702814E+03  0.12699999809E+01 0.  1.
       -4   -1    0    0    0  501  0.00000000000E+00  0.00000000000E+00 -0.97454349104E+03  0.97454431855E+03  0.12699999809E+01 0. -1.
    10030    2    1    2    0    0  0.00000000000E+00  0.00000000000E+00 -0.33234771867E+03  0.16167413467E+04  0.15822128732E+04 0.  0.
        5    1    3    3  502    0  0.46618843789E+03  0.41369751499E+03  0.33164375481E+03  0.70603609230E+03  0.46999998093E+01 0.  1.
       -5    1    3    3    0  502 -0.46618843789E+03 -0.41369751499E+03 -0.66399147347E+03  0.91070525439E+03  0.46999998093E+01 0. -1.
</event>
<event>
 5   0  0.6838750E-05  0.1601537E+04  0.7818609E-02  0.8819605E-01
        3   -1    0    0  501    0  0.00000000000E+00  0.00000000000E+00  0.15532539511E+04  0.15532539544E+04  0.10100000352E+00 0. -1.
       -3   -1    0    0    0  501  0.00000000000E+00  0.00000000000E+00 -0.41283005630E+03  0.41283006866E+03  0.10100000352E+00 0.  1.
    10030    2    1    2    0    0  0.00000000000E+00  0.00000000000E+00  0.11404238948E+04  0.19660840231E+04  0.16015366764E+04 0.  0.
        4    1    3    3  502    0 -0.14417681792E+03  0.70613722065E+03  0.99867116470E+03  0.12315690956E+04  0.12699999809E+01 0.  1.
       -4    1    3    3    0  502  0.14417681792E+03 -0.70613722065E+03  0.14175273011E+03  0.73451492742E+03  0.12699999809E+01 0. -1.
</event>
<event>
 5   0  0.6838750E-05  0.1617092E+04  0.7818609E-02  0.8810116E-01
       -3   -1    0    0    0  501  0.00000000000E+00  0.00000000000E+00  0.13263091532E+04  0.13263091571E+04  0.10100000352E+00 0. -1.
        3   -1    0    0  501    0  0.00000000000E+00  0.00000000000E+00 -0.49290689721E+03  0.49290690756E+03  0.10100000352E+00 0.  1.
    10030    2    1    2    0    0  0.00000000000E+00  0.00000000000E+00  0.83340225601E+03  0.18192160646E+04  0.16170923812E+04 0.  0.
        2    1    3    3  502    0  0.78720807773E+03 -0.15887333515E+03  0.31110968336E+03  0.86123546684E+03  0.25500000920E-02 0. -1.
       -2    1    3    3    0  502 -0.78720807773E+03  0.15887333515E+03  0.52229257265E+03  0.95798059777E+03  0.25500000920E-02 0.  1.
</event>
<event>
 5   0  0.9432152E-05  0.1602906E+04  0.7818609E-02  0.8818765E-01
       -1   -1    0    0    0  501  0.00000000000E+00  0.00000000000E+00  0.89559534527E+03  0.89559534528E+03  0.50400001928E-02 0.  1.
        1   -1    0    0  501    0  0.00000000000E+00  0.00000000000E+00 -0.71720649063E+03  0.71720649065E+03  0.50400001928E-02 0. -1.
    10030    2    1    2    0    0  0.00000000000E+00  0.00000000000E+00  0.17838885463E+03  0.16128018359E+04  0.16029058545E+04 0.  0.
        4    1    3    3  502    0  0.11527828984E+03  0.29347081192E+03  0.83056835109E+03  0.88840283672E+03  0.12699999809E+01 0.  1.
       -4    1    3    3    0  502 -0.11527828984E+03 -0.29347081192E+03 -0.65217949646E+03  0.72439899921E+03  0.12699999809E+01 0. -1.
</event>
<event>
 5   0  0.9673017E-05  0.1598400E+04  0.7818609E-02  0.8821531E-01
       -1   -1    0    0    0  501  0.00000000000E+00  0.00000000000E+00  0.69497679126E+03  0.69497679128E+03  0.50400001928E-02 0. -1.
        1   -1    0    0  501    0  0.00000000000E+00  0.00000000000E+00 -0.91905372536E+03  0.91905372537E+03  0.50400001928E-02 0.  1.
    10030    2    1    2    0    0  0.00000000000E+00  0.00000000000E+00 -0.22407693410E+03  0.16140305166E+04  0.15984004618E+04 0.  0.
        1    1    3    3  502    0  0.39528362718E+03 -0.42893146895E+03 -0.66372297634E+03  0.88360598703E+03  0.50400001928E-02 0.  1.
       -1    1    3    3    0  502 -0.39528362718E+03  0.42893146895E+03  0.43964604224E+03  0.73042452961E+03  0.50400001928E-02 0. -1.
</event>
<event>
 5   0  0.1858913E-04  0.1589841E+04  0.7818609E-02  0.8826814E-01
       -2   -1    0    0    0  501  0.00000000000E+00  0.00000000000E+00  0.23791229240E+03  0.23791229241E+03  0.25500000920E-02 0. -1.
        2   -1    0    0  501    0  0.00000000000E+00  0.00000000000E+00 -0.26560146700E+04  0.26560146700E+04  0.25500000920E-02 0.  1.
    10030    2    1    2    0    0  0.00000000000E+00  0.00000000000E+00 -0.24181023776E+04  0.28939269624E+04  0.15898409214E+04 0.  0.
        4    1    3    3  502    0  0.77040978759E+02 -0.95928932915E+02  0.22047373560E+03  0.25248357089E+03  0.12699999809E+01 0. -1.
       -4    1    3    3    0  502 -0.77040978759E+02  0.95928932915E+02 -0.26385761132E+04  0.26414433915E+04  0.12699999809E+01 0.  1.
</event>
<event>
 5   0  0.1835088E-04  0.1600043E+04  0.7818609E-02  0.8820522E-01
       -2   -1    0    0    0  501  0.00000000000E+00  0.00000000000E+00  0.57083700750E+03  0.57083700751E+03  0.25500000920E-02 0. -1.
        2   -1    0    0  501    0  0.00000000000E+00  0.00000000000E+00 -0.11212204886E+04  0.11212204886E+04  0.25500000920E-02 0.  1.
    10030    2    1    2    0    0  0.00000000000E+00  0.00000000000E+00 -0.55038348111E+03  0.16920574961E+04  0.16000426850E+04 0.  0.
        5    1    3    3  502    0 -0.29853724434E+03  0.63377880761E+03 -0.68368549086E+03  0.97890142693E+03  0.46999998093E+01 0.  1.
       -5    1    3    3    0  502  0.29853724434E+03 -0.63377880761E+03  0.13330200975E+03  0.71315606920E+03  0.46999998093E+01 0. -1.
</event>
<event>
 5   0  0.9616567E-05  0.1602743E+04  0.7818609E-02  0.8818865E-01
       -1   -1    0    0    0  501  0.00000000000E+00  0.00000000000E+00  0.93300004801E+03  0.93300004802E+03  0.50400001928E-02 0. -1.
        1   -1    0    0  501    0  0.00000000000E+00  0.00000000000E+00 -0.68831287128E+03  0.68831287130E+03  0.50400001928E-02 0.  1.
    10030    2    1    2    0    0  0.00000000000E+00  0.00000000000E+00  0.24468717673E+03  0.16213129193E+04  0.16027425769E+04 0.  0.
        5    1    3    3  502    0  0.40401075599E+03  0.55716859885E+03 -0.29291525477E+03  0.74798594570E+03  0.46999998093E+01 0.  1.
       -5    1    3    3    0  502 -0.40401075599E+03 -0.55716859885E+03  0.53760243150E+03  0.87332697362E+03  0.46999998093E+01 0. -1.
</event>
<event>
 5   0  0.1774934E-04  0.1623289E+04  0.7818609E-02  0.8806367E-01
       -2   -1    0    0    0  501  0.00000000000E+00  0.00000000000E+00  0.10036557513E+04  0.10036557514E+04  0.25500000920E-02 0. -1.
        2   -1    0    0  501    0  0.00000000000E+00  0.00000000000E+00 -0.65636715856E+03  0.65636715857E+03  0.25500000920E-02 0.  1.
    10030    2    1    2    0    0  0.00000000000E+00  0.00000000000E+00  0.34728859279E+03  0.16600229099E+04  0.16232888513E+04 0.  0.
        1    1    3    3  502    0 -0.14703425668E+03 -0.78325077925E+03  0.16326072578E+02  0.79709936426E+03  0.50400001928E-02 0. -1.
       -1    1    3    3    0  502  0.14703425668E+03  0.78325077925E+03  0.33096252021E+03  0.86292354565E+03  0.50400001928E-02 0.  1.
</event>
<event>
 5   0  0.1832646E-04  0.1604664E+04  0.7818609E-02  0.8817688E-01
       -2   -1    0    0    0  501  0.00000000000E+00  0.00000000000E+00  0.42252015172E+03  0.42252015173E+03  0.25500000920E-02 0. -1.
        2   -1    0    0  501    0  0.00000000000E+00  0.00000000000E+00 -0.15235635308E+04  0.15235635308E+04  0.25500000920E-02 0.  1.
    10030    2    1    2    0    0  0.00000000000E+00  0.00000000000E+00 -0.11010433790E+04  0.19460836825E+04  0.16046635712E+04 0.  0.
        2    1    3    3  502    0  0.32136555018E+03  0.42471137700E+03 -0.12782637131E+04  0.13847792932E+04  0.25500000920E-02 0.  1.
       -2    1    3    3    0  502 -0.32136555018E+03 -0.42471137700E+03  0.17722033410E+03  0.56130438928E+03  0.25500000920E-02 0. -1.
</event>
<event>
 5   0  0.1832646E-04  0.1599810E+04  0.7818609E-02  0.8820665E-01
       -2   -1    0    0    0  501  0.00000000000E+00  0.00000000000E+00  0.91223399810E+03  0.91223399810E+03  0.25500000920E-02 0. -1.
        2   -1    0    0  501    0  0.00000000000E+00  0.00000000000E+00 -0.70140786969E+03  0.70140786970E+03  0.25500000920E-02 0.  1.
    10030    2    1    2    0    0  0.00000000000E+00  0.00000000000E+00  0.21082612841E+03  0.16136418678E+04  0.15998101203E+04 0.  0.
        2    1    3    3  502    0  0.16672254430E+03 -0.76462581739E+03  0.27237079320E+03  0.82863435627E+03  0.25500000920E-02 0. -1.
       -2    1    3    3    0  502 -0.16672254430E+03  0.76462581739E+03 -0.61544664796E+02  0.78500751153E+03  0.25500000920E-02 0.  1.
</event>
<event>
 5   0  0.9432152E-05  0.1595106E+04  0.7818609E-02  0.8823560E-01
       -1   -1    0    0    0  501  0.00000000000E+00  0.00000000000E+00  0.35429910551E+03  0.35429910555E+03  0.50400001928E-02 0.  1.
        1   -1    0    0  501    0  0.00000000000E+00  0.00000000000E+00 -0.17953502006E+04  0.17953502006E+04  0.50400001928E-02 0. -1.
    10030    2    1    2    0    0  0.00000000000E+00  0.00000000000E+00 -0.14410510951E+04  0.21496493062E+04  0.15951062287E+04 0.  0.
        4    1    3    3  502    0  0.79568321431E+03 -0.53555594861E+02 -0.73461983344E+03  0.10842729785E+04  0.12699999809E+01 0. -1.
       -4    1    3    3    0  502 -0.79568321431E+03  0.53555594861E+02 -0.70643126168E+03  0.10653763277E+04  0.12699999809E+01 0.  1.
</event>
<event>
 5   0  0.9673017E-05  0.1586519E+04  0.7818609E-02  0.8828873E-01
       -1   -1    0    0    0  501  0.00000000000E+00  0.00000000000E+00  0.20449395748E+03  0.20449395755E+03  0.50400001928E-02 0. -1.
        1   -1    0    0  501    0  0.00000000000E+00  0.00000000000E+00 -0.30771604540E+04  0.30771604540E+04  0.50400001928E-02 0.  1.
    10030    2    1    2    0    0  0.00000000000E+00  0.00000000000E+00 -0.28726664965E+04  0.32816544115E+04  0.15865191069E+04 0.  0.
        1    1    3    3  502    0 -0.36539287104E+03  0.66842254871E+03 -0.97864629643E+03  0.12401811268E+04  0.50400001928E-02 0.  1.
       -1    1    3    3    0  502  0.36539287104E+03 -0.66842254871E+03 -0.18940202000E+04  0.20414732847E+04  0.50400001928E-02 0. -1.
</event>
<event>
 5   0  0.1835088E-04  0.1603533E+04  0.7818609E-02  0.8818381E-01
       -2   -1    0    0    0  501  0.00000000000E+00  0.00000000000E+00  0.73337887922E+03  0.73337887922E+03  0.25500000920E-02 0. -1.
        2   -1    0    0  501    0  0.00000000000E+00  0.00000000000E+00 -0.87653106732E+03  0.87653106733E+03  0.25500000920E-02 0.  1.
    10030    2    1    2    0    0  0.00000000000E+00  0.00000000000E+00 -0.14315218810E+03  0.16099099466E+04  0.16035328145E+04 0.  0.
        5    1    3    3  502    0 -0.36676660868E+02 -0.79512843533E+03  0.24893894003E+02  0.79637692212E+03  0.46999998093E+01 0. -1.
       -5    1    3    3    0  502  0.36676660868E+02  0.79512843533E+03 -0.16804608211E+03  0.81353302443E+03  0.46999998093E+01 0.  1.
</event>
<event>
 5   0  0.9616567E-05  0.1598762E+04  0.7818609E-02  0.8821309E-01
       -1   -1    0    0    0  501  0.00000000000E+00  0.00000000000E+00  0.56817129783E+03  0.56817129785E+03  0.50400001928E-02 0. -1.
        1   -1    0    0  501    0  0.00000000000E+00  0.00000000000E+00 -0.11246784466E+04  0.11246784466E+04  0.50400001928E-02 0.  1.
    10030    2    1    2    0    0  0.00000000000E+00  0.00000000000E+00 -0.55650714877E+03  0.16928497445E+04  0.15987620369E+04 0.  0.
        5    1    3    3  502    0 -0.69594235643E+03 -0.28870257139E+03  0.44871973974E+01  0.75347671705E+03  0.46999998093E+01 0. -1.
       -5    1    3    3    0  502  0.69594235643E+03  0.28870257139E+03 -0.56099434617E+03  0.93937302741E+03  0.46999998093E+01 0.  1.
</event>
<event>
 5   0  0.1832646E-04  0.1605546E+04  0.7818609E-02  0.8817148E-01
       -2   -1    0    0    0  501  0.00000000000E+00  0.00000000000E+00  0.51340558485E+03  0.51340558485E+03  0.25500000920E-02 0.  1.
        2   -1    0    0  501    0  0.00000000000E+00  0.00000000000E+00 -0.12552345729E+04  0.12552345729E+04  0.25500000920E-02 0. -1.
    10030    2    1    2    0    0  0.00000000000E+00  0.00000000000E+00 -0.74182898805E+03  0.17686401578E+04  0.16055459383E+04 0.  0.
        2    1    3    3  502    0  0.52624343058E+03 -0.99676001085E+02  0.28780653103E+03  0.60802964790E+03  0.25500000920E-02 0.  1.
       -2    1    3    3    0  502 -0.52624343058E+03  0.99676001085E+02 -0.10296355191E+04  0.11606105099E+04  0.25500000920E-02 0. -1.
</event>
<event>
 5   0  0.1858913E-04  0.1594851E+04  0.7818609E-02  0.8823718E-01
        2   -1    0    0  501    0  0.00000000000E+00  0.00000000000E+00  0.11384497432E+04  0.11384497432E+04  0.25500000920E-02 0. -1.
       -2   -1    0    0    0  501  0.00000000000E+00  0.00000000000E+00 -0.55855540686E+03  0.55855540687E+03  0.25500000920E-02 0.  1.
    10030    2    1    2    0    0  0.00000000000E+00  0.00000000000E+00  0.57989433633E+03  0.16970051501E+04  0.15948507886E+04 0.  0.
        4    1    3    3  502    0  0.19412021663E+02 -0.60861797132E+03  0.83779786771E+03  0.10357120940E+04  0.12699999809E+01 0. -1.
       -4    1    3    3    0  502 -0.19412021663E+02  0.60861797132E+03 -0.25790353138E+03  0.66129305607E+03  0.12699999809E+01 0.  1.
</event>
<event>
 5   0  0.9432152E-05  0.1596469E+04  0.7818609E-02  0.8822720E-01
       -1   -1    0    0    0  501  0.00000000000E+00  0.00000000000E+00  0.10623475395E+04  0.10623475395E+04  0.50400001928E-02 0. -1.
        1   -1    0    0  501    0  0.00000000000E+00  0.00000000000E+00 -0.59978337501E+03  0.59978337503E+03  0.50400001928E-02 0.  1.
    10030    2    1    2    0    0  0.00000000000E+00  0.00000000000E+00  0.46256416445E+03  0.16621309145E+04  0.15964690948E+04 0.  0.
        4    1    3    3  502    0  0.46927543679E+03  0.50442603874E+03 -0.18842572617E+03  0.71426250869E+03  0.12699999809E+01 0.  1.
       -4    1    3    3    0  502 -0.46927543679E+03 -0.50442603874E+03  0.65098989062E+03  0.94786840580E+03  0.12699999809E+01 0. -1.
</event>
<event>
 5   0  0.1835088E-04  0.1591899E+04  0.7818609E-02  0.8825540E-01
       -2   -1    0    0    0  501  0.00000000000E+00  0.00000000000E+00  0.31097491125E+03  0.31097491126E+03  0.25500000920E-02 0.  1.
        2   -1    0    0  501    0  0.00000000000E+00  0.00000000000E+00 -0.20372567762E+04  0.20372567762E+04  0.25500000920E-02 0. -1.
    10030    2    1    2    0    0  0.00000000000E+00  0.00000000000E+00 -0.17262818649E+04  0.23482316874E+04  0.15918991742E+04 0.  0.
        5    1    3    3  502    0 -0.63876227642E+03  0.46941787471E+03 -0.75735084481E+03  0.10963451915E+04  0.46999998093E+01 0. -1.
       -5    1    3    3    0  502  0.63876227642E+03 -0.46941787471E+03 -0.96893102011E+03  0.12518864959E+04  0.46999998093E+01 0.  1.
</event>
<event>
 5   0  0.1914170E-04  0.1603554E+04  0.7818609E-02  0.8818368E-01
       -2   -1    0    0    0  501  0.00000000000E+00  0.00000000000E+00  0.37978550779E+03  0.37978550780E+03  0.25500000920E-02 0.  1.
        2   -1    0    0  501    0  0.00000000000E+00  0.00000000000E+00 -0.16926565086E+04  0.16926565086E+04  0.25500000920E-02 0. -1.
    10030    2    1    2    0    0  0.00000000000E+00  0.00000000000E+00 -0.13128710008E+04  0.20724420164E+04  0.16035540673E+04 0.  0.
        3    1    3    3  502    0  0.15065047162E+03 -0.14943081551E+03 -0.16557092103E+04  0.16692507698E+04  0.10100000352E+00 0. -1.
       -3    1    3    3    0  502 -0.15065047162E+03  0.14943081551E+03  0.34283820951E+03  0.40319124658E+03  0.10100000352E+00 0.  1.
</event>
<event>
 5   0  0.1858913E-04  0.1598867E+04  0.7818609E-02  0.8821244E-01
       -2   -1    0    0    0  501  0.00000000000E+00  0.00000000000E+00  0.33335865289E+03  0.33335865290E+03  0.25500000920E-02 0. -1.
        2   -1    0    0  501    0  0.00000000000E+00  0.00000000000E+00 -0.19171364226E+04  0.19171364226E+04  0.25500000920E-02 0.  1.
    10030    2    1    2    0    0  0.00000000000E+00  0.00000000000E+00 -0.15837777698E+04  0.22504950755E+04  0.15988671180E+04 0.  0.
        4    1    3    3  502    0 -0.56011188498E+03 -0.56586168616E+03 -0.89307278975E+03  0.11964553449E+04  0.12699999809E+01 0.  1.
       -4    1    3    3    0  502  0.56011188498E+03  0.56586168616E+03 -0.69070498001E+03  0.10540397307E+04  0.12699999809E+01 0. -1.
</event>
<event>
 5   0  0.9726935E-05  0.1605705E+04  0.7818609E-02  0.8817051E-01
       -1   -1    0    0    0  501  0.00000000000E+00  0.00000000000E+00  0.13955802817E+04  0.13955802817E+04  0.50400001928E-02 0. -1.
        1   -1    0    0  501    0  0.00000000000E+00  0.00000000000E+00 -0.46186672323E+03  0.46186672326E+03  0.50400001928E-02 0.  1.
    10030    2    1    2    0    0  0.00000000000E+00  0.00000000000E+00  0.93371355844E+03  0.18574470049E+04  0.16057049439E+04 0.  0.
        2    1    3    3  502    0  0.16985016064E+03 -0.63170518854E+03  0.10053145535E+04  0.11993989635E+04  0.25500000920E-02 0. -1.
       -2    1    3    3    0  502 -0.16985016064E+03  0.63170518854E+03 -0.71600995029E+02  0.65804804140E+03  0.25500000920E-02 0.  1.
</event>
<event>
 5   0  0.1835088E-04  0.1599949E+04  0.7818609E-02  0.8820579E-01
        2   -1    0    0  501    0  0.00000000000E+00  0.00000000000E+00  0.16876870381E+04  0.16876870381E+04  0.25500000920E-02 0.  1.
       -2   -1    0    0    0  501  0.00000000000E+00  0.00000000000E+00 -0.37919320000E+03  0.37919320001E+03  0.25500000920E-02 0. -1.
    10030    2    1    2    0    0  0.00000000000E+00  0.00000000000E+00  0.13084938381E+04  0.20668802381E+04  0.15999493099E+04 0.  0.
        5    1    3    3  502    0  0.55562234815E+03 -0.52545165775E+03  0.35094827371E+03  0.84142879629E+03  0.46999998093E+01 0. -1.
       -5    1    3    3    0  502 -0.55562234815E+03  0.52545165775E+03  0.95754556439E+03  0.12254514418E+04  0.46999998093E+01 0.  1.
</event>
<event>
 5   0  0.9939872E-05  0.1599713E+04  0.7818609E-02  0.8820725E-01
       -1   -1    0    0    0  501  0.00000000000E+00  0.00000000000E+00  0.66141548078E+03  0.66141548080E+03  0.50400001928E-02 0. -1.
        1   -1    0    0  501    0  0.00000000000E+00  0.00000000000E+00 -0.96727405383E+03  0.96727405385E+03  0.50400001928E-02 0.  1.
    10030    2    1    2    0    0  0.00000000000E+00  0.00000000000E+00 -0.30585857306E+03  0.16286895346E+04  0.15997125159E+04 0.  0.
        3    1    3    3  502    0  0.27914044255E+03 -0.23410497745E+03  0.57204036689E+03  0.67819961566E+03  0.10100000352E+00 0. -1.
       -3    1    3    3    0  502 -0.27914044255E+03  0.23410497745E+03 -0.87789893994E+03  0.95048991898E+03  0.10100000352E+00 0.  1.
</event>
<event>
 5   0  0.1858913E-04  0.1596415E+04  0.7818609E-02  0.8822753E-01
        2   -1    0    0  501    0  0.00000000000E+00  0.00000000000E+00  0.78556276831E+03  0.78556276832E+03  0.25500000920E-02 0.  1.
       -2   -1    0    0    0  501  0.00000000000E+00  0.00000000000E+00 -0.81105614519E+03  0.81105614519E+03  0.25500000920E-02 0. -1.
    10030    2    1    2    0    0  0.00000000000E+00  0.00000000000E+00 -0.25493376877E+02  0.15966189135E+04  0.15964153729E+04 0.  0.
        4    1    3    3  502    0 -0.75859098804E+03  0.16188668789E+03 -0.20109571370E+03  0.80131684483E+03  0.12699999809E+01 0. -1.
       -4    1    3    3    0  502  0.75859098804E+03 -0.16188668789E+03  0.17560233682E+03  0.79530206868E+03  0.12699999809E+01 0.  1.
</event>
<event>
 5   0  0.9673017E-05  0.1598325E+04  0.7818609E-02  0.8821577E-01
        1   -1    0    0  501    0  0.00000000000E+00  0.00000000000E+00  0.16291632219E+04  0.16291632219E+04  0.50400001928E-02 0. -1.
       -1   -1    0    0    0  501  0.00000000000E+00  0.00000000000E+00 -0.39201780272E+03  0.39201780275E+03  0.50400001928E-02 0.  1.
    10030    2    1    2    0    0  0.00000000000E+00  0.00000000000E+00  0.12371454192E+04  0.20211810246E+04  0.15983253568E+04 0.  0.
        1    1    3    3  502    0 -0.57361306918E+02 -0.24739923052E+03 -0.33963158087E+03  0.42408290409E+03  0.50400001928E-02 0.  1.
       -1    1    3    3    0  502  0.57361306918E+02  0.24739923052E+03  0.15767770000E+04  0.15970981205E+04  0.50400001928E-02 0. -1.
</event>
<event>
 5   0  0.1835088E-04  0.1586827E+04  0.7818609E-02  0.8828682E-01
        2   -1    0    0  501    0  0.00000000000E+00  0.00000000000E+00  0.12683510696E+04  0.12683510696E+04  0.25500000920E-02 0.  1.
       -2   -1    0    0    0  501  0.00000000000E+00  0.00000000000E+00 -0.49631741023E+03  0.49631741024E+03  0.25500000920E-02 0. -1.
    10030    2    1    2    0    0  0.00000000000E+00  0.00000000000E+00  0.77203365932E+03  0.17646684798E+04  0.15868266674E+04 0.  0.
        5    1    3    3  502    0 -0.29749010467E+02 -0.75986326300E+03  0.13436985429E+03  0.77223994316E+03  0.46999998093E+01 0. -1.
       -5    1    3    3    0  502  0.29749010467E+02  0.75986326300E+03  0.63766380503E+03  0.99242853663E+03  0.46999998093E+01 0.  1.
</event>
<event>
 5   0  0.9616567E-05  0.1616841E+04  0.7818609E-02  0.8810268E-01
       -1   -1    0    0    0  501  0.00000000000E+00  0.00000000000E+00  0.77594970866E+03  0.77594970867E+03  0.50400001928E-02 0. -1.
        1   -1    0    0  501    0  0.00000000000E+00  0.00000000000E+00 -0.84224976485E+03  0.84224976486E+03  0.50400001928E-02 0.  1.
    10030    2    1    2    0    0  0.00000000000E+00  0.00000000000E+00 -0.66300056189E+02  0.16181994735E+04  0.16168406968E+04 0.  0.
        5    1    3    3  502    0 -0.12067326348E+02 -0.42917210385E+03  0.65239791785E+03  0.78101181060E+03  0.46999998093E+01 0. -1.
       -5    1    3    3    0  502  0.12067326348E+02  0.42917210385E+03 -0.71869797403E+03  0.83718766293E+03  0.46999998093E+01 0.  1.
</event>
<event>
 5   0  0.9616567E-05  0.1596459E+04  0.7818609E-02  0.8822726E-01
       -1   -1    0    0    0  501  0.00000000000E+00  0.00000000000E+00  0.66320923413E+03  0.66320923415E+03  0.50400001928E-02 0. -1.
        1   -1    0    0  501    0  0.00000000000E+00  0.00000000000E+00 -0.96073844133E+03  0.96073844135E+03  0.50400001928E-02 0.  1.
    10030    2    1    2    0    0  0.00000000000E+00  0.00000000000E+00 -0.29752920720E+03  0.16239476755E+04  0.15964593398E+04 0.  0.
        5    1    3    3  502    0 -0.23124793384E+02  0.47703640990E+03 -0.79934710940E+03  0.93116936362E+03  0.46999998093E+01 0.  1.
       -5    1    3    3    0  502  0.23124793384E+02 -0.47703640990E+03  0.50181790220E+03  0.69277831188E+03  0.46999998093E+01 0. -1.
</event>
<event>
 5   0  0.1835088E-04  0.1600945E+04  0.7818609E-02  0.8819968E-01
        2   -1    0    0  501    0  0.00000000000E+00  0.00000000000E+00  0.10173255713E+04  0.10173255713E+04  0.25500000920E-02 0. -1.
       -2   -1    0    0    0  501  0.00000000000E+00  0.00000000000E+00 -0.62984356828E+03  0.62984356829E+03  0.25500000920E-02 0.  1.
    10030    2    1    2    0    0  0.00000000000E+00  0.00000000000E+00  0.38748200302E+03  0.16471691396E+04  0.16009446810E+04 0.  0.
        5    1    3    3  502    0 -0.43267131709E+03 -0.24871275029E+03  0.83764747150E+03  0.97505788407E+03  0.46999998093E+01 0. -1.
       -5    1    3    3    0  502  0.43267131709E+03  0.24871275029E+03 -0.45016546847E+03  0.67211125552E+03  0.46999998093E+01 0.  1.
</event>
<event>
 5   0  0.9432152E-05  0.1603205E+04  0.7818609E-02  0.8818582E-01
       -1   -1    0    0    0  501  0.00000000000E+00  0.00000000000E+00  0.14081741856E+04  0.14081741856E+04  0.50400001928E-02 0.  1.
        1   -1    0    0  501    0  0.00000000000E+00  0.00000000000E+00 -0.45631162099E+03  0.45631162101E+03  0.50400001928E-02 0. -1.
    10030    2    1    2    0    0  0.00000000000E+00  0.00000000000E+00  0.95186256462E+03  0.18644858066E+04  0.16032045974E+04 0.  0.
        4    1    3    3  502    0  0.57069860238E+03 -0.23565711236E+03 -0.11859032577E+03  0.62872605134E+03  0.12699999809E+01 0. -1.
       -4    1    3    3    0  502 -0.57069860238E+03  0.23565711236E+03  0.10704528904E+04  0.12357597553E+04  0.12699999809E+01 0.  1.
</event>
<event>
 5   0  0.9432152E-05  0.1610636E+04  0.7818609E-02  0.8814040E-01
       -1   -1    0    0    0  501  0.00000000000E+00  0.00000000000E+00  0.49797422441E+03  0.49797422443E+03  0.50400001928E-02 0.  1.
        1   -1    0    0  501    0  0.00000000000E+00  0.00000000000E+00 -0.13023507511E+04  0.13023507511E+04  0.50400001928E-02 0. -1.
    10030    2    1    2    0    0  0.00000000000E+00  0.00000000000E+00 -0.80437652665E+03  0.18003249755E+04  0.16106360299E+04 0.  0.
        4    1    3    3  502    0  0.24734004855E+03  0.66299190326E+01  0.45443296882E+03  0.51742824768E+03  0.12699999809E+01 0.  1.
       -4    1    3    3    0  502 -0.24734004855E+03 -0.66299190326E+01 -0.12588094955E+04  0.12828967278E+04  0.12699999809E+01 0. -1.
</event>
<event>
 5   0  0.9616567E-05  0.1614125E+04  0.7818609E-02  0.8811917E-01
       -1   -1    0    0    0  501  0.00000000000E+00  0.00000000000E+00  0.11938727879E+04  0.11938727879E+04  0.50400001928E-02 0.  1.
        1   -1    0    0  501    0  0.00000000000E+00  0.00000000000E+00 -0.54557717837E+03  0.54557717840E+03  0.50400001928E-02 0. -1.
    10030    2    1    2    0    0  0.00000000000E+00  0.00000000000E+00  0.64829560954E+03  0.17394499663E+04  0.16141248366E+04 0.  0.
        5    1    3    3  502    0 -0.17776823789E+03  0.25808975492E+03 -0.47731403507E+03  0.57101895422E+03  0.46999998093E+01 0. -1.
       -5    1    3    3    0  502  0.17776823789E+03 -0.25808975492E+03  0.11256096446E+04  0.11684310121E+04  0.46999998093E+01 0.  1.
</event>
<event>
 5   0  0.9432152E-05  0.1573886E+04  0.7818609E-02  0.8836753E-01
        1   -1    0    0  501    0  0.00000000000E+00  0.00000000000E+00  0.91238040935E+03  0.91238040936E+03  0.50400001928E-02 0. -1.
       -1   -1    0    0    0  501  0.00000000000E+00  0.00000000000E+00 -0.67875159728E+03  0.67875159730E+03  0.50400001928E-02 0.  1.
    10030    2    1    2    0    0  0.00000000000E+00  0.00000000000E+00  0.23362881206E+03  0.15911320067E+04  0.15738864765E+04 0.  0.
        4    1    3    3  502    0  0.26365745942E+03  0.39405570096E+03  0.75177518058E+03  0.88879845095E+03  0.12699999809E+01 0. -1.
       -4    1    3    3    0  502 -0.26365745942E+03 -0.39405570096E+03 -0.51814636852E+03  0.70233355571E+03  0.12699999809E+01 0.  1.
</event>
<event>
 5   0  0.9432152E-05  0.1605116E+04  0.7818609E-02  0.8817411E-01
       -1   -1    0    0    0  501  0.00000000000E+00  0.00000000000E+00  0.66972960246E+03  0.66972960248E+03  0.50400001928E-02 0.  1.
        1   -1    0    0  501    0  0.00000000000E+00  0.00000000000E+00 -0.96173098976E+03  0.96173098977E+03  0.50400001928E-02 0. -1.
    10030    2    1    2    0    0  0.00000000000E+00  0.00000000000E+00 -0.29200138730E+03  0.16314605922E+04  0.16051164612E+04 0.  0.
        4    1    3    3  502    0  0.57073599548E+03 -0.15701843397E+03  0.40483842445E+03  0.71714024287E+03  0.12699999809E+01 0.  1.
       -4    1    3    3    0  502 -0.57073599548E+03  0.15701843397E+03 -0.69683981174E+03  0.91432034937E+03  0.12699999809E+01 0. -1.
</event>
<event>
 5   0  0.9432152E-05  0.1596989E+04  0.7818609E-02  0.8822400E-01
       -1   -1    0    0    0  501  0.00000000000E+00  0.00000000000E+00  0.10563175554E+04  0.10563175554E+04  0.50400001928E-02 0. -1.
        1   -1    0    0  501    0  0.00000000000E+00  0.00000000000E+00 -0.60360046341E+03  0.60360046343E+03  0.50400001928E-02 0.  1.
    10030    2    1    2    0    0  0.00000000000E+00  0.00000000000E+00  0.45271709201E+03  0.16599180189E+04  0.15969893750E+04 0.  0.
        4    1    3    3  502    0  0.53493285857E+03 -0.48256490871E+03  0.58426720329E+03  0.92757308717E+03  0.12699999809E+01 0. -1.
       -4    1    3    3    0  502 -0.53493285857E+03  0.48256490871E+03 -0.13155011128E+03  0.73234493169E+03  0.12699999809E+01 0.  1.
</event>
<event>
 5   0  0.9673017E-05  0.1593565E+04  0.7818609E-02  0.8824511E-01
       -1   -1    0    0    0  501  0.00000000000E+00  0.00000000000E+00  0.74945524795E+03  0.74945524796E+03  0.50400001928E-02 0.  1.
        1   -1    0    0  501    0  0.00000000000E+00  0.00000000000E+00 -0.84709875831E+03  0.84709875832E+03  0.50400001928E-02 0. -1.
    10030    2    1    2    0    0  0.00000000000E+00  0.00000000000E+00 -0.97643510360E+02  0.15965540063E+04  0.15935653234E+04 0.  0.
        1    1    3    3  502    0  0.12249441832E+03  0.68569938553E+03 -0.43642467682E+03  0.82198237718E+03  0.50400001928E-02 0. -1.
       -1    1    3    3    0  502 -0.12249441832E+03 -0.68569938553E+03  0.33878116646E+03  0.77457162910E+03  0.50400001928E-02 0.  1.
</event>
<event>
 5   0  0.1832646E-04  0.1599008E+04  0.7818609E-02  0.8821158E-01
       -2   -1    0    0    0  501  0.00000000000E+00  0.00000000000E+00  0.54683599757E+03  0.54683599757E+03  0.25500000920E-02 0. -1.
        2   -1    0    0  501    0  0.00000000000E+00  0.00000000000E+00 -0.11689179849E+04  0.11689179849E+04  0.25500000920E-02 0.  1.
    10030    2    1    2    0    0  0.00000000000E+00  0.00000000000E+00 -0.62208198733E+03  0.17157539825E+04  0.15990077328E+04 0.  0.
        2    1    3    3  502    0  0.40342763902E+03 -0.54566106102E+03  0.14256075706E+03  0.69341432268E+03  0.25500000920E-02 0. -1.
       -2    1    3    3    0  502 -0.40342763902E+03  0.54566106102E+03 -0.76464274439E+03  0.10223396598E+04  0.25500000920E-02 0.  1.
</event>
<event>
 5   0  0.9673017E-05  0.1611593E+04  0.7818609E-02  0.8813458E-01
       -1   -1    0    0    0  501  0.00000000000E+00  0.00000000000E+00  0.74567465516E+03  0.74567465518E+03  0.50400001928E-02 0.  1.
        1   -1    0    0  501    0  0.00000000000E+00  0.00000000000E+00 -0.87076561483E+03  0.87076561485E+03  0.50400001928E-02 0. -1.
    10030    2    1    2    0    0  0.00000000000E+00  0.00000000000E+00 -0.12509095967E+03  0.16164402700E+04  0.16115928141E+04 0.  0.
        1    1    3    3  502    0  0.35826188336E+03  0.66407191886E+03 -0.34617645341E+03  0.83016939682E+03  0.50400001928E-02 0. -1.
       -1    1    3    3    0  502 -0.35826188336E+03 -0.66407191886E+03  0.22108549374E+03  0.78627087321E+03  0.50400001928E-02 0.  1.
</event>
<event>
 5   0  0.9432152E-05  0.1609778E+04  0.7818609E-02  0.8814563E-01
        1   -1    0    0  501    0  0.00000000000E+00  0.00000000000E+00  0.19845027663E+04  0.19845027663E+04  0.50400001928E-02 0.  1.
       -1   -1    0    0    0  501  0.00000000000E+00  0.00000000000E+00 -0.32645272189E+03  0.32645272193E+03  0.50400001928E-02 0. -1.
    10030    2    1    2    0    0  0.00000000000E+00  0.00000000000E+00  0.16580500444E+04  0.23109554882E+04  0.16097780340E+04 0.  0.
        4    1    3    3  502    0  0.26279824243E+03  0.38764683221E+02  0.19197581424E+04  0.19380501942E+04  0.12699999809E+01 0.  1.
       -4    1    3    3    0  502 -0.26279824243E+03 -0.38764683221E+02 -0.26170809799E+03  0.37290529407E+03  0.12699999809E+01 0. -1.
</event>
<event>
 5   0  0.1835088E-04  0.1600423E+04  0.7818609E-02  0.8820288E-01
        2   -1    0    0  501    0  0.00000000000E+00  0.00000000000E+00  0.10417754941E+04  0.10417754941E+04  0.25500000920E-02 0.  1.
       -2   -1    0    0    0  501  0.00000000000E+00  0.00000000000E+00 -0.61466071060E+03  0.61466071061E+03  0.25500000920E-02 0. -1.
    10030    2    1    2    0    0  0.00000000000E+00  0.00000000000E+00  0.42711478348E+03  0.16564362047E+04  0.16004230259E+04 0.  0.
        5    1    3    3  502    0 -0.51242397849E+03 -0.24973767582E+03  0.79478939186E+03  0.97808972383E+03  0.46999998093E+01 0.  1.
       -5    1    3    3    0  502  0.51242397849E+03  0.24973767582E+03 -0.36767460838E+03  0.67834648086E+03  0.46999998093E+01 0. -1.
</event>
<event>
 5   0  0.6838750E-05  0.1597297E+04  0.7818609E-02  0.8822211E-01
        4   -1    0    0  501    0  0.00000000000E+00  0.00000000000E+00  0.99740106572E+03  0.99740187427E+03  0.12699999809E+01 0. -1.
       -4   -1    0    0    0  501  0.00000000000E+00  0.00000000000E+00 -0.63949935375E+03  0.63950061482E+03  0.12699999809E+01 0.  1.
    10030    2    1    2    0    0  0.00000000000E+00  0.00000000000E+00  0.35790171197E+03  0.16369024891E+04  0.15972965045E+04 0.  0.
        4    1    3    3  502    0  0.63912680320E+03  0.54592851456E+02 -0.30863433815E+03  0.71184283208E+03  0.12699999809E+01 0.  1.
       -4    1    3    3    0  502 -0.63912680320E+03 -0.54592851456E+02  0.66653605012E+03  0.92505965700E+03  0.12699999809E+01 0. -1.
</event>
<event>
 5   0  0.9939872E-05  0.1596346E+04  0.7818609E-02  0.8822796E-01
       -1   -1    0    0    0  501  0.00000000000E+00  0.00000000000E+00  0.64671714543E+03  0.64671714545E+03  0.50400001928E-02 0.  1.
        1   -1    0    0  501    0  0.00000000000E+00  0.00000000000E+00 -0.98509869572E+03  0.98509869573E+03  0.50400001928E-02 0. -1.
    10030    2    1    2    0    0  0.00000000000E+00  0.00000000000E+00 -0.33838155028E+03  0.16318158412E+04  0.15963460984E+04 0.  0.
        3    1    3    3  502    0 -0.18941833203E+03 -0.74296282878E+03  0.57564885598E+02  0.76888672489E+03  0.10100000352E+00 0.  1.
       -3    1    3    3    0  502  0.18941833203E+03  0.74296282878E+03 -0.39594643588E+03  0.86292911629E+03  0.10100000352E+00 0. -1.
</event>
<event>
 5   0  0.9432152E-05  0.1597759E+04  0.7818609E-02  0.8821926E-01
       -1   -1    0    0    0  501  0.00000000000E+00  0.00000000000E+00  0.63138986102E+03  0.63138986104E+03  0.50400001928E-02 0. -1.
        1   -1    0    0  501    0  0.00000000000E+00  0.00000000000E+00 -0.10107998436E+04  0.10107998436E+04  0.50400001928E-02 0.  1.
    10030    2    1    2    0    0  0.00000000000E+00  0.00000000000E+00 -0.37940998262E+03  0.16421897047E+04  0.15977593972E+04 0.  0.
        4    1    3    3  502    0 -0.76158014838E+02  0.53829196824E+03 -0.79134484757E+03  0.96009716538E+03  0.12699999809E+01 0.  1.
       -4    1    3    3    0  502  0.76158014838E+02 -0.53829196824E+03  0.41193486496E+03  0.68209253930E+03  0.12699999809E+01 0. -1.
</event>
<event>
 5   0  0.9432152E-05  0.1580522E+04  0.7818609E-02  0.8832604E-01
       -1   -1    0    0    0  501  0.00000000000E+00  0.00000000000E+00  0.60334832277E+03  0.60334832279E+03  0.50400001928E-02 0. -1.
        1   -1    0    0  501    0  0.00000000000E+00  0.00000000000E+00 -0.10350783335E+04  0.10350783335E+04  0.50400001928E-02 0.  1.
    10030    2    1    2    0    0  0.00000000000E+00  0.00000000000E+00 -0.43173001074E+03  0.16384266563E+04  0.15805224155E+04 0.  0.
        4    1    3    3  502    0 -0.11630491083E+02 -0.17412972007E+03  0.58312174378E+03  0.60867808298E+03  0.12699999809E+01 0. -1.
       -4    1    3    3    0  502  0.11630491083E+02  0.17412972007E+03 -0.10148517545E+04  0.10297485733E+04  0.12699999809E+01 0.  1.
</event>
<event>
 5   0  0.1858913E-04  0.1602492E+04  0.7818609E-02  0.8819018E-01
        2   -1    0    0  501    0  0.00000000000E+00  0.00000000000E+00  0.21818729919E+04  0.21818729919E+04  0.25500000920E-02 0. -1.
       -2   -1    0    0    0  501  0.00000000000E+00  0.00000000000E+00 -0.29424041294E+03  0.29424041295E+03  0.25500000920E-02 0.  1.
    10030    2    1    2    0    0  0.00000000000E+00  0.00000000000E+00  0.18876325789E+04  0.24761134048E+04  0.16024920719E+04 0.  0.
        4    1    3    3  502    0  0.12239489698E+03  0.16779294419E+03 -0.25192380603E+03  0.32649992323E+03  0.12699999809E+01 0.  1.
       -4    1    3    3    0  502 -0.12239489698E+03 -0.16779294419E+03  0.21395563850E+04  0.21496134816E+04  0.12699999809E+01 0. -1.
</event>
<event>
 5   0  0.6838750E-05  0.1598740E+04  0.7818609E-02  0.8821323E-01
        3   -1    0    0  501    0  0.00000000000E+00  0.00000000000E+00  0.16452782428E+04  0.16452782459E+04  0.10100000352E+00 0.  1.
       -3   -1    0    0    0  501  0.00000000000E+00  0.00000000000E+00 -0.38837930200E+03  0.38837931513E+03  0.10100000352E+00 0. -1.
    10030    2    1    2    0    0  0.00000000000E+00  0.00000000000E+00  0.12568989408E+04  0.20336575610E+04  0.15987395435E+04 0.  0.
        4    1    3    3  502    0 -0.79295628949E+03  0.75928716063E+02  0.54363617443E+03  0.96441005283E+03  0.12699999809E+01 0.  1.
       -4    1    3    3    0  502  0.79295628949E+03 -0.75928716063E+02  0.71326276632E+03  0.10692475081E+04  0.12699999809E+01 0. -1.
</event>
<event>
 5   0  0.9939872E-05  0.1608956E+04  0.7818609E-02  0.8815065E-01
       -1   -1    0    0    0  501  0.00000000000E+00  0.00000000000E+00  0.26238913640E+04  0.26238913640E+04  0.50400001928E-02 0. -1.
        1   -1    0    0  501    0  0.00000000000E+00  0.00000000000E+00 -0.24665081481E+03  0.24665081487E+03  0.50400001928E-02 0.  1.
    10030    2    1    2    0    0  0.00000000000E+00  0.00000000000E+00  0.23772405492E+04  0.28705421788E+04  0.16089561125E+04 0.  0.
        3    1    3    3  502    0 -0.58151272185E+02 -0.63300890223E+03  0.30896000756E+03  0.70678011944E+03  0.10100000352E+00 0.  1.
       -3    1    3    3    0  502  0.58151272185E+02  0.63300890223E+03  0.20682805416E+04  0.21637620594E+04  0.10100000352E+00 0. -1.
</event>
<event>
 5   0  0.1832646E-04  0.1597569E+04  0.7818609E-02  0.8822043E-01
       -2   -1    0    0    0  501  0.00000000000E+00  0.00000000000E+00  0.84900239022E+03  0.84900239022E+03  0.25500000920E-02 0.  1.
        2   -1    0    0  501    0  0.00000000000E+00  0.00000000000E+00 -0.75153680147E+03  0.75153680148E+03  0.25500000920E-02 0. -1.
    10030    2    1    2    0    0  0.00000000000E+00  0.00000000000E+00  0.97465588749E+02  0.16005391917E+04  0.15975688289E+04 0.  0.
        2    1    3    3  502    0 -0.38355099619E+03 -0.55643922227E+03  0.47534204440E+03  0.82624816728E+03  0.25500000920E-02 0.  1.
       -2    1    3    3    0  502  0.38355099619E+03  0.55643922227E+03 -0.37787645565E+03  0.77429102442E+03  0.25500000920E-02 0. -1.
</event>
<event>
 5   0  0.1835088E-04  0.1612623E+04  0.7818609E-02  0.8812831E-01
       -2   -1    0    0    0  501  0.00000000000E+00  0.00000000000E+00  0.32409277129E+03  0.32409277130E+03  0.25500000920E-02 0.  1.
        2   -1    0    0  501    0  0.00000000000E+00  0.00000000000E+00 -0.20060252337E+04  0.20060252337E+04  0.25500000920E-02 0. -1.
    10030    2    1    2    0    0  0.00000000000E+00  0.00000000000E+00 -0.16819324624E+04  0.23301180050E+04  0.16126230524E+04 0.  0.
        5    1    3    3  502    0  0.41852581937E+03  0.49840128747E+03 -0.15287083632E+04  0.16614870010E+04  0.46999998093E+01 0. -1.
       -5    1    3    3    0  502 -0.41852581937E+03 -0.49840128747E+03 -0.15322409913E+03  0.66863100390E+03  0.46999998093E+01 0.  1.
</event>
<event>
 5   0  0.1914170E-04  0.1596442E+04  0.7818609E-02  0.8822737E-01
        2   -1    0    0  501    0  0.00000000000E+00  0.00000000000E+00  0.16439927053E+04  0.16439927053E+04  0.25500000920E-02 0. -1.
       -2   -1    0    0    0  501  0.00000000000E+00  0.00000000000E+00 -0.38756666055E+03  0.38756666056E+03  0.25500000920E-02 0.  1.
    10030    2    1    2    0    0  0.00000000000E+00  0.00000000000E+00  0.12564260447E+04  0.20315593658E+04  0.15964419974E+04 0.  0.
        3    1    3    3  502    0  0.74228899944E+03  0.13711238072E+03  0.29792694175E+03  0.81151293056E+03  0.10100000352E+00 0.  1.
       -3    1    3    3    0  502 -0.74228899944E+03 -0.13711238072E+03  0.95849910298E+03  0.12200464353E+04  0.10100000352E+00 0. -1.
</event>
<event>
 5   0  0.9726935E-05  0.1606923E+04  0.7818609E-02  0.8816306E-01
       -1   -1    0    0    0  501  0.00000000000E+00  0.00000000000E+00  0.10325394168E+04  0.10325394168E+04  0.50400001928E-02 0. -1.
        1   -1    0    0  501    0  0.00000000000E+00  0.00000000000E+00 -0.62520658920E+03  0.62520658922E+03  0.50400001928E-02 0.  1.
    10030    2    1    2    0    0  0.00000000000E+00  0.00000000000E+00  0.40733282762E+03  0.16577460061E+04  0.16069230810E+04 0.  0.
        2    1    3    3  502    0  0.26707567411E+03 -0.65866961242E+03  0.59018320296E+03  0.92384592172E+03  0.25500000920E-02 0. -1.
       -2    1    3    3    0  502 -0.26707567411E+03  0.65866961242E+03 -0.18285037533E+03  0.73390008434E+03  0.25500000920E-02 0.  1.
</event>
<event>
 5   0  0.1914170E-04  0.1579821E+04  0.7818609E-02  0.8833041E-01
        2   -1    0    0  501    0  0.00000000000E+00  0.00000000000E+00  0.44821148480E+03  0.44821148481E+03  0.25500000920E-02 0. -1.
       -2   -1    0    0    0  501  0.00000000000E+00  0.00000000000E+00 -0.13921076618E+04  0.13921076618E+04  0.25500000920E-02 0.  1.
    10030    2    1    2    0    0  0.00000000000E+00  0.00000000000E+00 -0.94389617697E+03  0.18403191466E+04  0.15798210558E+04 0.  0.
        3    1    3    3  502    0  0.12691316897E+02  0.12080536024E+03  0.43726669170E+03  0.45382504829E+03  0.10100000352E+00 0. -1.
       -3    1    3    3    0  502 -0.12691316897E+02 -0.12080536024E+03 -0.13811628687E+04  0.13864940983E+04  0.10100000352E+00 0.  1.
</event>
<event>
 5   0  0.9616567E-05  0.1602595E+04  0.7818609E-02  0.8818955E-01
        1   -1    0    0  501    0  0.00000000000E+00  0.00000000000E+00  0.12984034849E+04  0.12984034849E+04  0.50400001928E-02 0. -1.
       -1   -1    0    0    0  501  0.00000000000E+00  0.00000000000E+00 -0.49451329828E+03  0.49451329830E+03  0.50400001928E-02 0.  1.
    10030    2    1    2    0    0  0.00000000000E+00  0.00000000000E+00  0.80389018661E+03  0.17929167832E+04  0.16025951327E+04 0.  0.
        5    1    3    3  502    0 -0.43907399101E+03  0.42376135827E+03  0.98294170447E+03  0.11569598708E+04  0.46999998093E+01 0. -1.
       -5    1    3    3    0  502  0.43907399101E+03 -0.42376135827E+03 -0.17905151786E+03  0.63595691237E+03  0.46999998093E+01 0.  1.
</event>
<event>
 5   0  0.9939872E-05  0.1597259E+04  0.7818609E-02  0.8822234E-01
       -1   -1    0    0    0  501  0.00000000000E+00  0.00000000000E+00  0.13707662431E+04  0.13707662431E+04  0.50400001928E-02 0. -1.
        1   -1    0    0  501    0  0.00000000000E+00  0.00000000000E+00 -0.46529374313E+03  0.46529374316E+03  0.50400001928E-02 0.  1.
    10030    2    1    2    0    0  0.00000000000E+00  0.00000000000E+00  0.90547249996E+03  0.18360599863E+04  0.15972588472E+04 0.  0.
        3    1    3    3  502    0  0.86056764555E+02 -0.28570235389E+03  0.13042852641E+04  0.13379804416E+04  0.10100000352E+00 0. -1.
       -3    1    3    3    0  502 -0.86056764555E+02  0.28570235389E+03 -0.39881276415E+03  0.49807954465E+03  0.10100000352E+00 0.  1.
</event>
<event>
 5   0  0.9432152E-05  0.1593486E+04  0.7818609E-02  0.8824560E-01
        1   -1    0    0  501    0  0.00000000000E+00  0.00000000000E+00  0.98449925343E+03  0.98449925344E+03  0.50400001928E-02 0.  1.
       -1   -1    0    0    0  501  0.00000000000E+00  0.00000000000E+00 -0.64479405745E+03  0.64479405747E+03  0.50400001928E-02 0. -1.
    10030    2    1    2    0    0  0.00000000000E+00  0.00000000000E+00  0.33970519598E+03  0.16292933109E+04  0.15934858245E+04 0.  0.
        4    1    3    3  502    0  0.71922927940E+03  0.13842463726E+03 -0.15079527095E+03  0.74779205879E+03  0.12699999809E+01 0. -1.
       -4    1    3    3    0  502 -0.71922927940E+03 -0.13842463726E+03  0.49050046693E+03  0.88150125212E+03  0.12699999809E+01 0.  1.
</event>
<event>
 5   0  0.1858913E-04  0.1614135E+04  0.7818609E-02  0.8811911E-01
        2   -1    0    0  501    0  0.00000000000E+00  0.00000000000E+00  0.43675142013E+03  0.43675142014E+03  0.25500000920E-02 0. -1.
       -2   -1    0    0    0  501  0.00000000000E+00  0.00000000000E+00 -0.14913695531E+04  0.14913695531E+04  0.25500000920E-02 0.  1.
    10030    2    1    2    0    0  0.00000000000E+00  0.00000000000E+00 -0.10546181330E+04  0.19281209733E+04  0.16141347779E+04 0.  0.
        4    1    3    3  502    0  0.67478419238E+03 -0.44241923640E+03 -0.50704894520E+03  0.95297887320E+03  0.12699999809E+01 0. -1.
       -4    1    3    3    0  502 -0.67478419238E+03  0.44241923640E+03 -0.54756918780E+03  0.97514210008E+03  0.12699999809E+01 0.  1.
</event>
<event>
 5   0  0.9432152E-05  0.1600278E+04  0.7818609E-02  0.8820377E-01
        1   -1    0    0  501    0  0.00000000000E+00  0.00000000000E+00  0.13653871645E+04  0.13653871645E+04  0.50400001928E-02 0. -1.
       -1   -1    0    0    0  501  0.00000000000E+00  0.00000000000E+00 -0.46889430643E+03  0.46889430645E+03  0.50400001928E-02 0.  1.
    10030    2    1    2    0    0  0.00000000000E+00  0.00000000000E+00  0.89649285804E+03  0.18342814709E+04  0.16002778103E+04 0.  0.
        4    1    3    3  502    0  0.38151850356E+03  0.38073057716E+03  0.11260809742E+04  0.12484278570E+04  0.12699999809E+01 0. -1.
       -4    1    3    3    0  502 -0.38151850356E+03 -0.38073057716E+03 -0.22958811612E+03  0.58585361390E+03  0.12699999809E+01 0.  1.
</event>
<event>
 5   0  0.1835088E-04  0.1600910E+04  0.7818609E-02  0.8819989E-01
        2   -1    0    0  501    0  0.00000000000E+00  0.00000000000E+00  0.10429843981E+04  0.10429843981E+04  0.25500000920E-02 0. -1.
       -2   -1    0    0    0  501  0.00000000000E+00  0.00000000000E+00 -0.61432173060E+03  0.61432173061E+03  0.25500000920E-02 0.  1.
    10030    2    1    2    0    0  0.00000000000E+00  0.00000000000E+00  0.42866266750E+03  0.16573061287E+04  0.16009097169E+04 0.  0.
        5    1    3    3  502    0  0.38545472403E+03 -0.48900915195E+03 -0.30637956457E+03  0.69397105311E+03  0.46999998093E+01 0.  1.
       -5    1    3    3    0  502 -0.38545472403E+03  0.48900915195E+03  0.73504223207E+03  0.96333507561E+03  0.46999998093E+01 0. -1.
</event>
<event>
 5   0  0.9939872E-05  0.1601658E+04  0.7818609E-02  0.8819530E-01
       -1   -1    0    0    0  501  0.00000000000E+00  0.00000000000E+00  0.40052485745E+03  0.40052485749E+03  0.50400001928E-02 0.  1.
        1   -1    0    0  501    0  0.00000000000E+00  0.00000000000E+00 -0.16012161228E+04  0.16012161228E+04  0.50400001928E-02 0. -1.
    10030    2    1    2    0    0  0.00000000000E+00  0.00000000000E+00 -0.12006912654E+04  0.20017409803E+04  0.16016577155E+04 0.  0.
        3    1    3    3  502    0  0.39779969424E+03 -0.63919435606E+03 -0.25918909962E+03  0.79623678710E+03  0.10100000352E+00 0.  1.
       -3    1    3    3    0  502 -0.39779969424E+03  0.63919435606E+03 -0.94150216575E+03  0.12055041932E+04  0.10100000352E+00 0. -1.
</event>
<event>
 5   0  0.1832646E-04  0.1595622E+04  0.7818609E-02  0.8823242E-01
        2   -1    0    0  501    0  0.00000000000E+00  0.00000000000E+00  0.18236924637E+04  0.18236924637E+04  0.25500000920E-02 0.  1.
       -2   -1    0    0    0  501  0.00000000000E+00  0.00000000000E+00 -0.34901829154E+03  0.34901829155E+03  0.25500000920E-02 0. -1.
    10030    2    1    2    0    0  0.00000000000E+00  0.00000000000E+00  0.14746741721E+04  0.21727107552E+04  0.15956215441E+04 0.  0.
        2    1    3    3  502    0 -0.40459931598E+03  0.63888153496E+03  0.39116251110E+03  0.85139786957E+03  0.25500000920E-02 0. -1.
       -2    1    3    3    0  502  0.40459931598E+03 -0.63888153496E+03  0.10835116610E+04  0.13213128857E+04  0.25500000920E-02 0.  1.
</event>
<event>
 5   0  0.1858913E-04  0.1589322E+04  0.7818609E-02  0.8827135E-01
       -2   -1    0    0    0  501  0.00000000000E+00  0.00000000000E+00  0.10640611625E+04  0.10640611625E+04  0.25500000920E-02 0. -1.
        2   -1    0    0  501    0  0.00000000000E+00  0.00000000000E+00 -0.59346754781E+03  0.59346754781E+03  0.25500000920E-02 0.  1.
    10030    2    1    2    0    0  0.00000000000E+00  0.00000000000E+00  0.47059361473E+03  0.16575287103E+04  0.15893215771E+04 0.  0.
        4    1    3    3  502    0 -0.28497567717E+03  0.15842936058E+03 -0.52049214631E+03  0.61418619827E+03  0.12699999809E+01 0.  1.
       -4    1    3    3    0  502  0.28497567717E+03 -0.15842936058E+03  0.99108576104E+03  0.10433425121E+04  0.12699999809E+01 0. -1.
</event>
<event>
 5   0  0.1832646E-04  0.1662023E+04  0.7818609E-02  0.8783325E-01
       -2   -1    0    0    0  501  0.00000000000E+00  0.00000000000E+00  0.60895416837E+03  0.60895416838E+03  0.25500000920E-02 0.  1.
        2   -1    0    0  501    0  0.00000000000E+00  0.00000000000E+00 -0.11340426809E+04  0.11340426809E+04  0.25500000920E-02 0. -1.
    10030    2    1    2    0    0  0.00000000000E+00  0.00000000000E+00 -0.52508851250E+03  0.17429968493E+04  0.16620228851E+04 0.  0.
        2    1    3    3  502    0  0.75232657795E+03 -0.12788717348E+03 -0.60755502158E+03  0.97543503796E+03  0.25500000920E-02 0.  1.
       -2    1    3    3    0  502 -0.75232657795E+03  0.12788717348E+03  0.82466509080E+02  0.76756181129E+03  0.25500000920E-02 0. -1.
</event>
<event>
 5   0  0.9432152E-05  0.1593712E+04  0.7818609E-02  0.8824421E-01
        1   -1    0    0  501    0  0.00000000000E+00  0.00000000000E+00  0.87549724182E+03  0.87549724183E+03  0.50400001928E-02 0. -1.
       -1   -1    0    0    0  501  0.00000000000E+00  0.00000000000E+00 -0.72527822655E+03  0.72527822657E+03  0.50400001928E-02 0.  1.
    10030    2    1    2    0    0  0.00000000000E+00  0.00000000000E+00  0.15021901527E+03  0.16007754684E+04  0.15937115008E+04 0.  0.
        4    1    3    3  502    0  0.37124880055E+03 -0.39723909122E+03  0.66023160556E+03  0.85529641259E+03  0.12699999809E+01 0. -1.
       -4    1    3    3    0  502 -0.37124880055E+03  0.39723909122E+03 -0.51001259029E+03  0.74547905582E+03  0.12699999809E+01 0.  1.
</event>
<event>
 5   0  0.1835088E-04  0.1599797E+04  0.7818609E-02  0.8820673E-01
       -2   -1    0    0    0  501  0.00000000000E+00  0.00000000000E+00  0.46192234986E+03  0.46192234987E+03  0.25500000920E-02 0.  1.
        2   -1    0    0  501    0  0.00000000000E+00  0.00000000000E+00 -0.13851626469E+04  0.13851626469E+04  0.25500000920E-02 0. -1.
    10030    2    1    2    0    0  0.00000000000E+00  0.00000000000E+00 -0.92324029703E+03  0.18470849968E+04  0.15997969681E+04 0.  0.
        5    1    3    3  502    0  0.16331915722E+03 -0.75797259943E+03 -0.23472380031E+03  0.81013144676E+03  0.46999998093E+01 0.  1.
       -5    1    3    3    0  502 -0.16331915722E+03  0.75797259943E+03 -0.68851649673E+03  0.10369535500E+04  0.46999998093E+01 0. -1.
</event>
<event>
 5   0  0.9726935E-05  0.1595866E+04  0.7818609E-02  0.8823091E-01
        1   -1    0    0  501    0  0.00000000000E+00  0.00000000000E+00  0.11148015168E+04  0.11148015168E+04  0.50400001928E-02 0. -1.
       -1   -1    0    0    0  501  0.00000000000E+00  0.00000000000E+00 -0.57113072659E+03  0.57113072661E+03  0.50400001928E-02 0.  1.
    10030    2    1    2    0    0  0.00000000000E+00  0.00000000000E+00  0.54367079021E+03  0.16859322434E+04  0.15958664108E+04 0.  0.
        2    1    3    3  502    0  0.42301325907E+03 -0.67373931523E+03  0.20643419936E+03  0.82187587925E+03  0.25500000920E-02 0.  1.
       -2    1    3    3    0  502 -0.42301325907E+03  0.67373931523E+03  0.33723659085E+03  0.86405636416E+03  0.25500000920E-02 0. -1.
</event>
<event>
 5   0  0.9673017E-05  0.1594867E+04  0.7818609E-02  0.8823708E-01
       -1   -1    0    0    0  501  0.00000000000E+00  0.00000000000E+00  0.17638430405E+04  0.17638430405E+04  0.50400001928E-02 0.  1.
        1   -1    0    0  501    0  0.00000000000E+00  0.00000000000E+00 -0.36051959803E+03  0.36051959807E+03  0.50400001928E-02 0. -1.
    10030    2    1    2    0    0  0.00000000000E+00  0.00000000000E+00  0.14033234425E+04  0.21243626386E+04  0.15948667455E+04 0.  0.
        1    1    3    3  502    0 -0.32798130411E+03 -0.70847165930E+03  0.91807036145E+03  0.12051377583E+04  0.50400001928E-02 0.  1.
       -1    1    3    3    0  502  0.32798130411E+03  0.70847165930E+03  0.48525308105E+03  0.91922488031E+03  0.50400001928E-02 0. -1.
</event>
<event>
 5   0  0.9616567E-05  0.1607859E+04  0.7818609E-02  0.8815734E-01
        1   -1    0    0  501    0  0.00000000000E+00  0.00000000000E+00  0.95542646471E+03  0.95542646473E+03  0.50400001928E-02 0.  1.
       -1   -1    0    0    0  501  0.00000000000E+00  0.00000000000E+00 -0.67645479061E+03  0.67645479063E+03  0.50400001928E-02 0. -1.
    10030    2    1    2    0    0  0.00000000000E+00  0.00000000000E+00  0.27897167410E+03  0.16318812554E+04  0.16078592092E+04 0.  0.
        5    1    3    3  502    0 -0.83720275544E+02  0.55945045155E+03  0.71923523550E+03  0.91504934635E+03  0.46999998093E+01 0.  1.
       -5    1    3    3    0  502  0.83720275544E+02 -0.55945045155E+03 -0.44026356139E+03  0.71683190900E+03  0.46999998093E+01 0. -1.
</event>
<event>
 5   0  0.9432152E-05  0.1598459E+04  0.7818609E-02  0.8821495E-01
       -1   -1    0    0    0  501  0.00000000000E+00  0.00000000000E+00  0.50446187456E+03  0.50446187458E+03  0.50400001928E-02 0. -1.
        1   -1    0    0  501    0  0.00000000000E+00  0.00000000000E+00 -0.12662354561E+04  0.12662354561E+04  0.50400001928E-02 0.  1.
    10030    2    1    2    0    0  0.00000000000E+00  0.00000000000E+00 -0.76177358158E+03  0.17706973307E+04  0.15984586474E+04 0.  0.
        4    1    3    3  502    0  0.14207123815E+03 -0.27855848729E+03  0.43388554349E+03  0.53482459302E+03  0.12699999809E+01 0. -1.
       -4    1    3    3    0  502 -0.14207123815E+03  0.27855848729E+03 -0.11956591251E+04  0.12358727377E+04  0.12699999809E+01 0.  1.
</event>
<event>
 5   0  0.1774934E-04  0.1601495E+04  0.7818609E-02  0.8819630E-01
        2   -1    0    0  501    0  0.00000000000E+00  0.00000000000E+00  0.14958130648E+04  0.14958130648E+04  0.25500000920E-02 0. -1.
       -2   -1    0    0    0  501  0.00000000000E+00  0.00000000000E+00 -0.42866109199E+03  0.42866109199E+03  0.25500000920E-02 0.  1.
    10030    2    1    2    0    0  0.00000000000E+00  0.00000000000E+00  0.10671519728E+04  0.19244741567E+04  0.16014953784E+04 0.  0.
        1    1    3    3  502    0 -0.78547545290E+03  0.47625200201E+01  0.34662987086E+03  0.85857244080E+03  0.50400001928E-02 0.  1.
       -1    1    3    3    0  502  0.78547545290E+03 -0.47625200201E+01  0.72052210191E+03  0.10659017160E+04  0.50400001928E-02 0. -1.
</event>
<event>
 5   0  0.9673017E-05  0.1624613E+04  0.7818609E-02  0.8805568E-01
       -1   -1    0    0    0  501  0.00000000000E+00  0.00000000000E+00  0.42528226530E+03  0.42528226533E+03  0.50400001928E-02 0.  1.
        1   -1    0    0  501    0  0.00000000000E+00  0.00000000000E+00 -0.15515387080E+04  0.15515387080E+04  0.50400001928E-02 0. -1.
    10030    2    1    2    0    0  0.00000000000E+00  0.00000000000E+00 -0.11262564427E+04  0.19768209733E+04  0.16246130573E+04 0.  0.
        1    1    3    3  502    0  0.65317880319E+03  0.31789774834E+03 -0.12080966598E+03  0.73640783725E+03  0.50400001928E-02 0.  1.
       -1    1    3    3    0  502 -0.65317880319E+03 -0.31789774834E+03 -0.10054467767E+04  0.12404131361E+04  0.50400001928E-02 0. -1.
</event>
<event>
 5   0  0.1914170E-04  0.1599130E+04  0.7818609E-02  0.8821082E-01
       -2   -1    0    0    0  501  0.00000000000E+00  0.00000000000E+00  0.32299320967E+03  0.32299320968E+03  0.25500000920E-02 0. -1.
        2   -1    0    0  501    0  0.00000000000E+00  0.00000000000E+00 -0.19793122515E+04  0.19793122515E+04  0.25500000920E-02 0.  1.
    10030    2    1    2    0    0  0.00000000000E+00  0.00000000000E+00 -0.16563190418E+04  0.23023054612E+04  0.15991302850E+04 0.  0.
        3    1    3    3  502    0  0.48862125625E+03  0.40055747752E+03 -0.15336348840E+04  0.16586841147E+04  0.10100000352E+00 0.  1.
       -3    1    3    3    0  502 -0.48862125625E+03 -0.40055747752E+03 -0.12268415788E+03  0.64362134649E+03  0.10100000352E+00 0. -1.
</event>
<event>
 5   0  0.1774934E-04  0.1585198E+04  0.7818609E-02  0.8829694E-01
       -2   -1    0    0    0  501  0.00000000000E+00  0.00000000000E+00  0.46741891044E+03  0.46741891045E+03  0.25500000920E-02 0.  1.
        2   -1    0    0  501    0  0.00000000000E+00  0.00000000000E+00 -0.13440041584E+04  0.13440041584E+04  0.25500000920E-02 0. -1.
    10030    2    1    2    0    0  0.00000000000E+00  0.00000000000E+00 -0.87658524792E+03  0.18114230688E+04  0.15851977282E+04 0.  0.
        1    1    3    3  502    0 -0.20381619012E+03 -0.68141259900E+03 -0.38590650856E+02  0.71228744744E+03  0.50400001928E-02 0.  1.
       -1    1    3    3    0  502  0.20381619012E+03  0.68141259900E+03 -0.83799459706E+03  0.10991356214E+04  0.50400001928E-02 0. -1.
</event>
<event>
 5   0  0.1774934E-04  0.1600051E+04  0.7818609E-02  0.8820517E-01
        2   -1    0    0  501    0  0.00000000000E+00  0.00000000000E+00  0.12319562027E+04  0.12319562027E+04  0.25500000920E-02 0.  1.
       -2   -1    0    0    0  501  0.00000000000E+00  0.00000000000E+00 -0.51953193118E+03  0.51953193118E+03  0.25500000920E-02 0. -1.
    10030    2    1    2    0    0  0.00000000000E+00  0.00000000000E+00  0.71242427151E+03  0.17514881339E+04  0.16000507306E+04 0.  0.
        1    1    3    3  502    0 -0.55429521455E+03  0.31088718887E+03 -0.17572983140E+03  0.65937470587E+03  0.50400001928E-02 0. -1.
       -1    1    3    3    0  502  0.55429521455E+03 -0.31088718887E+03  0.88815410291E+03  0.10921134280E+04  0.50400001928E-02 0.  1.
</event>
<event>
 5   0  0.1835088E-04  0.1604662E+04  0.7818609E-02  0.8817689E-01
        2   -1    0    0  501    0  0.00000000000E+00  0.00000000000E+00  0.20775928506E+04  0.20775928506E+04  0.25500000920E-02 0.  1.
       -2   -1    0    0    0  501  0.00000000000E+00  0.00000000000E+00 -0.30984669515E+03  0.30984669516E+03  0.25500000920E-02 0. -1.
    10030    2    1    2    0    0  0.00000000000E+00  0.00000000000E+00  0.17677461554E+04  0.23874395457E+04  0.16046623055E+04 0.  0.
        5    1    3    3  502    0 -0.21678971069E+03 -0.35651441838E+03 -0.13570087523E+03  0.43879052715E+03  0.46999998093E+01 0. -1.
       -5    1    3    3    0  502  0.21678971069E+03  0.35651441838E+03  0.19034470307E+04  0.19486490186E+04  0.46999998093E+01 0.  1.
</event>
<event>
 5   0  0.9616567E-05  0.1610459E+04  0.7818609E-02  0.8814148E-01
       -1   -1    0    0    0  501  0.00000000000E+00  0.00000000000E+00  0.32141953309E+03  0.32141953313E+03  0.50400001928E-02 0.  1.
        1   -1    0    0  501    0  0.00000000000E+00  0.00000000000E+00 -0.20172847264E+04  0.20172847264E+04  0.50400001928E-02 0. -1.
    10030    2    1    2    0    0  0.00000000000E+00  0.00000000000E+00 -0.16958651933E+04  0.23387042596E+04  0.16104592077E+04 0.  0.
        5    1    3    3  502    0 -0.31997951123E+03  0.48428294763E+03 -0.37487191915E+02  0.58167365466E+03  0.46999998093E+01 0.  1.
       -5    1    3    3    0  502  0.31997951123E+03 -0.48428294763E+03 -0.16583780014E+04  0.17570306049E+04  0.46999998093E+01 0. -1.
</event>
<event>
 5   0  0.1914170E-04  0.1592660E+04  0.7818609E-02  0.8825070E-01
        2   -1    0    0  501    0  0.00000000000E+00  0.00000000000E+00  0.14751183399E+04  0.14751183399E+04  0.25500000920E-02 0. -1.
       -2   -1    0    0    0  501  0.00000000000E+00  0.00000000000E+00 -0.42989218410E+03  0.42989218411E+03  0.25500000920E-02 0.  1.
    10030    2    1    2    0    0  0.00000000000E+00  0.00000000000E+00  0.10452261558E+04  0.19050105240E+04  0.15926604722E+04 0.  0.
        3    1    3    3  502    0 -0.25097414232E+03 -0.67000318042E+03  0.10439979982E+03  0.72304329766E+03  0.10100000352E+00 0.  1.
       -3    1    3    3    0  502  0.25097414232E+03  0.67000318042E+03  0.94082635598E+03  0.11819672264E+04  0.10100000352E+00 0. -1.
</event>
<event>
 5   0  0.9726935E-05  0.1601343E+04  0.7818609E-02  0.8819723E-01
        1   -1    0    0  501    0  0.00000000000E+00  0.00000000000E+00  0.82622643917E+03  0.82622643918E+03  0.50400001928E-02 0.  1.
       -1   -1    0    0    0  501  0.00000000000E+00  0.00000000000E+00 -0.77590684075E+03  0.77590684076E+03  0.50400001928E-02 0. -1.
    10030    2    1    2    0    0  0.00000000000E+00  0.00000000000E+00  0.50319598419E+02  0.16021332799E+04  0.16013428692E+04 0.  0.
        2    1    3    3  502    0  0.53566583400E+03  0.58128338065E+03 -0.10236484189E+03  0.79706136225E+03  0.25500000920E-02 0. -1.
       -2    1    3    3    0  502 -0.53566583400E+03 -0.58128338065E+03  0.15268444031E+03  0.80507191769E+03  0.25500000920E-02 0.  1.
</event>
<event>
 5   0  0.9673017E-05  0.1595609E+04  0.7818609E-02  0.8823250E-01
        1   -1    0    0  501    0  0.00000000000E+00  0.00000000000E+00  0.87184744397E+03  0.87184744398E+03  0.50400001928E-02 0. -1.
       -1   -1    0    0    0  501  0.00000000000E+00  0.00000000000E+00 -0.73004961131E+03  0.73004961133E+03  0.50400001928E-02 0.  1.
    10030    2    1    2    0    0  0.00000000000E+00  0.00000000000E+00  0.14179783266E+03  0.16018970553E+04  0.15956088338E+04 0.  0.
        1    1    3    3  502    0 -0.59787485576E+03  0.50460171980E+03 -0.85968741368E+02  0.78706280772E+03  0.50400001928E-02 0.  1.
       -1    1    3    3    0  502  0.59787485576E+03 -0.50460171980E+03  0.22776657403E+03  0.81483424759E+03  0.50400001928E-02 0. -1.
</event>
<event>
 5   0  0.9939872E-05  0.1606671E+04  0.7818609E-02  0.8816460E-01
        1   -1    0    0  501    0  0.00000000000E+00  0.00000000000E+00  0.46612258138E+03  0.46612258140E+03  0.50400001928E-02 0. -1.
       -1   -1    0    0    0  501  0.00000000000E+00  0.00000000000E+00 -0.13845029968E+04  0.13845029968E+04  0.50400001928E-02 0.  1.
    10030    2    1    2    0    0  0.00000000000E+00  0.00000000000E+00 -0.91838041540E+03  0.18506255782E+04  0.16066712306E+04 0.  0.
        3    1    3    3  502    0  0.42661360477E+03 -0.65127309572E+03 -0.23116027973E+03  0.81215201663E+03  0.10100000352E+00 0.  1.
       -3    1    3    3    0  502 -0.42661360477E+03  0.65127309572E+03 -0.68722013567E+03  0.10384735616E+04  0.10100000352E+00 0. -1.
</event>
<event>
 5   0  0.9939872E-05  0.1597056E+04  0.7818609E-02  0.8822359E-01
        1   -1    0    0  501    0  0.00000000000E+00  0.00000000000E+00  0.12788729572E+04  0.12788729573E+04  0.50400001928E-02 0. -1.
       -1   -1    0    0    0  501  0.00000000000E+00  0.00000000000E+00 -0.49860086289E+03  0.49860086291E+03  0.50400001928E-02 0.  1.
    10030    2    1    2    0    0  0.00000000000E+00  0.00000000000E+00  0.78027209436E+03  0.17774738202E+04  0.15970562420E+04 0.  0.
        3    1    3    3  502    0  0.37265205290E+03  0.70416328843E+03  0.32987456030E+03  0.86228343660E+03  0.10100000352E+00 0.  1.
       -3    1    3    3    0  502 -0.37265205290E+03 -0.70416328843E+03  0.45039753406E+03  0.91519038357E+03  0.10100000352E+00 0. -1.
</event>
<event>
 5   0  0.1832646E-04  0.1598769E+04  0.7818609E-02  0.8821304E-01
        2   -1    0    0  501    0  0.00000000000E+00  0.00000000000E+00  0.17092814572E+04  0.17092814572E+04  0.25500000920E-02 0.  1.
       -2   -1    0    0    0  501  0.00000000000E+00  0.00000000000E+00 -0.37385061977E+03  0.37385061977E+03  0.25500000920E-02 0. -1.
    10030    2    1    2    0    0  0.00000000000E+00  0.00000000000E+00  0.13354308374E+04  0.20831320770E+04  0.15987694420E+04 0.  0.
        2    1    3    3  502    0  0.37769019199E+03 -0.12943234676E+03  0.15700686648E+04  0.16200364890E+04  0.25500000920E-02 0.  1.
       -2    1    3    3    0  502 -0.37769019199E+03  0.12943234676E+03 -0.23463782740E+03  0.46309558794E+03  0.25500000920E-02 0. -1.
</event>
<event>
 5   0  0.9616567E-05  0.1597428E+04  0.7818609E-02  0.8822130E-01
       -1   -1    0    0    0  501  0.00000000000E+00  0.00000000000E+00  0.54829179860E+03  0.54829179862E+03  0.50400001928E-02 0.  1.
        1   -1    0    0  501    0  0.00000000000E+00  0.00000000000E+00 -0.11635115315E+04  0.11635115315E+04  0.50400001928E-02 0. -1.
    10030    2    1    2    0    0  0.00000000000E+00  0.00000000000E+00 -0.61521973288E+03  0.17118033301E+04  0.15974277202E+04 0.  0.
        5    1    3    3  502    0 -0.63636676436E+03 -0.41195031026E+03 -0.38094461467E+02  0.75903820385E+03  0.46999998093E+01 0.  1.
       -5    1    3    3    0  502  0.63636676436E+03  0.41195031026E+03 -0.57712527141E+03  0.95276512626E+03  0.46999998093E+01 0. -1.
</event>
<event>
 5   0  0.1835088E-04  0.1596363E+04  0.7818609E-02  0.8822785E-01
       -2   -1    0    0    0  501  0.00000000000E+00  0.00000000000E+00  0.21340908131E+03  0.21340908132E+03  0.25500000920E-02 0. -1.
        2   -1    0    0  501    0  0.00000000000E+00  0.00000000000E+00 -0.29853181865E+04  0.29853181865E+04  0.25500000920E-02 0.  1.
    10030    2    1    2    0    0  0.00000000000E+00  0.00000000000E+00 -0.27719091051E+04  0.31987272678E+04  0.15963633817E+04 0.  0.
        5    1    3    3  502    0  0.74373214506E+03 -0.13222372765E+03 -0.19024865250E+04  0.20469728102E+04  0.46999998093E+01 0. -1.
       -5    1    3    3    0  502 -0.74373214506E+03  0.13222372765E+03 -0.86942258013E+03  0.11517544576E+04  0.46999998093E+01 0.  1.
</event>
<event>
 5   0  0.9726935E-05  0.1605628E+04  0.7818609E-02  0.8817098E-01
       -1   -1    0    0    0  501  0.00000000000E+00  0.00000000000E+00  0.55446923735E+03  0.55446923738E+03  0.50400001928E-02 0. -1.
        1   -1    0    0  501    0  0.00000000000E+00  0.00000000000E+00 -0.11623915613E+04  0.11623915613E+04  0.50400001928E-02 0.  1.
    10030    2    1    2    0    0  0.00000000000E+00  0.00000000000E+00 -0.60792232397E+03  0.17168607987E+04  0.16056280547E+04 0.  0.
        2    1    3    3  502    0  0.26494453304E+03 -0.13478468451E+03 -0.11013777510E+04  0.11407872138E+04  0.25500000920E-02 0.  1.
       -2    1    3    3    0  502 -0.26494453304E+03  0.13478468451E+03  0.49345542703E+03  0.57607358491E+03  0.25500000920E-02 0. -1.
</event>
<event>
 5   0  0.6838750E-05  0.1603984E+04  0.7818609E-02  0.8818104E-01
       -4   -1    0    0    0  501  0.00000000000E+00  0.00000000000E+00  0.91918315877E+03  0.91918403613E+03  0.12699999809E+01 0. -1.
        4   -1    0    0  501    0  0.00000000000E+00  0.00000000000E+00 -0.69974072376E+03  0.69974187626E+03  0.12699999809E+01 0.  1.
    10030    2    1    2    0    0  0.00000000000E+00  0.00000000000E+00  0.21944243501E+03  0.16189259124E+04  0.16039844536E+04 0.  0.
        4    1    3    3  502    0 -0.50277473470E+03 -0.10327889688E+02  0.74028141206E+03  0.89493423283E+03  0.12699999809E+01 0. -1.
       -4    1    3    3    0  502  0.50277473470E+03  0.10327889688E+02 -0.52083897705E+03  0.72399167956E+03  0.12699999809E+01 0.  1.
</event>
<event>
 5   0  0.9673017E-05  0.1602211E+04  0.7818609E-02  0.8819191E-01
        1   -1    0    0  501    0  0.00000000000E+00  0.00000000000E+00  0.13845237632E+04  0.13845237633E+04  0.50400001928E-02 0.  1.
       -1   -1    0    0    0  501  0.00000000000E+00  0.00000000000E+00 -0.46353133567E+03  0.46353133570E+03  0.50400001928E-02 0. -1.
    10030    2    1    2    0    0  0.00000000000E+00  0.00000000000E+00  0.92099242757E+03  0.18480550990E+04  0.16022111587E+04 0.  0.
        1    1    3    3  502    0  0.72608992415E+03 -0.32795290512E+03  0.36392036714E+03  0.87589823586E+03  0.50400001928E-02 0.  1.
       -1    1    3    3    0  502 -0.72608992415E+03  0.32795290512E+03  0.55707206043E+03  0.97215686310E+03  0.50400001928E-02 0. -1.
</event>
<event>
 5   0  0.9726935E-05  0.1593932E+04  0.7818609E-02  0.8824285E-01
       -1   -1    0    0    0  501  0.00000000000E+00  0.00000000000E+00  0.40338840465E+03  0.40338840468E+03  0.50400001928E-02 0. -1.
        1   -1    0    0  501    0  0.00000000000E+00  0.00000000000E+00 -0.15745488563E+04  0.15745488564E+04  0.50400001928E-02 0.  1.
    10030    2    1    2    0    0  0.00000000000E+00  0.00000000000E+00 -0.11711604517E+04  0.19779372610E+04  0.15939319323E+04 0.  0.
        2    1    3    3  502    0  0.53911351375E+03 -0.29383111443E+03  0.44940746147E+02  0.61562957628E+03  0.25500000920E-02 0. -1.
       -2    1    3    3    0  502 -0.53911351375E+03  0.29383111443E+03 -0.12161011978E+04  0.13623076847E+04  0.25500000920E-02 0.  1.
</event>
<event>
 5   0  0.1774934E-04  0.1607955E+04  0.7818609E-02  0.8815676E-01
        2   -1    0    0  501    0  0.00000000000E+00  0.00000000000E+00  0.16802871724E+04  0.16802871724E+04  0.25500000920E-02 0. -1.
       -2   -1    0    0    0  501  0.00000000000E+00  0.00000000000E+00 -0.38468393725E+03  0.38468393726E+03  0.25500000920E-02 0.  1.
    10030    2    1    2    0    0  0.00000000000E+00  0.00000000000E+00  0.12956032352E+04  0.20649711097E+04  0.16079545830E+04 0.  0.
        1    1    3    3  502    0  0.61202865743E+02  0.17058230347E+03 -0.35811041977E+03  0.40135668152E+03  0.50400001928E-02 0.  1.
       -1    1    3    3    0  502 -0.61202865743E+02 -0.17058230347E+03  0.16537136550E+04  0.16636144282E+04  0.50400001928E-02 0. -1.
</event>
<event>
 5   0  0.1774934E-04  0.1597485E+04  0.7818609E-02  0.8822094E-01
       -2   -1    0    0    0  501  0.00000000000E+00  0.00000000000E+00  0.65463097643E+03  0.65463097644E+03  0.25500000920E-02 0.  1.
        2   -1    0    0  501    0  0.00000000000E+00  0.00000000000E+00 -0.97457918549E+03  0.97457918550E+03  0.25500000920E-02 0. -1.
    10030    2    1    2    0    0  0.00000000000E+00  0.00000000000E+00 -0.31994820906E+03  0.16292101619E+04  0.15974851784E+04 0.  0.
        1    1    3    3  502    0  0.18221275322E+03 -0.18312407488E+03 -0.93079739334E+03  0.96598121188E+03  0.50400001928E-02 0. -1.
       -1    1    3    3    0  502 -0.18221275322E+03  0.18312407488E+03  0.61084918427E+03  0.66322895005E+03  0.50400001928E-02 0.  1.
</event>
<event>
 5   0  0.6838750E-05  0.1590562E+04  0.7818609E-02  0.8826367E-01
        3   -1    0    0  501    0  0.00000000000E+00  0.00000000000E+00  0.32394257940E+03  0.32394259514E+03  0.10100000352E+00 0. -1.
       -3   -1    0    0    0  501  0.00000000000E+00  0.00000000000E+00 -0.19524187891E+04  0.19524187917E+04  0.10100000352E+00 0.  1.
    10030    2    1    2    0    0  0.00000000000E+00  0.00000000000E+00 -0.16284762097E+04  0.22763613868E+04  0.15905616612E+04 0.  0.
        4    1    3    3  502    0 -0.48966087216E+03  0.52678750586E+03 -0.32848951368E+03  0.79068313474E+03  0.12699999809E+01 0. -1.
       -4    1    3    3    0  502  0.48966087216E+03 -0.52678750586E+03 -0.12999866960E+04  0.14856782521E+04  0.12699999809E+01 0.  1.
</event>
<event>
 5   0  0.9432152E-05  0.1598433E+04  0.7818609E-02  0.8821511E-01
       -1   -1    0    0    0  501  0.00000000000E+00  0.00000000000E+00  0.53199226055E+03  0.53199226057E+03  0.50400001928E-02 0.  1.
        1   -1    0    0  501    0  0.00000000000E+00  0.00000000000E+00 -0.12006702522E+04  0.12006702522E+04  0.50400001928E-02 0. -1.
    10030    2    1    2    0    0  0.00000000000E+00  0.00000000000E+00 -0.66867799165E+03  0.17326625128E+04  0.15984333351E+04 0.  0.
        4    1    3    3  502    0  0.85073824384E+02 -0.74009820218E+03 -0.64806097906E+03  0.98740445105E+03  0.12699999809E+01 0. -1.
       -4    1    3    3    0  502 -0.85073824384E+02  0.74009820218E+03 -0.20617012597E+02  0.74525806173E+03  0.12699999809E+01 0.  1.
</event>
<event>
 5   0  0.1835088E-04  0.1594038E+04  0.7818609E-02  0.8824219E-01
        2   -1    0    0  501    0  0.00000000000E+00  0.00000000000E+00  0.10041565278E+04  0.10041565278E+04  0.25500000920E-02 0.  1.
       -2   -1    0    0    0  501  0.00000000000E+00  0.00000000000E+00 -0.63260952524E+03  0.63260952524E+03  0.25500000920E-02 0. -1.
    10030    2    1    2    0    0  0.00000000000E+00  0.00000000000E+00  0.37154700261E+03  0.16367660531E+04  0.15940376211E+04 0.  0.
        5    1    3    3  502    0  0.75869547649E+03 -0.55201491128E+02 -0.58405134565E+02  0.76295431082E+03  0.46999998093E+01 0. -1.
       -5    1    3    3    0  502 -0.75869547649E+03  0.55201491128E+02  0.42995213718E+03  0.87381174227E+03  0.46999998093E+01 0.  1.
</event>
<event>
 5   0  0.9616567E-05  0.1599226E+04  0.7818609E-02  0.8821024E-01
       -1   -1    0    0    0  501  0.00000000000E+00  0.00000000000E+00  0.10660244185E+04  0.10660244185E+04  0.50400001928E-02 0. -1.
        1   -1    0    0  501    0  0.00000000000E+00  0.00000000000E+00 -0.59978094180E+03  0.59978094182E+03  0.50400001928E-02 0.  1.
    10030    2    1    2    0    0  0.00000000000E+00  0.00000000000E+00  0.46624347665E+03  0.16658053603E+04  0.15992262250E+04 0.  0.
        5    1    3    3  502    0  0.31399830260E+03  0.64466674184E+03  0.60164301409E+03  0.93604836866E+03  0.46999998093E+01 0. -1.
       -5    1    3    3    0  502 -0.31399830260E+03 -0.64466674184E+03 -0.13539953744E+03  0.72975699162E+03  0.46999998093E+01 0.  1.
</event>
<event>
 5   0  0.9726935E-05  0.1602972E+04  0.7818609E-02  0.8818724E-01
        1   -1    0    0  501    0  0.00000000000E+00  0.00000000000E+00  0.14973020529E+04  0.14973020530E+04  0.50400001928E-02 0.  1.
       -1   -1    0    0    0  501  0.00000000000E+00  0.00000000000E+00 -0.42902470104E+03  0.42902470107E+03  0.50400001928E-02 0. -1.
    10030    2    1    2    0    0  0.00000000000E+00  0.00000000000E+00  0.10682773519E+04  0.19263267540E+04  0.16029716974E+04 0.  0.
        2    1    3    3  502    0  0.84160198154E+02 -0.21675348035E+03 -0.38760230910E+03  0.45199619492E+03  0.25500000920E-02 0. -1.
       -2    1    3    3    0  502 -0.84160198154E+02  0.21675348035E+03  0.14558796610E+04  0.14743305591E+04  0.25500000920E-02 0.  1.
</event>
<event>
 5   0  0.1835088E-04  0.1598873E+04  0.7818609E-02  0.8821241E-01
       -2   -1    0    0    0  501  0.00000000000E+00  0.00000000000E+00  0.17836352539E+04  0.17836352539E+04  0.25500000920E-02 0. -1.
        2   -1    0    0  501    0  0.00000000000E+00  0.00000000000E+00 -0.35831237851E+03  0.35831237852E+03  0.25500000920E-02 0.  1.
    10030    2    1    2    0    0  0.00000000000E+00  0.00000000000E+00  0.14253228754E+04  0.21419476324E+04  0.15988728408E+04 0.  0.
        5    1    3    3  502    0  0.67936421644E+03 -0.40664287072E+03  0.86052468317E+03  0.11693669156E+04  0.46999998093E+01 0.  1.
       -5    1    3    3    0  502 -0.67936421644E+03  0.40664287072E+03  0.56479819224E+03  0.97258071688E+03  0.46999998093E+01 0. -1.
</event>
<event>
 5   0  0.1774934E-04  0.1598739E+04  0.7818609E-02  0.8821323E-01
        2   -1    0    0  501    0  0.00000000000E+00  0.00000000000E+00  0.86594680635E+03  0.86594680635E+03  0.25500000920E-02 0. -1.
       -2   -1    0    0    0  501  0.00000000000E+00  0.00000000000E+00 -0.73791071436E+03  0.73791071437E+03  0.25500000920E-02 0.  1.
    10030    2    1    2    0    0  0.00000000000E+00  0.00000000000E+00  0.12803609198E+03  0.16038575207E+04  0.15987387860E+04 0.  0.
        1    1    3    3  502    0  0.67618984409E+03  0.51319264258E+02 -0.36056870807E+03  0.76803396110E+03  0.50400001928E-02 0.  1.
       -1    1    3    3    0  502 -0.67618984409E+03 -0.51319264258E+02  0.48860480006E+03  0.83582355961E+03  0.50400001928E-02 0. -1.
</event>
<event>
 5   0  0.9726935E-05  0.1598372E+04  0.7818609E-02  0.8821549E-01
       -1   -1    0    0    0  501  0.00000000000E+00  0.00000000000E+00  0.42415542906E+03  0.42415542909E+03  0.50400001928E-02 0. -1.
        1   -1    0    0  501    0  0.00000000000E+00  0.00000000000E+00 -0.15058110936E+04  0.15058110936E+04  0.50400001928E-02 0.  1.
    10030    2    1    2    0    0  0.00000000000E+00  0.00000000000E+00 -0.10816556646E+04  0.19299665227E+04  0.15983716095E+04 0.  0.
        2    1    3    3  502    0 -0.25500719044E+03 -0.70781202504E+03 -0.21532569562E+03  0.78255458926E+03  0.25500000920E-02 0. -1.
       -2    1    3    3    0  502  0.25500719044E+03  0.70781202504E+03 -0.86632996896E+03  0.11474119335E+04  0.25500000920E-02 0.  1.
</event>
<event>
 5   0  0.9616567E-05  0.1593163E+04  0.7818609E-02  0.8824759E-01
        1   -1    0    0  501    0  0.00000000000E+00  0.00000000000E+00  0.11614921240E+04  0.11614921240E+04  0.50400001928E-02 0. -1.
       -1   -1    0    0    0  501  0.00000000000E+00  0.00000000000E+00 -0.54631654554E+03  0.54631654556E+03  0.50400001928E-02 0.  1.
    10030    2    1    2    0    0  0.00000000000E+00  0.00000000000E+00  0.61517557847E+03  0.17078086696E+04  0.15931633499E+04 0.  0.
        5    1    3    3  502    0  0.42714444678E+03 -0.67224983270E+03  0.29454422783E+03  0.84920586911E+03  0.46999998093E+01 0. -1.
       -5    1    3    3    0  502 -0.42714444678E+03  0.67224983270E+03  0.32063135065E+03  0.85860280048E+03  0.46999998093E+01 0.  1.
</event>
<event>
 5   0  0.9939872E-05  0.1599748E+04  0.7818609E-02  0.8820703E-01
        1   -1    0    0  501    0  0.00000000000E+00  0.00000000000E+00  0.94068597729E+03  0.94068597731E+03  0.50400001928E-02 0.  1.
       -1   -1    0    0    0  501  0.00000000000E+00  0.00000000000E+00 -0.68013993447E+03  0.68013993449E+03  0.50400001928E-02 0. -1.
    10030    2    1    2    0    0  0.00000000000E+00  0.00000000000E+00  0.26054604283E+03  0.16208259118E+04  0.15997476038E+04 0.  0.
        3    1    3    3  502    0 -0.69983120883E+03 -0.22213125563E+03  0.45177418134E+03  0.86209392569E+03  0.10100000352E+00 0.  1.
       -3    1    3    3    0  502  0.69983120883E+03  0.22213125563E+03 -0.19122813851E+03  0.75873198611E+03  0.10100000352E+00 0. -1.
</event>
<event>
 5   0  0.9939872E-05  0.1598447E+04  0.7818609E-02  0.8821503E-01
       -1   -1    0    0    0  501  0.00000000000E+00  0.00000000000E+00  0.59578694968E+03  0.59578694970E+03  0.50400001928E-02 0.  1.
        1   -1    0    0  501    0  0.00000000000E+00  0.00000000000E+00 -0.10721246372E+04  0.10721246372E+04  0.50400001928E-02 0. -1.
    10030    2    1    2    0    0  0.00000000000E+00  0.00000000000E+00 -0.47633768752E+03  0.16679115869E+04  0.15984465800E+04 0.  0.
        3    1    3    3  502    0 -0.41375384695E+03  0.39041556251E+03 -0.82393942944E+03  0.10012455997E+04  0.10100000352E+00 0. -1.
       -3    1    3    3    0  502  0.41375384695E+03 -0.39041556251E+03  0.34760174192E+03  0.66666598722E+03  0.10100000352E+00 0.  1.
</event>
<event>
 5   0  0.9616567E-05  0.1623598E+04  0.7818609E-02  0.8806181E-01
       -1   -1    0    0    0  501  0.00000000000E+00  0.00000000000E+00  0.75901006249E+03  0.75901006250E+03  0.50400001928E-02 0. -1.
        1   -1    0    0  501    0  0.00000000000E+00  0.00000000000E+00 -0.86825897502E+03  0.86825897504E+03  0.50400001928E-02 0.  1.
    10030    2    1    2    0    0  0.00000000000E+00  0.00000000000E+00 -0.10924891254E+03  0.16272690375E+04  0.16235976089E+04 0.  0.
        5    1    3    3  502    0  0.78258511561E+03 -0.13327608439E+03 -0.22469384835E+03  0.82505235793E+03  0.46999998093E+01 0.  1.
       -5    1    3    3    0  502 -0.78258511561E+03  0.13327608439E+03  0.11544493582E+03  0.80221667961E+03  0.46999998093E+01 0. -1.
</event>
<event>
 5   0  0.9432152E-05  0.1580803E+04  0.7818609E-02  0.8832429E-01
       -1   -1    0    0    0  501  0.00000000000E+00  0.00000000000E+00  0.49431810376E+03  0.49431810379E+03  0.50400001928E-02 0. -1.
        1   -1    0    0  501    0  0.00000000000E+00  0.00000000000E+00 -0.12638314566E+04  0.12638314566E+04  0.50400001928E-02 0.  1.
    10030    2    1    2    0    0  0.00000000000E+00  0.00000000000E+00 -0.76951335284E+03  0.17581495604E+04  0.15808033010E+04 0.  0.
        4    1    3    3  502    0 -0.23584772715E+03 -0.63845894487E+03 -0.83168332627E+03  0.10746872767E+04  0.12699999809E+01 0.  1.
       -4    1    3    3    0  502  0.23584772715E+03  0.63845894487E+03  0.62169973424E+02  0.68346228366E+03  0.12699999809E+01 0. -1.
</event>
<event>
 5   0  0.9616567E-05  0.1594938E+04  0.7818609E-02  0.8823664E-01
        1   -1    0    0  501    0  0.00000000000E+00  0.00000000000E+00  0.56183062192E+03  0.56183062194E+03  0.50400001928E-02 0.  1.
       -1   -1    0    0    0  501  0.00000000000E+00  0.00000000000E+00 -0.11319362738E+04  0.11319362738E+04  0.50400001928E-02 0. -1.
    10030    2    1    2    0    0  0.00000000000E+00  0.00000000000E+00 -0.57010565186E+03  0.16937668957E+04  0.15949375671E+04 0.  0.
        5    1    3    3  502    0  0.49957098927E+03  0.11055945909E+03  0.36451859601E+03  0.62824395274E+03  0.46999998093E+01 0.  1.
       -5    1    3    3    0  502 -0.49957098927E+03 -0.11055945909E+03 -0.93462424788E+03  0.10655229430E+04  0.46999998093E+01 0. -1.
</event>
<event>
 5   0  0.1858913E-04  0.1589392E+04  0.7818609E-02  0.8827092E-01
        2   -1    0    0  501    0  0.00000000000E+00  0.00000000000E+00  0.89384057497E+03  0.89384057498E+03  0.25500000920E-02 0. -1.
       -2   -1    0    0    0  501  0.00000000000E+00  0.00000000000E+00 -0.70654829967E+03  0.70654829967E+03  0.25500000920E-02 0.  1.
    10030    2    1    2    0    0  0.00000000000E+00  0.00000000000E+00  0.18729227531E+03  0.16003888746E+04  0.15893917559E+04 0.  0.
        4    1    3    3  502    0  0.18361906781E+03 -0.23773876246E+03 -0.64717827232E+03  0.71349632817E+03  0.12699999809E+01 0.  1.
       -4    1    3    3    0  502 -0.18361906781E+03  0.23773876246E+03  0.83447054763E+03  0.88689254648E+03  0.12699999809E+01 0. -1.
</event>
<event>
 5   0  0.9939872E-05  0.1594351E+04  0.7818609E-02  0.8824026E-01
       -1   -1    0    0    0  501  0.00000000000E+00  0.00000000000E+00  0.45402203201E+03  0.45402203204E+03  0.50400001928E-02 0.  1.
        1   -1    0    0  501    0  0.00000000000E+00  0.00000000000E+00 -0.13996863602E+04  0.13996863602E+04  0.50400001928E-02 0. -1.
    10030    2    1    2    0    0  0.00000000000E+00  0.00000000000E+00 -0.94566432819E+03  0.18537083922E+04  0.15943505831E+04 0.  0.
        3    1    3    3  502    0 -0.25850821579E+03  0.67290765939E+03 -0.77083787472E+02  0.72496423097E+03  0.10100000352E+00 0.  1.
       -3    1    3    3    0  502  0.25850821579E+03 -0.67290765939E+03 -0.86858054072E+03  0.11287441613E+04  0.10100000352E+00 0. -1.
</event>
<event>
 5   0  0.1914170E-04  0.1594595E+04  0.7818609E-02  0.8823876E-01
        2   -1    0    0  501    0  0.00000000000E+00  0.00000000000E+00  0.17868375986E+04  0.17868375986E+04  0.25500000920E-02 0. -1.
       -2   -1    0    0    0  501  0.00000000000E+00  0.00000000000E+00 -0.35575876329E+03  0.35575876330E+03  0.25500000920E-02 0.  1.
    10030    2    1    2    0    0  0.00000000000E+00  0.00000000000E+00  0.14310788353E+04  0.21425963619E+04  0.15945947877E+04 0.  0.
        3    1    3    3  502    0 -0.14485952963E+03 -0.54515456206E+02  0.17664573780E+04  0.17732252809E+04  0.10100000352E+00 0. -1.
       -3    1    3    3    0  502  0.14485952963E+03  0.54515456206E+02 -0.33537854276E+03  0.36937108094E+03  0.10100000352E+00 0.  1.
</event>
<event>
 5   0  0.1914170E-04  0.1597680E+04  0.7818609E-02  0.8821974E-01
       -2   -1    0    0    0  501  0.00000000000E+00  0.00000000000E+00  0.27191736300E+03  0.27191736301E+03  0.25500000920E-02 0.  1.
        2   -1    0    0  501    0  0.00000000000E+00  0.00000000000E+00 -0.23468359925E+04  0.23468359925E+04  0.25500000920E-02 0. -1.
    10030    2    1    2    0    0  0.00000000000E+00  0.00000000000E+00 -0.20749186295E+04  0.26187533555E+04  0.15976801363E+04 0.  0.
        3    1    3    3  502    0  0.24071702376E+03  0.57049374754E+03 -0.21018160284E+03  0.65389916491E+03  0.10100000352E+00 0.  1.
       -3    1    3    3    0  502 -0.24071702376E+03 -0.57049374754E+03 -0.18647370267E+04  0.19648541906E+04  0.10100000352E+00 0. -1.
</event>
<event>
 5   0  0.6838750E-05  0.1602942E+04  0.7818609E-02  0.8818743E-01
       -4   -1    0    0    0  501  0.00000000000E+00  0.00000000000E+00  0.97603442768E+03  0.97603525393E+03  0.12699999809E+01 0. -1.
        4   -1    0    0  501    0  0.00000000000E+00  0.00000000000E+00 -0.65812632937E+03  0.65812755474E+03  0.12699999809E+01 0.  1.
    10030    2    1    2    0    0  0.00000000000E+00  0.00000000000E+00  0.31790809830E+03  0.16341628087E+04  0.16029418350E+04 0.  0.
        1    1    3    3  502    0 -0.10409884562E+01  0.45152148070E+03 -0.51612384898E+03  0.68575254918E+03  0.50400001928E-02 0.  1.
       -1    1    3    3    0  502  0.10409884562E+01 -0.45152148070E+03  0.83403194729E+03  0.94841025949E+03  0.50400001928E-02 0. -1.
</event>
<event>
 5   0  0.1835088E-04  0.1599351E+04  0.7818609E-02  0.8820947E-01
        2   -1    0    0  501    0  0.00000000000E+00  0.00000000000E+00  0.13193664121E+04  0.13193664121E+04  0.25500000920E-02 0. -1.
       -2   -1    0    0    0  501  0.00000000000E+00  0.00000000000E+00 -0.48468777080E+03  0.48468777081E+03  0.25500000920E-02 0.  1.
    10030    2    1    2    0    0  0.00000000000E+00  0.00000000000E+00  0.83467864128E+03  0.18040541829E+04  0.15993508247E+04 0.  0.
        5    1    3    3  502    0  0.60449196759E+03 -0.47547098352E+03  0.17027188758E+03  0.78771682777E+03  0.46999998093E+01 0.  1.
       -5    1    3    3    0  502 -0.60449196759E+03  0.47547098352E+03  0.66440675370E+03  0.10163373551E+04  0.46999998093E+01 0. -1.
</event>
<event>
 5   0  0.9616567E-05  0.1601422E+04  0.7818609E-02  0.8819675E-01
        1   -1    0    0  501    0  0.00000000000E+00  0.00000000000E+00  0.77678555182E+03  0.77678555184E+03  0.50400001928E-02 0. -1.
       -1   -1    0    0    0  501  0.00000000000E+00  0.00000000000E+00 -0.82537302352E+03  0.82537302353E+03  0.50400001928E-02 0.  1.
    10030    2    1    2    0    0  0.00000000000E+00  0.00000000000E+00 -0.48587471693E+02  0.16021585754E+04  0.16014216678E+04 0.  0.
        5    1    3    3  502    0  0.21714959720E+03 -0.72058092791E+02 -0.79195994733E+03  0.82435973002E+03  0.46999998093E+01 0.  1.
       -5    1    3    3    0  502 -0.21714959720E+03  0.72058092791E+02  0.74337247564E+03  0.77779884535E+03  0.46999998093E+01 0. -1.
</event>
<event>
 5   0  0.9726935E-05  0.1602446E+04  0.7818609E-02  0.8819047E-01
       -1   -1    0    0    0  501  0.00000000000E+00  0.00000000000E+00  0.80733923245E+03  0.80733923247E+03  0.50400001928E-02 0. -1.
        1   -1    0    0  501    0  0.00000000000E+00  0.00000000000E+00 -0.79515269869E+03  0.79515269871E+03  0.50400001928E-02 0.  1.
    10030    2    1    2    0    0  0.00000000000E+00  0.00000000000E+00  0.12186533759E+02  0.16024919312E+04  0.16024455928E+04 0.  0.
        2    1    3    3  502    0 -0.61962542700E+03 -0.16079067393E+03  0.48794603114E+03  0.80491033036E+03  0.25500000920E-02 0. -1.
       -2    1    3    3    0  502  0.61962542700E+03  0.16079067393E+03 -0.47575949738E+03  0.79758160082E+03  0.25500000920E-02 0.  1.
</event>
<event>
 5   0  0.1835088E-04  0.1598310E+04  0.7818609E-02  0.8821587E-01
        2   -1    0    0  501    0  0.00000000000E+00  0.00000000000E+00  0.86951728212E+03  0.86951728213E+03  0.25500000920E-02 0. -1.
       -2   -1    0    0    0  501  0.00000000000E+00  0.00000000000E+00 -0.73448650817E+03  0.73448650818E+03  0.25500000920E-02 0.  1.
    10030    2    1    2    0    0  0.00000000000E+00  0.00000000000E+00  0.13503077395E+03  0.16040037903E+04  0.15983099979E+04 0.  0.
        5    1    3    3  502    0  0.64574530539E+03  0.32375896700E+03  0.41052201975E+03  0.83087741987E+03  0.46999998093E+01 0. -1.
       -5    1    3    3    0  502 -0.64574530539E+03 -0.32375896700E+03 -0.27549124580E+03  0.77312637044E+03  0.46999998093E+01 0.  1.
</event>
<event>
 5   0  0.1774934E-04  0.1610799E+04  0.7818609E-02  0.8813941E-01
       -2   -1    0    0    0  501  0.00000000000E+00  0.00000000000E+00  0.57985904710E+03  0.57985904711E+03  0.25500000920E-02 0.  1.
        2   -1    0    0  501    0  0.00000000000E+00  0.00000000000E+00 -0.11186648914E+04  0.11186648914E+04  0.25500000920E-02 0. -1.
    10030    2    1    2    0    0  0.00000000000E+00  0.00000000000E+00 -0.53880584431E+03  0.16985239385E+04  0.16107985075E+04 0.  0.
        1    1    3    3  502    0  0.80113717631E+03  0.67374356329E+02 -0.21874621554E+03  0.83319264639E+03  0.50400001928E-02 0. -1.
       -1    1    3    3    0  502 -0.80113717631E+03 -0.67374356329E+02 -0.32005962877E+03  0.86533129214E+03  0.50400001928E-02 0.  1.
</event>
<event>
 5   0  0.9726935E-05  0.1620840E+04  0.7818609E-02  0.8807847E-01
       -1   -1    0    0    0  501  0.00000000000E+00  0.00000000000E+00  0.76707553873E+03  0.76707553874E+03  0.50400001928E-02 0. -1.
        1   -1    0    0  501    0  0.00000000000E+00  0.00000000000E+00 -0.85621369227E+03  0.85621369228E+03  0.50400001928E-02 0.  1.
    10030    2    1    2    0    0  0.00000000000E+00  0.00000000000E+00 -0.89138153538E+02  0.16232892310E+04  0.16208400036E+04 0.  0.
        2    1    3    3  502    0  0.57732502818E+02 -0.76301279140E+03 -0.31191629889E+03  0.82632520187E+03  0.25500000920E-02 0.  1.
       -2    1    3    3    0  502 -0.57732502818E+02  0.76301279140E+03  0.22277814535E+03  0.79696402916E+03  0.25500000920E-02 0. -1.
</event>
<event>
 5   0  0.1774934E-04  0.1607587E+04  0.7818609E-02  0.8815901E-01
        2   -1    0    0  501    0  0.00000000000E+00  0.00000000000E+00  0.12785952510E+04  0.12785952510E+04  0.25500000920E-02 0.  1.
       -2   -1    0    0    0  501  0.00000000000E+00  0.00000000000E+00 -0.50530758650E+03  0.50530758650E+03  0.25500000920E-02 0. -1.
    10030    2    1    2    0    0  0.00000000000E+00  0.00000000000E+00  0.77328766449E+03  0.17839028375E+04  0.16075868628E+04 0.  0.
        1    1    3    3  502    0  0.48179529689E+02  0.16115844257E+03 -0.48555878420E+03  0.51386831351E+03  0.50400001928E-02 0. -1.
       -1    1    3    3    0  502 -0.48179529689E+02 -0.16115844257E+03  0.12588464487E+04  0.12700345240E+04  0.50400001928E-02 0.  1.
</event>
<event>
 5   0  0.9432152E-05  0.1597680E+04  0.7818609E-02  0.8821975E-01
        1   -1    0    0  501    0  0.00000000000E+00  0.00000000000E+00  0.32717776404E+03  0.32717776407E+03  0.50400001928E-02 0.  1.
       -1   -1    0    0    0  501  0.00000000000E+00  0.00000000000E+00 -0.19504537448E+04  0.19504537448E+04  0.50400001928E-02 0. -1.
    10030    2    1    2    0    0  0.00000000000E+00  0.00000000000E+00 -0.16232759808E+04  0.22776315089E+04  0.15976796865E+04 0.  0.
        4    1    3    3  502    0  0.16928978671E+03 -0.66184906675E+03 -0.14019072429E+04  0.15595027251E+04  0.12699999809E+01 0. -1.
       -4    1    3    3    0  502 -0.16928978671E+03  0.66184906675E+03 -0.22136873785E+03  0.71812878375E+03  0.12699999809E+01 0.  1.
</event>
<event>
 5   0  0.1914170E-04  0.1600250E+04  0.7818609E-02  0.8820395E-01
       -2   -1    0    0    0  501  0.00000000000E+00  0.00000000000E+00  0.19209801431E+04  0.19209801431E+04  0.25500000920E-02 0.  1.
        2   -1    0    0  501    0  0.00000000000E+00  0.00000000000E+00 -0.33326719620E+03  0.33326719621E+03  0.25500000920E-02 0. -1.
    10030    2    1    2    0    0  0.00000000000E+00  0.00000000000E+00  0.15877129469E+04  0.22542473393E+04  0.16002495634E+04 0.  0.
        3    1    3    3  502    0  0.21384053552E+03  0.57359289782E+03  0.15196547020E+04  0.16383183483E+04  0.10100000352E+00 0. -1.
       -3    1    3    3    0  502 -0.21384053552E+03 -0.57359289782E+03  0.68058244968E+02  0.61592899101E+03  0.10100000352E+00 0.  1.
</event>
<event>
 5   0  0.9432152E-05  0.1597156E+04  0.7818609E-02  0.8822297E-01
       -1   -1    0    0    0  501  0.00000000000E+00  0.00000000000E+00  0.13248364333E+04  0.13248364333E+04  0.50400001928E-02 0. -1.
        1   -1    0    0  501    0  0.00000000000E+00  0.00000000000E+00 -0.48136246332E+03  0.48136246335E+03  0.50400001928E-02 0.  1.
    10030    2    1    2    0    0  0.00000000000E+00  0.00000000000E+00  0.84347397001E+03  0.18061988967E+04  0.15971556331E+04 0.  0.
        4    1    3    3  502    0 -0.57203745806E+02 -0.33825623123E+03 -0.39378331586E+03  0.52226091109E+03  0.12699999809E+01 0.  1.
       -4    1    3    3    0  502  0.57203745806E+02  0.33825623123E+03  0.12372572859E+04  0.12839379856E+04  0.12699999809E+01 0. -1.
</event>
<event>
 5   0  0.1914170E-04  0.1549275E+04  0.7818609E-02  0.8852331E-01
        2   -1    0    0  501    0  0.00000000000E+00  0.00000000000E+00  0.13416823628E+04  0.13416823628E+04  0.25500000920E-02 0. -1.
       -2   -1    0    0    0  501  0.00000000000E+00  0.00000000000E+00 -0.44724698821E+03  0.44724698822E+03  0.25500000920E-02 0.  1.
    10030    2    1    2    0    0  0.00000000000E+00  0.00000000000E+00  0.89443537458E+03  0.17889293510E+04  0.15492751801E+04 0.  0.
        3    1    3    3  502    0  0.22160578396E+03 -0.20597434757E+03  0.12706395923E+04  0.13061621411E+04  0.10100000352E+00 0. -1.
       -3    1    3    3    0  502 -0.22160578396E+03  0.20597434757E+03 -0.37620421767E+03  0.48276720988E+03  0.10100000352E+00 0.  1.
</event>
<event>
 5   0  0.1858913E-04  0.1597441E+04  0.7818609E-02  0.8822121E-01
        2   -1    0    0  501    0  0.00000000000E+00  0.00000000000E+00  0.20786807637E+04  0.20786807637E+04  0.25500000920E-02 0.  1.
       -2   -1    0    0    0  501  0.00000000000E+00  0.00000000000E+00 -0.30690369579E+03  0.30690369580E+03  0.25500000920E-02 0. -1.
    10030    2    1    2    0    0  0.00000000000E+00  0.00000000000E+00  0.17717770679E+04  0.23855844595E+04  0.15974414653E+04 0.  0.
        4    1    3    3  502    0  0.40155747034E+03  0.10393829936E+03  0.19052235790E+04  0.19498538589E+04  0.12699999809E+01 0.  1.
       -4    1    3    3    0  502 -0.40155747034E+03 -0.10393829936E+03 -0.13344651112E+03  0.43573060059E+03  0.12699999809E+01 0. -1.
</event>
<event>
 5   0  0.1832646E-04  0.1599559E+04  0.7818609E-02  0.8820819E-01
       -2   -1    0    0    0  501  0.00000000000E+00  0.00000000000E+00  0.74118913996E+03  0.74118913997E+03  0.25500000920E-02 0.  1.
        2   -1    0    0  501    0  0.00000000000E+00  0.00000000000E+00 -0.86300178895E+03  0.86300178895E+03  0.25500000920E-02 0. -1.
    10030    2    1    2    0    0  0.00000000000E+00  0.00000000000E+00 -0.12181264899E+03  0.16041909289E+04  0.15995593815E+04 0.  0.
        2    1    3    3  502    0 -0.68607216681E+03  0.38180587939E+03 -0.21358644110E+03  0.81368907786E+03  0.25500000920E-02 0. -1.
       -2    1    3    3    0  502  0.68607216681E+03 -0.38180587939E+03  0.91773792114E+02  0.79050185106E+03  0.25500000920E-02 0.  1.
</event>
<event>
 5   0  0.1832646E-04  0.1605784E+04  0.7818609E-02  0.8817002E-01
        2   -1    0    0  501    0  0.00000000000E+00  0.00000000000E+00  0.18797719558E+04  0.18797719558E+04  0.25500000920E-02 0. -1.
       -2   -1    0    0    0  501  0.00000000000E+00  0.00000000000E+00 -0.34293290661E+03  0.34293290662E+03  0.25500000920E-02 0.  1.
    10030    2    1    2    0    0  0.00000000000E+00  0.00000000000E+00  0.15368390492E+04  0.22227048624E+04  0.16057841207E+04 0.  0.
        2    1    3    3  502    0 -0.10497633804E+03 -0.18594877009E+03 -0.30290753612E+03  0.37060754456E+03  0.25500000920E-02 0.  1.
       -2    1    3    3    0  502  0.10497633804E+03  0.18594877009E+03  0.18397465853E+04  0.18520973178E+04  0.25500000920E-02 0. -1.
</event>
<event>
 5   0  0.9432152E-05  0.1601989E+04  0.7818609E-02  0.8819327E-01
        1   -1    0    0  501    0  0.00000000000E+00  0.00000000000E+00  0.11565211147E+04  0.11565211147E+04  0.50400001928E-02 0.  1.
       -1   -1    0    0    0  501  0.00000000000E+00  0.00000000000E+00 -0.55476061409E+03  0.55476061412E+03  0.50400001928E-02 0. -1.
    10030    2    1    2    0    0  0.00000000000E+00  0.00000000000E+00  0.60176050064E+03  0.17112817289E+04  0.16019892183E+04 0.  0.
        4    1    3    3  502    0  0.68286095034E+03  0.10472103561E+02 -0.14622181422E+03  0.69842048531E+03  0.12699999809E+01 0. -1.
       -4    1    3    3    0  502 -0.68286095034E+03 -0.10472103561E+02  0.74798231486E+03  0.10128612436E+04  0.12699999809E+01 0.  1.
</event>
<event>
 5   0  0.1832646E-04  0.1593255E+04  0.7818609E-02  0.8824703E-01
       -2   -1    0    0    0  501  0.00000000000E+00  0.00000000000E+00  0.32626921387E+03  0.32626921388E+03  0.25500000920E-02 0. -1.
        2   -1    0    0  501    0  0.00000000000E+00  0.00000000000E+00 -0.19450657515E+04  0.19450657515E+04  0.25500000920E-02 0.  1.
    10030    2    1    2    0    0  0.00000000000E+00  0.00000000000E+00 -0.16187965376E+04  0.22713349654E+04  0.15932546233E+04 0.  0.
        2    1    3    3  502    0  0.49760750399E+03 -0.43998919294E+03 -0.18244238312E+03  0.68883157673E+03  0.25500000920E-02 0. -1.
       -2    1    3    3    0  502 -0.49760750399E+03  0.43998919294E+03 -0.14363541545E+04  0.15825033887E+04  0.25500000920E-02 0.  1.
</event>
<event>
 5   0  0.1835088E-04  0.1624016E+04  0.7818609E-02  0.8805928E-01
        2   -1    0    0  501    0  0.00000000000E+00  0.00000000000E+00  0.10302403965E+04  0.10302403965E+04  0.25500000920E-02 0.  1.
       -2   -1    0    0    0  501  0.00000000000E+00  0.00000000000E+00 -0.64000299906E+03  0.64000299906E+03  0.25500000920E-02 0. -1.
    10030    2    1    2    0    0  0.00000000000E+00  0.00000000000E+00  0.39023739748E+03  0.16702433956E+04  0.16240159402E+04 0.  0.
        5    1    3    3  502    0  0.15366652103E+03  0.58208577873E+03 -0.36527445254E+03  0.70419086131E+03  0.46999998093E+01 0. -1.
       -5    1    3    3    0  502 -0.15366652103E+03 -0.58208577873E+03  0.75551185002E+03  0.96605253428E+03  0.46999998093E+01 0.  1.
</event>
<event>
 5   0  0.1835088E-04  0.1600571E+04  0.7818609E-02  0.8820198E-01
       -2   -1    0    0    0  501  0.00000000000E+00  0.00000000000E+00  0.49837034828E+03  0.49837034829E+03  0.25500000920E-02 0. -1.
        2   -1    0    0  501    0  0.00000000000E+00  0.00000000000E+00 -0.12851016400E+04  0.12851016400E+04  0.25500000920E-02 0.  1.
    10030    2    1    2    0    0  0.00000000000E+00  0.00000000000E+00 -0.78673129169E+03  0.17834719883E+04  0.16005705881E+04 0.  0.
        5    1    3    3  502    0 -0.63511287723E+03  0.42522871456E+03 -0.65763069879E+03  0.10083095023E+04  0.46999998093E+01 0.  1.
       -5    1    3    3    0  502  0.63511287723E+03 -0.42522871456E+03 -0.12910059291E+03  0.77516248593E+03  0.46999998093E+01 0. -1.
</event>
<event>
 5   0  0.1914170E-04  0.1601742E+04  0.7818609E-02  0.8819478E-01
       -2   -1    0    0    0  501  0.00000000000E+00  0.00000000000E+00  0.70163386200E+03  0.70163386201E+03  0.25500000920E-02 0.  1.
        2   -1    0    0  501    0  0.00000000000E+00  0.00000000000E+00 -0.91414451966E+03  0.91414451966E+03  0.25500000920E-02 0. -1.
    10030    2    1    2    0    0  0.00000000000E+00  0.00000000000E+00 -0.21251065766E+03  0.16157783817E+04  0.16017424884E+04 0.  0.
        3    1    3    3  502    0 -0.34214144406E+03 -0.71442681832E+03  0.12797041261E+02  0.79223116635E+03  0.10100000352E+00 0.  1.
       -3    1    3    3    0  502  0.34214144406E+03  0.71442681832E+03 -0.22530769892E+03  0.82354721532E+03  0.10100000352E+00 0. -1.
</event>
<event>
 5   0  0.9616567E-05  0.1605749E+04  0.7818609E-02  0.8817024E-01
       -1   -1    0    0    0  501  0.00000000000E+00  0.00000000000E+00  0.82065331265E+03  0.82065331267E+03  0.50400001928E-02 0. -1.
        1   -1    0    0  501    0  0.00000000000E+00  0.00000000000E+00 -0.78548114977E+03  0.78548114978E+03  0.50400001928E-02 0.  1.
    10030    2    1    2    0    0  0.00000000000E+00  0.00000000000E+00  0.35172162883E+02  0.16061344625E+04  0.16057493050E+04 0.  0.
        5    1    3    3  502    0  0.95764395211E+02 -0.78784541698E+03  0.13891809224E+03  0.80572423744E+03  0.46999998093E+01 0. -1.
       -5    1    3    3    0  502 -0.95764395211E+02  0.78784541698E+03 -0.10374592935E+03  0.80041022501E+03  0.46999998093E+01 0.  1.
</event>
<event>
 5   0  0.9673017E-05  0.1599177E+04  0.7818609E-02  0.8821054E-01
        1   -1    0    0  501    0  0.00000000000E+00  0.00000000000E+00  0.12968140462E+04  0.12968140462E+04  0.50400001928E-02 0. -1.
       -1   -1    0    0    0  501  0.00000000000E+00  0.00000000000E+00 -0.49300974191E+03  0.49300974194E+03  0.50400001928E-02 0.  1.
    10030    2    1    2    0    0  0.00000000000E+00  0.00000000000E+00  0.80380430431E+03  0.17898237882E+04  0.15991772363E+04 0.  0.
        1    1    3    3  502    0 -0.17330864578E+03  0.77709615378E+03  0.48435756430E+03  0.93194236359E+03  0.50400001928E-02 0.  1.
       -1    1    3    3    0  502  0.17330864578E+03 -0.77709615378E+03  0.31944674001E+03  0.85788142459E+03  0.50400001928E-02 0. -1.
</event>
<event>
 5   0  0.1914170E-04  0.1601807E+04  0.7818609E-02  0.8819439E-01
        2   -1    0    0  501    0  0.00000000000E+00  0.00000000000E+00  0.63171514421E+03  0.63171514422E+03  0.25500000920E-02 0.  1.
       -2   -1    0    0    0  501  0.00000000000E+00  0.00000000000E+00 -0.10154042349E+04  0.10154042349E+04  0.25500000920E-02 0. -1.
    10030    2    1    2    0    0  0.00000000000E+00  0.00000000000E+00 -0.38368909068E+03  0.16471193791E+04  0.16018067707E+04 0.  0.
        3    1    3    3  502    0 -0.27841632645E+03  0.62487880303E+03  0.23641882829E+03  0.72379765258E+03  0.10100000352E+00 0.  1.
       -3    1    3    3    0  502  0.27841632645E+03 -0.62487880303E+03 -0.62010791897E+03  0.92332172653E+03  0.10100000352E+00 0. -1.
</event>
<event>
 5   0  0.9726935E-05  0.1604762E+04  0.7818609E-02  0.8817628E-01
       -1   -1    0    0    0  501  0.00000000000E+00  0.00000000000E+00  0.15784348118E+04  0.15784348118E+04  0.50400001928E-02 0.  1.
        1   -1    0    0  501    0  0.00000000000E+00  0.00000000000E+00 -0.40788202989E+03  0.40788202992E+03  0.50400001928E-02 0. -1.
    10030    2    1    2    0    0  0.00000000000E+00  0.00000000000E+00  0.11705527819E+04  0.19863168417E+04  0.16047619077E+04 0.  0.
        2    1    3    3  502    0  0.12801855331E+03  0.78729259400E+03  0.47739321143E+03  0.92958197965E+03  0.25500000920E-02 0. -1.
       -2    1    3    3    0  502 -0.12801855331E+03 -0.78729259400E+03  0.69315957047E+03  0.10567348621E+04  0.25500000920E-02 0.  1.
</event>
<event>
 5   0  0.1858913E-04  0.1598090E+04  0.7818609E-02  0.8821722E-01
        2   -1    0    0  501    0  0.00000000000E+00  0.00000000000E+00  0.19904659158E+04  0.19904659158E+04  0.25500000920E-02 0.  1.
       -2   -1    0    0    0  501  0.00000000000E+00  0.00000000000E+00 -0.32076575459E+03  0.32076575460E+03  0.25500000920E-02 0. -1.
    10030    2    1    2    0    0  0.00000000000E+00  0.00000000000E+00  0.16697001612E+04  0.23112316704E+04  0.15980904874E+04 0.  0.
        4    1    3    3  502    0  0.65950270706E+03 -0.45109969428E+03  0.82606078814E+03  0.11492661978E+04  0.12699999809E+01 0. -1.
       -4    1    3    3    0  502 -0.65950270706E+03  0.45109969428E+03  0.84363937304E+03  0.11619654726E+04  0.12699999809E+01 0.  1.
</event>
<event>
 5   0  0.6838750E-05  0.1604016E+04  0.7818609E-02  0.8818084E-01
       -3   -1    0    0    0  501  0.00000000000E+00  0.00000000000E+00  0.10978538520E+04  0.10978538567E+04  0.10100000352E+00 0.  1.
        3   -1    0    0  501    0  0.00000000000E+00  0.00000000000E+00 -0.58588599786E+03  0.58588600657E+03  0.10100000352E+00 0. -1.
    10030    2    1    2    0    0  0.00000000000E+00  0.00000000000E+00  0.51196785416E+03  0.16837398632E+04  0.16040164723E+04 0.  0.
        5    1    3    3  502    0  0.74465833451E+03  0.29689258791E+03  0.28023811555E+03  0.84924480294E+03  0.46999998093E+01 0. -1.
       -5    1    3    3    0  502 -0.74465833451E+03 -0.29689258791E+03  0.23172973862E+03  0.83449506030E+03  0.46999998093E+01 0.  1.
</event>
<event>
 5   0  0.9432152E-05  0.1598793E+04  0.7818609E-02  0.8821290E-01
       -1   -1    0    0    0  501  0.00000000000E+00  0.00000000000E+00  0.83793331281E+03  0.83793331283E+03  0.50400001928E-02 0. -1.
        1   -1    0    0  501    0  0.00000000000E+00  0.00000000000E+00 -0.76263162053E+03  0.76263162054E+03  0.50400001928E-02 0.  1.
    10030    2    1    2    0    0  0.00000000000E+00  0.00000000000E+00  0.75301692286E+02  0.16005649334E+04  0.15987925948E+04 0.  0.
        4    1    3    3  502    0  0.51574106452E+03  0.57404792765E+03  0.24647968610E+03  0.81010722588E+03  0.12699999809E+01 0. -1.
       -4    1    3    3    0  502 -0.51574106452E+03 -0.57404792765E+03 -0.17117799382E+03  0.79045770749E+03  0.12699999809E+01 0.  1.
</event>
<event>
 5   0  0.1858913E-04  0.1596062E+04  0.7818609E-02  0.8822971E-01
        2   -1    0    0  501    0  0.00000000000E+00  0.00000000000E+00  0.70017337180E+03  0.70017337180E+03  0.25500000920E-02 0. -1.
       -2   -1    0    0    0  501  0.00000000000E+00  0.00000000000E+00 -0.90956531508E+03  0.90956531509E+03  0.25500000920E-02 0.  1.
    10030    2    1    2    0    0  0.00000000000E+00  0.00000000000E+00 -0.20939194329E+03  0.16097386869E+04  0.15960619205E+04 0.  0.
        4    1    3    3  502    0  0.61729845330E+03 -0.30829056499E+03  0.29967777954E+03  0.75226912562E+03  0.12699999809E+01 0. -1.
       -4    1    3    3    0  502 -0.61729845330E+03  0.30829056499E+03 -0.50906972282E+03  0.85746956127E+03  0.12699999809E+01 0.  1.
</event>
<event>
 5   0  0.1774934E-04  0.1606139E+04  0.7818609E-02  0.8816786E-01
        2   -1    0    0  501    0  0.00000000000E+00  0.00000000000E+00  0.15460410879E+04  0.15460410879E+04  0.25500000920E-02 0. -1.
       -2   -1    0    0    0  501  0.00000000000E+00  0.00000000000E+00 -0.41714304585E+03  0.41714304586E+03  0.25500000920E-02 0.  1.
    10030    2    1    2    0    0  0.00000000000E+00  0.00000000000E+00  0.11288980421E+04  0.19631841338E+04  0.16061385848E+04 0.  0.
        1    1    3    3  502    0  0.51097323249E+03 -0.41737372419E+03  0.48197709248E+01  0.65978610184E+03  0.50400001928E-02 0.  1.
       -1    1    3    3    0  502 -0.51097323249E+03  0.41737372419E+03  0.11240782711E+04  0.13033980319E+04  0.50400001928E-02 0. -1.
</event>
<event>
 5   0  0.1832646E-04  0.1599416E+04  0.7818609E-02  0.8820907E-01
        2   -1    0    0  501    0  0.00000000000E+00  0.00000000000E+00  0.10156784227E+04  0.10156784227E+04  0.25500000920E-02 0. -1.
       -2   -1    0    0    0  501  0.00000000000E+00  0.00000000000E+00 -0.62966112965E+03  0.62966112966E+03  0.25500000920E-02 0.  1.
    10030    2    1    2    0    0  0.00000000000E+00  0.00000000000E+00  0.38601729308E+03  0.16453395524E+04  0.15994164224E+04 0.  0.
        2    1    3    3  502    0  0.35810466875E+02 -0.54337580130E+03  0.79548079871E+03  0.96401729865E+03  0.25500000920E-02 0. -1.
       -2    1    3    3    0  502 -0.35810466875E+02  0.54337580130E+03 -0.40946350564E+03  0.68132225373E+03  0.25500000920E-02 0.  1.
</event>
<event>
 5   0  0.9939872E-05  0.1616076E+04  0.7818609E-02  0.8810732E-01
        1   -1    0    0  501    0  0.00000000000E+00  0.00000000000E+00  0.14380269144E+04  0.14380269144E+04  0.50400001928E-02 0.  1.
       -1   -1    0    0    0  501  0.00000000000E+00  0.00000000000E+00 -0.45404256685E+03  0.45404256688E+03  0.50400001928E-02 0. -1.
    10030    2    1    2    0    0  0.00000000000E+00  0.00000000000E+00  0.98398434755E+03  0.18920694813E+04  0.16160760272E+04 0.  0.
        3    1    3    3  502    0 -0.16357279992E+03  0.78904339525E+03  0.42194194221E+03  0.90960461370E+03  0.10100000352E+00 0. -1.
       -3    1    3    3    0  502  0.16357279992E+03 -0.78904339525E+03  0.56204240534E+03  0.98246486760E+03  0.10100000352E+00 0.  1.
</event>
<event>
 5   0  0.6838750E-05  0.1600637E+04  0.7818609E-02  0.8820157E-01
       -3   -1    0    0    0  501  0.00000000000E+00  0.00000000000E+00  0.75293384529E+03  0.75293385206E+03  0.10100000352E+00 0. -1.
        3   -1    0    0  501    0  0.00000000000E+00  0.00000000000E+00 -0.85068564576E+03  0.85068565175E+03  0.10100000352E+00 0.  1.
    10030    2    1    2    0    0  0.00000000000E+00  0.00000000000E+00 -0.97751800472E+02  0.16036195038E+04  0.16006374038E+04 0.  0.
        3    1    3    3  502    0 -0.32344675605E+02  0.20640665379E+03  0.72513067992E+03  0.75462864903E+03  0.10100000352E+00 0. -1.
       -3    1    3    3    0  502  0.32344675605E+02 -0.20640665379E+03 -0.82288248040E+03  0.84899085479E+03  0.10100000352E+00 0.  1.
</event>
<event>
 5   0  0.9673017E-05  0.1603046E+04  0.7818609E-02  0.8818679E-01
        1   -1    0    0  501    0  0.00000000000E+00  0.00000000000E+00  0.10962407859E+04  0.10962407860E+04  0.50400001928E-02 0.  1.
       -1   -1    0    0    0  501  0.00000000000E+00  0.00000000000E+00 -0.58603846474E+03  0.58603846476E+03  0.50400001928E-02 0. -1.
    10030    2    1    2    0    0  0.00000000000E+00  0.00000000000E+00  0.51020232121E+03  0.16822792507E+04  0.16030461843E+04 0.  0.
        1    1    3    3  502    0  0.76277203539E+03 -0.20949372354E+03  0.39084061886E+03  0.88230674233E+03  0.50400001928E-02 0.  1.
       -1    1    3    3    0  502 -0.76277203539E+03  0.20949372354E+03  0.11936170234E+03  0.79997250840E+03  0.50400001928E-02 0. -1.
</event>
<event>
 5   0  0.9726935E-05  0.1597890E+04  0.7818609E-02  0.8821845E-01
        1   -1    0    0  501    0  0.00000000000E+00  0.00000000000E+00  0.11509937432E+04  0.11509937432E+04  0.50400001928E-02 0.  1.
       -1   -1    0    0    0  501  0.00000000000E+00  0.00000000000E+00 -0.55457582254E+03  0.55457582256E+03  0.50400001928E-02 0. -1.
    10030    2    1    2    0    0  0.00000000000E+00  0.00000000000E+00  0.59641792063E+03  0.17055695657E+04  0.15978902364E+04 0.  0.
        2    1    3    3  502    0  0.17775566446E+03  0.10584725119E+03  0.11219068754E+04  0.11408224025E+04  0.25500000920E-02 0.  1.
       -2    1    3    3    0  502 -0.17775566446E+03 -0.10584725119E+03 -0.52548895478E+03  0.56474716329E+03  0.25500000920E-02 0. -1.
</event>
<event>
 5   0  0.1832646E-04  0.1586753E+04  0.7818609E-02  0.8828728E-01
       -2   -1    0    0    0  501  0.00000000000E+00  0.00000000000E+00  0.40115018104E+03  0.40115018105E+03  0.25500000920E-02 0.  1.
        2   -1    0    0  501    0  0.00000000000E+00  0.00000000000E+00 -0.15691033392E+04  0.15691033392E+04  0.25500000920E-02 0. -1.
    10030    2    1    2    0    0  0.00000000000E+00  0.00000000000E+00 -0.11679531582E+04  0.19702535202E+04  0.15867527704E+04 0.  0.
        2    1    3    3  502    0  0.45805587353E+03  0.42502972876E+03  0.23031123776E+02  0.62529663862E+03  0.25500000920E-02 0.  1.
       -2    1    3    3    0  502 -0.45805587353E+03 -0.42502972876E+03 -0.11909842819E+04  0.13449568816E+04  0.25500000920E-02 0. -1.
</event>
<event>
 5   0  0.1835088E-04  0.1585059E+04  0.7818609E-02  0.8829780E-01
        2   -1    0    0  501    0  0.00000000000E+00  0.00000000000E+00  0.29944486079E+03  0.29944486080E+03  0.25500000920E-02 0. -1.
       -2   -1    0    0    0  501  0.00000000000E+00  0.00000000000E+00 -0.20975585888E+04  0.20975585888E+04  0.25500000920E-02 0.  1.
    10030    2    1    2    0    0  0.00000000000E+00  0.00000000000E+00 -0.17981137280E+04  0.23970034496E+04  0.15850591656E+04 0.  0.
        5    1    3    3  502    0 -0.17440464206E+03 -0.22061437420E+03 -0.20195436273E+04  0.20390356137E+04  0.46999998093E+01 0.  1.
       -5    1    3    3    0  502  0.17440464206E+03  0.22061437420E+03  0.22142989928E+03  0.35796783594E+03  0.46999998093E+01 0. -1.
</event>
<event>
 5   0  0.9673017E-05  0.1634412E+04  0.7818609E-02  0.8799682E-01
       -1   -1    0    0    0  501  0.00000000000E+00  0.00000000000E+00  0.72143576968E+03  0.72143576970E+03  0.50400001928E-02 0.  1.
        1   -1    0    0  501    0  0.00000000000E+00  0.00000000000E+00 -0.92569014129E+03  0.92569014130E+03  0.50400001928E-02 0. -1.
    10030    2    1    2    0    0  0.00000000000E+00  0.00000000000E+00 -0.20425437161E+03  0.16471259110E+04  0.16344124077E+04 0.  0.
        1    1    3    3  502    0 -0.36588794124E+03 -0.10476953818E+03  0.62666843294E+03  0.73318753845E+03  0.50400001928E-02 0.  1.
       -1    1    3    3    0  502  0.36588794124E+03  0.10476953818E+03 -0.83092280455E+03  0.91393837255E+03  0.50400001928E-02 0. -1.
</event>
<event>
 5   0  0.1774934E-04  0.1602323E+04  0.7818609E-02  0.8819122E-01
        2   -1    0    0  501    0  0.00000000000E+00  0.00000000000E+00  0.15943290176E+04  0.15943290176E+04  0.25500000920E-02 0.  1.
       -2   -1    0    0    0  501  0.00000000000E+00  0.00000000000E+00 -0.40258913348E+03  0.40258913349E+03  0.25500000920E-02 0. -1.
    10030    2    1    2    0    0  0.00000000000E+00  0.00000000000E+00  0.11917398841E+04  0.19969181511E+04  0.16023227361E+04 0.  0.
        1    1    3    3  502    0  0.20766203478E+03 -0.75988603835E+03  0.41394422141E+03  0.88988770664E+03  0.50400001928E-02 0. -1.
       -1    1    3    3    0  502 -0.20766203478E+03  0.75988603835E+03  0.77779566269E+03  0.11070304444E+04  0.50400001928E-02 0.  1.
</event>
<event>
 5   0  0.9673017E-05  0.1600567E+04  0.7818609E-02  0.8820200E-01
        1   -1    0    0  501    0  0.00000000000E+00  0.00000000000E+00  0.10680380437E+04  0.10680380437E+04  0.50400001928E-02 0.  1.
       -1   -1    0    0    0  501  0.00000000000E+00  0.00000000000E+00 -0.59965414933E+03  0.59965414935E+03  0.50400001928E-02 0. -1.
    10030    2    1    2    0    0  0.00000000000E+00  0.00000000000E+00  0.46838389433E+03  0.16676921930E+04  0.16005667053E+04 0.  0.
        1    1    3    3  502    0  0.70180707815E+03 -0.16557612898E+03 -0.12750456218E+03  0.73226091172E+03  0.50400001928E-02 0. -1.
       -1    1    3    3    0  502 -0.70180707815E+03  0.16557612898E+03  0.59588845650E+03  0.93543128131E+03  0.50400001928E-02 0.  1.
</event>
<event>
 5   0  0.1835088E-04  0.1597304E+04  0.7818609E-02  0.8822206E-01
       -2   -1    0    0    0  501  0.00000000000E+00  0.00000000000E+00  0.88722714222E+03  0.88722714223E+03  0.25500000920E-02 0. -1.
        2   -1    0    0  501    0  0.00000000000E+00  0.00000000000E+00 -0.71891941266E+03  0.71891941266E+03  0.25500000920E-02 0.  1.
    10030    2    1    2    0    0  0.00000000000E+00  0.00000000000E+00  0.16830772956E+03  0.16061465549E+04  0.15973037482E+04 0.  0.
        5    1    3    3  502    0 -0.44074470590E+03  0.66504656861E+03  0.12012749672E+03  0.80684294609E+03  0.46999998093E+01 0.  1.
       -5    1    3    3    0  502  0.44074470590E+03 -0.66504656861E+03  0.48180232842E+02  0.79930360879E+03  0.46999998093E+01 0. -1.
</event>
<event>
 5   0  0.1774934E-04  0.1603526E+04  0.7818609E-02  0.8818385E-01
       -2   -1    0    0    0  501  0.00000000000E+00  0.00000000000E+00  0.91149597632E+03  0.91149597632E+03  0.25500000920E-02 0. -1.
        2   -1    0    0  501    0  0.00000000000E+00  0.00000000000E+00 -0.70524055038E+03  0.70524055038E+03  0.25500000920E-02 0.  1.
    10030    2    1    2    0    0  0.00000000000E+00  0.00000000000E+00  0.20625542594E+03  0.16167365267E+04  0.16035260198E+04 0.  0.
        1    1    3    3  502    0 -0.42967671843E+03 -0.28961409417E+03  0.71998962562E+03  0.88706452241E+03  0.50400001928E-02 0. -1.
       -1    1    3    3    0  502  0.42967671843E+03  0.28961409417E+03 -0.51373419968E+03  0.72967200429E+03  0.50400001928E-02 0.  1.
</event>
<event>
 5   0  0.1835088E-04  0.1518339E+04  0.7818609E-02  0.8872348E-01
       -2   -1    0    0    0  501  0.00000000000E+00  0.00000000000E+00  0.10028049498E+04  0.10028049498E+04  0.25500000920E-02 0.  1.
        2   -1    0    0  501    0  0.00000000000E+00  0.00000000000E+00 -0.57472652552E+03  0.57472652553E+03  0.25500000920E-02 0. -1.
    10030    2    1    2    0    0  0.00000000000E+00  0.00000000000E+00  0.42807842429E+03  0.15775314753E+04  0.15183393621E+04 0.  0.
        5    1    3    3  502    0 -0.73048991916E+03  0.15862093848E+03  0.76435924370E+02  0.75142575458E+03  0.46999998093E+01 0. -1.
       -5    1    3    3    0  502  0.73048991916E+03 -0.15862093848E+03  0.35164249992E+03  0.82610572076E+03  0.46999998093E+01 0.  1.
</event>
<event>
 5   0  0.1835088E-04  0.1590154E+04  0.7818609E-02  0.8826620E-01
        2   -1    0    0  501    0  0.00000000000E+00  0.00000000000E+00  0.69481978664E+03  0.69481978665E+03  0.25500000920E-02 0. -1.
       -2   -1    0    0    0  501  0.00000000000E+00  0.00000000000E+00 -0.90980005008E+03  0.90980005009E+03  0.25500000920E-02 0.  1.
    10030    2    1    2    0    0  0.00000000000E+00  0.00000000000E+00 -0.21498026344E+03  0.16046198367E+04  0.15901535482E+04 0.  0.
        5    1    3    3  502    0 -0.36283685348E+03  0.45415024454E+03 -0.65484708083E+03  0.87564251617E+03  0.46999998093E+01 0.  1.
       -5    1    3    3    0  502  0.36283685348E+03 -0.45415024454E+03  0.43986681739E+03  0.72897732057E+03  0.46999998093E+01 0. -1.
</event>
<event>
 5   0  0.6838750E-05  0.1606715E+04  0.7818609E-02  0.8816433E-01
       -4   -1    0    0    0  501  0.00000000000E+00  0.00000000000E+00  0.80265503394E+03  0.80265603867E+03  0.12699999809E+01 0. -1.
        4   -1    0    0  501    0  0.00000000000E+00  0.00000000000E+00 -0.80405905184E+03  0.80406005482E+03  0.12699999809E+01 0.  1.
    10030    2    1    2    0    0  0.00000000000E+00  0.00000000000E+00 -0.14040179027E+01  0.16067160935E+04  0.16067154800E+04 0.  0.
        1    1    3    3  502    0  0.12659245089E+03  0.53803508324E+03 -0.58369130434E+03  0.80386748796E+03  0.50400001928E-02 0.  1.
       -1    1    3    3    0  502 -0.12659245089E+03 -0.53803508324E+03  0.58228728644E+03  0.80284860552E+03  0.50400001928E-02 0. -1.
</event>
<event>
 5   0  0.1774934E-04  0.1603825E+04  0.7818609E-02  0.8818202E-01
        2   -1    0    0  501    0  0.00000000000E+00  0.00000000000E+00  0.83146227808E+03  0.83146227809E+03  0.25500000920E-02 0.  1.
       -2   -1    0    0    0  501  0.00000000000E+00  0.00000000000E+00 -0.77341271746E+03  0.77341271746E+03  0.25500000920E-02 0. -1.
    10030    2    1    2    0    0  0.00000000000E+00  0.00000000000E+00  0.58049560622E+02  0.16048749955E+04  0.16038248034E+04 0.  0.
        1    1    3    3  502    0 -0.54264497809E+02 -0.79341213154E+03  0.13212648342E+03  0.80616676553E+03  0.50400001928E-02 0. -1.
       -1    1    3    3    0  502  0.54264497809E+02  0.79341213154E+03 -0.74076922798E+02  0.79870823002E+03  0.50400001928E-02 0.  1.
</event>
<event>
 5   0  0.9726935E-05  0.1600382E+04  0.7818609E-02  0.8820313E-01
       -1   -1    0    0    0  501  0.00000000000E+00  0.00000000000E+00  0.39928213899E+03  0.39928213902E+03  0.50400001928E-02 0.  1.
        1   -1    0    0  501    0  0.00000000000E+00  0.00000000000E+00 -0.16036427774E+04  0.16036427774E+04  0.50400001928E-02 0. -1.
    10030    2    1    2    0    0  0.00000000000E+00  0.00000000000E+00 -0.12043606384E+04  0.20029249164E+04  0.16003823523E+04 0.  0.
        2    1    3    3  502    0  0.19109597843E+03  0.75255702644E+03 -0.35999679067E+03  0.85583727444E+03  0.25500000920E-02 0.  1.
       -2    1    3    3    0  502 -0.19109597843E+03 -0.75255702644E+03 -0.84436384771E+03  0.11470876420E+04  0.25500000920E-02 0. -1.
</event>
<event>
 5   0  0.1858913E-04  0.1600906E+04  0.7818609E-02  0.8819991E-01
       -2   -1    0    0    0  501  0.00000000000E+00  0.00000000000E+00  0.69352914541E+03  0.69352914541E+03  0.25500000920E-02 0. -1.
        2   -1    0    0  501    0  0.00000000000E+00  0.00000000000E+00 -0.92386196477E+03  0.92386196478E+03  0.25500000920E-02 0.  1.
    10030    2    1    2    0    0  0.00000000000E+00  0.00000000000E+00 -0.23033281937E+03  0.16173911102E+04  0.16009062420E+04 0.  0.
        4    1    3    3  502    0  0.21484364151E+03  0.72118298255E+03  0.16051869291E+03  0.76943521383E+03  0.12699999809E+01 0. -1.
       -4    1    3    3    0  502 -0.21484364151E+03 -0.72118298255E+03 -0.39085151228E+03  0.84795589636E+03  0.12699999809E+01 0.  1.
</event>
<event>
 5   0  0.9939872E-05  0.1609304E+04  0.7818609E-02  0.8814852E-01
        1   -1    0    0  501    0  0.00000000000E+00  0.00000000000E+00  0.87550212242E+03  0.87550212243E+03  0.50400001928E-02 0. -1.
       -1   -1    0    0    0  501  0.00000000000E+00  0.00000000000E+00 -0.73953550345E+03  0.73953550346E+03  0.50400001928E-02 0.  1.
    10030    2    1    2    0    0  0.00000000000E+00  0.00000000000E+00  0.13596661897E+03  0.16150376259E+04  0.16093040768E+04 0.  0.
        3    1    3    3  502    0  0.34678688984E+03 -0.98257088253E+02  0.78995537114E+03  0.86830012147E+03  0.10100000352E+00 0. -1.
       -3    1    3    3    0  502 -0.34678688984E+03  0.98257088253E+02 -0.65398875217E+03  0.74673750443E+03  0.10100000352E+00 0.  1.
</event>
<event>
 5   0  0.1914170E-04  0.1612572E+04  0.7818609E-02  0.8812862E-01
       -2   -1    0    0    0  501  0.00000000000E+00  0.00000000000E+00  0.63446412303E+03  0.63446412304E+03  0.25500000920E-02 0. -1.
        2   -1    0    0  501    0  0.00000000000E+00  0.00000000000E+00 -0.10246392611E+04  0.10246392611E+04  0.25500000920E-02 0.  1.
    10030    2    1    2    0    0  0.00000000000E+00  0.00000000000E+00 -0.39017513809E+03  0.16591033842E+04  0.16125716731E+04 0.  0.
        3    1    3    3  502    0  0.21902406638E+03 -0.63181339714E+03  0.26839689287E+03  0.72055299094E+03  0.10100000352E+00 0. -1.
       -3    1    3    3    0  502 -0.21902406638E+03  0.63181339714E+03 -0.65857203096E+03  0.93855039322E+03  0.10100000352E+00 0.  1.
</event>
<event>
 5   0  0.9432152E-05  0.1596939E+04  0.7818609E-02  0.8822430E-01
        1   -1    0    0  501    0  0.00000000000E+00  0.00000000000E+00  0.59391829600E+03  0.59391829602E+03  0.50400001928E-02 0. -1.
       -1   -1    0    0    0  501  0.00000000000E+00  0.00000000000E+00 -0.10734706434E+04  0.10734706434E+04  0.50400001928E-02 0.  1.
    10030    2    1    2    0    0  0.00000000000E+00  0.00000000000E+00 -0.47955234739E+03  0.16673889394E+04  0.15969393919E+04 0.  0.
        4    1    3    3  502    0  0.26164980507E+03 -0.40066215976E+02 -0.10263258940E+04  0.10599114943E+04  0.12699999809E+01 0. -1.
       -4    1    3    3    0  502 -0.26164980507E+03  0.40066215976E+02  0.54677354661E+03  0.60747744512E+03  0.12699999809E+01 0.  1.
</event>
<event>
 5   0  0.1774934E-04  0.1594622E+04  0.7818609E-02  0.8823859E-01
       -2   -1    0    0    0  501  0.00000000000E+00  0.00000000000E+00  0.52279719260E+03  0.52279719261E+03  0.25500000920E-02 0.  1.
        2   -1    0    0  501    0  0.00000000000E+00  0.00000000000E+00 -0.12159678047E+04  0.12159678047E+04  0.25500000920E-02 0. -1.
    10030    2    1    2    0    0  0.00000000000E+00  0.00000000000E+00 -0.69317061212E+03  0.17387649973E+04  0.15946216537E+04 0.  0.
        1    1    3    3  502    0 -0.34122888454E+03 -0.60745390056E+03  0.76098172956E+02  0.70087682577E+03  0.50400001928E-02 0. -1.
       -1    1    3    3    0  502  0.34122888454E+03  0.60745390056E+03 -0.76926878507E+03  0.10378881716E+04  0.50400001928E-02 0.  1.
</event>
<event>
 5   0  0.9616567E-05  0.1599059E+04  0.7818609E-02  0.8821126E-01
        1   -1    0    0  501    0  0.00000000000E+00  0.00000000000E+00  0.87625183393E+03  0.87625183394E+03  0.50400001928E-02 0. -1.
       -1   -1    0    0    0  501  0.00000000000E+00  0.00000000000E+00 -0.72952451398E+03  0.72952451400E+03  0.50400001928E-02 0.  1.
    10030    2    1    2    0    0  0.00000000000E+00  0.00000000000E+00  0.14672731995E+03  0.16057763479E+04  0.15990587147E+04 0.  0.
        5    1    3    3  502    0 -0.22730954643E+03  0.21817897007E+03 -0.66453851500E+03  0.73546258967E+03  0.46999998093E+01 0.  1.
       -5    1    3    3    0  502  0.22730954643E+03 -0.21817897007E+03  0.81126583495E+03  0.87031375827E+03  0.46999998093E+01 0. -1.
</event>
<event>
 5   0  0.9432152E-05  0.1605699E+04  0.7818609E-02  0.8817054E-01
       -1   -1    0    0    0  501  0.00000000000E+00  0.00000000000E+00  0.54919239555E+03  0.54919239557E+03  0.50400001928E-02 0. -1.
        1   -1    0    0  501    0  0.00000000000E+00  0.00000000000E+00 -0.11736646649E+04  0.11736646649E+04  0.50400001928E-02 0.  1.
    10030    2    1    2    0    0  0.00000000000E+00  0.00000000000E+00 -0.62447226938E+03  0.17228570605E+04  0.16056994849E+04 0.  0.
        4    1    3    3  502    0 -0.32688892727E+03 -0.26098258550E+03 -0.10475081093E+04  0.11279375571E+04  0.12699999809E+01 0.  1.
       -4    1    3    3    0  502  0.32688892727E+03  0.26098258550E+03  0.42303583997E+03  0.59491950339E+03  0.12699999809E+01 0. -1.
</event>
<event>
 5   0  0.1914170E-04  0.1600406E+04  0.7818609E-02  0.8820299E-01
        2   -1    0    0  501    0  0.00000000000E+00  0.00000000000E+00  0.11758891208E+04  0.11758891208E+04  0.25500000920E-02 0.  1.
       -2   -1    0    0    0  501  0.00000000000E+00  0.00000000000E+00 -0.54454534538E+03  0.54454534539E+03  0.25500000920E-02 0. -1.
    10030    2    1    2    0    0  0.00000000000E+00  0.00000000000E+00  0.63134377540E+03  0.17204344662E+04  0.16004061327E+04 0.  0.
        3    1    3    3  502    0 -0.16864486237E+03  0.21713902732E+03  0.11235206868E+04  0.11566716002E+04  0.10100000352E+00 0.  1.
       -3    1    3    3    0  502  0.16864486237E+03 -0.21713902732E+03 -0.49217691138E+03  0.56376286601E+03  0.10100000352E+00 0. -1.
</event>
<event>
 5   0  0.9616567E-05  0.1598386E+04  0.7818609E-02  0.8821540E-01
       -1   -1    0    0    0  501  0.00000000000E+00  0.00000000000E+00  0.71134846286E+03  0.71134846287E+03  0.50400001928E-02 0. -1.
        1   -1    0    0  501    0  0.00000000000E+00  0.00000000000E+00 -0.89788556006E+03  0.89788556008E+03  0.50400001928E-02 0.  1.
    10030    2    1    2    0    0  0.00000000000E+00  0.00000000000E+00 -0.18653709721E+03  0.16092340230E+04  0.15983860773E+04 0.  0.
        5    1    3    3  502    0  0.13988442773E+03  0.59683370533E+03  0.42295818433E+03  0.74477771223E+03  0.46999998093E+01 0. -1.
       -5    1    3    3    0  502 -0.13988442773E+03 -0.59683370533E+03 -0.60949528154E+03  0.86445631073E+03  0.46999998093E+01 0.  1.
</event>
<event>
 5   0  0.9939872E-05  0.1597377E+04  0.7818609E-02  0.8822161E-01
       -1   -1    0    0    0  501  0.00000000000E+00  0.00000000000E+00  0.81208411589E+03  0.81208411591E+03  0.50400001928E-02 0.  1.
        1   -1    0    0  501    0  0.00000000000E+00  0.00000000000E+00 -0.78551371702E+03  0.78551371704E+03  0.50400001928E-02 0. -1.
    10030    2    1    2    0    0  0.00000000000E+00  0.00000000000E+00  0.26570398872E+02  0.15975978329E+04  0.15973768653E+04 0.  0.
        3    1    3    3  502    0 -0.38894363746E+03 -0.19577564629E+03  0.68292837422E+03  0.80993606619E+03  0.10100000352E+00 0.  1.
       -3    1    3    3    0  502  0.38894363746E+03  0.19577564629E+03 -0.65635797535E+03  0.78766176675E+03  0.10100000352E+00 0. -1.
</event>
<event>
 5   0  0.9726935E-05  0.1618522E+04  0.7818609E-02  0.8809249E-01
        1   -1    0    0  501    0  0.00000000000E+00  0.00000000000E+00  0.88793969039E+03  0.88793969040E+03  0.50400001928E-02 0. -1.
       -1   -1    0    0    0  501  0.00000000000E+00  0.00000000000E+00 -0.73755419638E+03  0.73755419640E+03  0.50400001928E-02 0.  1.
    10030    2    1    2    0    0  0.00000000000E+00  0.00000000000E+00  0.15038549401E+03  0.16254938868E+04  0.16185223444E+04 0.  0.
        2    1    3    3  502    0 -0.53066773554E+03  0.16508591779E+02  0.68857946566E+03  0.86949552022E+03  0.25500000920E-02 0. -1.
       -2    1    3    3    0  502  0.53066773554E+03 -0.16508591779E+02 -0.53819397165E+03  0.75599836658E+03  0.25500000920E-02 0.  1.
</event>
<event>
 5   0  0.1832646E-04  0.1599618E+04  0.7818609E-02  0.8820783E-01
       -2   -1    0    0    0  501  0.00000000000E+00  0.00000000000E+00  0.40796222866E+03  0.40796222867E+03  0.25500000920E-02 0.  1.
        2   -1    0    0  501    0  0.00000000000E+00  0.00000000000E+00 -0.15680242014E+04  0.15680242014E+04  0.25500000920E-02 0. -1.
    10030    2    1    2    0    0  0.00000000000E+00  0.00000000000E+00 -0.11600619728E+04  0.19759864301E+04  0.15996182642E+04 0.  0.
        2    1    3    3  502    0 -0.49353987355E+03 -0.49943490918E+03 -0.10531275743E+04  0.12657387262E+04  0.25500000920E-02 0. -1.
       -2    1    3    3    0  502  0.49353987355E+03  0.49943490918E+03 -0.10693439847E+03  0.71024770389E+03  0.25500000920E-02 0.  1.
</event>
<event>
 5   0  0.9726935E-05  0.1611940E+04  0.7818609E-02  0.8813246E-01
       -1   -1    0    0    0  501  0.00000000000E+00  0.00000000000E+00  0.68309067713E+03  0.68309067715E+03  0.50400001928E-02 0.  1.
        1   -1    0    0  501    0  0.00000000000E+00  0.00000000000E+00 -0.95095379476E+03  0.95095379478E+03  0.50400001928E-02 0. -1.
    10030    2    1    2    0    0  0.00000000000E+00  0.00000000000E+00 -0.26786311763E+03  0.16340444719E+04  0.16119400381E+04 0.  0.
        2    1    3    3  502    0 -0.22082753243E+03 -0.22455146708E+03  0.61813107130E+03  0.69373927506E+03  0.25500000920E-02 0.  1.
       -2    1    3    3    0  502  0.22082753243E+03  0.22455146708E+03 -0.88599418893E+03  0.94030519687E+03  0.25500000920E-02 0. -1.
</event>
<event>
 5   0  0.9726935E-05  0.1592309E+04  0.7818609E-02  0.8825287E-01
        1   -1    0    0  501    0  0.00000000000E+00  0.00000000000E+00  0.44009541431E+03  0.44009541434E+03  0.50400001928E-02 0.  1.
       -1   -1    0    0    0  501  0.00000000000E+00  0.00000000000E+00 -0.14402838470E+04  0.14402838470E+04  0.50400001928E-02 0. -1.
    10030    2    1    2    0    0  0.00000000000E+00  0.00000000000E+00 -0.10001884327E+04  0.18803792613E+04  0.15923094126E+04 0.  0.
        2    1    3    3  502    0 -0.70148440302E+03  0.36475218345E+03 -0.38970697613E+03  0.88147379443E+03  0.25500000920E-02 0.  1.
       -2    1    3    3    0  502  0.70148440302E+03 -0.36475218345E+03 -0.61048145655E+03  0.99890546690E+03  0.25500000920E-02 0. -1.
</event>
<event>
 5   0  0.9939872E-05  0.1571863E+04  0.7818609E-02  0.8838023E-01
        1   -1    0    0  501    0  0.00000000000E+00  0.00000000000E+00  0.54916535026E+03  0.54916535029E+03  0.50400001928E-02 0. -1.
       -1   -1    0    0    0  501  0.00000000000E+00  0.00000000000E+00 -0.11247766318E+04  0.11247766318E+04  0.50400001928E-02 0.  1.
    10030    2    1    2    0    0  0.00000000000E+00  0.00000000000E+00 -0.57561128155E+03  0.16739419821E+04  0.15718630386E+04 0.  0.
        3    1    3    3  502    0 -0.70864898080E+03  0.19543807043E+03 -0.58390707980E+03  0.93879012852E+03  0.10100000352E+00 0.  1.
       -3    1    3    3    0  502  0.70864898080E+03 -0.19543807043E+03  0.82957982552E+01  0.73515185359E+03  0.10100000352E+00 0. -1.
</event>
<event>
 5   0  0.1774934E-04  0.1578396E+04  0.7818609E-02  0.8833931E-01
       -2   -1    0    0    0  501  0.00000000000E+00  0.00000000000E+00  0.58681592303E+03  0.58681592303E+03  0.25500000920E-02 0.  1.
        2   -1    0    0  501    0  0.00000000000E+00  0.00000000000E+00 -0.10613780667E+04  0.10613780667E+04  0.25500000920E-02 0. -1.
    10030    2    1    2    0    0  0.00000000000E+00  0.00000000000E+00 -0.47456214367E+03  0.16481939897E+04  0.15783960845E+04 0.  0.
        1    1    3    3  502    0 -0.45800084898E+03 -0.20082172763E+03  0.40024064822E+03  0.64053627568E+03  0.50400001928E-02 0.  1.
       -1    1    3    3    0  502  0.45800084898E+03  0.20082172763E+03 -0.87480279189E+03  0.10076577140E+04  0.50400001928E-02 0. -1.
</event>
<event>
 5   0  0.1858913E-04  0.1602072E+04  0.7818609E-02  0.8819276E-01
        2   -1    0    0  501    0  0.00000000000E+00  0.00000000000E+00  0.15243716516E+04  0.15243716516E+04  0.25500000920E-02 0.  1.
       -2   -1    0    0    0  501  0.00000000000E+00  0.00000000000E+00 -0.42093323194E+03  0.42093323194E+03  0.25500000920E-02 0. -1.
    10030    2    1    2    0    0  0.00000000000E+00  0.00000000000E+00  0.11034384197E+04  0.19453048835E+04  0.16020720158E+04 0.  0.
        4    1    3    3  502    0  0.57917217346E+03  0.24621435735E+03 -0.50030018038E+02  0.63132125886E+03  0.12699999809E+01 0. -1.
       -4    1    3    3    0  502 -0.57917217346E+03 -0.24621435735E+03  0.11534684377E+04  0.13139836247E+04  0.12699999809E+01 0.  1.
</event>
<event>
 5   0  0.9673017E-05  0.1596314E+04  0.7818609E-02  0.8822816E-01
       -1   -1    0    0    0  501  0.00000000000E+00  0.00000000000E+00  0.86328254329E+03  0.86328254330E+03  0.50400001928E-02 0.  1.
        1   -1    0    0  501    0  0.00000000000E+00  0.00000000000E+00 -0.73794418394E+03  0.73794418396E+03  0.50400001928E-02 0. -1.
    10030    2    1    2    0    0  0.00000000000E+00  0.00000000000E+00  0.12533835935E+03  0.16012267273E+04  0.15963136684E+04 0.  0.
        1    1    3    3  502    0  0.52822083244E+03  0.19109906829E+03 -0.50610176111E+03  0.75609198802E+03  0.50400001928E-02 0. -1.
       -1    1    3    3    0  502 -0.52822083244E+03 -0.19109906829E+03  0.63144012045E+03  0.84513473924E+03  0.50400001928E-02 0.  1.
</event>
<event>
 5   0  0.1774934E-04  0.1604336E+04  0.7818609E-02  0.8817889E-01
       -2   -1    0    0    0  501  0.00000000000E+00  0.00000000000E+00  0.59333952827E+03  0.59333952827E+03  0.25500000920E-02 0. -1.
        2   -1    0    0  501    0  0.00000000000E+00  0.00000000000E+00 -0.10844944604E+04  0.10844944605E+04  0.25500000920E-02 0.  1.
    10030    2    1    2    0    0  0.00000000000E+00  0.00000000000E+00 -0.49115493218E+03  0.16778339887E+04  0.16043359144E+04 0.  0.
        1    1    3    3  502    0 -0.39728650189E+03 -0.37417122468E+03 -0.86041607726E+03  0.10188996496E+04  0.50400001928E-02 0.  1.
       -1    1    3    3    0  502  0.39728650189E+03  0.37417122468E+03  0.36926114508E+03  0.65893433910E+03  0.50400001928E-02 0. -1.
</event>
<event>
 5   0  0.1858913E-04  0.1598202E+04  0.7818609E-02  0.8821653E-01
       -2   -1    0    0    0  501  0.00000000000E+00  0.00000000000E+00  0.73326520223E+03  0.73326520223E+03  0.25500000920E-02 0.  1.
        2   -1    0    0  501    0  0.00000000000E+00  0.00000000000E+00 -0.87084784079E+03  0.87084784080E+03  0.25500000920E-02 0. -1.
    10030    2    1    2    0    0  0.00000000000E+00  0.00000000000E+00 -0.13758263857E+03  0.16041130430E+04  0.15982020124E+04 0.  0.
        4    1    3    3  502    0 -0.59656382367E+03  0.38942684772E+03  0.29451308996E+03  0.77089638636E+03  0.12699999809E+01 0.  1.
       -4    1    3    3    0  502  0.59656382367E+03 -0.38942684772E+03 -0.43209572853E+03  0.83321665667E+03  0.12699999809E+01 0. -1.
</event>
<event>
 5   0  0.1835088E-04  0.1601823E+04  0.7818609E-02  0.8819429E-01
        2   -1    0    0  501    0  0.00000000000E+00  0.00000000000E+00  0.79682725495E+03  0.79682725495E+03  0.25500000920E-02 0. -1.
       -2   -1    0    0    0  501  0.00000000000E+00  0.00000000000E+00 -0.80501625936E+03  0.80501625936E+03  0.25500000920E-02 0.  1.
    10030    2    1    2    0    0  0.00000000000E+00  0.00000000000E+00 -0.81890044108E+01  0.16018435143E+04  0.16018225821E+04 0.  0.
        5    1    3    3  502    0 -0.17864237531E+03 -0.61226681297E+03 -0.48851084218E+03  0.80339820851E+03  0.46999998093E+01 0.  1.
       -5    1    3    3    0  502  0.17864237531E+03  0.61226681297E+03  0.48032183777E+03  0.79844530580E+03  0.46999998093E+01 0. -1.
</event>
<event>
 5   0  0.1774934E-04  0.1617369E+04  0.7818609E-02  0.8809948E-01
        2   -1    0    0  501    0  0.00000000000E+00  0.00000000000E+00  0.14768537404E+04  0.14768537404E+04  0.25500000920E-02 0. -1.
       -2   -1    0    0    0  501  0.00000000000E+00  0.00000000000E+00 -0.44281321695E+03  0.44281321696E+03  0.25500000920E-02 0.  1.
    10030    2    1    2    0    0  0.00000000000E+00  0.00000000000E+00  0.10340405235E+04  0.19196669574E+04  0.16173686726E+04 0.  0.
        1    1    3    3  502    0 -0.37856569358E+03 -0.11581163537E+03 -0.31993554686E+03  0.50900203675E+03  0.50400001928E-02 0.  1.
       -1    1    3    3    0  502  0.37856569358E+03  0.11581163537E+03  0.13539760703E+04  0.14106649206E+04  0.50400001928E-02 0. -1.
</event>
<event>
 5   0  0.1835088E-04  0.1590611E+04  0.7818609E-02  0.8826337E-01
       -2   -1    0    0    0  501  0.00000000000E+00  0.00000000000E+00  0.46555831244E+03  0.46555831245E+03  0.25500000920E-02 0. -1.
        2   -1    0    0  501    0  0.00000000000E+00  0.00000000000E+00 -0.13586077984E+04  0.13586077984E+04  0.25500000920E-02 0.  1.
    10030    2    1    2    0    0  0.00000000000E+00  0.00000000000E+00 -0.89304948597E+03  0.18241661109E+04  0.15906113968E+04 0.  0.
        5    1    3    3  502    0  0.19315447206E+03 -0.72354650142E+03 -0.75352684144E+03  0.10623808077E+04  0.46999998093E+01 0. -1.
       -5    1    3    3    0  502 -0.19315447206E+03  0.72354650142E+03 -0.13952264453E+03  0.76178530317E+03  0.46999998093E+01 0.  1.
</event>
<event>
 5   0  0.1774934E-04  0.1592183E+04  0.7818609E-02  0.8825365E-01
        2   -1    0    0  501    0  0.00000000000E+00  0.00000000000E+00  0.22085764704E+04  0.22085764704E+04  0.25500000920E-02 0. -1.
       -2   -1    0    0    0  501  0.00000000000E+00  0.00000000000E+00 -0.28695478323E+03  0.28695478324E+03  0.25500000920E-02 0.  1.
    10030    2    1    2    0    0  0.00000000000E+00  0.00000000000E+00  0.19216216871E+04  0.24955312536E+04  0.15921828819E+04 0.  0.
        1    1    3    3  502    0  0.18039241096E+03 -0.77196227191E+02 -0.24846044678E+03  0.31659638827E+03  0.50400001928E-02 0.  1.
       -1    1    3    3    0  502 -0.18039241096E+03  0.77196227191E+02  0.21700821339E+04  0.21789348653E+04  0.50400001928E-02 0. -1.
</event>
<event>
 5   0  0.9432152E-05  0.1597724E+04  0.7818609E-02  0.8821948E-01
        1   -1    0    0  501    0  0.00000000000E+00  0.00000000000E+00  0.21324931359E+04  0.21324931359E+04  0.50400001928E-02 0.  1.
       -1   -1    0    0    0  501  0.00000000000E+00  0.00000000000E+00 -0.29926493849E+03  0.29926493853E+03  0.50400001928E-02 0. -1.
    10030    2    1    2    0    0  0.00000000000E+00  0.00000000000E+00  0.18332281974E+04  0.24317580744E+04  0.15977239151E+04 0.  0.
        4    1    3    3  502    0  0.36906759830E+03 -0.66532642135E+03  0.12872758236E+04  0.14953095994E+04  0.12699999809E+01 0.  1.
       -4    1    3    3    0  502 -0.36906759830E+03  0.66532642135E+03  0.54595237376E+03  0.93644847502E+03  0.12699999809E+01 0. -1.
</event>
<event>
 5   0  0.9939872E-05  0.1601321E+04  0.7818609E-02  0.8819737E-01
       -1   -1    0    0    0  501  0.00000000000E+00  0.00000000000E+00  0.67018448725E+03  0.67018448727E+03  0.50400001928E-02 0. -1.
        1   -1    0    0  501    0  0.00000000000E+00  0.00000000000E+00 -0.95653837196E+03  0.95653837197E+03  0.50400001928E-02 0.  1.
    10030    2    1    2    0    0  0.00000000000E+00  0.00000000000E+00 -0.28635388471E+03  0.16267228592E+04  0.16013209277E+04 0.  0.
        3    1    3    3  502    0 -0.44918319659E+03  0.57940069453E+03  0.18377707974E+03  0.75580733931E+03  0.10100000352E+00 0. -1.
       -3    1    3    3    0  502  0.44918319659E+03 -0.57940069453E+03 -0.47013096445E+03  0.87091551993E+03  0.10100000352E+00 0.  1.
</event>
<event>
 5   0  0.1774934E-04  0.1609771E+04  0.7818609E-02  0.8814568E-01
       -2   -1    0    0    0  501  0.00000000000E+00  0.00000000000E+00  0.54307623465E+03  0.54307623466E+03  0.25500000920E-02 0.  1.
        2   -1    0    0  501    0  0.00000000000E+00  0.00000000000E+00 -0.11929089577E+04  0.11929089577E+04  0.25500000920E-02 0. -1.
    10030    2    1    2    0    0  0.00000000000E+00  0.00000000000E+00 -0.64983272307E+03  0.17359851924E+04  0.16097707974E+04 0.  0.
        1    1    3    3  502    0  0.14929363519E+03  0.58544286756E+03  0.24857680881E+03  0.65331643986E+03  0.50400001928E-02 0.  1.
       -1    1    3    3    0  502 -0.14929363519E+03 -0.58544286756E+03 -0.89840953188E+03  0.10826687525E+04  0.50400001928E-02 0. -1.
</event>
<event>
 5   0  0.9726935E-05  0.1590945E+04  0.7818609E-02  0.8826130E-01
        1   -1    0    0  501    0  0.00000000000E+00  0.00000000000E+00  0.20414288414E+04  0.20414288414E+04  0.50400001928E-02 0.  1.
       -1   -1    0    0    0  501  0.00000000000E+00  0.00000000000E+00 -0.30996762327E+03  0.30996762331E+03  0.50400001928E-02 0. -1.
    10030    2    1    2    0    0  0.00000000000E+00  0.00000000000E+00  0.17314612182E+04  0.23513964648E+04  0.15909454373E+04 0.  0.
        2    1    3    3  502    0  0.78883776473E+03 -0.58038200139E+02  0.74081322266E+03  0.10837147607E+04  0.25500000920E-02 0. -1.
       -2    1    3    3    0  502 -0.78883776473E+03  0.58038200139E+02  0.99064799551E+03  0.12676817040E+04  0.25500000920E-02 0.  1.
</event>
<event>
 5   0  0.1832646E-04  0.1599102E+04  0.7818609E-02  0.8821100E-01
       -2   -1    0    0    0  501  0.00000000000E+00  0.00000000000E+00  0.54108386099E+03  0.54108386099E+03  0.25500000920E-02 0. -1.
        2   -1    0    0  501    0  0.00000000000E+00  0.00000000000E+00 -0.11814832670E+04  0.11814832670E+04  0.25500000920E-02 0.  1.
    10030    2    1    2    0    0  0.00000000000E+00  0.00000000000E+00 -0.64039940599E+03  0.17225671280E+04  0.15991016576E+04 0.  0.
        2    1    3    3  502    0  0.58370640960E+03 -0.35719722620E+02 -0.90754301335E+03  0.10796403995E+04  0.25500000920E-02 0.  1.
       -2    1    3    3    0  502 -0.58370640960E+03  0.35719722620E+02  0.26714360736E+03  0.64292672845E+03  0.25500000920E-02 0. -1.
</event>
<event>
 5   0  0.9432152E-05  0.1605326E+04  0.7818609E-02  0.8817283E-01
        1   -1    0    0  501    0  0.00000000000E+00  0.00000000000E+00  0.12784097207E+04  0.12784097207E+04  0.50400001928E-02 0. -1.
       -1   -1    0    0    0  501  0.00000000000E+00  0.00000000000E+00 -0.50396045879E+03  0.50396045881E+03  0.50400001928E-02 0.  1.
    10030    2    1    2    0    0  0.00000000000E+00  0.00000000000E+00  0.77444926188E+03  0.17823701795E+04  0.16053260720E+04 0.  0.
        4    1    3    3  502    0 -0.34802772836E+03 -0.44325452832E+03  0.10218073641E+04  0.11669146407E+04  0.12699999809E+01 0. -1.
       -4    1    3    3    0  502  0.34802772836E+03  0.44325452832E+03 -0.24735810218E+03  0.61545553877E+03  0.12699999809E+01 0.  1.
</event>
<event>
 5   0  0.1835088E-04  0.1599856E+04  0.7818609E-02  0.8820636E-01
       -2   -1    0    0    0  501  0.00000000000E+00  0.00000000000E+00  0.33623418711E+03  0.33623418712E+03  0.25500000920E-02 0. -1.
        2   -1    0    0  501    0  0.00000000000E+00  0.00000000000E+00 -0.19030935938E+04  0.19030935938E+04  0.25500000920E-02 0.  1.
    10030    2    1    2    0    0  0.00000000000E+00  0.00000000000E+00 -0.15668594067E+04  0.22393277809E+04  0.15998564029E+04 0.  0.
        5    1    3    3  502    0 -0.63217101285E+03  0.63772520293E+02 -0.14636288408E+04  0.15955997610E+04  0.46999998093E+01 0.  1.
       -5    1    3    3    0  502  0.63217101285E+03 -0.63772520293E+02 -0.10323056590E+03  0.64372801987E+03  0.46999998093E+01 0. -1.
</event>
<event>
 5   0  0.9432152E-05  0.1608216E+04  0.7818609E-02  0.8815516E-01
        1   -1    0    0  501    0  0.00000000000E+00  0.00000000000E+00  0.48443178558E+03  0.48443178561E+03  0.50400001928E-02 0. -1.
       -1   -1    0    0    0  501  0.00000000000E+00  0.00000000000E+00 -0.13347386869E+04  0.13347386869E+04  0.50400001928E-02 0.  1.
    10030    2    1    2    0    0  0.00000000000E+00  0.00000000000E+00 -0.85030690135E+03  0.18191704725E+04  0.16082162111E+04 0.  0.
        4    1    3    3  502    0 -0.23242667323E+02 -0.79680756572E+03 -0.30573184307E+03  0.85376582921E+03  0.12699999809E+01 0. -1.
       -4    1    3    3    0  502  0.23242667323E+02  0.79680756572E+03 -0.54457505828E+03  0.96540464333E+03  0.12699999809E+01 0.  1.
</event>
<event>
 5   0  0.1774934E-04  0.1597661E+04  0.7818609E-02  0.8821986E-01
        2   -1    0    0  501    0  0.00000000000E+00  0.00000000000E+00  0.17614147498E+04  0.17614147498E+04  0.25500000920E-02 0. -1.
       -2   -1    0    0    0  501  0.00000000000E+00  0.00000000000E+00 -0.36228272699E+03  0.36228272700E+03  0.25500000920E-02 0.  1.
    10030    2    1    2    0    0  0.00000000000E+00  0.00000000000E+00  0.13991320228E+04  0.21236974768E+04  0.15976609639E+04 0.  0.
        1    1    3    3  502    0 -0.74705795641E+03 -0.16917956573E+03  0.39816566071E+03  0.86328049271E+03  0.50400001928E-02 0.  1.
       -1    1    3    3    0  502  0.74705795641E+03  0.16917956573E+03  0.10009663621E+04  0.12604169841E+04  0.50400001928E-02 0. -1.
</event>
<event>
 5   0  0.9726935E-05  0.1601873E+04  0.7818609E-02  0.8819398E-01
       -1   -1    0    0    0  501  0.00000000000E+00  0.00000000000E+00  0.13340911222E+04  0.13340911223E+04  0.50400001928E-02 0. -1.
        1   -1    0    0  501    0  0.00000000000E+00  0.00000000000E+00 -0.48085129032E+03  0.48085129034E+03  0.50400001928E-02 0.  1.
    10030    2    1    2    0    0  0.00000000000E+00  0.00000000000E+00  0.85323983193E+03  0.18149424126E+04  0.16018732004E+04 0.  0.
        2    1    3    3  502    0  0.64553826510E+02 -0.21254433585E+03 -0.44525302916E+03  0.49758672732E+03  0.25500000920E-02 0.  1.
       -2    1    3    3    0  502 -0.64553826510E+02  0.21254433585E+03  0.12984928611E+04  0.13173556853E+04  0.25500000920E-02 0. -1.
</event>
<event>
 5   0  0.9726935E-05  0.1586103E+04  0.7818609E-02  0.8829131E-01
        1   -1    0    0  501    0  0.00000000000E+00  0.00000000000E+00  0.10160484018E+04  0.10160484018E+04  0.50400001928E-02 0. -1.
       -1   -1    0    0    0  501  0.00000000000E+00  0.00000000000E+00 -0.61899700030E+03  0.61899700032E+03  0.50400001928E-02 0.  1.
    10030    2    1    2    0    0  0.00000000000E+00  0.00000000000E+00  0.39705140146E+03  0.16350454021E+04  0.15861032916E+04 0.  0.
        2    1    3    3  502    0 -0.32955541786E+03 -0.70028733899E+02  0.93860632181E+03  0.99724251030E+03  0.25500000920E-02 0. -1.
       -2    1    3    3    0  502  0.32955541786E+03  0.70028733899E+02 -0.54155492035E+03  0.63780289179E+03  0.25500000920E-02 0.  1.
</event>
<event>
 5   0  0.9939872E-05  0.1597885E+04  0.7818609E-02  0.8821849E-01
       -1   -1    0    0    0  501  0.00000000000E+00  0.00000000000E+00  0.52670849164E+03  0.52670849167E+03  0.50400001928E-02 0.  1.
        1   -1    0    0  501    0  0.00000000000E+00  0.00000000000E+00 -0.12118823702E+04  0.12118823703E+04  0.50400001928E-02 0. -1.
    10030    2    1    2    0    0  0.00000000000E+00  0.00000000000E+00 -0.68517387860E+03  0.17385908619E+04  0.15978845206E+04 0.  0.
        3    1    3    3  502    0 -0.20956310140E+03 -0.19705233874E+03  0.46840853122E+03  0.54968434578E+03  0.10100000352E+00 0.  1.
       -3    1    3    3    0  502  0.20956310140E+03  0.19705233874E+03 -0.11535824098E+04  0.11889065161E+04  0.10100000352E+00 0. -1.
</event>
<event>
 5   0  0.9616567E-05  0.1602756E+04  0.7818609E-02  0.8818857E-01
       -1   -1    0    0    0  501  0.00000000000E+00  0.00000000000E+00  0.76954439210E+03  0.76954439212E+03  0.50400001928E-02 0. -1.
        1   -1    0    0  501    0  0.00000000000E+00  0.00000000000E+00 -0.83452819320E+03  0.83452819322E+03  0.50400001928E-02 0.  1.
    10030    2    1    2    0    0  0.00000000000E+00  0.00000000000E+00 -0.64983801103E+02  0.16040725853E+04  0.16027557408E+04 0.  0.
        5    1    3    3  502    0 -0.31386024535E+03  0.22607147633E+03  0.66991650463E+03  0.77358049303E+03  0.46999998093E+01 0. -1.
       -5    1    3    3    0  502  0.31386024535E+03 -0.22607147633E+03 -0.73490030573E+03  0.83049209231E+03  0.46999998093E+01 0.  1.
</event>
<event>
 5   0  0.9432152E-05  0.1597356E+04  0.7818609E-02  0.8822174E-01
       -1   -1    0    0    0  501  0.00000000000E+00  0.00000000000E+00  0.47376452230E+03  0.47376452233E+03  0.50400001928E-02 0. -1.
        1   -1    0    0  501    0  0.00000000000E+00  0.00000000000E+00 -0.13464209838E+04  0.13464209838E+04  0.50400001928E-02 0.  1.
    10030    2    1    2    0    0  0.00000000000E+00  0.00000000000E+00 -0.87265646149E+03  0.18201855061E+04  0.15973559331E+04 0.  0.
        4    1    3    3  502    0 -0.70890724283E+03 -0.53157533954E+02 -0.85112728121E+03  0.11089609840E+04  0.12699999809E+01 0.  1.
       -4    1    3    3    0  502  0.70890724283E+03  0.53157533954E+02 -0.21529180279E+02  0.71122452211E+03  0.12699999809E+01 0. -1.
</event>
<event>
 5   0  0.1858913E-04  0.1542083E+04  0.7818609E-02  0.8856940E-01
       -2   -1    0    0    0  501  0.00000000000E+00  0.00000000000E+00  0.29428996592E+03  0.29428996593E+03  0.25500000920E-02 0.  1.
        2   -1    0    0  501    0  0.00000000000E+00  0.00000000000E+00 -0.20201339887E+04  0.20201339887E+04  0.25500000920E-02 0. -1.
    10030    2    1    2    0    0  0.00000000000E+00  0.00000000000E+00 -0.17258440227E+04  0.23144239546E+04  0.15420832179E+04 0.  0.
        4    1    3    3  502    0 -0.39446037618E+03 -0.39794625261E+03 -0.67980662278E+02  0.56443174227E+03  0.12699999809E+01 0.  1.
       -4    1    3    3    0  502  0.39446037618E+03  0.39794625261E+03 -0.16578633605E+04  0.17499922123E+04  0.12699999809E+01 0. -1.
</event>
<event>
 5   0  0.1774934E-04  0.1610279E+04  0.7818609E-02  0.8814258E-01
       -2   -1    0    0    0  501  0.00000000000E+00  0.00000000000E+00  0.90203307591E+03  0.90203307591E+03  0.25500000920E-02 0. -1.
        2   -1    0    0  501    0  0.00000000000E+00  0.00000000000E+00 -0.71865425451E+03  0.71865425452E+03  0.25500000920E-02 0.  1.
    10030    2    1    2    0    0  0.00000000000E+00  0.00000000000E+00  0.18337882140E+03  0.16206873304E+04  0.16102793642E+04 0.  0.
        1    1    3    3  502    0  0.52344042002E+03 -0.41661077963E+02 -0.52260330450E+03  0.74083718362E+03  0.50400001928E-02 0.  1.
       -1    1    3    3    0  502 -0.52344042002E+03  0.41661077963E+02  0.70598212590E+03  0.87985014681E+03  0.50400001928E-02 0. -1.
</event>
<event>
 5   0  0.1835088E-04  0.1601794E+04  0.7818609E-02  0.8819447E-01
       -2   -1    0    0    0  501  0.00000000000E+00  0.00000000000E+00  0.73036796627E+03  0.73036796628E+03  0.25500000920E-02 0.  1.
        2   -1    0    0  501    0  0.00000000000E+00  0.00000000000E+00 -0.87823633241E+03  0.87823633241E+03  0.25500000920E-02 0. -1.
    10030    2    1    2    0    0  0.00000000000E+00  0.00000000000E+00 -0.14786836613E+03  0.16086042987E+04  0.16017935997E+04 0.  0.
        5    1    3    3  502    0  0.28510008169E+03  0.57211001539E+03  0.41063341314E+03  0.75975905146E+03  0.46999998093E+01 0.  1.
       -5    1    3    3    0  502 -0.28510008169E+03 -0.57211001539E+03 -0.55850177928E+03  0.84884524723E+03  0.46999998093E+01 0. -1.
</event>
<event>
 5   0  0.1832646E-04  0.1591947E+04  0.7818609E-02  0.8825511E-01
       -2   -1    0    0    0  501  0.00000000000E+00  0.00000000000E+00  0.58169164363E+03  0.58169164364E+03  0.25500000920E-02 0.  1.
        2   -1    0    0  501    0  0.00000000000E+00  0.00000000000E+00 -0.10891912725E+04  0.10891912725E+04  0.25500000920E-02 0. -1.
    10030    2    1    2    0    0  0.00000000000E+00  0.00000000000E+00 -0.50749962887E+03  0.16708829161E+04  0.15919465588E+04 0.  0.
        2    1    3    3  502    0  0.27215297814E+03 -0.51218053779E+03  0.31842055187E+03  0.66165534431E+03  0.25500000920E-02 0.  1.
       -2    1    3    3    0  502 -0.27215297814E+03  0.51218053779E+03 -0.82592018074E+03  0.10092275718E+04  0.25500000920E-02 0. -1.
</event>
<event>
 5   0  0.9726935E-05  0.1588869E+04  0.7818609E-02  0.8827415E-01
       -1   -1    0    0    0  501  0.00000000000E+00  0.00000000000E+00  0.37253671948E+03  0.37253671951E+03  0.50400001928E-02 0.  1.
        1   -1    0    0  501    0  0.00000000000E+00  0.00000000000E+00 -0.16941324559E+04  0.16941324559E+04  0.50400001928E-02 0. -1.
    10030    2    1    2    0    0  0.00000000000E+00  0.00000000000E+00 -0.13215957364E+04  0.20666691754E+04  0.15888694692E+04 0.  0.
        2    1    3    3  502    0 -0.61384034846E+03 -0.66254026401E+02 -0.13110742780E+04  0.14491740171E+04  0.25500000920E-02 0. -1.
       -2    1    3    3    0  502  0.61384034846E+03  0.66254026401E+02 -0.10521458397E+02  0.61749515829E+03  0.25500000920E-02 0.  1.
</event>
<event>
 5   0  0.9673017E-05  0.1600610E+04  0.7818609E-02  0.8820173E-01
       -1   -1    0    0    0  501  0.00000000000E+00  0.00000000000E+00  0.95637177356E+03  0.95637177357E+03  0.50400001928E-02 0. -1.
        1   -1    0    0  501    0  0.00000000000E+00  0.00000000000E+00 -0.66970659496E+03  0.66970659498E+03  0.50400001928E-02 0.  1.
    10030    2    1    2    0    0  0.00000000000E+00  0.00000000000E+00  0.28666517860E+03  0.16260783685E+04  0.16006104885E+04 0.  0.
        1    1    3    3  502    0 -0.72061455700E+02 -0.78749766330E+03  0.18317438734E+02  0.79099996946E+03  0.50400001928E-02 0.  1.
       -1    1    3    3    0  502  0.72061455700E+02  0.78749766330E+03  0.26834773987E+03  0.83507839909E+03  0.50400001928E-02 0. -1.
</event>
<event>
 5   0  0.1835088E-04  0.1596281E+04  0.7818609E-02  0.8822836E-01
       -2   -1    0    0    0  501  0.00000000000E+00  0.00000000000E+00  0.46214374080E+03  0.46214374080E+03  0.25500000920E-02 0.  1.
        2   -1    0    0  501    0  0.00000000000E+00  0.00000000000E+00 -0.13784210165E+04  0.13784210165E+04  0.25500000920E-02 0. -1.
    10030    2    1    2    0    0  0.00000000000E+00  0.00000000000E+00 -0.91627727567E+03  0.18405647573E+04  0.15962814851E+04 0.  0.
        5    1    3    3  502    0  0.60039347412E+03 -0.42815368168E+03 -0.10609780134E+03  0.74502800777E+03  0.46999998093E+01 0.  1.
       -5    1    3    3    0  502 -0.60039347412E+03  0.42815368168E+03 -0.81017947433E+03  0.10955367495E+04  0.46999998093E+01 0. -1.
</event>
<event>
 5   0  0.1774934E-04  0.1597956E+04  0.7818609E-02  0.8821805E-01
       -2   -1    0    0    0  501  0.00000000000E+00  0.00000000000E+00  0.90618086708E+03  0.90618086708E+03  0.25500000920E-02 0.  1.
        2   -1    0    0  501    0  0.00000000000E+00  0.00000000000E+00 -0.70445766590E+03  0.70445766590E+03  0.25500000920E-02 0. -1.
    10030    2    1    2    0    0  0.00000000000E+00  0.00000000000E+00  0.20172320118E+03  0.16106385330E+04  0.15979562679E+04 0.  0.
        1    1    3    3  502    0  0.14781049744E+03  0.78298960841E+03  0.16002488728E+03  0.81272912745E+03  0.50400001928E-02 0. -1.
       -1    1    3    3    0  502 -0.14781049744E+03 -0.78298960841E+03  0.41698313907E+02  0.79790940553E+03  0.50400001928E-02 0.  1.
</event>
<event>
 5   0  0.9616567E-05  0.1599812E+04  0.7818609E-02  0.8820664E-01
       -1   -1    0    0    0  501  0.00000000000E+00  0.00000000000E+00  0.62584761960E+03  0.62584761962E+03  0.50400001928E-02 0.  1.
        1   -1    0    0  501    0  0.00000000000E+00  0.00000000000E+00 -0.10223725441E+04  0.10223725441E+04  0.50400001928E-02 0. -1.
    10030    2    1    2    0    0  0.00000000000E+00  0.00000000000E+00 -0.39652492448E+03  0.16482201637E+04  0.15998117678E+04 0.  0.
        5    1    3    3  502    0 -0.33535178012E+03 -0.41944705144E+03 -0.80901626117E+03  0.97104379213E+03  0.46999998093E+01 0. -1.
       -5    1    3    3    0  502  0.33535178012E+03  0.41944705144E+03  0.41249133669E+03  0.67717637159E+03  0.46999998093E+01 0.  1.
</event>
<event>
 5   0  0.9939872E-05  0.1509652E+04  0.7818609E-02  0.8878060E-01
        1   -1    0    0  501    0  0.00000000000E+00  0.00000000000E+00  0.17780915113E+04  0.17780915113E+04  0.50400001928E-02 0.  1.
       -1   -1    0    0    0  501  0.00000000000E+00  0.00000000000E+00 -0.32043480603E+03  0.32043480607E+03  0.50400001928E-02 0. -1.
    10030    2    1    2    0    0  0.00000000000E+00  0.00000000000E+00  0.14576567053E+04  0.20985263174E+04  0.15096521567E+04 0.  0.
        3    1    3    3  502    0  0.74162648818E+03  0.13873869065E+03  0.69761739256E+03  0.10275837235E+04  0.10100000352E+00 0. -1.
       -3    1    3    3    0  502 -0.74162648818E+03 -0.13873869065E+03  0.76003931271E+03  0.10709425938E+04  0.10100000352E+00 0.  1.
</event>
<event>
 5   0  0.1835088E-04  0.1623245E+04  0.7818609E-02  0.8806394E-01
       -2   -1    0    0    0  501  0.00000000000E+00  0.00000000000E+00  0.64198303802E+03  0.64198303802E+03  0.25500000920E-02 0.  1.
        2   -1    0    0  501    0  0.00000000000E+00  0.00000000000E+00 -0.10260881290E+04  0.10260881290E+04  0.25500000920E-02 0. -1.
    10030    2    1    2    0    0  0.00000000000E+00  0.00000000000E+00 -0.38410509101E+03  0.16680711671E+04  0.16232451132E+04 0.  0.
        5    1    3    3  502    0 -0.68334437718E+03 -0.74181576717E+02  0.25142812451E+03  0.73191573008E+03  0.46999998093E+01 0.  1.
       -5    1    3    3    0  502  0.68334437718E+03  0.74181576717E+02 -0.63553321552E+03  0.93615543697E+03  0.46999998093E+01 0. -1.
</event>
<event>
 5   0  0.9939872E-05  0.1595815E+04  0.7818609E-02  0.8823123E-01
        1   -1    0    0  501    0  0.00000000000E+00  0.00000000000E+00  0.96903948055E+03  0.96903948056E+03  0.50400001928E-02 0.  1.
       -1   -1    0    0    0  501  0.00000000000E+00  0.00000000000E+00 -0.65699764961E+03  0.65699764963E+03  0.50400001928E-02 0. -1.
    10030    2    1    2    0    0  0.00000000000E+00  0.00000000000E+00  0.31204183094E+03  0.16260371302E+04  0.15958153541E+04 0.  0.
        3    1    3    3  502    0  0.61398680555E+03 -0.50794939219E+03  0.11445287843E+03  0.80504152315E+03  0.10100000352E+00 0.  1.
       -3    1    3    3    0  502 -0.61398680555E+03  0.50794939219E+03  0.19758895251E+03  0.82099560704E+03  0.10100000352E+00 0. -1.
</event>
<event>
 5   0  0.1835088E-04  0.1600211E+04  0.7818609E-02  0.8820418E-01
        2   -1    0    0  501    0  0.00000000000E+00  0.00000000000E+00  0.15545218018E+04  0.15545218018E+04  0.25500000920E-02 0. -1.
       -2   -1    0    0    0  501  0.00000000000E+00  0.00000000000E+00 -0.41181101827E+03  0.41181101828E+03  0.25500000920E-02 0.  1.
    10030    2    1    2    0    0  0.00000000000E+00  0.00000000000E+00  0.11427107835E+04  0.19663328201E+04  0.16002114937E+04 0.  0.
        5    1    3    3  502    0 -0.64547154070E+03  0.15311488591E+03  0.21725911530E+02  0.66375581607E+03  0.46999998093E+01 0.  1.
       -5    1    3    3    0  502  0.64547154070E+03 -0.15311488591E+03  0.11209848720E+04  0.13025770040E+04  0.46999998093E+01 0. -1.
</event>
<event>
 5   0  0.9726935E-05  0.1600634E+04  0.7818609E-02  0.8820159E-01
        1   -1    0    0  501    0  0.00000000000E+00  0.00000000000E+00  0.79628907665E+03  0.79628907667E+03  0.50400001928E-02 0. -1.
       -1   -1    0    0    0  501  0.00000000000E+00  0.00000000000E+00 -0.80436515868E+03  0.80436515870E+03  0.50400001928E-02 0.  1.
    10030    2    1    2    0    0  0.00000000000E+00  0.00000000000E+00 -0.80760820333E+01  0.16006542354E+04  0.16006338613E+04 0.  0.
        2    1    3    3  502    0 -0.22543933651E+03  0.41996868879E+03  0.63886250914E+03  0.79708337055E+03  0.25500000920E-02 0. -1.
       -2    1    3    3    0  502  0.22543933651E+03 -0.41996868879E+03 -0.64693859118E+03  0.80357086481E+03  0.25500000920E-02 0.  1.
</event>
<event>
 5   0  0.1774934E-04  0.1600383E+04  0.7818609E-02  0.8820312E-01
        2   -1    0    0  501    0  0.00000000000E+00  0.00000000000E+00  0.25953308186E+04  0.25953308186E+04  0.25500000920E-02 0.  1.
       -2   -1    0    0    0  501  0.00000000000E+00  0.00000000000E+00 -0.24671491963E+03  0.24671491964E+03  0.25500000920E-02 0. -1.
    10030    2    1    2    0    0  0.00000000000E+00  0.00000000000E+00  0.23486158990E+04  0.28420457383E+04  0.16003834970E+04 0.  0.
        1    1    3    3  502    0 -0.19365602251E+03  0.73155625139E+03  0.71248500561E+03  0.10393806267E+04  0.50400001928E-02 0. -1.
       -1    1    3    3    0  502  0.19365602251E+03 -0.73155625139E+03  0.16361308934E+04  0.18026651115E+04  0.50400001928E-02 0.  1.
</event>
<event>
 5   0  0.9726935E-05  0.1602963E+04  0.7818609E-02  0.8818730E-01
        1   -1    0    0  501    0  0.00000000000E+00  0.00000000000E+00  0.79233737341E+03  0.79233737343E+03  0.50400001928E-02 0.  1.
       -1   -1    0    0    0  501  0.00000000000E+00  0.00000000000E+00 -0.81073140737E+03  0.81073140738E+03  0.50400001928E-02 0. -1.
    10030    2    1    2    0    0  0.00000000000E+00  0.00000000000E+00 -0.18394033955E+02  0.16030687808E+04  0.16029632483E+04 0.  0.
        2    1    3    3  502    0 -0.32384047644E+03 -0.24044215112E+03  0.68344349227E+03  0.79358685054E+03  0.25500000920E-02 0.  1.
       -2    1    3    3    0  502  0.32384047644E+03  0.24044215112E+03 -0.70183752622E+03  0.80948193027E+03  0.25500000920E-02 0. -1.
</event>
<event>
 5   0  0.1858913E-04  0.1598159E+04  0.7818609E-02  0.8821680E-01
       -2   -1    0    0    0  501  0.00000000000E+00  0.00000000000E+00  0.37838249210E+03  0.37838249211E+03  0.25500000920E-02 0. -1.
        2   -1    0    0  501    0  0.00000000000E+00  0.00000000000E+00 -0.16875195073E+04  0.16875195073E+04  0.25500000920E-02 0.  1.
    10030    2    1    2    0    0  0.00000000000E+00  0.00000000000E+00 -0.13091370152E+04  0.20659019994E+04  0.15981587363E+04 0.  0.
        4    1    3    3  502    0  0.38620288129E+03 -0.64055818663E+03 -0.29110164412E+03  0.80262646112E+03  0.12699999809E+01 0. -1.
       -4    1    3    3    0  502 -0.38620288129E+03  0.64055818663E+03 -0.10180353710E+04  0.12632755383E+04  0.12699999809E+01 0.  1.
</event>
<event>
 5   0  0.9432152E-05  0.1582174E+04  0.7818609E-02  0.8831575E-01
        1   -1    0    0  501    0  0.00000000000E+00  0.00000000000E+00  0.66706107195E+03  0.66706107197E+03  0.50400001928E-02 0.  1.
       -1   -1    0    0    0  501  0.00000000000E+00  0.00000000000E+00 -0.93817249331E+03  0.93817249333E+03  0.50400001928E-02 0. -1.
    10030    2    1    2    0    0  0.00000000000E+00  0.00000000000E+00 -0.27111142136E+03  0.16052335653E+04  0.15821736303E+04 0.  0.
        4    1    3    3  502    0 -0.14602785618E+03  0.12513491867E+02  0.65316515111E+03  0.66940798455E+03  0.12699999809E+01 0.  1.
       -4    1    3    3    0  502  0.14602785618E+03 -0.12513491867E+02 -0.92427657247E+03  0.93582558074E+03  0.12699999809E+01 0. -1.
</event>
<event>
 5   0  0.6838750E-05  0.1599252E+04  0.7818609E-02  0.8821008E-01
        4   -1    0    0  501    0  0.00000000000E+00  0.00000000000E+00  0.54376542661E+03  0.54376690970E+03  0.12699999809E+01 0.  1.
       -4   -1    0    0    0  501  0.00000000000E+00  0.00000000000E+00 -0.11758738100E+04  0.11758744959E+04  0.12699999809E+01 0. -1.
    10030    2    1    2    0    0  0.00000000000E+00  0.00000000000E+00 -0.63210838343E+03  0.17196414056E+04  0.15992515610E+04 0.  0.
        3    1    3    3  502    0  0.16989516123E+03 -0.69488635845E+03  0.68152986170E+02  0.71859324843E+03  0.10100000352E+00 0.  1.
       -3    1    3    3    0  502 -0.16989516123E+03  0.69488635845E+03 -0.70026136960E+03  0.10010481571E+04  0.10100000352E+00 0. -1.
</event>
<event>
 5   0  0.9616567E-05  0.1603668E+04  0.7818609E-02  0.8818298E-01
        1   -1    0    0  501    0  0.00000000000E+00  0.00000000000E+00  0.11751042277E+04  0.11751042278E+04  0.50400001928E-02 0. -1.
       -1   -1    0    0    0  501  0.00000000000E+00  0.00000000000E+00 -0.54713240015E+03  0.54713240017E+03  0.50400001928E-02 0.  1.
    10030    2    1    2    0    0  0.00000000000E+00  0.00000000000E+00  0.62797182760E+03  0.17222366279E+04  0.16036677918E+04 0.  0.
        5    1    3    3  502    0  0.38724234875E+03 -0.60737620165E+03 -0.64266827820E+02  0.72319762316E+03  0.46999998093E+01 0.  1.
       -5    1    3    3    0  502 -0.38724234875E+03  0.60737620165E+03  0.69223865542E+03  0.99903900477E+03  0.46999998093E+01 0. -1.
</event>
<event>
 5   0  0.9726935E-05  0.1599497E+04  0.7818609E-02  0.8820857E-01
        1   -1    0    0  501    0  0.00000000000E+00  0.00000000000E+00  0.58641076011E+03  0.58641076014E+03  0.50400001928E-02 0. -1.
       -1   -1    0    0    0  501  0.00000000000E+00  0.00000000000E+00 -0.10906992646E+04  0.10906992646E+04  0.50400001928E-02 0.  1.
    10030    2    1    2    0    0  0.00000000000E+00  0.00000000000E+00 -0.50428850452E+03  0.16771100248E+04  0.15994971521E+04 0.  0.
        2    1    3    3  502    0 -0.28573095892E+03  0.22218613927E+02 -0.10350071186E+04  0.10739532500E+04  0.25500000920E-02 0.  1.
       -2    1    3    3    0  502  0.28573095892E+03 -0.22218613927E+02  0.53071861404E+03  0.60315677479E+03  0.25500000920E-02 0. -1.
</event>
<event>
 5   0  0.9939872E-05  0.1594168E+04  0.7818609E-02  0.8824139E-01
        1   -1    0    0  501    0  0.00000000000E+00  0.00000000000E+00  0.11780994702E+04  0.11780994702E+04  0.50400001928E-02 0.  1.
       -1   -1    0    0    0  501  0.00000000000E+00  0.00000000000E+00 -0.53929456451E+03  0.53929456454E+03  0.50400001928E-02 0. -1.
    10030    2    1    2    0    0  0.00000000000E+00  0.00000000000E+00  0.63880490568E+03  0.17173940347E+04  0.15941676709E+04 0.  0.
        3    1    3    3  502    0 -0.74592313006E+02  0.79358276473E+03  0.31699042870E+03  0.85779983663E+03  0.10100000352E+00 0. -1.
       -3    1    3    3    0  502  0.74592313006E+02 -0.79358276473E+03  0.32181447699E+03  0.85959419811E+03  0.10100000352E+00 0.  1.
</event>
<event>
 5   0  0.9616567E-05  0.1681257E+04  0.7818609E-02  0.8772127E-01
       -1   -1    0    0    0  501  0.00000000000E+00  0.00000000000E+00  0.68726319812E+03  0.68726319814E+03  0.50400001928E-02 0.  1.
        1   -1    0    0  501    0  0.00000000000E+00  0.00000000000E+00 -0.10282182206E+04  0.10282182206E+04  0.50400001928E-02 0. -1.
    10030    2    1    2    0    0  0.00000000000E+00  0.00000000000E+00 -0.34095502250E+03  0.17154814188E+04  0.16812573184E+04 0.  0.
        5    1    3    3  502    0  0.53074993770E+03 -0.21530672108E+03  0.45733764398E+03  0.73296131625E+03  0.46999998093E+01 0.  1.
       -5    1    3    3    0  502 -0.53074993770E+03  0.21530672108E+03 -0.79829266648E+03  0.98252010253E+03  0.46999998093E+01 0. -1.
</event>
<event>
 5   0  0.9616567E-05  0.1592248E+04  0.7818609E-02  0.8825325E-01
       -1   -1    0    0    0  501  0.00000000000E+00  0.00000000000E+00  0.94927612940E+03  0.94927612941E+03  0.50400001928E-02 0. -1.
        1   -1    0    0  501    0  0.00000000000E+00  0.00000000000E+00 -0.66768081104E+03  0.66768081106E+03  0.50400001928E-02 0.  1.
    10030    2    1    2    0    0  0.00000000000E+00  0.00000000000E+00  0.28159531836E+03  0.16169569405E+04  0.15922480410E+04 0.  0.
        5    1    3    3  502    0 -0.56828722806E+03  0.10492142650E+03  0.69686459827E+03  0.90531830735E+03  0.46999998093E+01 0. -1.
       -5    1    3    3    0  502  0.56828722806E+03 -0.10492142650E+03 -0.41526927991E+03  0.71163863312E+03  0.46999998093E+01 0.  1.
</event>
<event>
 5   0  0.9616567E-05  0.1603617E+04  0.7818609E-02  0.8818329E-01
        1   -1    0    0  501    0  0.00000000000E+00  0.00000000000E+00  0.78517115570E+03  0.78517115572E+03  0.50400001928E-02 0.  1.
       -1   -1    0    0    0  501  0.00000000000E+00  0.00000000000E+00 -0.81879887226E+03  0.81879887227E+03  0.50400001928E-02 0. -1.
    10030    2    1    2    0    0  0.00000000000E+00  0.00000000000E+00 -0.33627716560E+02  0.16039700280E+04  0.16036174816E+04 0.  0.
        5    1    3    3  502    0 -0.30300546809E+03  0.74009156367E+03  0.40881840719E+02  0.80077540622E+03  0.46999998093E+01 0.  1.
       -5    1    3    3    0  502  0.30300546809E+03 -0.74009156367E+03 -0.74509557279E+02  0.80319462177E+03  0.46999998093E+01 0. -1.
</event>
<event>
 5   0  0.1858913E-04  0.1595142E+04  0.7818609E-02  0.8823538E-01
       -2   -1    0    0    0  501  0.00000000000E+00  0.00000000000E+00  0.47184760527E+03  0.47184760527E+03  0.25500000920E-02 0. -1.
        2   -1    0    0  501    0  0.00000000000E+00  0.00000000000E+00 -0.13481468563E+04  0.13481468563E+04  0.25500000920E-02 0.  1.
    10030    2    1    2    0    0  0.00000000000E+00  0.00000000000E+00 -0.87629925102E+03  0.18199944616E+04  0.15951424585E+04 0.  0.
        4    1    3    3  502    0  0.65935584815E+03  0.42303647603E+01 -0.95012214223E+03  0.11565040979E+04  0.12699999809E+01 0.  1.
       -4    1    3    3    0  502 -0.65935584815E+03 -0.42303647603E+01  0.73822891206E+02  0.66349036364E+03  0.12699999809E+01 0. -1.
</event>
<event>
 5   0  0.9432152E-05  0.1581252E+04  0.7818609E-02  0.8832149E-01
        1   -1    0    0  501    0  0.00000000000E+00  0.00000000000E+00  0.10620562367E+04  0.10620562367E+04  0.50400001928E-02 0. -1.
       -1   -1    0    0    0  501  0.00000000000E+00  0.00000000000E+00 -0.58856515069E+03  0.58856515071E+03  0.50400001928E-02 0.  1.
    10030    2    1    2    0    0  0.00000000000E+00  0.00000000000E+00  0.47349108605E+03  0.16506213875E+04  0.15812517688E+04 0.  0.
        4    1    3    3  502    0  0.17053273524E+03  0.50042525971E+03 -0.37690519416E+03  0.64928113528E+03  0.12699999809E+01 0.  1.
       -4    1    3    3    0  502 -0.17053273524E+03 -0.50042525971E+03  0.85039628021E+03  0.10013402522E+04  0.12699999809E+01 0. -1.
</event>
<event>
 5   0  0.1914170E-04  0.1602929E+04  0.7818609E-02  0.8818751E-01
        2   -1    0    0  501    0  0.00000000000E+00  0.00000000000E+00  0.10599775793E+04  0.10599775793E+04  0.25500000920E-02 0. -1.
       -2   -1    0    0    0  501  0.00000000000E+00  0.00000000000E+00 -0.60599892043E+03  0.60599892043E+03  0.25500000920E-02 0.  1.
    10030    2    1    2    0    0  0.00000000000E+00  0.00000000000E+00  0.45397865882E+03  0.16659764997E+04  0.16029289051E+04 0.  0.
        3    1    3    3  502    0  0.16002156625E+03 -0.73627119627E+03  0.51094424626E+03  0.91036597536E+03  0.10100000352E+00 0. -1.
       -3    1    3    3    0  502 -0.16002156625E+03  0.73627119627E+03 -0.56965587431E+02  0.75561052432E+03  0.10100000352E+00 0.  1.
</event>
<event>
 5   0  0.1774934E-04  0.1601635E+04  0.7818609E-02  0.8819544E-01
       -2   -1    0    0    0  501  0.00000000000E+00  0.00000000000E+00  0.87178260623E+03  0.87178260623E+03  0.25500000920E-02 0.  1.
        2   -1    0    0  501    0  0.00000000000E+00  0.00000000000E+00 -0.73562889239E+03  0.73562889239E+03  0.25500000920E-02 0. -1.
    10030    2    1    2    0    0  0.00000000000E+00  0.00000000000E+00  0.13615371384E+03  0.16074114986E+04  0.16016347562E+04 0.  0.
        1    1    3    3  502    0  0.46425797646E+03  0.15572949667E+03 -0.56786571031E+03  0.74983905594E+03  0.50400001928E-02 0. -1.
       -1    1    3    3    0  502 -0.46425797646E+03 -0.15572949667E+03  0.70401942416E+03  0.85757244269E+03  0.50400001928E-02 0.  1.
</event>
<event>
 5   0  0.9432152E-05  0.1604446E+04  0.7818609E-02  0.8817821E-01
       -1   -1    0    0    0  501  0.00000000000E+00  0.00000000000E+00  0.67008343039E+03  0.67008343041E+03  0.50400001928E-02 0. -1.
        1   -1    0    0  501    0  0.00000000000E+00  0.00000000000E+00 -0.96042033808E+03  0.96042033809E+03  0.50400001928E-02 0.  1.
    10030    2    1    2    0    0  0.00000000000E+00  0.00000000000E+00 -0.29033690769E+03  0.16305037685E+04  0.16044460163E+04 0.  0.
        4    1    3    3  502    0 -0.43411463771E+03 -0.62148955642E+03  0.12149626304E+03  0.76776802632E+03  0.12699999809E+01 0. -1.
       -4    1    3    3    0  502  0.43411463771E+03  0.62148955642E+03 -0.41183317073E+03  0.86273574217E+03  0.12699999809E+01 0.  1.
</event>
<event>
 5   0  0.1774934E-04  0.1599629E+04  0.7818609E-02  0.8820776E-01
        2   -1    0    0  501    0  0.00000000000E+00  0.00000000000E+00  0.55951046345E+03  0.55951046345E+03  0.25500000920E-02 0. -1.
       -2   -1    0    0    0  501  0.00000000000E+00  0.00000000000E+00 -0.11433264925E+04  0.11433264925E+04  0.25500000920E-02 0.  1.
    10030    2    1    2    0    0  0.00000000000E+00  0.00000000000E+00 -0.58381602904E+03  0.17028369560E+04  0.15996288766E+04 0.  0.
        1    1    3    3  502    0 -0.13003077395E+03  0.19917773608E+03 -0.11048022661E+04  0.11301184981E+04  0.50400001928E-02 0.  1.
       -1    1    3    3    0  502  0.13003077395E+03 -0.19917773608E+03  0.52098623702E+03  0.57271845781E+03  0.50400001928E-02 0. -1.
</event>
<event>
 5   0  0.1774934E-04  0.1598860E+04  0.7818609E-02  0.8821249E-01
       -2   -1    0    0    0  501  0.00000000000E+00  0.00000000000E+00  0.96709147685E+03  0.96709147685E+03  0.25500000920E-02 0. -1.
        2   -1    0    0  501    0  0.00000000000E+00  0.00000000000E+00 -0.66083504777E+03  0.66083504778E+03  0.25500000920E-02 0.  1.
    10030    2    1    2    0    0  0.00000000000E+00  0.00000000000E+00  0.30625642907E+03  0.16279265246E+04  0.15988595214E+04 0.  0.
        1    1    3    3  502    0 -0.21882787568E+03  0.45117370527E+03  0.78705828927E+03  0.93322242913E+03  0.50400001928E-02 0. -1.
       -1    1    3    3    0  502  0.21882787568E+03 -0.45117370527E+03 -0.48080186020E+03  0.69470409549E+03  0.50400001928E-02 0.  1.
</event>
<event>
 5   0  0.9726935E-05  0.1628150E+04  0.7818609E-02  0.8803439E-01
       -1   -1    0    0    0  501  0.00000000000E+00  0.00000000000E+00  0.87176964231E+03  0.87176964233E+03  0.50400001928E-02 0.  1.
        1   -1    0    0  501    0  0.00000000000E+00  0.00000000000E+00 -0.76019852298E+03  0.76019852300E+03  0.50400001928E-02 0. -1.
    10030    2    1    2    0    0  0.00000000000E+00  0.00000000000E+00  0.11157111933E+03  0.16319681653E+04  0.16281498635E+04 0.  0.
        2    1    3    3  502    0 -0.28458832152E+03  0.37672971895E+03  0.72051666971E+03  0.86142908311E+03  0.25500000920E-02 0.  1.
       -2    1    3    3    0  502  0.28458832152E+03 -0.37672971895E+03 -0.60894555038E+03  0.77053908221E+03  0.25500000920E-02 0. -1.
</event>
<event>
 5   0  0.1774934E-04  0.1603317E+04  0.7818609E-02  0.8818513E-01
       -2   -1    0    0    0  501  0.00000000000E+00  0.00000000000E+00  0.42170558382E+03  0.42170558383E+03  0.25500000920E-02 0. -1.
        2   -1    0    0  501    0  0.00000000000E+00  0.00000000000E+00 -0.15239451843E+04  0.15239451843E+04  0.25500000920E-02 0.  1.
    10030    2    1    2    0    0  0.00000000000E+00  0.00000000000E+00 -0.11022396005E+04  0.19456507681E+04  0.16033168042E+04 0.  0.
        1    1    3    3  502    0 -0.35206690760E+03  0.64528100946E+03 -0.93928850306E+03  0.11927286282E+04  0.50400001928E-02 0.  1.
       -1    1    3    3    0  502  0.35206690760E+03 -0.64528100946E+03 -0.16295109742E+03  0.75292213991E+03  0.50400001928E-02 0. -1.
</event>
<event>
 5   0  0.9432152E-05  0.1569091E+04  0.7818609E-02  0.8839765E-01
        1   -1    0    0  501    0  0.00000000000E+00  0.00000000000E+00  0.59504942729E+03  0.59504942731E+03  0.50400001928E-02 0. -1.
       -1   -1    0    0    0  501  0.00000000000E+00  0.00000000000E+00 -0.10343875437E+04  0.10343875438E+04  0.50400001928E-02 0.  1.
    10030    2    1    2    0    0  0.00000000000E+00  0.00000000000E+00 -0.43933811645E+03  0.16294369711E+04  0.15690910943E+04 0.  0.
        4    1    3    3  502    0  0.15113066649E+03 -0.23964147968E+03  0.54006978779E+03  0.60987335219E+03  0.12699999809E+01 0. -1.
       -4    1    3    3    0  502 -0.15113066649E+03  0.23964147968E+03 -0.97940790424E+03  0.10195636189E+04  0.12699999809E+01 0.  1.
</event>
<event>
 5   0  0.9726935E-05  0.1676101E+04  0.7818609E-02  0.8775114E-01
        1   -1    0    0  501    0  0.00000000000E+00  0.00000000000E+00  0.10803441280E+04  0.10803441280E+04  0.50400001928E-02 0. -1.
       -1   -1    0    0    0  501  0.00000000000E+00  0.00000000000E+00 -0.65009697400E+03  0.65009697402E+03  0.50400001928E-02 0.  1.
    10030    2    1    2    0    0  0.00000000000E+00  0.00000000000E+00  0.43024715396E+03  0.17304411020E+04  0.16761007708E+04 0.  0.
        2    1    3    3  502    0  0.23437716001E+03  0.25963306681E+03  0.10013825702E+04  0.10607115699E+04  0.25500000920E-02 0. -1.
       -2    1    3    3    0  502 -0.23437716001E+03 -0.25963306681E+03 -0.57113541624E+03  0.66972953213E+03  0.25500000920E-02 0.  1.
</event>
<event>
 5   0  0.9432152E-05  0.1600126E+04  0.7818609E-02  0.8820471E-01
        1   -1    0    0  501    0  0.00000000000E+00  0.00000000000E+00  0.76716172813E+03  0.76716172814E+03  0.50400001928E-02 0. -1.
       -1   -1    0    0    0  501  0.00000000000E+00  0.00000000000E+00 -0.83437548378E+03  0.83437548380E+03  0.50400001928E-02 0.  1.
    10030    2    1    2    0    0  0.00000000000E+00  0.00000000000E+00 -0.67213755658E+02  0.16015372119E+04  0.16001261676E+04 0.  0.
        4    1    3    3  502    0 -0.73581024180E+03  0.19008134855E+03  0.21671703858E+03  0.79026294277E+03  0.12699999809E+01 0. -1.
       -4    1    3    3    0  502  0.73581024180E+03 -0.19008134855E+03 -0.28393079424E+03  0.81127426917E+03  0.12699999809E+01 0.  1.
</event>
<event>
 5   0  0.1774934E-04  0.1597845E+04  0.7818609E-02  0.8821873E-01
        2   -1    0    0  501    0  0.00000000000E+00  0.00000000000E+00  0.85137068930E+03  0.85137068931E+03  0.25500000920E-02 0.  1.
       -2   -1    0    0    0  501  0.00000000000E+00  0.00000000000E+00 -0.74970505833E+03  0.74970505833E+03  0.25500000920E-02 0. -1.
    10030    2    1    2    0    0  0.00000000000E+00  0.00000000000E+00  0.10166563098E+03  0.16010757476E+04  0.15978446887E+04 0.  0.
        1    1    3    3  502    0  0.34293616872E+03  0.58085040674E+02 -0.66985576680E+03  0.75477535473E+03  0.50400001928E-02 0. -1.
       -1    1    3    3    0  502 -0.34293616872E+03 -0.58085040674E+02  0.77152139778E+03  0.84630039290E+03  0.50400001928E-02 0.  1.
</event>
<event>
 5   0  0.9673017E-05  0.1587648E+04  0.7818609E-02  0.8828172E-01
        1   -1    0    0  501    0  0.00000000000E+00  0.00000000000E+00  0.76656555177E+03  0.76656555179E+03  0.50400001928E-02 0. -1.
       -1   -1    0    0    0  501  0.00000000000E+00  0.00000000000E+00 -0.82205165969E+03  0.82205165971E+03  0.50400001928E-02 0.  1.
    10030    2    1    2    0    0  0.00000000000E+00  0.00000000000E+00 -0.55486107923E+02  0.15886172115E+04  0.15876479259E+04 0.  0.
        1    1    3    3  502    0  0.56382015608E+03 -0.19039667163E+03  0.49794653735E+03  0.77594768835E+03  0.50400001928E-02 0. -1.
       -1    1    3    3    0  502 -0.56382015608E+03  0.19039667163E+03 -0.55343264527E+03  0.81266952315E+03  0.50400001928E-02 0.  1.
</event>
<event>
 5   0  0.9432152E-05  0.1596523E+04  0.7818609E-02  0.8822687E-01
        1   -1    0    0  501    0  0.00000000000E+00  0.00000000000E+00  0.12425481490E+04  0.12425481490E+04  0.50400001928E-02 0.  1.
       -1   -1    0    0    0  501  0.00000000000E+00  0.00000000000E+00 -0.51283462409E+03  0.51283462411E+03  0.50400001928E-02 0. -1.
    10030    2    1    2    0    0  0.00000000000E+00  0.00000000000E+00  0.72971352488E+03  0.17553827731E+04  0.15965233640E+04 0.  0.
        4    1    3    3  502    0  0.14107073948E+03  0.61934102236E+03 -0.16671170748E+03  0.65671809921E+03  0.12699999809E+01 0. -1.
       -4    1    3    3    0  502 -0.14107073948E+03 -0.61934102236E+03  0.89642523236E+03  0.10986646739E+04  0.12699999809E+01 0.  1.
</event>
<event>
 5   0  0.1832646E-04  0.1550897E+04  0.7818609E-02  0.8851295E-01
       -2   -1    0    0    0  501  0.00000000000E+00  0.00000000000E+00  0.71930823346E+03  0.71930823346E+03  0.25500000920E-02 0.  1.
        2   -1    0    0  501    0  0.00000000000E+00  0.00000000000E+00 -0.83597070565E+03  0.83597070565E+03  0.25500000920E-02 0. -1.
    10030    2    1    2    0    0  0.00000000000E+00  0.00000000000E+00 -0.11666247219E+03  0.15552789391E+04  0.15508973035E+04 0.  0.
        2    1    3    3  502    0  0.31940446441E+03  0.48637896511E+03  0.45569559334E+03  0.73908198692E+03  0.25500000920E-02 0.  1.
       -2    1    3    3    0  502 -0.31940446441E+03 -0.48637896511E+03 -0.57235806553E+03  0.81619695220E+03  0.25500000920E-02 0. -1.
</event>
<event>
 5   0  0.1832646E-04  0.1592526E+04  0.7818609E-02  0.8825153E-01
       -2   -1    0    0    0  501  0.00000000000E+00  0.00000000000E+00  0.47560400085E+03  0.47560400086E+03  0.25500000920E-02 0. -1.
        2   -1    0    0  501    0  0.00000000000E+00  0.00000000000E+00 -0.13331154473E+04  0.13331154474E+04  0.25500000920E-02 0.  1.
    10030    2    1    2    0    0  0.00000000000E+00  0.00000000000E+00 -0.85751144650E+03  0.18087194482E+04  0.15925263456E+04 0.  0.
        2    1    3    3  502    0  0.16479971096E+03 -0.48293856742E+03 -0.11230043103E+04  0.12335020412E+04  0.25500000920E-02 0. -1.
       -2    1    3    3    0  502 -0.16479971096E+03  0.48293856742E+03  0.26549286380E+03  0.57521740704E+03  0.25500000920E-02 0.  1.
</event>
<event>
 5   0  0.1835088E-04  0.1593339E+04  0.7818609E-02  0.8824651E-01
        2   -1    0    0  501    0  0.00000000000E+00  0.00000000000E+00  0.71566761582E+03  0.71566761582E+03  0.25500000920E-02 0.  1.
       -2   -1    0    0    0  501  0.00000000000E+00  0.00000000000E+00 -0.88683905403E+03  0.88683905403E+03  0.25500000920E-02 0. -1.
    10030    2    1    2    0    0  0.00000000000E+00  0.00000000000E+00 -0.17117143821E+03  0.16025066699E+04  0.15933386224E+04 0.  0.
        5    1    3    3  502    0 -0.38723911576E+03 -0.61498768377E+03 -0.41380058060E+03  0.83631154151E+03  0.46999998093E+01 0. -1.
       -5    1    3    3    0  502  0.38723911576E+03  0.61498768377E+03  0.24262914239E+03  0.76619512835E+03  0.46999998093E+01 0.  1.
</event>
<event>
 5   0  0.1774934E-04  0.1602624E+04  0.7818609E-02  0.8818938E-01
        2   -1    0    0  501    0  0.00000000000E+00  0.00000000000E+00  0.15883067637E+04  0.15883067637E+04  0.25500000920E-02 0.  1.
       -2   -1    0    0    0  501  0.00000000000E+00  0.00000000000E+00 -0.40426750224E+03  0.40426750225E+03  0.25500000920E-02 0. -1.
    10030    2    1    2    0    0  0.00000000000E+00  0.00000000000E+00  0.11840392615E+04  0.19925742659E+04  0.16026238588E+04 0.  0.
        1    1    3    3  502    0 -0.60846289270E+03 -0.49464294985E+03  0.79708101189E+03  0.11181399193E+04  0.50400001928E-02 0.  1.
       -1    1    3    3    0  502  0.60846289270E+03  0.49464294985E+03  0.38695824957E+03  0.87443434663E+03  0.50400001928E-02 0. -1.
</event>
<event>
 5   0  0.9939872E-05  0.1600534E+04  0.7818609E-02  0.8820220E-01
       -1   -1    0    0    0  501  0.00000000000E+00  0.00000000000E+00  0.97509187964E+03  0.97509187966E+03  0.50400001928E-02 0.  1.
        1   -1    0    0  501    0  0.00000000000E+00  0.00000000000E+00 -0.65678651995E+03  0.65678651997E+03  0.50400001928E-02 0. -1.
    10030    2    1    2    0    0  0.00000000000E+00  0.00000000000E+00  0.31830535969E+03  0.16318783996E+04  0.16005339138E+04 0.  0.
        3    1    3    3  502    0 -0.53676683083E+03  0.21600906126E+02  0.76393171822E+03  0.93390412256E+03  0.10100000352E+00 0.  1.
       -3    1    3    3    0  502  0.53676683083E+03 -0.21600906126E+02 -0.44562635853E+03  0.69797427706E+03  0.10100000352E+00 0. -1.
</event>
<event>
 5   0  0.1858913E-04  0.1602815E+04  0.7818609E-02  0.8818820E-01
       -2   -1    0    0    0  501  0.00000000000E+00  0.00000000000E+00  0.37254270313E+03  0.37254270313E+03  0.25500000920E-02 0.  1.
        2   -1    0    0  501    0  0.00000000000E+00  0.00000000000E+00 -0.17239749455E+04  0.17239749455E+04  0.25500000920E-02 0. -1.
    10030    2    1    2    0    0  0.00000000000E+00  0.00000000000E+00 -0.13514322424E+04  0.20965176486E+04  0.16028153809E+04 0.  0.
        4    1    3    3  502    0  0.23830076867E+03 -0.75284219415E+03 -0.85455695891E+03  0.11635410756E+04  0.12699999809E+01 0. -1.
       -4    1    3    3    0  502 -0.23830076867E+03  0.75284219415E+03 -0.49687528346E+03  0.93297657305E+03  0.12699999809E+01 0.  1.
</event>
<event>
 5   0  0.1835088E-04  0.1571506E+04  0.7818609E-02  0.8838247E-01
       -2   -1    0    0    0  501  0.00000000000E+00  0.00000000000E+00  0.13968984705E+04  0.13968984705E+04  0.25500000920E-02 0. -1.
        2   -1    0    0  501    0  0.00000000000E+00  0.00000000000E+00 -0.44198487894E+03  0.44198487895E+03  0.25500000920E-02 0.  1.
    10030    2    1    2    0    0  0.00000000000E+00  0.00000000000E+00  0.95491359160E+03  0.18388833495E+04  0.15715062856E+04 0.  0.
        5    1    3    3  502    0  0.14866260318E+03 -0.67803949278E+03  0.90826530768E+03  0.11431561934E+04  0.46999998093E+01 0. -1.
       -5    1    3    3    0  502 -0.14866260318E+03  0.67803949278E+03  0.46648283924E+02  0.69572715611E+03  0.46999998093E+01 0.  1.
</event>
<event>
 5   0  0.1774934E-04  0.1609853E+04  0.7818609E-02  0.8814518E-01
        2   -1    0    0  501    0  0.00000000000E+00  0.00000000000E+00  0.33811151703E+03  0.33811151704E+03  0.25500000920E-02 0. -1.
       -2   -1    0    0    0  501  0.00000000000E+00  0.00000000000E+00 -0.19162519158E+04  0.19162519158E+04  0.25500000920E-02 0.  1.
    10030    2    1    2    0    0  0.00000000000E+00  0.00000000000E+00 -0.15781403988E+04  0.22543634329E+04  0.16098532135E+04 0.  0.
        1    1    3    3  502    0  0.37727166657E+03 -0.53024885256E+03 -0.14524433213E+04  0.15915682071E+04  0.50400001928E-02 0.  1.
       -1    1    3    3    0  502 -0.37727166657E+03  0.53024885256E+03 -0.12569707748E+03  0.66279522581E+03  0.50400001928E-02 0. -1.
</event>
<event>
 5   0  0.9673017E-05  0.1597447E+04  0.7818609E-02  0.8822118E-01
       -1   -1    0    0    0  501  0.00000000000E+00  0.00000000000E+00  0.65741886720E+03  0.65741886722E+03  0.50400001928E-02 0. -1.
        1   -1    0    0  501    0  0.00000000000E+00  0.00000000000E+00 -0.97040007875E+03  0.97040007876E+03  0.50400001928E-02 0.  1.
    10030    2    1    2    0    0  0.00000000000E+00  0.00000000000E+00 -0.31298121155E+03  0.16278189460E+04  0.15974471140E+04 0.  0.
        1    1    3    3  502    0  0.21260537107E+03 -0.61115205941E+03 -0.63363610763E+03  0.90565037429E+03  0.50400001928E-02 0.  1.
       -1    1    3    3    0  502 -0.21260537107E+03  0.61115205941E+03  0.32065489609E+03  0.72216857169E+03  0.50400001928E-02 0. -1.
</event>
<event>
 5   0  0.6838750E-05  0.1605017E+04  0.7818609E-02  0.8817472E-01
        4   -1    0    0  501    0  0.00000000000E+00  0.00000000000E+00  0.68324802125E+03  0.68324920157E+03  0.12699999809E+01 0. -1.
       -4   -1    0    0    0  501  0.00000000000E+00  0.00000000000E+00 -0.94258289482E+03  0.94258375039E+03  0.12699999809E+01 0.  1.
    10030    2    1    2    0    0  0.00000000000E+00  0.00000000000E+00 -0.25933487357E+03  0.16258329520E+04  0.16050165766E+04 0.  0.
        5    1    3    3  502    0 -0.73201286601E+03 -0.35689936193E+02  0.20149903368E+03  0.76009246682E+03  0.46999998093E+01 0. -1.
       -5    1    3    3    0  502  0.73201286601E+03  0.35689936193E+02 -0.46083390725E+03  0.86574048514E+03  0.46999998093E+01 0.  1.
</event>
<event>
 5   0  0.9726935E-05  0.1602128E+04  0.7818609E-02  0.8819241E-01
        1   -1    0    0  501    0  0.00000000000E+00  0.00000000000E+00  0.88302766308E+03  0.88302766309E+03  0.50400001928E-02 0.  1.
       -1   -1    0    0    0  501  0.00000000000E+00  0.00000000000E+00 -0.72670873236E+03  0.72670873238E+03  0.50400001928E-02 0. -1.
    10030    2    1    2    0    0  0.00000000000E+00  0.00000000000E+00  0.15631893071E+03  0.16097363955E+04  0.16021284764E+04 0.  0.
        2    1    3    3  502    0 -0.62843933063E+03 -0.43157043026E+02 -0.41906970200E+03  0.75658306734E+03  0.25500000920E-02 0. -1.
       -2    1    3    3    0  502  0.62843933063E+03  0.43157043026E+02  0.57538863271E+03  0.85315332813E+03  0.25500000920E-02 0.  1.
</event>
<event>
 5   0  0.1832646E-04  0.1590418E+04  0.7818609E-02  0.8826456E-01
        2   -1    0    0  501    0  0.00000000000E+00  0.00000000000E+00  0.60350652481E+03  0.60350652482E+03  0.25500000920E-02 0.  1.
       -2   -1    0    0    0  501  0.00000000000E+00  0.00000000000E+00 -0.10478051469E+04  0.10478051469E+04  0.25500000920E-02 0. -1.
    10030    2    1    2    0    0  0.00000000000E+00  0.00000000000E+00 -0.44429862211E+03  0.16513116717E+04  0.15904178607E+04 0.  0.
        2    1    3    3  502    0  0.35392226971E+03  0.19306511791E+03 -0.93382895031E+03  0.10171389390E+04  0.25500000920E-02 0. -1.
       -2    1    3    3    0  502 -0.35392226971E+03 -0.19306511791E+03  0.48953032820E+03  0.63417273277E+03  0.25500000920E-02 0.  1.
</event>
<event>
 5   0  0.1858913E-04  0.1575003E+04  0.7818609E-02  0.8836054E-01
       -2   -1    0    0    0  501  0.00000000000E+00  0.00000000000E+00  0.85427201979E+03  0.85427201979E+03  0.25500000920E-02 0.  1.
        2   -1    0    0  501    0  0.00000000000E+00  0.00000000000E+00 -0.72594943960E+03  0.72594943961E+03  0.25500000920E-02 0. -1.
    10030    2    1    2    0    0  0.00000000000E+00  0.00000000000E+00  0.12832258018E+03  0.15802214594E+04  0.15750025956E+04 0.  0.
        4    1    3    3  502    0  0.17642300751E+03 -0.52863063040E+03 -0.49408264469E+03  0.74477828490E+03  0.12699999809E+01 0. -1.
       -4    1    3    3    0  502 -0.17642300751E+03  0.52863063040E+03  0.62240522487E+03  0.83544317450E+03  0.12699999809E+01 0.  1.
</event>
<event>
 5   0  0.1835088E-04  0.1601701E+04  0.7818609E-02  0.8819504E-01
        2   -1    0    0  501    0  0.00000000000E+00  0.00000000000E+00  0.67049049218E+03  0.67049049219E+03  0.25500000920E-02 0.  1.
       -2   -1    0    0    0  501  0.00000000000E+00  0.00000000000E+00 -0.95655562254E+03  0.95655562254E+03  0.25500000920E-02 0. -1.
    10030    2    1    2    0    0  0.00000000000E+00  0.00000000000E+00 -0.28606513036E+03  0.16270461147E+04  0.16017009086E+04 0.  0.
        5    1    3    3  502    0  0.64615574089E+03  0.96053273065E+02  0.32754274543E+03  0.73078711869E+03  0.46999998093E+01 0.  1.
       -5    1    3    3    0  502 -0.64615574089E+03 -0.96053273065E+02 -0.61360787579E+03  0.89625899604E+03  0.46999998093E+01 0. -1.
</event>
<event>
 5   0  0.9432152E-05  0.1611804E+04  0.7818609E-02  0.8813329E-01
       -1   -1    0    0    0  501  0.00000000000E+00  0.00000000000E+00  0.90395343563E+03  0.90395343565E+03  0.50400001928E-02 0.  1.
        1   -1    0    0  501    0  0.00000000000E+00  0.00000000000E+00 -0.71848618136E+03  0.71848618138E+03  0.50400001928E-02 0. -1.
    10030    2    1    2    0    0  0.00000000000E+00  0.00000000000E+00  0.18546725427E+03  0.16224396170E+04  0.16118040230E+04 0.  0.
        4    1    3    3  502    0  0.73962681914E+01 -0.60585085589E+03 -0.44215439536E+03  0.75007472069E+03  0.12699999809E+01 0. -1.
       -4    1    3    3    0  502 -0.73962681914E+01  0.60585085589E+03  0.62762164964E+03  0.87236489634E+03  0.12699999809E+01 0.  1.
</event>
<event>
 5   0  0.9432152E-05  0.1600724E+04  0.7818609E-02  0.8820103E-01
       -1   -1    0    0    0  501  0.00000000000E+00  0.00000000000E+00  0.46905428058E+03  0.46905428061E+03  0.50400001928E-02 0. -1.
        1   -1    0    0  501    0  0.00000000000E+00  0.00000000000E+00 -0.13656830773E+04  0.13656830773E+04  0.50400001928E-02 0.  1.
    10030    2    1    2    0    0  0.00000000000E+00  0.00000000000E+00 -0.89662879671E+03  0.18347373579E+04  0.16007242028E+04 0.  0.
        4    1    3    3  502    0 -0.20064053767E+03 -0.61357392249E+03 -0.99060776172E+03  0.11823852732E+04  0.12699999809E+01 0.  1.
       -4    1    3    3    0  502  0.20064053767E+03  0.61357392249E+03  0.93978965004E+02  0.65235208475E+03  0.12699999809E+01 0. -1.
</event>
<event>
 5   0  0.1832646E-04  0.1608428E+04  0.7818609E-02  0.8815387E-01
       -2   -1    0    0    0  501  0.00000000000E+00  0.00000000000E+00  0.62790237297E+03  0.62790237297E+03  0.25500000920E-02 0. -1.
        2   -1    0    0  501    0  0.00000000000E+00  0.00000000000E+00 -0.10300334608E+04  0.10300334608E+04  0.25500000920E-02 0.  1.
    10030    2    1    2    0    0  0.00000000000E+00  0.00000000000E+00 -0.40213108779E+03  0.16579358337E+04  0.16084283686E+04 0.  0.
        2    1    3    3  502    0 -0.58922527063E+03 -0.77626800604E+02  0.35741190545E+03  0.69350963215E+03  0.25500000920E-02 0. -1.
       -2    1    3    3    0  502  0.58922527063E+03  0.77626800604E+02 -0.75954299324E+03  0.96442620159E+03  0.25500000920E-02 0.  1.
</event>
<event>
 5   0  0.1774934E-04  0.1571473E+04  0.7818609E-02  0.8838268E-01
       -2   -1    0    0    0  501  0.00000000000E+00  0.00000000000E+00  0.45660899791E+03  0.45660899792E+03  0.25500000920E-02 0.  1.
        2   -1    0    0  501    0  0.00000000000E+00  0.00000000000E+00 -0.13521011269E+04  0.13521011269E+04  0.25500000920E-02 0. -1.
    10030    2    1    2    0    0  0.00000000000E+00  0.00000000000E+00 -0.89549212896E+03  0.18087101248E+04  0.15714726095E+04 0.  0.
        1    1    3    3  502    0 -0.14006480783E+03  0.13263766330E+03  0.42893177308E+03  0.47031198805E+03  0.50400001928E-02 0.  1.
       -1    1    3    3    0  502  0.14006480783E+03 -0.13263766330E+03 -0.13244239020E+04  0.13383981367E+04  0.50400001928E-02 0. -1.
</event>
<event>
 5   0  0.1774934E-04  0.1594865E+04  0.7818609E-02  0.8823709E-01
       -2   -1    0    0    0  501  0.00000000000E+00  0.00000000000E+00  0.44893773292E+03  0.44893773292E+03  0.25500000920E-02 0. -1.
        2   -1    0    0  501    0  0.00000000000E+00  0.00000000000E+00 -0.14164509015E+04  0.14164509015E+04  0.25500000920E-02 0.  1.
    10030    2    1    2    0    0  0.00000000000E+00  0.00000000000E+00 -0.96751316859E+03  0.18653886344E+04  0.15948645792E+04 0.  0.
        1    1    3    3  502    0 -0.56658914812E+03 -0.46715402792E+03 -0.84736063314E+03  0.11212832787E+04  0.50400001928E-02 0.  1.
       -1    1    3    3    0  502  0.56658914812E+03  0.46715402792E+03 -0.12015253544E+03  0.74410535569E+03  0.50400001928E-02 0. -1.
</event>
<event>
 5   0  0.9726935E-05  0.1599176E+04  0.7818609E-02  0.8821054E-01
       -1   -1    0    0    0  501  0.00000000000E+00  0.00000000000E+00  0.35215584243E+03  0.35215584246E+03  0.50400001928E-02 0.  1.
        1   -1    0    0  501    0  0.00000000000E+00  0.00000000000E+00 -0.18155064247E+04  0.18155064247E+04  0.50400001928E-02 0. -1.
    10030    2    1    2    0    0  0.00000000000E+00  0.00000000000E+00 -0.14633505823E+04  0.21676622672E+04  0.15991762811E+04 0.  0.
        2    1    3    3  502    0 -0.31680977014E+03 -0.73010689631E+03 -0.83593931097E+03  0.11542179353E+04  0.25500000920E-02 0. -1.
       -2    1    3    3    0  502  0.31680977014E+03  0.73010689631E+03 -0.62741127133E+03  0.10134443319E+04  0.25500000920E-02 0.  1.
</event>
<event>
 5   0  0.1835088E-04  0.1598680E+04  0.7818609E-02  0.8821359E-01
        2   -1    0    0  501    0  0.00000000000E+00  0.00000000000E+00  0.10309334723E+04  0.10309334723E+04  0.25500000920E-02 0. -1.
       -2   -1    0    0    0  501  0.00000000000E+00  0.00000000000E+00 -0.61977272175E+03  0.61977272175E+03  0.25500000920E-02 0.  1.
    10030    2    1    2    0    0  0.00000000000E+00  0.00000000000E+00  0.41116075056E+03  0.16507061941E+04  0.15986800106E+04 0.  0.
        5    1    3    3  502    0 -0.48507885729E+02  0.65392211407E+03 -0.26641184031E+03  0.70778846056E+03  0.46999998093E+01 0.  1.
       -5    1    3    3    0  502  0.48507885729E+02 -0.65392211407E+03  0.67757259087E+03  0.94291773350E+03  0.46999998093E+01 0. -1.
</event>
<event>
 5   0  0.9432152E-05  0.1593277E+04  0.7818609E-02  0.8824689E-01
        1   -1    0    0  501    0  0.00000000000E+00  0.00000000000E+00  0.99519759283E+03  0.99519759285E+03  0.50400001928E-02 0.  1.
       -1   -1    0    0    0  501  0.00000000000E+00  0.00000000000E+00 -0.63769560602E+03  0.63769560604E+03  0.50400001928E-02 0. -1.
    10030    2    1    2    0    0  0.00000000000E+00  0.00000000000E+00  0.35750198682E+03  0.16328931989E+04  0.15932772917E+04 0.  0.
        4    1    3    3  502    0 -0.22107625676E+02  0.78566330015E+03  0.31188853704E+03  0.84559543563E+03  0.12699999809E+01 0.  1.
       -4    1    3    3    0  502  0.22107625676E+02 -0.78566330015E+03  0.45613449775E+02  0.78729776325E+03  0.12699999809E+01 0. -1.
</event>
<event>
 5   0  0.9673017E-05  0.1602133E+04  0.7818609E-02  0.8819238E-01
       -1   -1    0    0    0  501  0.00000000000E+00  0.00000000000E+00  0.59586490529E+03  0.59586490532E+03  0.50400001928E-02 0. -1.
        1   -1    0    0  501    0  0.00000000000E+00  0.00000000000E+00 -0.10769350731E+04  0.10769350731E+04  0.50400001928E-02 0.  1.
    10030    2    1    2    0    0  0.00000000000E+00  0.00000000000E+00 -0.48107016784E+03  0.16727999785E+04  0.16021333470E+04 0.  0.
        1    1    3    3  502    0 -0.46241580068E+02 -0.60439389026E+03 -0.78735017346E+03  0.99365514842E+03  0.50400001928E-02 0.  1.
       -1    1    3    3    0  502  0.46241580068E+02  0.60439389026E+03  0.30628000562E+03  0.67914483004E+03  0.50400001928E-02 0. -1.
</event>
<event>
 5   0  0.9673017E-05  0.1604954E+04  0.7818609E-02  0.8817510E-01
       -1   -1    0    0    0  501  0.00000000000E+00  0.00000000000E+00  0.12505666466E+04  0.12505666466E+04  0.50400001928E-02 0. -1.
        1   -1    0    0  501    0  0.00000000000E+00  0.00000000000E+00 -0.51494191286E+03  0.51494191288E+03  0.50400001928E-02 0.  1.
    10030    2    1    2    0    0  0.00000000000E+00  0.00000000000E+00  0.73562473375E+03  0.17655085595E+04  0.16049538077E+04 0.  0.
        1    1    3    3  502    0  0.39722755028E+03 -0.48504579691E+03  0.91883101968E+03  0.11123441889E+04  0.50400001928E-02 0. -1.
       -1    1    3    3    0  502 -0.39722755028E+03  0.48504579691E+03 -0.18320628593E+03  0.65316437061E+03  0.50400001928E-02 0.  1.
</event>
<event>
 5   0  0.9726935E-05  0.1588726E+04  0.7818609E-02  0.8827504E-01
        1   -1    0    0  501    0  0.00000000000E+00  0.00000000000E+00  0.84898662140E+03  0.84898662141E+03  0.50400001928E-02 0.  1.
       -1   -1    0    0    0  501  0.00000000000E+00  0.00000000000E+00 -0.74325419446E+03  0.74325419448E+03  0.50400001928E-02 0. -1.
    10030    2    1    2    0    0  0.00000000000E+00  0.00000000000E+00  0.10573242694E+03  0.15922408159E+04  0.15887263672E+04 0.  0.
        2    1    3    3  502    0  0.49682625911E+02 -0.57542817305E+01  0.84740705541E+03  0.84888173066E+03  0.25500000920E-02 0.  1.
       -2    1    3    3    0  502 -0.49682625911E+02  0.57542817305E+01 -0.74167462848E+03  0.74335908524E+03  0.25500000920E-02 0. -1.
</event>
<event>
 5   0  0.9673017E-05  0.1597703E+04  0.7818609E-02  0.8821961E-01
       -1   -1    0    0    0  501  0.00000000000E+00  0.00000000000E+00  0.34842714390E+03  0.34842714394E+03  0.50400001928E-02 0. -1.
        1   -1    0    0  501    0  0.00000000000E+00  0.00000000000E+00 -0.18315550970E+04  0.18315550970E+04  0.50400001928E-02 0.  1.
    10030    2    1    2    0    0  0.00000000000E+00  0.00000000000E+00 -0.14831279531E+04  0.21799822410E+04  0.15977027401E+04 0.  0.
        1    1    3    3  502    0  0.27253066792E+03  0.45724275750E+03  0.71193140224E+02  0.53704037789E+03  0.50400001928E-02 0. -1.
       -1    1    3    3    0  502 -0.27253066792E+03 -0.45724275750E+03 -0.15543210934E+04  0.16429418631E+04  0.50400001928E-02 0.  1.
</event>
<event>
 5   0  0.1914170E-04  0.1597740E+04  0.7818609E-02  0.8821938E-01
        2   -1    0    0  501    0  0.00000000000E+00  0.00000000000E+00  0.93291546441E+03  0.93291546442E+03  0.25500000920E-02 0.  1.
       -2   -1    0    0    0  501  0.00000000000E+00  0.00000000000E+00 -0.68408469789E+03  0.68408469790E+03  0.25500000920E-02 0. -1.
    10030    2    1    2    0    0  0.00000000000E+00  0.00000000000E+00  0.24883076652E+03  0.16170001623E+04  0.15977398958E+04 0.  0.
        3    1    3    3  502    0  0.63314452269E+03  0.32037753075E+03 -0.24699550048E+03  0.75134581670E+03  0.10100000352E+00 0. -1.
       -3    1    3    3    0  502 -0.63314452269E+03 -0.32037753075E+03  0.49582626701E+03  0.86565434561E+03  0.10100000352E+00 0.  1.
</event>
<event>
 5   0  0.9939872E-05  0.1601778E+04  0.7818609E-02  0.8819456E-01
        1   -1    0    0  501    0  0.00000000000E+00  0.00000000000E+00  0.75824131680E+03  0.75824131682E+03  0.50400001928E-02 0. -1.
       -1   -1    0    0    0  501  0.00000000000E+00  0.00000000000E+00 -0.84593569953E+03  0.84593569954E+03  0.50400001928E-02 0.  1.
    10030    2    1    2    0    0  0.00000000000E+00  0.00000000000E+00 -0.87694382726E+02  0.16041770164E+04  0.16017782603E+04 0.  0.
        3    1    3    3  502    0 -0.29126223753E+03  0.45757426905E+03 -0.63397956237E+03  0.83434884696E+03  0.10100000352E+00 0.  1.
       -3    1    3    3    0  502  0.29126223753E+03 -0.45757426905E+03  0.54628517965E+03  0.76982816941E+03  0.10100000352E+00 0. -1.
</event>
<event>
 5   0  0.1858913E-04  0.1596393E+04  0.7818609E-02  0.8822767E-01
       -2   -1    0    0    0  501  0.00000000000E+00  0.00000000000E+00  0.86631840730E+03  0.86631840730E+03  0.25500000920E-02 0.  1.
        2   -1    0    0  501    0  0.00000000000E+00  0.00000000000E+00 -0.73543109935E+03  0.73543109936E+03  0.25500000920E-02 0. -1.
    10030    2    1    2    0    0  0.00000000000E+00  0.00000000000E+00  0.13088730795E+03  0.16017495067E+04  0.15963928071E+04 0.  0.
        4    1    3    3  502    0  0.55551088801E+03 -0.55695519400E+03  0.20126571678E+03  0.81197348262E+03  0.12699999809E+01 0. -1.
       -4    1    3    3    0  502 -0.55551088801E+03  0.55695519400E+03 -0.70378408835E+02  0.78977602404E+03  0.12699999809E+01 0.  1.
</event>
<event>
 5   0  0.1914170E-04  0.1595724E+04  0.7818609E-02  0.8823179E-01
        2   -1    0    0  501    0  0.00000000000E+00  0.00000000000E+00  0.20853285912E+04  0.20853285913E+04  0.25500000920E-02 0. -1.
       -2   -1    0    0    0  501  0.00000000000E+00  0.00000000000E+00 -0.30526777127E+03  0.30526777128E+03  0.25500000920E-02 0.  1.
    10030    2    1    2    0    0  0.00000000000E+00  0.00000000000E+00  0.17800608200E+04  0.23905963625E+04  0.15957238000E+04 0.  0.
        3    1    3    3  502    0  0.71002374947E+03  0.30416291071E+03  0.11894114479E+04  0.14182201534E+04  0.10100000352E+00 0.  1.
       -3    1    3    3    0  502 -0.71002374947E+03 -0.30416291071E+03  0.59064937210E+03  0.97237620910E+03  0.10100000352E+00 0. -1.
</event>
<event>
 5   0  0.1832646E-04  0.1593868E+04  0.7818609E-02  0.8824324E-01
       -2   -1    0    0    0  501  0.00000000000E+00  0.00000000000E+00  0.49449269232E+03  0.49449269233E+03  0.25500000920E-02 0. -1.
        2   -1    0    0  501    0  0.00000000000E+00  0.00000000000E+00 -0.12843545192E+04  0.12843545192E+04  0.25500000920E-02 0.  1.
    10030    2    1    2    0    0  0.00000000000E+00  0.00000000000E+00 -0.78986182683E+03  0.17788472115E+04  0.15938681552E+04 0.  0.
        2    1    3    3  502    0  0.96578802128E+02 -0.35844740138E+03  0.39210029662E+03  0.53995800503E+03  0.25500000920E-02 0. -1.
       -2    1    3    3    0  502 -0.96578802128E+02  0.35844740138E+03 -0.11819621235E+04  0.12388892065E+04  0.25500000920E-02 0.  1.
</event>
<event>
 5   0  0.9616567E-05  0.1591201E+04  0.7818609E-02  0.8825972E-01
        1   -1    0    0  501    0  0.00000000000E+00  0.00000000000E+00  0.91260881634E+03  0.91260881636E+03  0.50400001928E-02 0.  1.
       -1   -1    0    0    0  501  0.00000000000E+00  0.00000000000E+00 -0.69359373957E+03  0.69359373959E+03  0.50400001928E-02 0. -1.
    10030    2    1    2    0    0  0.00000000000E+00  0.00000000000E+00  0.21901507677E+03  0.16062025559E+04  0.15912005049E+04 0.  0.
        5    1    3    3  502    0 -0.34545720251E+03  0.52939255524E+03  0.59713605172E+03  0.86959226685E+03  0.46999998093E+01 0.  1.
       -5    1    3    3    0  502  0.34545720251E+03 -0.52939255524E+03 -0.37812097494E+03  0.73661028910E+03  0.46999998093E+01 0. -1.
</event>
<event>
 5   0  0.9673017E-05  0.1596175E+04  0.7818609E-02  0.8822901E-01
        1   -1    0    0  501    0  0.00000000000E+00  0.00000000000E+00  0.23186237774E+04  0.23186237774E+04  0.50400001928E-02 0.  1.
       -1   -1    0    0    0  501  0.00000000000E+00  0.00000000000E+00 -0.27470755465E+03  0.27470755469E+03  0.50400001928E-02 0. -1.
    10030    2    1    2    0    0  0.00000000000E+00  0.00000000000E+00  0.20439162228E+04  0.25933313321E+04  0.15961747625E+04 0.  0.
        1    1    3    3  502    0  0.32569039090E+03  0.72631408631E+03  0.11158139354E+04  0.13706374871E+04  0.50400001928E-02 0. -1.
       -1    1    3    3    0  502 -0.32569039090E+03 -0.72631408631E+03  0.92810228740E+03  0.12226938450E+04  0.50400001928E-02 0.  1.
</event>
<event>
 5   0  0.1858913E-04  0.1609805E+04  0.7818609E-02  0.8814547E-01
       -2   -1    0    0    0  501  0.00000000000E+00  0.00000000000E+00  0.44086007912E+03  0.44086007913E+03  0.25500000920E-02 0. -1.
        2   -1    0    0  501    0  0.00000000000E+00  0.00000000000E+00 -0.14695548218E+04  0.14695548218E+04  0.25500000920E-02 0.  1.
    10030    2    1    2    0    0  0.00000000000E+00  0.00000000000E+00 -0.10286947427E+04  0.19104149009E+04  0.16098050255E+04 0.  0.
        4    1    3    3  502    0  0.24940962515E+03  0.55593870174E+03 -0.11384778001E+04  0.12912808817E+04  0.12699999809E+01 0.  1.
       -4    1    3    3    0  502 -0.24940962515E+03 -0.55593870174E+03  0.10978305740E+03  0.61913401925E+03  0.12699999809E+01 0. -1.
</event>
<event>
 5   0  0.1858913E-04  0.1589885E+04  0.7818609E-02  0.8826786E-01
       -2   -1    0    0    0  501  0.00000000000E+00  0.00000000000E+00  0.42349081949E+03  0.42349081950E+03  0.25500000920E-02 0.  1.
        2   -1    0    0  501    0  0.00000000000E+00  0.00000000000E+00 -0.14922022821E+04  0.14922022821E+04  0.25500000920E-02 0. -1.
    10030    2    1    2    0    0  0.00000000000E+00  0.00000000000E+00 -0.10687114626E+04  0.19156931016E+04  0.15898854893E+04 0.  0.
        4    1    3    3  502    0 -0.40676875695E+03 -0.64154891451E+03 -0.25206738488E+03  0.80036579810E+03  0.12699999809E+01 0.  1.
       -4    1    3    3    0  502  0.40676875695E+03  0.64154891451E+03 -0.81664407773E+03  0.11153273035E+04  0.12699999809E+01 0. -1.
</event>
<event>
 5   0  0.1835088E-04  0.1600275E+04  0.7818609E-02  0.8820379E-01
       -2   -1    0    0    0  501  0.00000000000E+00  0.00000000000E+00  0.73008637078E+03  0.73008637079E+03  0.25500000920E-02 0.  1.
        2   -1    0    0  501    0  0.00000000000E+00  0.00000000000E+00 -0.87690991641E+03  0.87690991641E+03  0.25500000920E-02 0. -1.
    10030    2    1    2    0    0  0.00000000000E+00  0.00000000000E+00 -0.14682354562E+03  0.16069962872E+04  0.16002749493E+04 0.  0.
        5    1    3    3  502    0  0.38949599727E+03  0.69707342002E+03 -0.12441291676E+03  0.80815787358E+03  0.46999998093E+01 0.  1.
       -5    1    3    3    0  502 -0.38949599727E+03 -0.69707342002E+03 -0.22410628864E+02  0.79883841361E+03  0.46999998093E+01 0. -1.
</event>
<event>
 5   0  0.1914170E-04  0.1597064E+04  0.7818609E-02  0.8822354E-01
       -2   -1    0    0    0  501  0.00000000000E+00  0.00000000000E+00  0.88029997345E+03  0.88029997345E+03  0.25500000920E-02 0.  1.
        2   -1    0    0  501    0  0.00000000000E+00  0.00000000000E+00 -0.72435924222E+03  0.72435924223E+03  0.25500000920E-02 0. -1.
    10030    2    1    2    0    0  0.00000000000E+00  0.00000000000E+00  0.15594073122E+03  0.16046592157E+04  0.15970640835E+04 0.  0.
        3    1    3    3  502    0 -0.28801762977E+03  0.38440105532E+03  0.71891872387E+03  0.86461694878E+03  0.10100000352E+00 0.  1.
       -3    1    3    3    0  502  0.28801762977E+03 -0.38440105532E+03 -0.56297799265E+03  0.74004226690E+03  0.10100000352E+00 0. -1.
</event>
<event>
 5   0  0.1858913E-04  0.1604796E+04  0.7818609E-02  0.8817607E-01
        2   -1    0    0  501    0  0.00000000000E+00  0.00000000000E+00  0.10653870149E+04  0.10653870149E+04  0.25500000920E-02 0.  1.
       -2   -1    0    0    0  501  0.00000000000E+00  0.00000000000E+00 -0.60432702725E+03  0.60432702725E+03  0.25500000920E-02 0. -1.
    10030    2    1    2    0    0  0.00000000000E+00  0.00000000000E+00  0.46105998762E+03  0.16697140421E+04  0.16047955229E+04 0.  0.
        4    1    3    3  502    0  0.38528639900E+03 -0.51382371431E+03 -0.26994851323E+03  0.69665933665E+03  0.12699999809E+01 0. -1.
       -4    1    3    3    0  502 -0.38528639900E+03  0.51382371431E+03  0.73100850085E+03  0.97305470548E+03  0.12699999809E+01 0.  1.
</event>
<event>
 5   0  0.9616567E-05  0.1604885E+04  0.7818609E-02  0.8817553E-01
       -1   -1    0    0    0  501  0.00000000000E+00  0.00000000000E+00  0.14189621561E+04  0.14189621561E+04  0.50400001928E-02 0.  1.
        1   -1    0    0  501    0  0.00000000000E+00  0.00000000000E+00 -0.45379195269E+03  0.45379195272E+03  0.50400001928E-02 0. -1.
    10030    2    1    2    0    0  0.00000000000E+00  0.00000000000E+00  0.96517020342E+03  0.18727541088E+04  0.16048845537E+04 0.  0.
        5    1    3    3  502    0 -0.77585813388E+03  0.15401972671E+03  0.64006851865E+03  0.10175400330E+04  0.46999998093E+01 0.  1.
       -5    1    3    3    0  502  0.77585813388E+03 -0.15401972671E+03  0.32510168477E+03  0.85521407587E+03  0.46999998093E+01 0. -1.
</event>
<event>
 5   0  0.9726935E-05  0.1600510E+04  0.7818609E-02  0.8820235E-01
        1   -1    0    0  501    0  0.00000000000E+00  0.00000000000E+00  0.11792796780E+04  0.11792796780E+04  0.50400001928E-02 0.  1.
       -1   -1    0    0    0  501  0.00000000000E+00  0.00000000000E+00 -0.54305017881E+03  0.54305017883E+03  0.50400001928E-02 0. -1.
    10030    2    1    2    0    0  0.00000000000E+00  0.00000000000E+00  0.63622949919E+03  0.17223298568E+04  0.16005099688E+04 0.  0.
        2    1    3    3  502    0  0.62026162652E+03 -0.11989878087E+03  0.84673483454E+03  0.10564374487E+04  0.25500000920E-02 0.  1.
       -2    1    3    3    0  502 -0.62026162652E+03  0.11989878087E+03 -0.21050533535E+03  0.66589240813E+03  0.25500000920E-02 0. -1.
</event>
<event>
 5   0  0.1858913E-04  0.1603379E+04  0.7818609E-02  0.8818475E-01
        2   -1    0    0  501    0  0.00000000000E+00  0.00000000000E+00  0.11917816773E+04  0.11917816773E+04  0.25500000920E-02 0. -1.
       -2   -1    0    0    0  501  0.00000000000E+00  0.00000000000E+00 -0.53928171452E+03  0.53928171452E+03  0.25500000920E-02 0.  1.
    10030    2    1    2    0    0  0.00000000000E+00  0.00000000000E+00  0.65249996278E+03  0.17310633918E+04  0.16033790148E+04 0.  0.
        4    1    3    3  502    0 -0.43599402720E+03  0.15624606797E+03 -0.38023108646E+03  0.59923360847E+03  0.12699999809E+01 0.  1.
       -4    1    3    3    0  502  0.43599402720E+03 -0.15624606797E+03  0.10327310492E+04  0.11318297833E+04  0.12699999809E+01 0. -1.
</event>
<event>
 5   0  0.1914170E-04  0.1608526E+04  0.7818609E-02  0.8815327E-01
       -2   -1    0    0    0  501  0.00000000000E+00  0.00000000000E+00  0.85361812501E+03  0.85361812501E+03  0.25500000920E-02 0. -1.
        2   -1    0    0  501    0  0.00000000000E+00  0.00000000000E+00 -0.75776168283E+03  0.75776168283E+03  0.25500000920E-02 0.  1.
    10030    2    1    2    0    0  0.00000000000E+00  0.00000000000E+00  0.95856442181E+02  0.16113798078E+04  0.16085261663E+04 0.  0.
        3    1    3    3  502    0  0.34067586825E+03  0.33203971488E+03 -0.60170405740E+03  0.76704511103E+03  0.10100000352E+00 0.  1.
       -3    1    3    3    0  502 -0.34067586825E+03 -0.33203971488E+03  0.69756049958E+03  0.84433469681E+03  0.10100000352E+00 0. -1.
</event>
<event>
 5   0  0.6838750E-05  0.1603949E+04  0.7818609E-02  0.8818126E-01
        3   -1    0    0  501    0  0.00000000000E+00  0.00000000000E+00  0.19189543097E+04  0.19189543124E+04  0.10100000352E+00 0. -1.
       -3   -1    0    0    0  501  0.00000000000E+00  0.00000000000E+00 -0.33516323697E+03  0.33516325219E+03  0.10100000352E+00 0.  1.
    10030    2    1    2    0    0  0.00000000000E+00  0.00000000000E+00  0.15837910728E+04  0.22541175646E+04  0.16039488249E+04 0.  0.
        2    1    3    3  502    0 -0.27241732190E+03  0.44720335305E+03  0.16455384527E+04  0.17268465003E+04  0.25500000920E-02 0. -1.
       -2    1    3    3    0  502  0.27241732190E+03 -0.44720335305E+03 -0.61747379989E+02  0.52727106425E+03  0.25500000920E-02 0.  1.
</event>
<event>
 5   0  0.1832646E-04  0.1597993E+04  0.7818609E-02  0.8821782E-01
       -2   -1    0    0    0  501  0.00000000000E+00  0.00000000000E+00  0.46587191084E+03  0.46587191085E+03  0.25500000920E-02 0.  1.
        2   -1    0    0  501    0  0.00000000000E+00  0.00000000000E+00 -0.13703245308E+04  0.13703245308E+04  0.25500000920E-02 0. -1.
    10030    2    1    2    0    0  0.00000000000E+00  0.00000000000E+00 -0.90445261998E+03  0.18361964417E+04  0.15979933763E+04 0.  0.
        2    1    3    3  502    0 -0.39900582773E+02 -0.51686948368E+03 -0.11508435198E+04  0.12622150873E+04  0.25500000920E-02 0. -1.
       -2    1    3    3    0  502  0.39900582773E+02  0.51686948368E+03  0.24639089977E+03  0.57398135437E+03  0.25500000920E-02 0.  1.
</event>
<event>
 5   0  0.1858913E-04  0.1602251E+04  0.7818609E-02  0.8819167E-01
        2   -1    0    0  501    0  0.00000000000E+00  0.00000000000E+00  0.88845745176E+03  0.88845745176E+03  0.25500000920E-02 0.  1.
       -2   -1    0    0    0  501  0.00000000000E+00  0.00000000000E+00 -0.72237753080E+03  0.72237753081E+03  0.25500000920E-02 0. -1.
    10030    2    1    2    0    0  0.00000000000E+00  0.00000000000E+00  0.16607992095E+03  0.16108349826E+04  0.16022505425E+04 0.  0.
        4    1    3    3  502    0 -0.36958424289E+03 -0.60948078988E+02 -0.62891582330E+03  0.73201359730E+03  0.12699999809E+01 0. -1.
       -4    1    3    3    0  502  0.36958424289E+03  0.60948078988E+02  0.79499574426E+03  0.87882138527E+03  0.12699999809E+01 0.  1.
</event>
<event>
 5   0  0.9673017E-05  0.1600049E+04  0.7818609E-02  0.8820518E-01
        1   -1    0    0  501    0  0.00000000000E+00  0.00000000000E+00  0.12418871818E+04  0.12418871818E+04  0.50400001928E-02 0. -1.
       -1   -1    0    0    0  501  0.00000000000E+00  0.00000000000E+00 -0.51537648847E+03  0.51537648849E+03  0.50400001928E-02 0.  1.
    10030    2    1    2    0    0  0.00000000000E+00  0.00000000000E+00  0.72651069330E+03  0.17572636703E+04  0.16000493178E+04 0.  0.
        1    1    3    3  502    0  0.36342091811E+03 -0.63885611061E+03  0.71025480098E+03  0.10220928412E+04  0.50400001928E-02 0.  1.
       -1    1    3    3    0  502 -0.36342091811E+03  0.63885611061E+03  0.16255892318E+02  0.73517082902E+03  0.50400001928E-02 0. -1.
</event>
<event>
 5   0  0.1832646E-04  0.1603209E+04  0.7818609E-02  0.8818579E-01
       -2   -1    0    0    0  501  0.00000000000E+00  0.00000000000E+00  0.23672004925E+03  0.23672004926E+03  0.25500000920E-02 0.  1.
        2   -1    0    0  501    0  0.00000000000E+00  0.00000000000E+00 -0.27144709371E+04  0.27144709371E+04  0.25500000920E-02 0. -1.
    10030    2    1    2    0    0  0.00000000000E+00  0.00000000000E+00 -0.24777508879E+04  0.29511909864E+04  0.16032088996E+04 0.  0.
        2    1    3    3  502    0 -0.91344183595E+02  0.26964173465E+03 -0.26182732560E+04  0.26337056152E+04  0.25500000920E-02 0. -1.
       -2    1    3    3    0  502  0.91344183595E+02 -0.26964173465E+03  0.14052236809E+03  0.31748537113E+03  0.25500000920E-02 0.  1.
</event>
<event>
 5   0  0.9616567E-05  0.1585810E+04  0.7818609E-02  0.8829313E-01
       -1   -1    0    0    0  501  0.00000000000E+00  0.00000000000E+00  0.14457685093E+04  0.14457685093E+04  0.50400001928E-02 0. -1.
        1   -1    0    0  501    0  0.00000000000E+00  0.00000000000E+00 -0.43485405524E+03  0.43485405527E+03  0.50400001928E-02 0.  1.
    10030    2    1    2    0    0  0.00000000000E+00  0.00000000000E+00  0.10109144540E+04  0.18806225646E+04  0.15858099498E+04 0.  0.
        5    1    3    3  502    0 -0.26789577001E+03  0.56691072305E+03 -0.70068411169E+02  0.63094182278E+03  0.46999998093E+01 0.  1.
       -5    1    3    3    0  502  0.26789577001E+03 -0.56691072305E+03  0.10809828652E+04  0.12496807418E+04  0.46999998093E+01 0. -1.
</event>
<event>
 5   0  0.6838750E-05  0.1592344E+04  0.7818609E-02  0.8825265E-01
       -3   -1    0    0    0  501  0.00000000000E+00  0.00000000000E+00  0.88591482732E+03  0.88591483307E+03  0.10100000352E+00 0. -1.
        3   -1    0    0  501    0  0.00000000000E+00  0.00000000000E+00 -0.71552006082E+03  0.71552006794E+03  0.10100000352E+00 0.  1.
    10030    2    1    2    0    0  0.00000000000E+00  0.00000000000E+00  0.17039476650E+03  0.16014349010E+04  0.15923439847E+04 0.  0.
        5    1    3    3  502    0 -0.54256492004E+03  0.57939224219E+03  0.14715827924E+03  0.80731017082E+03  0.46999998093E+01 0.  1.
       -5    1    3    3    0  502  0.54256492004E+03 -0.57939224219E+03  0.23236487264E+02  0.79412473019E+03  0.46999998093E+01 0. -1.
</event>
<event>
 5   0  0.9939872E-05  0.1605792E+04  0.7818609E-02  0.8816997E-01
       -1   -1    0    0    0  501  0.00000000000E+00  0.00000000000E+00  0.15167012423E+04  0.15167012423E+04  0.50400001928E-02 0.  1.
        1   -1    0    0  501    0  0.00000000000E+00  0.00000000000E+00 -0.42502920834E+03  0.42502920837E+03  0.50400001928E-02 0. -1.
    10030    2    1    2    0    0  0.00000000000E+00  0.00000000000E+00  0.10916720340E+04  0.19417304507E+04  0.16057924254E+04 0.  0.
        3    1    3    3  502    0 -0.45600247758E+02  0.40799357346E+03  0.13801903648E+04  0.14399526353E+04  0.10100000352E+00 0.  1.
       -3    1    3    3    0  502  0.45600247758E+02 -0.40799357346E+03 -0.28851833085E+03  0.50177781539E+03  0.10100000352E+00 0. -1.
</event>
<event>
 5   0  0.1835088E-04  0.1602082E+04  0.7818609E-02  0.8819270E-01
        2   -1    0    0  501    0  0.00000000000E+00  0.00000000000E+00  0.15534111009E+04  0.15534111009E+04  0.25500000920E-02 0.  1.
       -2   -1    0    0    0  501  0.00000000000E+00  0.00000000000E+00 -0.41306924135E+03  0.41306924136E+03  0.25500000920E-02 0. -1.
    10030    2    1    2    0    0  0.00000000000E+00  0.00000000000E+00  0.11403418596E+04  0.19664803423E+04  0.16020815772E+04 0.  0.
        5    1    3    3  502    0 -0.25291293182E+03  0.21188254006E+02 -0.36239504578E+03  0.44245468965E+03  0.46999998093E+01 0. -1.
       -5    1    3    3    0  502  0.25291293182E+03 -0.21188254006E+02  0.15027369054E+04  0.15240256526E+04  0.46999998093E+01 0.  1.
</event>
<event>
 5   0  0.9616567E-05  0.1581875E+04  0.7818609E-02  0.8831761E-01
        1   -1    0    0  501    0  0.00000000000E+00  0.00000000000E+00  0.96105767407E+03  0.96105767409E+03  0.50400001928E-02 0. -1.
       -1   -1    0    0    0  501  0.00000000000E+00  0.00000000000E+00 -0.65093111579E+03  0.65093111581E+03  0.50400001928E-02 0.  1.
    10030    2    1    2    0    0  0.00000000000E+00  0.00000000000E+00  0.31012655828E+03  0.16119887899E+04  0.15818752721E+04 0.  0.
        5    1    3    3  502    0  0.11403271642E+03 -0.33296139728E+03 -0.56672365800E+03  0.66713158149E+03  0.46999998093E+01 0.  1.
       -5    1    3    3    0  502 -0.11403271642E+03  0.33296139728E+03  0.87685021628E+03  0.94485720841E+03  0.46999998093E+01 0. -1.
</event>
<event>
 5   0  0.1914170E-04  0.1594970E+04  0.7818609E-02  0.8823644E-01
        2   -1    0    0  501    0  0.00000000000E+00  0.00000000000E+00  0.13517938539E+04  0.13517938539E+04  0.25500000920E-02 0.  1.
       -2   -1    0    0    0  501  0.00000000000E+00  0.00000000000E+00 -0.47047304935E+03  0.47047304936E+03  0.25500000920E-02 0. -1.
    10030    2    1    2    0    0  0.00000000000E+00  0.00000000000E+00  0.88132080453E+03  0.18222669032E+04  0.15949703151E+04 0.  0.
        3    1    3    3  502    0  0.57452556505E+03  0.33737430925E+03  0.94138874126E+03  0.11533056064E+04  0.10100000352E+00 0.  1.
       -3    1    3    3    0  502 -0.57452556505E+03 -0.33737430925E+03 -0.60067936726E+02  0.66896129683E+03  0.10100000352E+00 0. -1.
</event>
<event>
 5   0  0.9673017E-05  0.1599825E+04  0.7818609E-02  0.8820655E-01
        1   -1    0    0  501    0  0.00000000000E+00  0.00000000000E+00  0.16425378489E+04  0.16425378490E+04  0.50400001928E-02 0.  1.
       -1   -1    0    0    0  501  0.00000000000E+00  0.00000000000E+00 -0.38955576318E+03  0.38955576321E+03  0.50400001928E-02 0. -1.
    10030    2    1    2    0    0  0.00000000000E+00  0.00000000000E+00  0.12529820858E+04  0.20320936122E+04  0.15998250971E+04 0.  0.
        1    1    3    3  502    0  0.25061413448E+03 -0.51560753227E+03 -0.82094121819E+02  0.57913557704E+03  0.50400001928E-02 0. -1.
       -1    1    3    3    0  502 -0.25061413448E+03  0.51560753227E+03  0.13350762076E+04  0.14529580351E+04  0.50400001928E-02 0.  1.
</event>
<event>
 5   0  0.9939872E-05  0.1594770E+04  0.7818609E-02  0.8823767E-01
        1   -1    0    0  501    0  0.00000000000E+00  0.00000000000E+00  0.22765215164E+04  0.22765215164E+04  0.50400001928E-02 0.  1.
       -1   -1    0    0    0  501  0.00000000000E+00  0.00000000000E+00 -0.27929574601E+03  0.27929574606E+03  0.50400001928E-02 0. -1.
    10030    2    1    2    0    0  0.00000000000E+00  0.00000000000E+00  0.19972257704E+04  0.25558172625E+04  0.15947699211E+04 0.  0.
        3    1    3    3  502    0 -0.57750469543E+03 -0.54952216752E+03  0.96921535054E+03  0.12549361305E+04  0.10100000352E+00 0. -1.
       -3    1    3    3    0  502  0.57750469543E+03  0.54952216752E+03  0.10280104198E+04  0.13008811319E+04  0.10100000352E+00 0.  1.
</event>
<event>
 5   0  0.1914170E-04  0.1599776E+04  0.7818609E-02  0.8820686E-01
        2   -1    0    0  501    0  0.00000000000E+00  0.00000000000E+00  0.18417165996E+04  0.18417165996E+04  0.25500000920E-02 0.  1.
       -2   -1    0    0    0  501  0.00000000000E+00  0.00000000000E+00 -0.34740458516E+03  0.34740458517E+03  0.25500000920E-02 0. -1.
    10030    2    1    2    0    0  0.00000000000E+00  0.00000000000E+00  0.14943120145E+04  0.21891211848E+04  0.15997759734E+04 0.  0.
        3    1    3    3  502    0  0.61891479601E+03  0.35003018795E+03  0.12485259292E+04  0.14367997993E+04  0.10100000352E+00 0.  1.
       -3    1    3    3    0  502 -0.61891479601E+03 -0.35003018795E+03  0.24578608530E+03  0.75232138553E+03  0.10100000352E+00 0. -1.
</event>
<event>
 5   0  0.1835088E-04  0.1598823E+04  0.7818609E-02  0.8821271E-01
       -2   -1    0    0    0  501  0.00000000000E+00  0.00000000000E+00  0.96587423631E+03  0.96587423632E+03  0.25500000920E-02 0.  1.
        2   -1    0    0  501    0  0.00000000000E+00  0.00000000000E+00 -0.66163775191E+03  0.66163775192E+03  0.25500000920E-02 0. -1.
    10030    2    1    2    0    0  0.00000000000E+00  0.00000000000E+00  0.30423648440E+03  0.16275119882E+04  0.15988231401E+04 0.  0.
        5    1    3    3  502    0  0.61042539045E+03  0.36872478008E+03 -0.21555487024E+03  0.74502557864E+03  0.46999998093E+01 0. -1.
       -5    1    3    3    0  502 -0.61042539045E+03 -0.36872478008E+03  0.51979135464E+03  0.88248640959E+03  0.46999998093E+01 0.  1.
</event>
<event>
 5   0  0.1835088E-04  0.1614850E+04  0.7818609E-02  0.8811477E-01
        2   -1    0    0  501    0  0.00000000000E+00  0.00000000000E+00  0.17422001534E+04  0.17422001534E+04  0.25500000920E-02 0.  1.
       -2   -1    0    0    0  501  0.00000000000E+00  0.00000000000E+00 -0.37420212090E+03  0.37420212091E+03  0.25500000920E-02 0. -1.
    10030    2    1    2    0    0  0.00000000000E+00  0.00000000000E+00  0.13679980325E+04  0.21164022743E+04  0.16148498289E+04 0.  0.
        5    1    3    3  502    0 -0.23727275635E+03 -0.34638233594E+03  0.15878616672E+04  0.16424389936E+04  0.46999998093E+01 0.  1.
       -5    1    3    3    0  502  0.23727275635E+03  0.34638233594E+03 -0.21986363473E+03  0.47396328068E+03  0.46999998093E+01 0. -1.
</event>
<event>
 5   0  0.9432152E-05  0.1606164E+04  0.7818609E-02  0.8816770E-01
       -1   -1    0    0    0  501  0.00000000000E+00  0.00000000000E+00  0.48132350811E+03  0.48132350813E+03  0.50400001928E-02 0. -1.
        1   -1    0    0  501    0  0.00000000000E+00  0.00000000000E+00 -0.13399316525E+04  0.13399316525E+04  0.50400001928E-02 0.  1.
    10030    2    1    2    0    0  0.00000000000E+00  0.00000000000E+00 -0.85860814436E+03  0.18212551606E+04  0.16061638816E+04 0.  0.
        4    1    3    3  502    0  0.20863465132E+03  0.29021786201E+03  0.38615759307E+03  0.52618829780E+03  0.12699999809E+01 0. -1.
       -4    1    3    3    0  502 -0.20863465132E+03 -0.29021786201E+03 -0.12447657374E+04  0.12950668628E+04  0.12699999809E+01 0.  1.
</event>
<event>
 5   0  0.9616567E-05  0.1601925E+04  0.7818609E-02  0.8819366E-01
       -1   -1    0    0    0  501  0.00000000000E+00  0.00000000000E+00  0.60744371445E+03  0.60744371447E+03  0.50400001928E-02 0. -1.
        1   -1    0    0  501    0  0.00000000000E+00  0.00000000000E+00 -0.10561325035E+04  0.10561325035E+04  0.50400001928E-02 0.  1.
    10030    2    1    2    0    0  0.00000000000E+00  0.00000000000E+00 -0.44868878905E+03  0.16635762180E+04  0.16019251554E+04 0.  0.
        5    1    3    3  502    0  0.19024485933E+03  0.66760991104E+03 -0.63924878197E+03  0.94369337980E+03  0.46999998093E+01 0.  1.
       -5    1    3    3    0  502 -0.19024485933E+03 -0.66760991104E+03  0.19055999292E+03  0.71988283819E+03  0.46999998093E+01 0. -1.
</event>
<event>
 5   0  0.9432152E-05  0.1601834E+04  0.7818609E-02  0.8819422E-01
        1   -1    0    0  501    0  0.00000000000E+00  0.00000000000E+00  0.45181238726E+03  0.45181238729E+03  0.50400001928E-02 0.  1.
       -1   -1    0    0    0  501  0.00000000000E+00  0.00000000000E+00 -0.14197669742E+04  0.14197669742E+04  0.50400001928E-02 0. -1.
    10030    2    1    2    0    0  0.00000000000E+00  0.00000000000E+00 -0.96795458691E+03  0.18715793615E+04  0.16018343310E+04 0.  0.
        4    1    3    3  502    0 -0.60480566674E+03  0.52207562063E+03 -0.41877856301E+03  0.90206981211E+03  0.12699999809E+01 0.  1.
       -4    1    3    3    0  502  0.60480566674E+03 -0.52207562063E+03 -0.54917602390E+03  0.96950954937E+03  0.12699999809E+01 0. -1.
</event>
<event>
 5   0  0.9939872E-05  0.1599302E+04  0.7818609E-02  0.8820977E-01
       -1   -1    0    0    0  501  0.00000000000E+00  0.00000000000E+00  0.12949538691E+04  0.12949538691E+04  0.50400001928E-02 0. -1.
        1   -1    0    0  501    0  0.00000000000E+00  0.00000000000E+00 -0.49379510401E+03  0.49379510403E+03  0.50400001928E-02 0.  1.
    10030    2    1    2    0    0  0.00000000000E+00  0.00000000000E+00  0.80115876511E+03  0.17887489732E+04  0.15993021985E+04 0.  0.
        3    1    3    3  502    0 -0.38711084135E+03  0.69654017444E+03  0.47492812069E+03  0.92767437613E+03  0.10100000352E+00 0.  1.
       -3    1    3    3    0  502  0.38711084135E+03 -0.69654017444E+03  0.32623064442E+03  0.86107459704E+03  0.10100000352E+00 0. -1.
</event>
<event>
 5   0  0.9432152E-05  0.1600557E+04  0.7818609E-02  0.8820206E-01
        1   -1    0    0  501    0  0.00000000000E+00  0.00000000000E+00  0.67622832358E+03  0.67622832359E+03  0.50400001928E-02 0.  1.
       -1   -1    0    0    0  501  0.00000000000E+00  0.00000000000E+00 -0.94708478380E+03  0.94708478381E+03  0.50400001928E-02 0. -1.
    10030    2    1    2    0    0  0.00000000000E+00  0.00000000000E+00 -0.27085646022E+03  0.16233131074E+04  0.16005568477E+04 0.  0.
        4    1    3    3  502    0  0.20614291760E+03  0.39710103989E+02 -0.91865922928E+03  0.94234186328E+03  0.12699999809E+01 0. -1.
       -4    1    3    3    0  502 -0.20614291760E+03 -0.39710103989E+02  0.64780276906E+03  0.68097124413E+03  0.12699999809E+01 0.  1.
</event>
<event>
 5   0  0.1914170E-04  0.1586752E+04  0.7818609E-02  0.8828729E-01
        2   -1    0    0  501    0  0.00000000000E+00  0.00000000000E+00  0.97647230032E+03  0.97647230032E+03  0.25500000920E-02 0.  1.
       -2   -1    0    0    0  501  0.00000000000E+00  0.00000000000E+00 -0.64461130337E+03  0.64461130337E+03  0.25500000920E-02 0. -1.
    10030    2    1    2    0    0  0.00000000000E+00  0.00000000000E+00  0.33186099695E+03  0.16210836037E+04  0.15867515019E+04 0.  0.
        3    1    3    3  502    0 -0.33564226855E+03  0.36739584909E+03  0.79720745110E+03  0.93977400084E+03  0.10100000352E+00 0.  1.
       -3    1    3    3    0  502  0.33564226855E+03 -0.36739584909E+03 -0.46534645415E+03  0.68130960286E+03  0.10100000352E+00 0. -1.
</event>
<event>
 5   0  0.1835088E-04  0.1594510E+04  0.7818609E-02  0.8823928E-01
       -2   -1    0    0    0  501  0.00000000000E+00  0.00000000000E+00  0.74528035010E+03  0.74528035010E+03  0.25500000920E-02 0.  1.
        2   -1    0    0  501    0  0.00000000000E+00  0.00000000000E+00 -0.85285374767E+03  0.85285374768E+03  0.25500000920E-02 0. -1.
    10030    2    1    2    0    0  0.00000000000E+00  0.00000000000E+00 -0.10757339758E+03  0.15981340978E+04  0.15945095041E+04 0.  0.
        5    1    3    3  502    0 -0.39309131246E+03 -0.16974455618E+03  0.62024409961E+03  0.75369677417E+03  0.46999998093E+01 0.  1.
       -5    1    3    3    0  502  0.39309131246E+03  0.16974455618E+03 -0.72781749719E+03  0.84443732361E+03  0.46999998093E+01 0. -1.
</event>
<event>
 5   0  0.1835088E-04  0.1600974E+04  0.7818609E-02  0.8819950E-01
       -2   -1    0    0    0  501  0.00000000000E+00  0.00000000000E+00  0.78353105900E+03  0.78353105900E+03  0.25500000920E-02 0.  1.
        2   -1    0    0  501    0  0.00000000000E+00  0.00000000000E+00 -0.81780945944E+03  0.81780945945E+03  0.25500000920E-02 0. -1.
    10030    2    1    2    0    0  0.00000000000E+00  0.00000000000E+00 -0.34278400445E+02  0.16013405185E+04  0.16009735936E+04 0.  0.
        5    1    3    3  502    0 -0.54310336568E+03  0.54868687236E+03 -0.22870238595E+03  0.80519899469E+03  0.46999998093E+01 0. -1.
       -5    1    3    3    0  502  0.54310336568E+03 -0.54868687236E+03  0.19442398550E+03  0.79614152376E+03  0.46999998093E+01 0.  1.
</event>
<event>
 5   0  0.9673017E-05  0.1606286E+04  0.7818609E-02  0.8816696E-01
       -1   -1    0    0    0  501  0.00000000000E+00  0.00000000000E+00  0.21604227941E+03  0.21604227946E+03  0.50400001928E-02 0. -1.
        1   -1    0    0  501    0  0.00000000000E+00  0.00000000000E+00 -0.29857055348E+04  0.29857055348E+04  0.50400001928E-02 0.  1.
    10030    2    1    2    0    0  0.00000000000E+00  0.00000000000E+00 -0.27696632554E+04  0.32017478143E+04  0.16062859390E+04 0.  0.
        1    1    3    3  502    0  0.15451131733E+03 -0.78759868973E+03 -0.13266097541E+04  0.15505092334E+04  0.50400001928E-02 0.  1.
       -1    1    3    3    0  502 -0.15451131733E+03  0.78759868973E+03 -0.14430535014E+04  0.16512385809E+04  0.50400001928E-02 0. -1.
</event>
<event>
 5   0  0.1774934E-04  0.1596785E+04  0.7818609E-02  0.8822526E-01
       -2   -1    0    0    0  501  0.00000000000E+00  0.00000000000E+00  0.36000176075E+03  0.36000176076E+03  0.25500000920E-02 0.  1.
        2   -1    0    0  501    0  0.00000000000E+00  0.00000000000E+00 -0.17706309005E+04  0.17706309005E+04  0.25500000920E-02 0. -1.
    10030    2    1    2    0    0  0.00000000000E+00  0.00000000000E+00 -0.14106291398E+04  0.21306326613E+04  0.15967845714E+04 0.  0.
        1    1    3    3  502    0 -0.44713330635E+03 -0.63226555919E+03 -0.96453933884E+03  0.12369414162E+04  0.50400001928E-02 0.  1.
       -1    1    3    3    0  502  0.44713330635E+03  0.63226555919E+03 -0.44608980095E+03  0.89369124508E+03  0.50400001928E-02 0. -1.
</event>
<event>
 5   0  0.1774934E-04  0.1594094E+04  0.7818609E-02  0.8824185E-01
       -2   -1    0    0    0  501  0.00000000000E+00  0.00000000000E+00  0.74876880281E+03  0.74876880281E+03  0.25500000920E-02 0. -1.
        2   -1    0    0  501    0  0.00000000000E+00  0.00000000000E+00 -0.84843760518E+03  0.84843760518E+03  0.25500000920E-02 0.  1.
    10030    2    1    2    0    0  0.00000000000E+00  0.00000000000E+00 -0.99668802374E+02  0.15972064080E+04  0.15940936107E+04 0.  0.
        1    1    3    3  502    0 -0.57542370761E+03  0.24475676441E+02 -0.60188407285E+03  0.83305218276E+03  0.50400001928E-02 0.  1.
       -1    1    3    3    0  502  0.57542370761E+03 -0.24475676441E+02  0.50221527048E+03  0.76415422524E+03  0.50400001928E-02 0. -1.
</event>
<event>
 5   0  0.9939872E-05  0.1603199E+04  0.7818609E-02  0.8818585E-01
        1   -1    0    0  501    0  0.00000000000E+00  0.00000000000E+00  0.12493701217E+04  0.12493701217E+04  0.50400001928E-02 0.  1.
       -1   -1    0    0    0  501  0.00000000000E+00  0.00000000000E+00 -0.51430871989E+03  0.51430871991E+03  0.50400001928E-02 0. -1.
    10030    2    1    2    0    0  0.00000000000E+00  0.00000000000E+00  0.73506140185E+03  0.17636788417E+04  0.16031992365E+04 0.  0.
        3    1    3    3  502    0  0.47502518468E+03 -0.18331192540E+03 -0.31356312029E+03  0.59797493984E+03  0.10100000352E+00 0. -1.
       -3    1    3    3    0  502 -0.47502518468E+03  0.18331192540E+03  0.10486245221E+04  0.11657039018E+04  0.10100000352E+00 0.  1.
</event>
<event>
 5   0  0.1858913E-04  0.1606190E+04  0.7818609E-02  0.8816754E-01
        2   -1    0    0  501    0  0.00000000000E+00  0.00000000000E+00  0.71960842754E+03  0.71960842755E+03  0.25500000920E-02 0.  1.
       -2   -1    0    0    0  501  0.00000000000E+00  0.00000000000E+00 -0.89626711362E+03  0.89626711362E+03  0.25500000920E-02 0. -1.
    10030    2    1    2    0    0  0.00000000000E+00  0.00000000000E+00 -0.17665868607E+03  0.16158755412E+04  0.16061897376E+04 0.  0.
        4    1    3    3  502    0 -0.73617157057E+03 -0.28397981463E+00 -0.41121820110E+03  0.84323821295E+03  0.12699999809E+01 0. -1.
       -4    1    3    3    0  502  0.73617157057E+03  0.28397981463E+00  0.23455951503E+03  0.77263732822E+03  0.12699999809E+01 0.  1.
</event>
<event>
 5   0  0.9726935E-05  0.1615559E+04  0.7818609E-02  0.8811046E-01
        1   -1    0    0  501    0  0.00000000000E+00  0.00000000000E+00  0.23094188304E+04  0.23094188304E+04  0.50400001928E-02 0. -1.
       -1   -1    0    0    0  501  0.00000000000E+00  0.00000000000E+00 -0.28254186047E+03  0.28254186051E+03  0.50400001928E-02 0.  1.
    10030    2    1    2    0    0  0.00000000000E+00  0.00000000000E+00  0.20268769700E+04  0.25919606910E+04  0.16155587182E+04 0.  0.
        2    1    3    3  502    0  0.27033508032E+03  0.32622178697E+03 -0.89976528506E+02  0.43312525398E+03  0.25500000920E-02 0.  1.
       -2    1    3    3    0  502 -0.27033508032E+03 -0.32622178697E+03  0.21168534985E+04  0.21588354370E+04  0.25500000920E-02 0. -1.
</event>
<event>
 5   0  0.1832646E-04  0.1604233E+04  0.7818609E-02  0.8817952E-01
       -2   -1    0    0    0  501  0.00000000000E+00  0.00000000000E+00  0.58565350873E+03  0.58565350873E+03  0.25500000920E-02 0.  1.
        2   -1    0    0  501    0  0.00000000000E+00  0.00000000000E+00 -0.10985858206E+04  0.10985858206E+04  0.25500000920E-02 0. -1.
    10030    2    1    2    0    0  0.00000000000E+00  0.00000000000E+00 -0.51293231190E+03  0.16842393294E+04  0.16042327019E+04 0.  0.
        2    1    3    3  502    0 -0.49025666594E+02 -0.59818430329E+03 -0.81513497662E+03  0.10122613333E+04  0.25500000920E-02 0. -1.
       -2    1    3    3    0  502  0.49025666594E+02  0.59818430329E+03  0.30220266472E+03  0.67197799611E+03  0.25500000920E-02 0.  1.
</event>
<event>
 5   0  0.9673017E-05  0.1600232E+04  0.7818609E-02  0.8820406E-01
       -1   -1    0    0    0  501  0.00000000000E+00  0.00000000000E+00  0.85344886404E+03  0.85344886405E+03  0.50400001928E-02 0. -1.
        1   -1    0    0  501    0  0.00000000000E+00  0.00000000000E+00 -0.75011589139E+03  0.75011589141E+03  0.50400001928E-02 0.  1.
    10030    2    1    2    0    0  0.00000000000E+00  0.00000000000E+00  0.10333297265E+03  0.16035647555E+04  0.16002319275E+04 0.  0.
        1    1    3    3  502    0 -0.50505760100E+03 -0.20802114693E+03  0.63754610522E+03  0.83953618993E+03  0.50400001928E-02 0. -1.
       -1    1    3    3    0  502  0.50505760100E+03  0.20802114693E+03 -0.53421313257E+03  0.76402856553E+03  0.50400001928E-02 0.  1.
</event>
<event>
 5   0  0.1832646E-04  0.1600653E+04  0.7818609E-02  0.8820147E-01
        2   -1    0    0  501    0  0.00000000000E+00  0.00000000000E+00  0.84232159070E+03  0.84232159070E+03  0.25500000920E-02 0. -1.
       -2   -1    0    0    0  501  0.00000000000E+00  0.00000000000E+00 -0.76042511687E+03  0.76042511688E+03  0.25500000920E-02 0.  1.
    10030    2    1    2    0    0  0.00000000000E+00  0.00000000000E+00  0.81896473829E+02  0.16027467076E+04  0.16006529843E+04 0.  0.
        2    1    3    3  502    0  0.62829819586E+03 -0.33542869485E+03 -0.32456549351E+03  0.78269648768E+03  0.25500000920E-02 0.  1.
       -2    1    3    3    0  502 -0.62829819586E+03  0.33542869485E+03  0.40646196733E+03  0.82005021989E+03  0.25500000920E-02 0. -1.
</event>
<event>
 5   0  0.1835088E-04  0.1598977E+04  0.7818609E-02  0.8821177E-01
        2   -1    0    0  501    0  0.00000000000E+00  0.00000000000E+00  0.10459743073E+04  0.10459743073E+04  0.25500000920E-02 0.  1.
       -2   -1    0    0    0  501  0.00000000000E+00  0.00000000000E+00 -0.61108778257E+03  0.61108778257E+03  0.25500000920E-02 0. -1.
    10030    2    1    2    0    0  0.00000000000E+00  0.00000000000E+00  0.43488652476E+03  0.16570620899E+04  0.15989773233E+04 0.  0.
        5    1    3    3  502    0 -0.18439578836E+03  0.72950104409E+02 -0.58518218240E+03  0.61788656006E+03  0.46999998093E+01 0. -1.
       -5    1    3    3    0  502  0.18439578836E+03 -0.72950104409E+02  0.10200687072E+04  0.10391755298E+04  0.46999998093E+01 0.  1.
</event>
<event>
 5   0  0.1835088E-04  0.1601143E+04  0.7818609E-02  0.8819846E-01
       -2   -1    0    0    0  501  0.00000000000E+00  0.00000000000E+00  0.50493514243E+03  0.50493514244E+03  0.25500000920E-02 0. -1.
        2   -1    0    0  501    0  0.00000000000E+00  0.00000000000E+00 -0.12693013604E+04  0.12693013604E+04  0.25500000920E-02 0.  1.
    10030    2    1    2    0    0  0.00000000000E+00  0.00000000000E+00 -0.76436621796E+03  0.17742365028E+04  0.16011431706E+04 0.  0.
        5    1    3    3  502    0  0.50128982229E+03 -0.35532260993E+03  0.18646766918E+03  0.64213544109E+03  0.46999998093E+01 0. -1.
       -5    1    3    3    0  502 -0.50128982229E+03  0.35532260993E+03 -0.95083388713E+03  0.11321010617E+04  0.46999998093E+01 0.  1.
</event>
<event>
 5   0  0.1835088E-04  0.1617288E+04  0.7818609E-02  0.8809997E-01
        2   -1    0    0  501    0  0.00000000000E+00  0.00000000000E+00  0.75702560438E+03  0.75702560438E+03  0.25500000920E-02 0. -1.
       -2   -1    0    0    0  501  0.00000000000E+00  0.00000000000E+00 -0.86378184704E+03  0.86378184704E+03  0.25500000920E-02 0.  1.
    10030    2    1    2    0    0  0.00000000000E+00  0.00000000000E+00 -0.10675624266E+03  0.16208074514E+04  0.16172878220E+04 0.  0.
        5    1    3    3  502    0  0.25468454557E+03 -0.64751366116E+03  0.35951937798E+03  0.78320778359E+03  0.46999998093E+01 0. -1.
       -5    1    3    3    0  502 -0.25468454557E+03  0.64751366116E+03 -0.46627562065E+03  0.83759966783E+03  0.46999998093E+01 0.  1.
</event>
<event>
 5   0  0.9673017E-05  0.1621323E+04  0.7818609E-02  0.8807555E-01
       -1   -1    0    0    0  501  0.00000000000E+00  0.00000000000E+00  0.77687492298E+03  0.77687492299E+03  0.50400001928E-02 0. -1.
        1   -1    0    0  501    0  0.00000000000E+00  0.00000000000E+00 -0.84591737513E+03  0.84591737515E+03  0.50400001928E-02 0.  1.
    10030    2    1    2    0    0  0.00000000000E+00  0.00000000000E+00 -0.69042452152E+02  0.16227922981E+04  0.16213229113E+04 0.  0.
        1    1    3    3  502    0 -0.62002942770E+03  0.36532734330E+03  0.33900787770E+03  0.79550417984E+03  0.50400001928E-02 0. -1.
       -1    1    3    3    0  502  0.62002942770E+03 -0.36532734330E+03 -0.40805032985E+03  0.82728811830E+03  0.50400001928E-02 0.  1.
</event>
<event>
 5   0  0.9939872E-05  0.1551736E+04  0.7818609E-02  0.8850760E-01
        1   -1    0    0  501    0  0.00000000000E+00  0.00000000000E+00  0.13209518562E+04  0.13209518563E+04  0.50400001928E-02 0.  1.
       -1   -1    0    0    0  501  0.00000000000E+00  0.00000000000E+00 -0.45571007812E+03  0.45571007815E+03  0.50400001928E-02 0. -1.
    10030    2    1    2    0    0  0.00000000000E+00  0.00000000000E+00  0.86524177812E+03  0.17766619344E+04  0.15517358972E+04 0.  0.
        3    1    3    3  502    0 -0.72382431636E+03 -0.25834102905E+03  0.55438113833E+03  0.94762871684E+03  0.10100000352E+00 0.  1.
       -3    1    3    3    0  502  0.72382431636E+03  0.25834102905E+03  0.31086063979E+03  0.82903321756E+03  0.10100000352E+00 0. -1.
</event>
<event>
 5   0  0.9939872E-05  0.1583032E+04  0.7818609E-02  0.8831040E-01
       -1   -1    0    0    0  501  0.00000000000E+00  0.00000000000E+00  0.35764930234E+03  0.35764930237E+03  0.50400001928E-02 0. -1.
        1   -1    0    0  501    0  0.00000000000E+00  0.00000000000E+00 -0.17517098935E+04  0.17517098936E+04  0.50400001928E-02 0.  1.
    10030    2    1    2    0    0  0.00000000000E+00  0.00000000000E+00 -0.13940605912E+04  0.21093591959E+04  0.15830323071E+04 0.  0.
        3    1    3    3  502    0  0.32158831091E+03 -0.56085489348E+03 -0.13054947347E+04  0.14568094473E+04  0.10100000352E+00 0.  1.
       -3    1    3    3    0  502 -0.32158831091E+03  0.56085489348E+03 -0.88565856493E+02  0.65254974860E+03  0.10100000352E+00 0. -1.
</event>
<event>
 5   0  0.1774934E-04  0.1594803E+04  0.7818609E-02  0.8823747E-01
        2   -1    0    0  501    0  0.00000000000E+00  0.00000000000E+00  0.76488786007E+03  0.76488786008E+03  0.25500000920E-02 0.  1.
       -2   -1    0    0    0  501  0.00000000000E+00  0.00000000000E+00 -0.83129754451E+03  0.83129754451E+03  0.25500000920E-02 0. -1.
    10030    2    1    2    0    0  0.00000000000E+00  0.00000000000E+00 -0.66409684432E+02  0.15961854046E+04  0.15948033106E+04 0.  0.
        1    1    3    3  502    0 -0.41275829105E+03  0.33032077629E+03  0.56427831193E+03  0.77323426943E+03  0.50400001928E-02 0.  1.
       -1    1    3    3    0  502  0.41275829105E+03 -0.33032077629E+03 -0.63068799637E+03  0.82295113516E+03  0.50400001928E-02 0. -1.
</event>
<event>
 5   0  0.9616567E-05  0.1601347E+04  0.7818609E-02  0.8819721E-01
       -1   -1    0    0    0  501  0.00000000000E+00  0.00000000000E+00  0.72905068793E+03  0.72905068795E+03  0.50400001928E-02 0.  1.
        1   -1    0    0  501    0  0.00000000000E+00  0.00000000000E+00 -0.87933307248E+03  0.87933307249E+03  0.50400001928E-02 0. -1.
    10030    2    1    2    0    0  0.00000000000E+00  0.00000000000E+00 -0.15028238454E+03  0.16083837604E+04  0.16013474094E+04 0.  0.
        5    1    3    3  502    0  0.50279143611E+03 -0.59972959025E+03 -0.24494463386E+03  0.82005778656E+03  0.46999998093E+01 0. -1.
       -5    1    3    3    0  502 -0.50279143611E+03  0.59972959025E+03  0.94662249315E+02  0.78832597388E+03  0.46999998093E+01 0.  1.
</event>
<event>
 5   0  0.1774934E-04  0.1639214E+04  0.7818609E-02  0.8796813E-01
       -2   -1    0    0    0  501  0.00000000000E+00  0.00000000000E+00  0.85665725118E+03  0.85665725118E+03  0.25500000920E-02 0.  1.
        2   -1    0    0  501    0  0.00000000000E+00  0.00000000000E+00 -0.78415909985E+03  0.78415909985E+03  0.25500000920E-02 0. -1.
    10030    2    1    2    0    0  0.00000000000E+00  0.00000000000E+00  0.72498151328E+02  0.16408163510E+04  0.16392139323E+04 0.  0.
        1    1    3    3  502    0  0.81571087417E+03 -0.79818803382E+02  0.36803985655E+02  0.82043269377E+03  0.50400001928E-02 0.  1.
       -1    1    3    3    0  502 -0.81571087417E+03  0.79818803382E+02  0.35694165673E+02  0.82038365727E+03  0.50400001928E-02 0. -1.
</event>
<event>
 5   0  0.1914170E-04  0.1494783E+04  0.7818609E-02  0.8887929E-01
       -2   -1    0    0    0  501  0.00000000000E+00  0.00000000000E+00  0.65183110729E+03  0.65183110729E+03  0.25500000920E-02 0. -1.
        2   -1    0    0  501    0  0.00000000000E+00  0.00000000000E+00 -0.85696190188E+03  0.85696190188E+03  0.25500000920E-02 0.  1.
    10030    2    1    2    0    0  0.00000000000E+00  0.00000000000E+00 -0.20513079459E+03  0.15087930092E+04  0.14947834966E+04 0.  0.
        3    1    3    3  502    0  0.73430637514E+02  0.14477321579E+02  0.64803898050E+03  0.65234667303E+03  0.10100000352E+00 0. -1.
       -3    1    3    3    0  502 -0.73430637514E+02 -0.14477321579E+02 -0.85316977509E+03  0.85644633614E+03  0.10100000352E+00 0.  1.
</event>
<event>
 5   0  0.1832646E-04  0.1595151E+04  0.7818609E-02  0.8823533E-01
        2   -1    0    0  501    0  0.00000000000E+00  0.00000000000E+00  0.40072659801E+03  0.40072659802E+03  0.25500000920E-02 0. -1.
       -2   -1    0    0    0  501  0.00000000000E+00  0.00000000000E+00 -0.15874329341E+04  0.15874329341E+04  0.25500000920E-02 0.  1.
    10030    2    1    2    0    0  0.00000000000E+00  0.00000000000E+00 -0.11867063361E+04  0.19881595321E+04  0.15951509010E+04 0.  0.
        2    1    3    3  502    0 -0.20085877869E+03 -0.43209839631E+03 -0.13905214990E+04  0.14698990824E+04  0.25500000920E-02 0.  1.
       -2    1    3    3    0  502  0.20085877869E+03  0.43209839631E+03  0.20381516299E+03  0.51826044971E+03  0.25500000920E-02 0. -1.
</event>
<event>
 5   0  0.9726935E-05  0.1630786E+04  0.7818609E-02  0.8801855E-01
        1   -1    0    0  501    0  0.00000000000E+00  0.00000000000E+00  0.14782269236E+04  0.14782269236E+04  0.50400001928E-02 0.  1.
       -1   -1    0    0    0  501  0.00000000000E+00  0.00000000000E+00 -0.44977227987E+03  0.44977227989E+03  0.50400001928E-02 0. -1.
    10030    2    1    2    0    0  0.00000000000E+00  0.00000000000E+00  0.10284546437E+04  0.19279992035E+04  0.16307856924E+04 0.  0.
        2    1    3    3  502    0  0.20392254245E+03 -0.44644992346E+03 -0.25556614462E+03  0.55336786296E+03  0.25500000920E-02 0. -1.
       -2    1    3    3    0  502 -0.20392254245E+03  0.44644992346E+03  0.12840207883E+04  0.13746313405E+04  0.25500000920E-02 0.  1.
</event>
<event>
 5   0  0.1835088E-04  0.1602827E+04  0.7818609E-02  0.8818813E-01
        2   -1    0    0  501    0  0.00000000000E+00  0.00000000000E+00  0.82851530272E+03  0.82851530272E+03  0.25500000920E-02 0.  1.
       -2   -1    0    0    0  501  0.00000000000E+00  0.00000000000E+00 -0.77519813579E+03  0.77519813579E+03  0.25500000920E-02 0. -1.
    10030    2    1    2    0    0  0.00000000000E+00  0.00000000000E+00  0.53317166930E+02  0.16037134385E+04  0.16028269004E+04 0.  0.
        5    1    3    3  502    0  0.72253135969E+02 -0.13517880304E+03  0.81369877484E+03  0.82802271142E+03  0.46999998093E+01 0.  1.
       -5    1    3    3    0  502 -0.72253135969E+02  0.13517880304E+03 -0.76038160791E+03  0.77569072709E+03  0.46999998093E+01 0. -1.
</event>
<event>
 5   0  0.6838750E-05  0.1607491E+04  0.7818609E-02  0.8815959E-01
       -3   -1    0    0    0  501  0.00000000000E+00  0.00000000000E+00  0.83776616316E+03  0.83776616925E+03  0.10100000352E+00 0. -1.
        3   -1    0    0  501    0  0.00000000000E+00  0.00000000000E+00 -0.77110670597E+03  0.77110671258E+03  0.10100000352E+00 0.  1.
    10030    2    1    2    0    0  0.00000000000E+00  0.00000000000E+00  0.66659457197E+02  0.16088728818E+04  0.16074913582E+04 0.  0.
        4    1    3    3  502    0  0.18677960201E+03 -0.43143185036E+03  0.68579907310E+03  0.83146980871E+03  0.12699999809E+01 0. -1.
       -4    1    3    3    0  502 -0.18677960201E+03  0.43143185036E+03 -0.61913961590E+03  0.77740307313E+03  0.12699999809E+01 0.  1.
</event>
<event>
 5   0  0.1835088E-04  0.1534589E+04  0.7818609E-02  0.8861772E-01
       -2   -1    0    0    0  501  0.00000000000E+00  0.00000000000E+00  0.12028255151E+04  0.12028255151E+04  0.25500000920E-02 0. -1.
        2   -1    0    0  501    0  0.00000000000E+00  0.00000000000E+00 -0.48946512645E+03  0.48946512646E+03  0.25500000920E-02 0.  1.
    10030    2    1    2    0    0  0.00000000000E+00  0.00000000000E+00  0.71336038869E+03  0.16922906416E+04  0.15345893821E+04 0.  0.
        5    1    3    3  502    0  0.73650423126E+03 -0.72253349849E+02  0.58013636984E+03  0.94034000598E+03  0.46999998093E+01 0.  1.
       -5    1    3    3    0  502 -0.73650423126E+03  0.72253349849E+02  0.13322401885E+03  0.75195063563E+03  0.46999998093E+01 0. -1.
</event>
<event>
 5   0  0.1774934E-04  0.1605612E+04  0.7818609E-02  0.8817108E-01
        2   -1    0    0  501    0  0.00000000000E+00  0.00000000000E+00  0.10690264491E+04  0.10690264491E+04  0.25500000920E-02 0. -1.
       -2   -1    0    0    0  501  0.00000000000E+00  0.00000000000E+00 -0.60288258210E+03  0.60288258210E+03  0.25500000920E-02 0.  1.
    10030    2    1    2    0    0  0.00000000000E+00  0.00000000000E+00  0.46614386700E+03  0.16719090312E+04  0.16056119406E+04 0.  0.
        1    1    3    3  502    0  0.43612026624E+03 -0.60012898245E+03  0.55256627700E+03  0.92503252522E+03  0.50400001928E-02 0. -1.
       -1    1    3    3    0  502 -0.43612026624E+03  0.60012898245E+03 -0.86422410005E+02  0.74687650598E+03  0.50400001928E-02 0.  1.
</event>
<event>
 5   0  0.1858913E-04  0.1602253E+04  0.7818609E-02  0.8819165E-01
       -2   -1    0    0    0  501  0.00000000000E+00  0.00000000000E+00  0.68513490256E+03  0.68513490257E+03  0.25500000920E-02 0. -1.
        2   -1    0    0  501    0  0.00000000000E+00  0.00000000000E+00 -0.93675570211E+03  0.93675570211E+03  0.25500000920E-02 0.  1.
    10030    2    1    2    0    0  0.00000000000E+00  0.00000000000E+00 -0.25162079955E+03  0.16218906047E+04  0.16022534465E+04 0.  0.
        4    1    3    3  502    0 -0.12682160097E+03 -0.79048464103E+03 -0.15536979251E+03  0.81553115913E+03  0.12699999809E+01 0. -1.
       -4    1    3    3    0  502  0.12682160097E+03  0.79048464103E+03 -0.96251007034E+02  0.80635944556E+03  0.12699999809E+01 0.  1.
</event>
<event>
 5   0  0.9726935E-05  0.1598893E+04  0.7818609E-02  0.8821229E-01
       -1   -1    0    0    0  501  0.00000000000E+00  0.00000000000E+00  0.44169439129E+03  0.44169439131E+03  0.50400001928E-02 0.  1.
        1   -1    0    0  501    0  0.00000000000E+00  0.00000000000E+00 -0.14469604954E+04  0.14469604954E+04  0.50400001928E-02 0. -1.
    10030    2    1    2    0    0  0.00000000000E+00  0.00000000000E+00 -0.10052661041E+04  0.18886548868E+04  0.15988925358E+04 0.  0.
        2    1    3    3  502    0 -0.72476814832E+03 -0.29773475573E+03 -0.31519544784E+03  0.84456084679E+03  0.25500000920E-02 0. -1.
       -2    1    3    3    0  502  0.72476814832E+03  0.29773475573E+03 -0.69007065630E+03  0.10440940400E+04  0.25500000920E-02 0.  1.
</event>
<event>
 5   0  0.9726935E-05  0.1600449E+04  0.7818609E-02  0.8820272E-01
        1   -1    0    0  501    0  0.00000000000E+00  0.00000000000E+00  0.13836332730E+04  0.13836332730E+04  0.50400001928E-02 0. -1.
       -1   -1    0    0    0  501  0.00000000000E+00  0.00000000000E+00 -0.46280997556E+03  0.46280997559E+03  0.50400001928E-02 0.  1.
    10030    2    1    2    0    0  0.00000000000E+00  0.00000000000E+00  0.92082329742E+03  0.18464432486E+04  0.16004490386E+04 0.  0.
        2    1    3    3  502    0  0.58114593196E+03  0.14295059148E+03 -0.15245764091E+03  0.61758302933E+03  0.25500000920E-02 0.  1.
       -2    1    3    3    0  502 -0.58114593196E+03 -0.14295059148E+03  0.10732809383E+04  0.12288602192E+04  0.25500000920E-02 0. -1.
</event>
<event>
 5   0  0.1835088E-04  0.1606572E+04  0.7818609E-02  0.8816521E-01
        2   -1    0    0  501    0  0.00000000000E+00  0.00000000000E+00  0.65136180058E+03  0.65136180059E+03  0.25500000920E-02 0.  1.
       -2   -1    0    0    0  501  0.00000000000E+00  0.00000000000E+00 -0.99064464114E+03  0.99064464114E+03  0.25500000920E-02 0. -1.
    10030    2    1    2    0    0  0.00000000000E+00  0.00000000000E+00 -0.33928284056E+03  0.16420064417E+04  0.16065716009E+04 0.  0.
        5    1    3    3  502    0 -0.32966772854E+03 -0.55536495407E+03 -0.65781095940E+03  0.92187222095E+03  0.46999998093E+01 0. -1.
       -5    1    3    3    0  502  0.32966772854E+03  0.55536495407E+03  0.31852811885E+03  0.72013422078E+03  0.46999998093E+01 0.  1.
</event>
<event>
 5   0  0.1914170E-04  0.1600007E+04  0.7818609E-02  0.8820544E-01
       -2   -1    0    0    0  501  0.00000000000E+00  0.00000000000E+00  0.63729121040E+03  0.63729121040E+03  0.25500000920E-02 0. -1.
        2   -1    0    0  501    0  0.00000000000E+00  0.00000000000E+00 -0.10042592520E+04  0.10042592520E+04  0.25500000920E-02 0.  1.
    10030    2    1    2    0    0  0.00000000000E+00  0.00000000000E+00 -0.36696804160E+03  0.16415504624E+04  0.16000069928E+04 0.  0.
        3    1    3    3  502    0 -0.20234971600E+03  0.71342495381E+03 -0.49141871811E+03  0.88961392693E+03  0.10100000352E+00 0.  1.
       -3    1    3    3    0  502  0.20234971600E+03 -0.71342495381E+03  0.12445067652E+03  0.75193653546E+03  0.10100000352E+00 0. -1.
</event>
<event>
 5   0  0.9726935E-05  0.1606226E+04  0.7818609E-02  0.8816732E-01
       -1   -1    0    0    0  501  0.00000000000E+00  0.00000000000E+00  0.64803034041E+03  0.64803034043E+03  0.50400001928E-02 0.  1.
        1   -1    0    0  501    0  0.00000000000E+00  0.00000000000E+00 -0.99530903321E+03  0.99530903322E+03  0.50400001928E-02 0. -1.
    10030    2    1    2    0    0  0.00000000000E+00  0.00000000000E+00 -0.34727869279E+03  0.16433393736E+04  0.16062259513E+04 0.  0.
        2    1    3    3  502    0  0.12072399265E+03 -0.79348351789E+03 -0.20257852897E+03  0.82778525958E+03  0.25500000920E-02 0.  1.
       -2    1    3    3    0  502 -0.12072399265E+03  0.79348351789E+03 -0.14470016382E+03  0.81555411407E+03  0.25500000920E-02 0. -1.
</event>
<event>
 5   0  0.1858913E-04  0.1601635E+04  0.7818609E-02  0.8819544E-01
       -2   -1    0    0    0  501  0.00000000000E+00  0.00000000000E+00  0.14110067902E+04  0.14110067902E+04  0.25500000920E-02 0. -1.
        2   -1    0    0  501    0  0.00000000000E+00  0.00000000000E+00 -0.45450446434E+03  0.45450446435E+03  0.25500000920E-02 0.  1.
    10030    2    1    2    0    0  0.00000000000E+00  0.00000000000E+00  0.95650232590E+03  0.18655112546E+04  0.16016352711E+04 0.  0.
        4    1    3    3  502    0  0.14397727037E+03 -0.30234780773E+03 -0.36903329324E+03  0.49832804019E+03  0.12699999809E+01 0.  1.
       -4    1    3    3    0  502 -0.14397727037E+03  0.30234780773E+03  0.13255356191E+04  0.13671832144E+04  0.12699999809E+01 0. -1.
</event>
<event>
 5   0  0.9432152E-05  0.1599131E+04  0.7818609E-02  0.8821082E-01
        1   -1    0    0  501    0  0.00000000000E+00  0.00000000000E+00  0.67056611860E+03  0.67056611861E+03  0.50400001928E-02 0. -1.
       -1   -1    0    0    0  501  0.00000000000E+00  0.00000000000E+00 -0.95338157924E+03  0.95338157926E+03  0.50400001928E-02 0.  1.
    10030    2    1    2    0    0  0.00000000000E+00  0.00000000000E+00 -0.28281546065E+03  0.16239476979E+04  0.15991314957E+04 0.  0.
        4    1    3    3  502    0 -0.46391706773E+03  0.13106980289E+03 -0.78919827604E+03  0.92478855463E+03  0.12699999809E+01 0.  1.
       -4    1    3    3    0  502  0.46391706773E+03 -0.13106980289E+03  0.50638281539E+03  0.69915914325E+03  0.12699999809E+01 0. -1.
</event>
<event>
 5   0  0.9939872E-05  0.1598928E+04  0.7818609E-02  0.8821207E-01
       -1   -1    0    0    0  501  0.00000000000E+00  0.00000000000E+00  0.91559951627E+03  0.91559951628E+03  0.50400001928E-02 0. -1.
        1   -1    0    0  501    0  0.00000000000E+00  0.00000000000E+00 -0.69805942667E+03  0.69805942669E+03  0.50400001928E-02 0.  1.
    10030    2    1    2    0    0  0.00000000000E+00  0.00000000000E+00  0.21754008960E+03  0.16136589430E+04  0.15989282328E+04 0.  0.
        3    1    3    3  502    0 -0.51493409619E+03  0.49264399865E+03 -0.25690446092E+03  0.75753227329E+03  0.10100000352E+00 0.  1.
       -3    1    3    3    0  502  0.51493409619E+03 -0.49264399865E+03  0.47444455052E+03  0.85612666969E+03  0.10100000352E+00 0. -1.
</event>
<event>
 5   0  0.1774934E-04  0.1582737E+04  0.7818609E-02  0.8831224E-01
       -2   -1    0    0    0  501  0.00000000000E+00  0.00000000000E+00  0.91624986835E+03  0.91624986835E+03  0.25500000920E-02 0.  1.
        2   -1    0    0  501    0  0.00000000000E+00  0.00000000000E+00 -0.68350787269E+03  0.68350787270E+03  0.25500000920E-02 0. -1.
    10030    2    1    2    0    0  0.00000000000E+00  0.00000000000E+00  0.23274199565E+03  0.15997577410E+04  0.15827368681E+04 0.  0.
        1    1    3    3  502    0 -0.67594071575E+03 -0.36132735838E+03  0.31549387915E+03  0.82884841734E+03  0.50400001928E-02 0.  1.
       -1    1    3    3    0  502  0.67594071575E+03  0.36132735838E+03 -0.82751883496E+02  0.77090932370E+03  0.50400001928E-02 0. -1.
</event>
<event>
 5   0  0.9726935E-05  0.1601953E+04  0.7818609E-02  0.8819349E-01
       -1   -1    0    0    0  501  0.00000000000E+00  0.00000000000E+00  0.43840229876E+03  0.43840229879E+03  0.50400001928E-02 0. -1.
        1   -1    0    0  501    0  0.00000000000E+00  0.00000000000E+00 -0.14634120736E+04  0.14634120736E+04  0.50400001928E-02 0.  1.
    10030    2    1    2    0    0  0.00000000000E+00  0.00000000000E+00 -0.10250097748E+04  0.19018143724E+04  0.16019528297E+04 0.  0.
        2    1    3    3  502    0  0.29222223533E+02 -0.79840343108E+03 -0.44470799593E+03  0.91436709191E+03  0.25500000920E-02 0.  1.
       -2    1    3    3    0  502 -0.29222223533E+02  0.79840343108E+03 -0.58030177887E+03  0.98744728046E+03  0.25500000920E-02 0. -1.
</event>
<event>
 5   0  0.1774934E-04  0.1597793E+04  0.7818609E-02  0.8821905E-01
       -2   -1    0    0    0  501  0.00000000000E+00  0.00000000000E+00  0.30642602648E+03  0.30642602649E+03  0.25500000920E-02 0. -1.
        2   -1    0    0  501    0  0.00000000000E+00  0.00000000000E+00 -0.20828369659E+04  0.20828369659E+04  0.25500000920E-02 0.  1.
    10030    2    1    2    0    0  0.00000000000E+00  0.00000000000E+00 -0.17764109394E+04  0.23892629924E+04  0.15977927967E+04 0.  0.
        1    1    3    3  502    0 -0.52386679990E+03  0.82699868247E+02  0.52093038423E+01  0.53037989132E+03  0.50400001928E-02 0. -1.
       -1    1    3    3    0  502  0.52386679990E+03 -0.82699868247E+02 -0.17816202433E+04  0.18588831011E+04  0.50400001928E-02 0.  1.
</event>
<event>
 5   0  0.1914170E-04  0.1597341E+04  0.7818609E-02  0.8822183E-01
        2   -1    0    0  501    0  0.00000000000E+00  0.00000000000E+00  0.12422381628E+04  0.12422381628E+04  0.25500000920E-02 0.  1.
       -2   -1    0    0    0  501  0.00000000000E+00  0.00000000000E+00 -0.51348837700E+03  0.51348837700E+03  0.25500000920E-02 0. -1.
    10030    2    1    2    0    0  0.00000000000E+00  0.00000000000E+00  0.72874978576E+03  0.17557265398E+04  0.15973413637E+04 0.  0.
        3    1    3    3  502    0 -0.22204918587E+03 -0.75589195100E+03  0.50851255288E+03  0.93769051887E+03  0.10100000352E+00 0. -1.
       -3    1    3    3    0  502  0.22204918587E+03  0.75589195100E+03  0.22023723287E+03  0.81803602089E+03  0.10100000352E+00 0.  1.
</event>
<event>
 5   0  0.9673017E-05  0.1599971E+04  0.7818609E-02  0.8820566E-01
       -1   -1    0    0    0  501  0.00000000000E+00  0.00000000000E+00  0.10024721083E+04  0.10024721083E+04  0.50400001928E-02 0. -1.
        1   -1    0    0  501    0  0.00000000000E+00  0.00000000000E+00 -0.63839867647E+03  0.63839867649E+03  0.50400001928E-02 0.  1.
    10030    2    1    2    0    0  0.00000000000E+00  0.00000000000E+00  0.36407343183E+03  0.16408707848E+04  0.15999710837E+04 0.  0.
        1    1    3    3  502    0 -0.57756892692E+03  0.48564689311E+03 -0.90342595978E+02  0.76000036500E+03  0.50400001928E-02 0. -1.
       -1    1    3    3    0  502  0.57756892692E+03 -0.48564689311E+03  0.45441602781E+03  0.88087041981E+03  0.50400001928E-02 0.  1.
</event>
<event>
 5   0  0.9673017E-05  0.1604925E+04  0.7818609E-02  0.8817528E-01
       -1   -1    0    0    0  501  0.00000000000E+00  0.00000000000E+00  0.42488246641E+03  0.42488246644E+03  0.50400001928E-02 0. -1.
        1   -1    0    0  501    0  0.00000000000E+00  0.00000000000E+00 -0.15155868609E+04  0.15155868609E+04  0.50400001928E-02 0.  1.
    10030    2    1    2    0    0  0.00000000000E+00  0.00000000000E+00 -0.10907043945E+04  0.19404693273E+04  0.16049252737E+04 0.  0.
        1    1    3    3  502    0 -0.55002788473E+03  0.15246511929E+03 -0.12273478055E+04  0.13535726512E+04  0.50400001928E-02 0.  1.
       -1    1    3    3    0  502  0.55002788473E+03 -0.15246511929E+03  0.13664341101E+03  0.58689667607E+03  0.50400001928E-02 0. -1.
</event>
<event>
 5   0  0.1774934E-04  0.1597848E+04  0.7818609E-02  0.8821871E-01
       -2   -1    0    0    0  501  0.00000000000E+00  0.00000000000E+00  0.43984092737E+03  0.43984092737E+03  0.25500000920E-02 0. -1.
        2   -1    0    0  501    0  0.00000000000E+00  0.00000000000E+00 -0.14511605364E+04  0.14511605364E+04  0.25500000920E-02 0.  1.
    10030    2    1    2    0    0  0.00000000000E+00  0.00000000000E+00 -0.10113196090E+04  0.18910014638E+04  0.15978482983E+04 0.  0.
        1    1    3    3  502    0  0.74113753039E+03  0.26043788647E+03 -0.67784136370E+03  0.10375845248E+04  0.50400001928E-02 0.  1.
       -1    1    3    3    0  502 -0.74113753039E+03 -0.26043788647E+03 -0.33347824534E+03  0.85341693901E+03  0.50400001928E-02 0. -1.
</event>
<event>
 5   0  0.9726935E-05  0.1598189E+04  0.7818609E-02  0.8821661E-01
       -1   -1    0    0    0  501  0.00000000000E+00  0.00000000000E+00  0.10780096896E+04  0.10780096897E+04  0.50400001928E-02 0.  1.
        1   -1    0    0  501    0  0.00000000000E+00  0.00000000000E+00 -0.59234345228E+03  0.59234345230E+03  0.50400001928E-02 0. -1.
    10030    2    1    2    0    0  0.00000000000E+00  0.00000000000E+00  0.48566623737E+03  0.16703531420E+04  0.15981889515E+04 0.  0.
        2    1    3    3  502    0 -0.52763522474E+03 -0.54812231241E+03 -0.12567429508E+02  0.76091717029E+03  0.25500000920E-02 0. -1.
       -2    1    3    3    0  502  0.52763522474E+03  0.54812231241E+03  0.49823366687E+03  0.90943597167E+03  0.25500000920E-02 0.  1.
</event>
<event>
 5   0  0.9673017E-05  0.1606930E+04  0.7818609E-02  0.8816302E-01
        1   -1    0    0  501    0  0.00000000000E+00  0.00000000000E+00  0.24883669837E+04  0.24883669837E+04  0.50400001928E-02 0.  1.
       -1   -1    0    0    0  501  0.00000000000E+00  0.00000000000E+00 -0.25942946240E+03  0.25942946245E+03  0.50400001928E-02 0. -1.
    10030    2    1    2    0    0  0.00000000000E+00  0.00000000000E+00  0.22289375213E+04  0.27477964462E+04  0.16069296299E+04 0.  0.
        1    1    3    3  502    0 -0.44208656922E+02 -0.55100523265E+03  0.21115342126E+04  0.21826905192E+04  0.50400001928E-02 0.  1.
       -1    1    3    3    0  502  0.44208656922E+02  0.55100523265E+03  0.11740330875E+03  0.56510592696E+03  0.50400001928E-02 0. -1.
</event>
<event>
 5   0  0.1914170E-04  0.1599600E+04  0.7818609E-02  0.8820794E-01
        2   -1    0    0  501    0  0.00000000000E+00  0.00000000000E+00  0.22643496983E+04  0.22643496983E+04  0.25500000920E-02 0.  1.
       -2   -1    0    0    0  501  0.00000000000E+00  0.00000000000E+00 -0.28250042980E+03  0.28250042982E+03  0.25500000920E-02 0. -1.
    10030    2    1    2    0    0  0.00000000000E+00  0.00000000000E+00  0.19818492685E+04  0.25468501281E+04  0.15995996537E+04 0.  0.
        3    1    3    3  502    0 -0.55798038211E+03 -0.46418320641E+03  0.45601007025E+03  0.85717754888E+03  0.10100000352E+00 0.  1.
       -3    1    3    3    0  502  0.55798038211E+03  0.46418320641E+03  0.15258391983E+04  0.16896725792E+04  0.10100000352E+00 0. -1.
</event>
<event>
 5   0  0.9432152E-05  0.1596688E+04  0.7818609E-02  0.8822585E-01
        1   -1    0    0  501    0  0.00000000000E+00  0.00000000000E+00  0.48874668256E+03  0.48874668259E+03  0.50400001928E-02 0. -1.
       -1   -1    0    0    0  501  0.00000000000E+00  0.00000000000E+00 -0.13040569220E+04  0.13040569220E+04  0.50400001928E-02 0.  1.
    10030    2    1    2    0    0  0.00000000000E+00  0.00000000000E+00 -0.81531023945E+03  0.17928036046E+04  0.15966884412E+04 0.  0.
        4    1    3    3  502    0  0.54248649717E+03 -0.32714134997E+03 -0.95316704882E+03  0.11444833325E+04  0.12699999809E+01 0.  1.
       -4    1    3    3    0  502 -0.54248649717E+03  0.32714134997E+03  0.13785680938E+03  0.64832027213E+03  0.12699999809E+01 0. -1.
</event>
<event>
 5   0  0.9432152E-05  0.1586485E+04  0.7818609E-02  0.8828894E-01
        1   -1    0    0  501    0  0.00000000000E+00  0.00000000000E+00  0.17528156104E+04  0.17528156104E+04  0.50400001928E-02 0.  1.
       -1   -1    0    0    0  501  0.00000000000E+00  0.00000000000E+00 -0.35898473232E+03  0.35898473236E+03  0.50400001928E-02 0. -1.
    10030    2    1    2    0    0  0.00000000000E+00  0.00000000000E+00  0.13938308781E+04  0.21118003428E+04  0.15864854777E+04 0.  0.
        4    1    3    3  502    0 -0.50436942803E+03 -0.69853748812E+02  0.15065642858E+04  0.15902847627E+04  0.12699999809E+01 0.  1.
       -4    1    3    3    0  502  0.50436942803E+03  0.69853748812E+02 -0.11273340775E+03  0.52151558009E+03  0.12699999809E+01 0. -1.
</event>
<event>
 5   0  0.9432152E-05  0.1597384E+04  0.7818609E-02  0.8822156E-01
        1   -1    0    0  501    0  0.00000000000E+00  0.00000000000E+00  0.96904603030E+03  0.96904603032E+03  0.50400001928E-02 0. -1.
       -1   -1    0    0    0  501  0.00000000000E+00  0.00000000000E+00 -0.65828586486E+03  0.65828586488E+03  0.50400001928E-02 0.  1.
    10030    2    1    2    0    0  0.00000000000E+00  0.00000000000E+00  0.31076016545E+03  0.16273318952E+04  0.15973844924E+04 0.  0.
        4    1    3    3  502    0 -0.73932360539E+03 -0.70006769751E+02  0.45484228602E+03  0.87085214552E+03  0.12699999809E+01 0.  1.
       -4    1    3    3    0  502  0.73932360539E+03  0.70006769751E+02 -0.14408212057E+03  0.75647974968E+03  0.12699999809E+01 0. -1.
</event>
<event>
 5   0  0.1832646E-04  0.1601560E+04  0.7818609E-02  0.8819590E-01
        2   -1    0    0  501    0  0.00000000000E+00  0.00000000000E+00  0.68120893797E+03  0.68120893797E+03  0.25500000920E-02 0.  1.
       -2   -1    0    0    0  501  0.00000000000E+00  0.00000000000E+00 -0.94133882113E+03  0.94133882114E+03  0.25500000920E-02 0. -1.
    10030    2    1    2    0    0  0.00000000000E+00  0.00000000000E+00 -0.26012988316E+03  0.16225477591E+04  0.16015597630E+04 0.  0.
        2    1    3    3  502    0  0.12160756550E+03  0.38222984269E+03 -0.83222791310E+03  0.92384595684E+03  0.25500000920E-02 0. -1.
       -2    1    3    3    0  502 -0.12160756550E+03 -0.38222984269E+03  0.57209802993E+03  0.69870180227E+03  0.25500000920E-02 0.  1.
</event>
<event>
 5   0  0.1858913E-04  0.1596615E+04  0.7818609E-02  0.8822630E-01
        2   -1    0    0  501    0  0.00000000000E+00  0.00000000000E+00  0.57205911350E+03  0.57205911350E+03  0.25500000920E-02 0. -1.
       -2   -1    0    0    0  501  0.00000000000E+00  0.00000000000E+00 -0.11140371439E+04  0.11140371439E+04  0.25500000920E-02 0.  1.
    10030    2    1    2    0    0  0.00000000000E+00  0.00000000000E+00 -0.54197803036E+03  0.16860962574E+04  0.15966152961E+04 0.  0.
        4    1    3    3  502    0 -0.45400328225E+03  0.63534002050E+03 -0.95807980223E+02  0.78673801479E+03  0.12699999809E+01 0. -1.
       -4    1    3    3    0  502  0.45400328225E+03 -0.63534002050E+03 -0.44617005014E+03  0.89935824257E+03  0.12699999809E+01 0.  1.
</event>
<event>
 5   0  0.1914170E-04  0.1596690E+04  0.7818609E-02  0.8822584E-01
        2   -1    0    0  501    0  0.00000000000E+00  0.00000000000E+00  0.18275184399E+04  0.18275184399E+04  0.25500000920E-02 0. -1.
       -2   -1    0    0    0  501  0.00000000000E+00  0.00000000000E+00 -0.34875427160E+03  0.34875427161E+03  0.25500000920E-02 0.  1.
    10030    2    1    2    0    0  0.00000000000E+00  0.00000000000E+00  0.14787641683E+04  0.21762727116E+04  0.15966901545E+04 0.  0.
        3    1    3    3  502    0 -0.62835601022E+03 -0.40474850481E+03  0.35701000477E+03  0.82831683638E+03  0.10100000352E+00 0.  1.
       -3    1    3    3    0  502  0.62835601022E+03  0.40474850481E+03  0.11217541636E+04  0.13479558752E+04  0.10100000352E+00 0. -1.
</event>
<event>
 5   0  0.9939872E-05  0.1627572E+04  0.7818609E-02  0.8803786E-01
       -1   -1    0    0    0  501  0.00000000000E+00  0.00000000000E+00  0.45788981087E+03  0.45788981090E+03  0.50400001928E-02 0.  1.
        1   -1    0    0  501    0  0.00000000000E+00  0.00000000000E+00 -0.14463028456E+04  0.14463028457E+04  0.50400001928E-02 0. -1.
    10030    2    1    2    0    0  0.00000000000E+00  0.00000000000E+00 -0.98841303478E+03  0.19041926566E+04  0.16275716101E+04 0.  0.
        3    1    3    3  502    0 -0.76089728502E+03  0.23991554758E+03 -0.30656320472E+03  0.85469594419E+03  0.10100000352E+00 0.  1.
       -3    1    3    3    0  502  0.76089728502E+03 -0.23991554758E+03 -0.68184983006E+03  0.10494967124E+04  0.10100000352E+00 0. -1.
</event>
<event>
 5   0  0.1835088E-04  0.1598257E+04  0.7818609E-02  0.8821620E-01
       -2   -1    0    0    0  501  0.00000000000E+00  0.00000000000E+00  0.29675917371E+03  0.29675917372E+03  0.25500000920E-02 0.  1.
        2   -1    0    0  501    0  0.00000000000E+00  0.00000000000E+00 -0.21519339657E+04  0.21519339657E+04  0.25500000920E-02 0. -1.
    10030    2    1    2    0    0  0.00000000000E+00  0.00000000000E+00 -0.18551747919E+04  0.24486931394E+04  0.15982567323E+04 0.  0.
        5    1    3    3  502    0  0.16039192426E+03 -0.75754101365E+03 -0.62505980444E+03  0.99514612287E+03  0.46999998093E+01 0. -1.
       -5    1    3    3    0  502 -0.16039192426E+03  0.75754101365E+03 -0.12301149875E+04  0.14535470165E+04  0.46999998093E+01 0.  1.
</event>
<event>
 5   0  0.1832646E-04  0.1593646E+04  0.7818609E-02  0.8824461E-01
        2   -1    0    0  501    0  0.00000000000E+00  0.00000000000E+00  0.17970840114E+04  0.17970840114E+04  0.25500000920E-02 0. -1.
       -2   -1    0    0    0  501  0.00000000000E+00  0.00000000000E+00 -0.35330933213E+03  0.35330933214E+03  0.25500000920E-02 0.  1.
    10030    2    1    2    0    0  0.00000000000E+00  0.00000000000E+00  0.14437746792E+04  0.21503933435E+04  0.15936455715E+04 0.  0.
        2    1    3    3  502    0  0.65687342877E+03  0.10394066971E+03  0.13141298989E+04  0.14728284881E+04  0.25500000920E-02 0.  1.
       -2    1    3    3    0  502 -0.65687342877E+03 -0.10394066971E+03  0.12964478039E+03  0.67756485544E+03  0.25500000920E-02 0. -1.
</event>
<event>
 5   0  0.9939872E-05  0.1599364E+04  0.7818609E-02  0.8820939E-01
        1   -1    0    0  501    0  0.00000000000E+00  0.00000000000E+00  0.79748807383E+03  0.79748807384E+03  0.50400001928E-02 0.  1.
       -1   -1    0    0    0  501  0.00000000000E+00  0.00000000000E+00 -0.80188161913E+03  0.80188161915E+03  0.50400001928E-02 0. -1.
    10030    2    1    2    0    0  0.00000000000E+00  0.00000000000E+00 -0.43935453059E+01  0.15993696930E+04  0.15993636583E+04 0.  0.
        3    1    3    3  502    0 -0.51555323734E+03 -0.48185099592E+03 -0.37838364486E+03  0.80071824989E+03  0.10100000352E+00 0.  1.
       -3    1    3    3    0  502  0.51555323734E+03  0.48185099592E+03  0.37399009956E+03  0.79865144310E+03  0.10100000352E+00 0. -1.
</event>
<event>
 5   0  0.1835088E-04  0.1594026E+04  0.7818609E-02  0.8824226E-01
       -2   -1    0    0    0  501  0.00000000000E+00  0.00000000000E+00  0.10849318625E+04  0.10849318625E+04  0.25500000920E-02 0.  1.
        2   -1    0    0  501    0  0.00000000000E+00  0.00000000000E+00 -0.58550200992E+03  0.58550200992E+03  0.25500000920E-02 0. -1.
    10030    2    1    2    0    0  0.00000000000E+00  0.00000000000E+00  0.49942985258E+03  0.16704338724E+04  0.15940260802E+04 0.  0.
        5    1    3    3  502    0 -0.18932214861E+03 -0.34717020522E+03  0.97486520635E+03  0.10520239008E+04  0.46999998093E+01 0.  1.
       -5    1    3    3    0  502  0.18932214861E+03  0.34717020522E+03 -0.47543535378E+03  0.61840997159E+03  0.46999998093E+01 0. -1.
</event>
<event>
 5   0  0.9616567E-05  0.1597022E+04  0.7818609E-02  0.8822380E-01
       -1   -1    0    0    0  501  0.00000000000E+00  0.00000000000E+00  0.12253523234E+04  0.12253523234E+04  0.50400001928E-02 0. -1.
        1   -1    0    0  501    0  0.00000000000E+00  0.00000000000E+00 -0.52035640664E+03  0.52035640667E+03  0.50400001928E-02 0.  1.
    10030    2    1    2    0    0  0.00000000000E+00  0.00000000000E+00  0.70499591675E+03  0.17457087301E+04  0.15970221437E+04 0.  0.
        5    1    3    3  502    0 -0.67511093181E+03 -0.42488505111E+03  0.39184607661E+03  0.88874490978E+03  0.46999998093E+01 0. -1.
       -5    1    3    3    0  502  0.67511093181E+03  0.42488505111E+03  0.31314984014E+03  0.85696382029E+03  0.46999998093E+01 0.  1.
</event>
<event>
 5   0  0.1835088E-04  0.1598445E+04  0.7818609E-02  0.8821504E-01
        2   -1    0    0  501    0  0.00000000000E+00  0.00000000000E+00  0.82935399667E+03  0.82935399667E+03  0.25500000920E-02 0. -1.
       -2   -1    0    0    0  501  0.00000000000E+00  0.00000000000E+00 -0.77018563393E+03  0.77018563393E+03  0.25500000920E-02 0.  1.
    10030    2    1    2    0    0  0.00000000000E+00  0.00000000000E+00  0.59168362737E+02  0.15995396306E+04  0.15984449114E+04 0.  0.
        5    1    3    3  502    0 -0.36258206470E+03  0.46260280403E+03 -0.51232833043E+03  0.77972399996E+03  0.46999998093E+01 0.  1.
       -5    1    3    3    0  502  0.36258206470E+03 -0.46260280403E+03  0.57149669317E+03  0.81981563064E+03  0.46999998093E+01 0. -1.
</event>
<event>
 5   0  0.1774934E-04  0.1597600E+04  0.7818609E-02  0.8822024E-01
        2   -1    0    0  501    0  0.00000000000E+00  0.00000000000E+00  0.10141061582E+04  0.10141061582E+04  0.25500000920E-02 0. -1.
       -2   -1    0    0    0  501  0.00000000000E+00  0.00000000000E+00 -0.62920602114E+03  0.62920602114E+03  0.25500000920E-02 0.  1.
    10030    2    1    2    0    0  0.00000000000E+00  0.00000000000E+00  0.38490013709E+03  0.16433121794E+04  0.15976003265E+04 0.  0.
        1    1    3    3  502    0 -0.13863327332E+02  0.55164122119E+03 -0.40164082284E+03  0.68250683466E+03  0.50400001928E-02 0.  1.
       -1    1    3    3    0  502  0.13863327332E+02 -0.55164122119E+03  0.78654095993E+03  0.96080534471E+03  0.50400001928E-02 0. -1.
</event>
<event>
 5   0  0.1858913E-04  0.1599204E+04  0.7818609E-02  0.8821037E-01
        2   -1    0    0  501    0  0.00000000000E+00  0.00000000000E+00  0.10530847922E+04  0.10530847922E+04  0.25500000920E-02 0. -1.
       -2   -1    0    0    0  501  0.00000000000E+00  0.00000000000E+00 -0.60713352386E+03  0.60713352386E+03  0.25500000920E-02 0.  1.
    10030    2    1    2    0    0  0.00000000000E+00  0.00000000000E+00  0.44595126835E+03  0.16602183161E+04  0.15992036528E+04 0.  0.
        4    1    3    3  502    0 -0.21822121561E+03 -0.43412386784E+03 -0.43629448096E+03  0.65302260190E+03  0.12699999809E+01 0.  1.
       -4    1    3    3    0  502  0.21822121561E+03  0.43412386784E+03  0.88224574932E+03  0.10071957142E+04  0.12699999809E+01 0. -1.
</event>
<event>
 5   0  0.9939872E-05  0.1601698E+04  0.7818609E-02  0.8819505E-01
        1   -1    0    0  501    0  0.00000000000E+00  0.00000000000E+00  0.17916945181E+04  0.17916945181E+04  0.50400001928E-02 0.  1.
       -1   -1    0    0    0  501  0.00000000000E+00  0.00000000000E+00 -0.35796235805E+03  0.35796235809E+03  0.50400001928E-02 0. -1.
    10030    2    1    2    0    0  0.00000000000E+00  0.00000000000E+00  0.14337321600E+04  0.21496568762E+04  0.16016980922E+04 0.  0.
        3    1    3    3  502    0 -0.45982953628E+02  0.60805241125E+03  0.14136234675E+04  0.15395367761E+04  0.10100000352E+00 0.  1.
       -3    1    3    3    0  502  0.45982953628E+02 -0.60805241125E+03  0.20108692561E+02  0.61012010012E+03  0.10100000352E+00 0. -1.
</event>
<event>
 5   0  0.9432152E-05  0.1599159E+04  0.7818609E-02  0.8821065E-01
        1   -1    0    0  501    0  0.00000000000E+00  0.00000000000E+00  0.79903835557E+03  0.79903835558E+03  0.50400001928E-02 0.  1.
       -1   -1    0    0    0  501  0.00000000000E+00  0.00000000000E+00 -0.80012119228E+03  0.80012119230E+03  0.50400001928E-02 0. -1.
    10030    2    1    2    0    0  0.00000000000E+00  0.00000000000E+00 -0.10828367141E+01  0.15991595479E+04  0.15991591813E+04 0.  0.
        4    1    3    3  502    0  0.50357208006E+03 -0.34134727128E+03  0.51832584104E+03  0.79922843406E+03  0.12699999809E+01 0.  1.
       -4    1    3    3    0  502 -0.50357208006E+03  0.34134727128E+03 -0.51940867776E+03  0.79993111382E+03  0.12699999809E+01 0. -1.
</event>
<event>
 5   0  0.1774934E-04  0.1588988E+04  0.7818609E-02  0.8827342E-01
        2   -1    0    0  501    0  0.00000000000E+00  0.00000000000E+00  0.13497972044E+04  0.13497972044E+04  0.25500000920E-02 0. -1.
       -2   -1    0    0    0  501  0.00000000000E+00  0.00000000000E+00 -0.46764123349E+03  0.46764123349E+03  0.25500000920E-02 0.  1.
    10030    2    1    2    0    0  0.00000000000E+00  0.00000000000E+00  0.88215597087E+03  0.18174384379E+04  0.15889881430E+04 0.  0.
        1    1    3    3  502    0  0.25389276473E+03  0.40396181307E+02  0.13009073063E+04  0.13260668184E+04  0.50400001928E-02 0. -1.
       -1    1    3    3    0  502 -0.25389276473E+03 -0.40396181307E+02 -0.41875133539E+03  0.49137161941E+03  0.50400001928E-02 0.  1.
</event>
<event>
 5   0  0.9673017E-05  0.1602067E+04  0.7818609E-02  0.8819279E-01
        1   -1    0    0  501    0  0.00000000000E+00  0.00000000000E+00  0.11388427959E+04  0.11388427959E+04  0.50400001928E-02 0. -1.
       -1   -1    0    0    0  501  0.00000000000E+00  0.00000000000E+00 -0.56342658647E+03  0.56342658649E+03  0.50400001928E-02 0.  1.
    10030    2    1    2    0    0  0.00000000000E+00  0.00000000000E+00  0.57541620940E+03  0.17022693824E+04  0.16020665517E+04 0.  0.
        1    1    3    3  502    0 -0.65095978424E+02  0.71600470107E+03  0.66300513861E+03  0.97799592648E+03  0.50400001928E-02 0. -1.
       -1    1    3    3    0  502  0.65095978424E+02 -0.71600470107E+03 -0.87588929213E+02  0.72427345589E+03  0.50400001928E-02 0.  1.
</event>
<event>
 5   0  0.1858913E-04  0.1602859E+04  0.7818609E-02  0.8818793E-01
        2   -1    0    0  501    0  0.00000000000E+00  0.00000000000E+00  0.10293057290E+04  0.10293057290E+04  0.25500000920E-02 0. -1.
       -2   -1    0    0    0  501  0.00000000000E+00  0.00000000000E+00 -0.62400258696E+03  0.62400258696E+03  0.25500000920E-02 0.  1.
    10030    2    1    2    0    0  0.00000000000E+00  0.00000000000E+00  0.40530314208E+03  0.16533083160E+04  0.16028592423E+04 0.  0.
        4    1    3    3  502    0  0.77238001765E+03 -0.20381444117E+03  0.26931233020E+03  0.84299582572E+03  0.12699999809E+01 0. -1.
       -4    1    3    3    0  502 -0.77238001765E+03  0.20381444117E+03  0.13599081188E+03  0.81031249028E+03  0.12699999809E+01 0.  1.
</event>
<event>
 5   0  0.1835088E-04  0.1597892E+04  0.7818609E-02  0.8821844E-01
        2   -1    0    0  501    0  0.00000000000E+00  0.00000000000E+00  0.11564669450E+04  0.11564669450E+04  0.25500000920E-02 0. -1.
       -2   -1    0    0    0  501  0.00000000000E+00  0.00000000000E+00 -0.55195226572E+03  0.55195226573E+03  0.25500000920E-02 0.  1.
    10030    2    1    2    0    0  0.00000000000E+00  0.00000000000E+00  0.60451467926E+03  0.17084192107E+04  0.15978917993E+04 0.  0.
        5    1    3    3  502    0  0.74178310374E+02 -0.79504086154E+03  0.33054629880E+03  0.86421949694E+03  0.46999998093E+01 0. -1.
       -5    1    3    3    0  502 -0.74178310374E+02  0.79504086154E+03  0.27396838046E+03  0.84419971378E+03  0.46999998093E+01 0.  1.
</event>
<event>
 5   0  0.1835088E-04  0.1601583E+04  0.7818609E-02  0.8819576E-01
        2   -1    0    0  501    0  0.00000000000E+00  0.00000000000E+00  0.86225763886E+03  0.86225763887E+03  0.25500000920E-02 0. -1.
       -2   -1    0    0    0  501  0.00000000000E+00  0.00000000000E+00 -0.74370743726E+03  0.74370743727E+03  0.25500000920E-02 0.  1.
    10030    2    1    2    0    0  0.00000000000E+00  0.00000000000E+00  0.11855020160E+03  0.16059650761E+04  0.16015834900E+04 0.  0.
        5    1    3    3  502    0  0.35757908701E+03 -0.22389087767E+03  0.74176583389E+03  0.85336309441E+03  0.46999998093E+01 0. -1.
       -5    1    3    3    0  502 -0.35757908701E+03  0.22389087767E+03 -0.62321563229E+03  0.75260198173E+03  0.46999998093E+01 0.  1.
</event>
<event>
 5   0  0.9432152E-05  0.1603322E+04  0.7818609E-02  0.8818510E-01
        1   -1    0    0  501    0  0.00000000000E+00  0.00000000000E+00  0.18475072570E+04  0.18475072570E+04  0.50400001928E-02 0. -1.
       -1   -1    0    0    0  501  0.00000000000E+00  0.00000000000E+00 -0.34785284560E+03  0.34785284564E+03  0.50400001928E-02 0.  1.
    10030    2    1    2    0    0  0.00000000000E+00  0.00000000000E+00  0.14996544114E+04  0.21953601027E+04  0.16033223714E+04 0.  0.
        4    1    3    3  502    0  0.66387562347E+03  0.44934998336E+03  0.74492978360E+03  0.10943346135E+04  0.12699999809E+01 0.  1.
       -4    1    3    3    0  502 -0.66387562347E+03 -0.44934998336E+03  0.75472462781E+03  0.11010254891E+04  0.12699999809E+01 0. -1.
</event>
<event>
 5   0  0.9432152E-05  0.1593476E+04  0.7818609E-02  0.8824566E-01
        1   -1    0    0  501    0  0.00000000000E+00  0.00000000000E+00  0.16017329717E+04  0.16017329717E+04  0.50400001928E-02 0. -1.
       -1   -1    0    0    0  501  0.00000000000E+00  0.00000000000E+00 -0.39631524965E+03  0.39631524969E+03  0.50400001928E-02 0.  1.
    10030    2    1    2    0    0  0.00000000000E+00  0.00000000000E+00  0.12054177221E+04  0.19980482214E+04  0.15934757012E+04 0.  0.
        4    1    3    3  502    0 -0.40816157951E+03  0.41527549380E+02 -0.25368194510E+03  0.48236558181E+03  0.12699999809E+01 0.  1.
       -4    1    3    3    0  502  0.40816157951E+03 -0.41527549380E+02  0.14590996672E+04  0.15156826396E+04  0.12699999809E+01 0. -1.
</event>
<event>
 5   0  0.9673017E-05  0.1600056E+04  0.7818609E-02  0.8820514E-01
       -1   -1    0    0    0  501  0.00000000000E+00  0.00000000000E+00  0.57144466984E+03  0.57144466986E+03  0.50400001928E-02 0.  1.
        1   -1    0    0  501    0  0.00000000000E+00  0.00000000000E+00 -0.11200467548E+04  0.11200467548E+04  0.50400001928E-02 0. -1.
    10030    2    1    2    0    0  0.00000000000E+00  0.00000000000E+00 -0.54860208497E+03  0.16914914247E+04  0.16000559341E+04 0.  0.
        1    1    3    3  502    0  0.67514625329E+03  0.15535667758E+03  0.14867143495E+03  0.70856288090E+03  0.50400001928E-02 0.  1.
       -1    1    3    3    0  502 -0.67514625329E+03 -0.15535667758E+03 -0.69727351992E+03  0.98292854379E+03  0.50400001928E-02 0. -1.
</event>
<event>
 5   0  0.1835088E-04  0.1621697E+04  0.7818609E-02  0.8807329E-01
        2   -1    0    0  501    0  0.00000000000E+00  0.00000000000E+00  0.69188268523E+03  0.69188268523E+03  0.25500000920E-02 0. -1.
       -2   -1    0    0    0  501  0.00000000000E+00  0.00000000000E+00 -0.95026966135E+03  0.95026966135E+03  0.25500000920E-02 0.  1.
    10030    2    1    2    0    0  0.00000000000E+00  0.00000000000E+00 -0.25838697612E+03  0.16421523466E+04  0.16216967966E+04 0.  0.
        5    1    3    3  502    0  0.30175805511E+03  0.20107997756E+03  0.60518669891E+03  0.70552399799E+03  0.46999998093E+01 0. -1.
       -5    1    3    3    0  502 -0.30175805511E+03 -0.20107997756E+03 -0.86357367503E+03  0.93662834860E+03  0.46999998093E+01 0.  1.
</event>
<event>
 5   0  0.1858913E-04  0.1601563E+04  0.7818609E-02  0.8819589E-01
        2   -1    0    0  501    0  0.00000000000E+00  0.00000000000E+00  0.15841113675E+04  0.15841113675E+04  0.25500000920E-02 0.  1.
       -2   -1    0    0    0  501  0.00000000000E+00  0.00000000000E+00 -0.40480160784E+03  0.40480160785E+03  0.25500000920E-02 0. -1.
    10030    2    1    2    0    0  0.00000000000E+00  0.00000000000E+00  0.11793097597E+04  0.19889129754E+04  0.16015627725E+04 0.  0.
        4    1    3    3  502    0  0.62579793983E+03  0.12692097521E+03 -0.10455684073E+02  0.63862581350E+03  0.12699999809E+01 0. -1.
       -4    1    3    3    0  502 -0.62579793983E+03 -0.12692097521E+03  0.11897654438E+04  0.13502871619E+04  0.12699999809E+01 0.  1.
</event>
<event>
 5   0  0.1774934E-04  0.1605560E+04  0.7818609E-02  0.8817139E-01
        2   -1    0    0  501    0  0.00000000000E+00  0.00000000000E+00  0.18788704817E+04  0.18788704817E+04  0.25500000920E-02 0.  1.
       -2   -1    0    0    0  501  0.00000000000E+00  0.00000000000E+00 -0.34300176170E+03  0.34300176171E+03  0.25500000920E-02 0. -1.
    10030    2    1    2    0    0  0.00000000000E+00  0.00000000000E+00  0.15358687200E+04  0.22218722434E+04  0.16055601954E+04 0.  0.
        1    1    3    3  502    0 -0.34123901398E+03  0.33610597936E+03  0.16594723833E+04  0.17272115924E+04  0.50400001928E-02 0.  1.
       -1    1    3    3    0  502  0.34123901398E+03 -0.33610597936E+03 -0.12360366332E+03  0.49466065099E+03  0.50400001928E-02 0. -1.
</event>
<event>
 5   0  0.1774934E-04  0.1520872E+04  0.7818609E-02  0.8870690E-01
       -2   -1    0    0    0  501  0.00000000000E+00  0.00000000000E+00  0.31884205038E+03  0.31884205039E+03  0.25500000920E-02 0.  1.
        2   -1    0    0  501    0  0.00000000000E+00  0.00000000000E+00 -0.18136355537E+04  0.18136355537E+04  0.25500000920E-02 0. -1.
    10030    2    1    2    0    0  0.00000000000E+00  0.00000000000E+00 -0.14947935033E+04  0.21324776041E+04  0.15208724846E+04 0.  0.
        1    1    3    3  502    0 -0.38802968689E+03 -0.33685734427E+03  0.38582202423E+02  0.51529457077E+03  0.50400001928E-02 0.  1.
       -1    1    3    3    0  502  0.38802968689E+03  0.33685734427E+03 -0.15333757057E+04  0.16171830333E+04  0.50400001928E-02 0. -1.
</event>
<event>
 5   0  0.9726935E-05  0.1601119E+04  0.7818609E-02  0.8819861E-01
       -1   -1    0    0    0  501  0.00000000000E+00  0.00000000000E+00  0.44020922017E+03  0.44020922020E+03  0.50400001928E-02 0. -1.
        1   -1    0    0  501    0  0.00000000000E+00  0.00000000000E+00 -0.14558877179E+04  0.14558877179E+04  0.50400001928E-02 0.  1.
    10030    2    1    2    0    0  0.00000000000E+00  0.00000000000E+00 -0.10156784977E+04  0.18960969381E+04  0.16011186052E+04 0.  0.
        2    1    3    3  502    0  0.46843011739E+03 -0.81439531370E+02  0.25489854229E+03  0.53947422461E+03  0.25500000920E-02 0. -1.
       -2    1    3    3    0  502 -0.46843011739E+03  0.81439531370E+02 -0.12705770400E+04  0.13566227135E+04  0.25500000920E-02 0.  1.
</event>
<event>
 5   0  0.9616567E-05  0.1625715E+04  0.7818609E-02  0.8804904E-01
        1   -1    0    0  501    0  0.00000000000E+00  0.00000000000E+00  0.12208206715E+04  0.12208206715E+04  0.50400001928E-02 0.  1.
       -1   -1    0    0    0  501  0.00000000000E+00  0.00000000000E+00 -0.54122420094E+03  0.54122420096E+03  0.50400001928E-02 0. -1.
    10030    2    1    2    0    0  0.00000000000E+00  0.00000000000E+00  0.67959647055E+03  0.17620448725E+04  0.16257154640E+04 0.  0.
        5    1    3    3  502    0 -0.14675328213E+03 -0.69950646927E+03  0.75939241602E+03  0.10428541403E+04  0.46999998093E+01 0.  1.
       -5    1    3    3    0  502  0.14675328213E+03  0.69950646927E+03 -0.79795945463E+02  0.71919073220E+03  0.46999998093E+01 0. -1.
</event>
<event>
 5   0  0.1835088E-04  0.1599972E+04  0.7818609E-02  0.8820565E-01
       -2   -1    0    0    0  501  0.00000000000E+00  0.00000000000E+00  0.50580634838E+03  0.50580634839E+03  0.25500000920E-02 0. -1.
        2   -1    0    0  501    0  0.00000000000E+00  0.00000000000E+00 -0.12652622329E+04  0.12652622329E+04  0.25500000920E-02 0.  1.
    10030    2    1    2    0    0  0.00000000000E+00  0.00000000000E+00 -0.75945588456E+03  0.17710685813E+04  0.15999720870E+04 0.  0.
        5    1    3    3  502    0  0.27715407469E+03  0.27563019701E+03 -0.11523424901E+04  0.12168408651E+04  0.46999998093E+01 0.  1.
       -5    1    3    3    0  502 -0.27715407469E+03 -0.27563019701E+03  0.39288660551E+03  0.55422771620E+03  0.46999998093E+01 0. -1.
</event>
<event>
 5   0  0.9432152E-05  0.1587849E+04  0.7818609E-02  0.8828048E-01
        1   -1    0    0  501    0  0.00000000000E+00  0.00000000000E+00  0.11061734554E+04  0.11061734555E+04  0.50400001928E-02 0. -1.
       -1   -1    0    0    0  501  0.00000000000E+00  0.00000000000E+00 -0.56981699251E+03  0.56981699254E+03  0.50400001928E-02 0.  1.
    10030    2    1    2    0    0  0.00000000000E+00  0.00000000000E+00  0.53635646292E+03  0.16759904480E+04  0.15878494029E+04 0.  0.
        4    1    3    3  502    0 -0.39631866874E+02  0.30499645848E+03 -0.50438081736E+03  0.59075811156E+03  0.12699999809E+01 0.  1.
       -4    1    3    3    0  502  0.39631866874E+02 -0.30499645848E+03  0.10407372803E+04  0.10852323364E+04  0.12699999809E+01 0. -1.
</event>
<event>
 5   0  0.1832646E-04  0.1555907E+04  0.7818609E-02  0.8848103E-01
        2   -1    0    0  501    0  0.00000000000E+00  0.00000000000E+00  0.67137887264E+03  0.67137887265E+03  0.25500000920E-02 0.  1.
       -2   -1    0    0    0  501  0.00000000000E+00  0.00000000000E+00 -0.90144597637E+03  0.90144597637E+03  0.25500000920E-02 0. -1.
    10030    2    1    2    0    0  0.00000000000E+00  0.00000000000E+00 -0.23006710373E+03  0.15728248490E+04  0.15559071738E+04 0.  0.
        2    1    3    3  502    0 -0.36474734138E+03 -0.65186632316E+03  0.10468074664E+03  0.75427341530E+03  0.25500000920E-02 0.  1.
       -2    1    3    3    0  502  0.36474734138E+03  0.65186632316E+03 -0.33474785037E+03  0.81855143372E+03  0.25500000920E-02 0. -1.
</event>
<event>
 5   0  0.9673017E-05  0.1592491E+04  0.7818609E-02  0.8825175E-01
       -1   -1    0    0    0  501  0.00000000000E+00  0.00000000000E+00  0.51377069646E+03  0.51377069649E+03  0.50400001928E-02 0. -1.
        1   -1    0    0  501    0  0.00000000000E+00  0.00000000000E+00 -0.12340263508E+04  0.12340263508E+04  0.50400001928E-02 0.  1.
    10030    2    1    2    0    0  0.00000000000E+00  0.00000000000E+00 -0.72025565429E+03  0.17477970473E+04  0.15924905999E+04 0.  0.
        1    1    3    3  502    0  0.42710007679E+02  0.46555972172E+02  0.51101539070E+03  0.51490613985E+03  0.50400001928E-02 0. -1.
       -1    1    3    3    0  502 -0.42710007679E+02 -0.46555972172E+02 -0.12312710450E+04  0.12328909074E+04  0.50400001928E-02 0.  1.
</event>
<event>
 5   0  0.1914170E-04  0.1601720E+04  0.7818609E-02  0.8819492E-01
        2   -1    0    0  501    0  0.00000000000E+00  0.00000000000E+00  0.52244765910E+03  0.52244765911E+03  0.25500000920E-02 0.  1.
       -2   -1    0    0    0  501  0.00000000000E+00  0.00000000000E+00 -0.12276388076E+04  0.12276388076E+04  0.25500000920E-02 0. -1.
    10030    2    1    2    0    0  0.00000000000E+00  0.00000000000E+00 -0.70519114846E+03  0.17500864667E+04  0.16017203517E+04 0.  0.
        3    1    3    3  502    0  0.47143384573E+03  0.12816110435E+03 -0.10459649188E+04  0.11544339570E+04  0.10100000352E+00 0. -1.
       -3    1    3    3    0  502 -0.47143384573E+03 -0.12816110435E+03  0.34077377030E+03  0.59565250968E+03  0.10100000352E+00 0.  1.
</event>
<event>
 5   0  0.1835088E-04  0.1598927E+04  0.7818609E-02  0.8821207E-01
        2   -1    0    0  501    0  0.00000000000E+00  0.00000000000E+00  0.17647493753E+04  0.17647493753E+04  0.25500000920E-02 0. -1.
       -2   -1    0    0    0  501  0.00000000000E+00  0.00000000000E+00 -0.36217156244E+03  0.36217156245E+03  0.25500000920E-02 0.  1.
    10030    2    1    2    0    0  0.00000000000E+00  0.00000000000E+00  0.14025778128E+04  0.21269209377E+04  0.15989271885E+04 0.  0.
        5    1    3    3  502    0 -0.18874749158E+02 -0.64002131733E+02 -0.35844239262E+03  0.36463072806E+03  0.46999998093E+01 0.  1.
       -5    1    3    3    0  502  0.18874749158E+02  0.64002131733E+02  0.17610202055E+04  0.17622902097E+04  0.46999998093E+01 0. -1.
</event>
<event>
 5   0  0.9673017E-05  0.1699933E+04  0.7818609E-02  0.8761403E-01
        1   -1    0    0  501    0  0.00000000000E+00  0.00000000000E+00  0.19280218084E+04  0.19280218084E+04  0.50400001928E-02 0. -1.
       -1   -1    0    0    0  501  0.00000000000E+00  0.00000000000E+00 -0.37470687485E+03  0.37470687488E+03  0.50400001928E-02 0.  1.
    10030    2    1    2    0    0  0.00000000000E+00  0.00000000000E+00  0.15533149335E+04  0.23027286832E+04  0.16999329710E+04 0.  0.
        1    1    3    3  502    0 -0.80601451555E+03 -0.14777520130E+02  0.11415586969E+04  0.13975099402E+04  0.50400001928E-02 0. -1.
       -1    1    3    3    0  502  0.80601451555E+03  0.14777520130E+02  0.41175623658E+03  0.90521874305E+03  0.50400001928E-02 0.  1.
</event>
<event>
 5   0  0.9432152E-05  0.1602815E+04  0.7818609E-02  0.8818821E-01
       -1   -1    0    0    0  501  0.00000000000E+00  0.00000000000E+00  0.34426530255E+03  0.34426530259E+03  0.50400001928E-02 0.  1.
        1   -1    0    0  501    0  0.00000000000E+00  0.00000000000E+00 -0.18655779645E+04  0.18655779645E+04  0.50400001928E-02 0. -1.
    10030    2    1    2    0    0  0.00000000000E+00  0.00000000000E+00 -0.15213126619E+04  0.22098432670E+04  0.16028147272E+04 0.  0.
        4    1    3    3  502    0 -0.28214096151E+03 -0.63587525753E+03 -0.21208376575E+03  0.72727023993E+03  0.12699999809E+01 0.  1.
       -4    1    3    3    0  502  0.28214096151E+03  0.63587525753E+03 -0.13092288962E+04  0.14825730271E+04  0.12699999809E+01 0. -1.
</event>
<event>
 5   0  0.9616567E-05  0.1603843E+04  0.7818609E-02  0.8818190E-01
       -1   -1    0    0    0  501  0.00000000000E+00  0.00000000000E+00  0.42324771978E+03  0.42324771981E+03  0.50400001928E-02 0.  1.
        1   -1    0    0  501    0  0.00000000000E+00  0.00000000000E+00 -0.15193901086E+04  0.15193901086E+04  0.50400001928E-02 0. -1.
    10030    2    1    2    0    0  0.00000000000E+00  0.00000000000E+00 -0.10961423888E+04  0.19426378284E+04  0.16038433826E+04 0.  0.
        5    1    3    3  502    0  0.10230057824E+03  0.69285077141E+03 -0.10211507208E+04  0.12382562272E+04  0.46999998093E+01 0. -1.
       -5    1    3    3    0  502 -0.10230057824E+03 -0.69285077141E+03 -0.74991667986E+02  0.70438160113E+03  0.46999998093E+01 0.  1.
</event>
<event>
 5   0  0.9616567E-05  0.1591857E+04  0.7818609E-02  0.8825566E-01
        1   -1    0    0  501    0  0.00000000000E+00  0.00000000000E+00  0.85607510038E+03  0.85607510039E+03  0.50400001928E-02 0.  1.
       -1   -1    0    0    0  501  0.00000000000E+00  0.00000000000E+00 -0.74000771885E+03  0.74000771886E+03  0.50400001928E-02 0. -1.
    10030    2    1    2    0    0  0.00000000000E+00  0.00000000000E+00  0.11606738153E+03  0.15960828193E+04  0.15918570064E+04 0.  0.
        5    1    3    3  502    0 -0.39356135966E+03 -0.24187493229E+03  0.70789474008E+03  0.84529940241E+03  0.46999998093E+01 0.  1.
       -5    1    3    3    0  502  0.39356135966E+03  0.24187493229E+03 -0.59182735855E+03  0.75078341685E+03  0.46999998093E+01 0. -1.
</event>
<event>
 5   0  0.1835088E-04  0.1604690E+04  0.7818609E-02  0.8817672E-01
        2   -1    0    0  501    0  0.00000000000E+00  0.00000000000E+00  0.10518803448E+04  0.10518803448E+04  0.25500000920E-02 0.  1.
       -2   -1    0    0    0  501  0.00000000000E+00  0.00000000000E+00 -0.61200639594E+03  0.61200639594E+03  0.25500000920E-02 0. -1.
    10030    2    1    2    0    0  0.00000000000E+00  0.00000000000E+00  0.43987394886E+03  0.16638867407E+04  0.16046899997E+04 0.  0.
        5    1    3    3  502    0 -0.45967968470E+03 -0.13916202868E+03  0.88634658114E+03  0.10081189586E+04  0.46999998093E+01 0.  1.
       -5    1    3    3    0  502  0.45967968470E+03  0.13916202868E+03 -0.44647263228E+03  0.65576778216E+03  0.46999998093E+01 0. -1.
</event>
<event>
 5   0  0.1835088E-04  0.1574902E+04  0.7818609E-02  0.8836117E-01
        2   -1    0    0  501    0  0.00000000000E+00  0.00000000000E+00  0.23184756930E+04  0.23184756930E+04  0.25500000920E-02 0.  1.
       -2   -1    0    0    0  501  0.00000000000E+00  0.00000000000E+00 -0.26745110796E+03  0.26745110798E+03  0.25500000920E-02 0. -1.
    10030    2    1    2    0    0  0.00000000000E+00  0.00000000000E+00  0.20510245851E+04  0.25859268010E+04  0.15749017657E+04 0.  0.
        5    1    3    3  502    0 -0.11633863713E+03 -0.75610894055E+03  0.71911435563E+03  0.10499442628E+04  0.46999998093E+01 0.  1.
       -5    1    3    3    0  502  0.11633863713E+03  0.75610894055E+03  0.13319102294E+04  0.15359825382E+04  0.46999998093E+01 0. -1.
</event>
<event>
 5   0  0.1914170E-04  0.1605521E+04  0.7818609E-02  0.8817163E-01
       -2   -1    0    0    0  501  0.00000000000E+00  0.00000000000E+00  0.41186031523E+03  0.41186031524E+03  0.25500000920E-02 0.  1.
        2   -1    0    0  501    0  0.00000000000E+00  0.00000000000E+00 -0.15646674688E+04  0.15646674688E+04  0.25500000920E-02 0. -1.
    10030    2    1    2    0    0  0.00000000000E+00  0.00000000000E+00 -0.11528071536E+04  0.19765277841E+04  0.16055210207E+04 0.  0.
        3    1    3    3  502    0 -0.17154294378E+03  0.16392109964E+03  0.36770643668E+03  0.43761300512E+03  0.10100000352E+00 0.  1.
       -3    1    3    3    0  502  0.17154294378E+03 -0.16392109964E+03 -0.15205135903E+04  0.15389147790E+04  0.10100000352E+00 0. -1.
</event>
<event>
 5   0  0.1835088E-04  0.1597663E+04  0.7818609E-02  0.8821985E-01
        2   -1    0    0  501    0  0.00000000000E+00  0.00000000000E+00  0.10530909405E+04  0.10530909405E+04  0.25500000920E-02 0.  1.
       -2   -1    0    0    0  501  0.00000000000E+00  0.00000000000E+00 -0.60596105310E+03  0.60596105311E+03  0.25500000920E-02 0. -1.
    10030    2    1    2    0    0  0.00000000000E+00  0.00000000000E+00  0.44712988741E+03  0.16590519936E+04  0.15976634130E+04 0.  0.
        5    1    3    3  502    0 -0.29239082676E+03  0.69305524624E+03 -0.55637961702E+02  0.75427822632E+03  0.46999998093E+01 0. -1.
       -5    1    3    3    0  502  0.29239082676E+03 -0.69305524624E+03  0.50276784911E+03  0.90477376731E+03  0.46999998093E+01 0.  1.
</event>
<event>
 5   0  0.9726935E-05  0.1599592E+04  0.7818609E-02  0.8820798E-01
       -1   -1    0    0    0  501  0.00000000000E+00  0.00000000000E+00  0.65571773453E+03  0.65571773455E+03  0.50400001928E-02 0. -1.
        1   -1    0    0  501    0  0.00000000000E+00  0.00000000000E+00 -0.97553256088E+03  0.97553256089E+03  0.50400001928E-02 0.  1.
    10030    2    1    2    0    0  0.00000000000E+00  0.00000000000E+00 -0.31981482635E+03  0.16312502954E+04  0.15995924491E+04 0.  0.
        2    1    3    3  502    0 -0.57977702201E+03 -0.50584111704E+03  0.62718796980E+02  0.77197815931E+03  0.25500000920E-02 0.  1.
       -2    1    3    3    0  502  0.57977702201E+03  0.50584111704E+03 -0.38253362333E+03  0.85927213613E+03  0.25500000920E-02 0. -1.
</event>
<event>
 5   0  0.1914170E-04  0.1602211E+04  0.7818609E-02  0.8819191E-01
       -2   -1    0    0    0  501  0.00000000000E+00  0.00000000000E+00  0.46875301219E+03  0.46875301219E+03  0.25500000920E-02 0. -1.
        2   -1    0    0  501    0  0.00000000000E+00  0.00000000000E+00 -0.13691002067E+04  0.13691002067E+04  0.25500000920E-02 0.  1.
    10030    2    1    2    0    0  0.00000000000E+00  0.00000000000E+00 -0.90034719448E+03  0.18378532189E+04  0.16022107800E+04 0.  0.
        3    1    3    3  502    0  0.31141135496E+02  0.44759404498E+03 -0.12114532666E+04  0.12918704373E+04  0.10100000352E+00 0.  1.
       -3    1    3    3    0  502 -0.31141135496E+02 -0.44759404498E+03  0.31110607213E+03  0.54598278154E+03  0.10100000352E+00 0. -1.
</event>
<event>
 5   0  0.1832646E-04  0.1595268E+04  0.7818609E-02  0.8823461E-01
       -2   -1    0    0    0  501  0.00000000000E+00  0.00000000000E+00  0.29170451362E+03  0.29170451363E+03  0.25500000920E-02 0. -1.
        2   -1    0    0  501    0  0.00000000000E+00  0.00000000000E+00 -0.21810414867E+04  0.21810414867E+04  0.25500000920E-02 0.  1.
    10030    2    1    2    0    0  0.00000000000E+00  0.00000000000E+00 -0.18893369731E+04  0.24727460004E+04  0.15952675589E+04 0.  0.
        2    1    3    3  502    0  0.59588711916E+03 -0.48106490732E+03 -0.12902802934E+04  0.15004426479E+04  0.25500000920E-02 0.  1.
       -2    1    3    3    0  502 -0.59588711916E+03  0.48106490732E+03 -0.59905667968E+03  0.97230335252E+03  0.25500000920E-02 0. -1.
</event>
<event>
 5   0  0.1914170E-04  0.1592722E+04  0.7818609E-02  0.8825032E-01
       -2   -1    0    0    0  501  0.00000000000E+00  0.00000000000E+00  0.53924612172E+03  0.53924612173E+03  0.25500000920E-02 0.  1.
        2   -1    0    0  501    0  0.00000000000E+00  0.00000000000E+00 -0.11760692207E+04  0.11760692207E+04  0.25500000920E-02 0. -1.
    10030    2    1    2    0    0  0.00000000000E+00  0.00000000000E+00 -0.63682309901E+03  0.17153153425E+04  0.15927219044E+04 0.  0.
        3    1    3    3  502    0  0.60517959257E+02 -0.59099659622E+03  0.25273996355E+03  0.64561358374E+03  0.10100000352E+00 0.  1.
       -3    1    3    3    0  502 -0.60517959257E+02  0.59099659622E+03 -0.88956306255E+03  0.10697017587E+04  0.10100000352E+00 0. -1.
</event>
<event>
 5   0  0.9726935E-05  0.1598301E+04  0.7818609E-02  0.8821592E-01
       -1   -1    0    0    0  501  0.00000000000E+00  0.00000000000E+00  0.13602703145E+04  0.13602703145E+04  0.50400001928E-02 0.  1.
        1   -1    0    0  501    0  0.00000000000E+00  0.00000000000E+00 -0.46949611469E+03  0.46949611472E+03  0.50400001928E-02 0. -1.
    10030    2    1    2    0    0  0.00000000000E+00  0.00000000000E+00  0.89077419982E+03  0.18297664292E+04  0.15983011326E+04 0.  0.
        2    1    3    3  502    0  0.19546208134E+03  0.61734464344E+03  0.98152676972E+03  0.11758888696E+04  0.25500000920E-02 0.  1.
       -2    1    3    3    0  502 -0.19546208134E+03 -0.61734464344E+03 -0.90752569897E+02  0.65387755962E+03  0.25500000920E-02 0. -1.
</event>
<event>
 5   0  0.1832646E-04  0.1602383E+04  0.7818609E-02  0.8819085E-01
        2   -1    0    0  501    0  0.00000000000E+00  0.00000000000E+00  0.84867662879E+03  0.84867662880E+03  0.25500000920E-02 0. -1.
       -2   -1    0    0    0  501  0.00000000000E+00  0.00000000000E+00 -0.75636334496E+03  0.75636334496E+03  0.25500000920E-02 0.  1.
    10030    2    1    2    0    0  0.00000000000E+00  0.00000000000E+00  0.92313283835E+02  0.16050399738E+04  0.16023830925E+04 0.  0.
        2    1    3    3  502    0 -0.26161081706E+03  0.74996468899E+03 -0.58996655436E+02  0.79647213365E+03  0.25500000920E-02 0.  1.
       -2    1    3    3    0  502  0.26161081706E+03 -0.74996468899E+03  0.15130993927E+03  0.80856784011E+03  0.25500000920E-02 0. -1.
</event>
<event>
 5   0  0.9432152E-05  0.1591023E+04  0.7818609E-02  0.8826082E-01
        1   -1    0    0  501    0  0.00000000000E+00  0.00000000000E+00  0.84902558064E+03  0.84902558065E+03  0.50400001928E-02 0. -1.
       -1   -1    0    0    0  501  0.00000000000E+00  0.00000000000E+00 -0.74537047561E+03  0.74537047562E+03  0.50400001928E-02 0.  1.
    10030    2    1    2    0    0  0.00000000000E+00  0.00000000000E+00  0.10365510503E+03  0.15943960563E+04  0.15910230682E+04 0.  0.
        4    1    3    3  502    0  0.30058321193E+03 -0.64830424461E+03  0.40212308164E+03  0.81997149131E+03  0.12699999809E+01 0.  1.
       -4    1    3    3    0  502 -0.30058321193E+03  0.64830424461E+03 -0.29846797661E+03  0.77442456497E+03  0.12699999809E+01 0. -1.
</event>
<event>
 5   0  0.9432152E-05  0.1601698E+04  0.7818609E-02  0.8819505E-01
        1   -1    0    0  501    0  0.00000000000E+00  0.00000000000E+00  0.13015267757E+04  0.13015267757E+04  0.50400001928E-02 0. -1.
       -1   -1    0    0    0  501  0.00000000000E+00  0.00000000000E+00 -0.49277473760E+03  0.49277473762E+03  0.50400001928E-02 0.  1.
    10030    2    1    2    0    0  0.00000000000E+00  0.00000000000E+00  0.80875203808E+03  0.17943015133E+04  0.16016984927E+04 0.  0.
        4    1    3    3  502    0  0.23910519423E+03  0.74299639995E+03  0.20353261266E+03  0.80662387862E+03  0.12699999809E+01 0. -1.
       -4    1    3    3    0  502 -0.23910519423E+03 -0.74299639995E+03  0.60521942543E+03  0.98767763469E+03  0.12699999809E+01 0.  1.
</event>
<event>
 5   0  0.1858913E-04  0.1609458E+04  0.7818609E-02  0.8814759E-01
       -2   -1    0    0    0  501  0.00000000000E+00  0.00000000000E+00  0.40554706377E+03  0.40554706378E+03  0.25500000920E-02 0.  1.
        2   -1    0    0  501    0  0.00000000000E+00  0.00000000000E+00 -0.15968271523E+04  0.15968271523E+04  0.25500000920E-02 0. -1.
    10030    2    1    2    0    0  0.00000000000E+00  0.00000000000E+00 -0.11912800885E+04  0.20023742161E+04  0.16094577509E+04 0.  0.
        4    1    3    3  502    0  0.74792886095E+03 -0.16290144471E+03 -0.28672364182E+03  0.81740230083E+03  0.12699999809E+01 0.  1.
       -4    1    3    3    0  502 -0.74792886095E+03  0.16290144471E+03 -0.90455644671E+03  0.11849719152E+04  0.12699999809E+01 0. -1.
</event>
<event>
 5   0  0.9939872E-05  0.1597022E+04  0.7818609E-02  0.8822379E-01
        1   -1    0    0  501    0  0.00000000000E+00  0.00000000000E+00  0.10119820680E+04  0.10119820681E+04  0.50400001928E-02 0. -1.
       -1   -1    0    0    0  501  0.00000000000E+00  0.00000000000E+00 -0.63007041897E+03  0.63007041899E+03  0.50400001928E-02 0.  1.
    10030    2    1    2    0    0  0.00000000000E+00  0.00000000000E+00  0.38191164908E+03  0.16420524870E+04  0.15970221860E+04 0.  0.
        3    1    3    3  502    0  0.39441999581E+03  0.31543127313E+03 -0.44499503271E+03  0.67311559966E+03  0.10100000352E+00 0.  1.
       -3    1    3    3    0  502 -0.39441999581E+03 -0.31543127313E+03  0.82690668179E+03  0.96893688739E+03  0.10100000352E+00 0. -1.
</event>
<event>
 5   0  0.6838750E-05  0.1603367E+04  0.7818609E-02  0.8818482E-01
        4   -1    0    0  501    0  0.00000000000E+00  0.00000000000E+00  0.34412529890E+03  0.34412764237E+03  0.12699999809E+01 0.  1.
       -4   -1    0    0    0  501  0.00000000000E+00  0.00000000000E+00 -0.18676154061E+04  0.18676158379E+04  0.12699999809E+01 0. -1.
    10030    2    1    2    0    0  0.00000000000E+00  0.00000000000E+00 -0.15234901072E+04  0.22117434803E+04  0.16033674301E+04 0.  0.
        5    1    3    3  502    0 -0.23189608458E+03  0.76594400416E+03 -0.82686668980E+03  0.11507287362E+04  0.46999998093E+01 0. -1.
       -5    1    3    3    0  502  0.23189608458E+03 -0.76594400416E+03 -0.69662341744E+03  0.10610147441E+04  0.46999998093E+01 0.  1.
</event>
<event>
 5   0  0.1774934E-04  0.1601563E+04  0.7818609E-02  0.8819589E-01
       -2   -1    0    0    0  501  0.00000000000E+00  0.00000000000E+00  0.45932365787E+03  0.45932365788E+03  0.25500000920E-02 0.  1.
        2   -1    0    0  501    0  0.00000000000E+00  0.00000000000E+00 -0.13960761202E+04  0.13960761202E+04  0.25500000920E-02 0. -1.
    10030    2    1    2    0    0  0.00000000000E+00  0.00000000000E+00 -0.93675246236E+03  0.18553997781E+04  0.16015627246E+04 0.  0.
        1    1    3    3  502    0 -0.61948068672E+03 -0.43345860951E+03 -0.16272690227E+03  0.77338394871E+03  0.50400001928E-02 0.  1.
       -1    1    3    3    0  502  0.61948068672E+03  0.43345860951E+03 -0.77402556009E+03  0.10820158294E+04  0.50400001928E-02 0. -1.
</event>
<event>
 5   0  0.1914170E-04  0.1602335E+04  0.7818609E-02  0.8819115E-01
        2   -1    0    0  501    0  0.00000000000E+00  0.00000000000E+00  0.15928313319E+04  0.15928313319E+04  0.25500000920E-02 0.  1.
       -2   -1    0    0    0  501  0.00000000000E+00  0.00000000000E+00 -0.40297389744E+03  0.40297389745E+03  0.25500000920E-02 0. -1.
    10030    2    1    2    0    0  0.00000000000E+00  0.00000000000E+00  0.11898574345E+04  0.19958052293E+04  0.16023351083E+04 0.  0.
        3    1    3    3  502    0  0.39045198740E+03 -0.69756180584E+03  0.66112193085E+03  0.10373656275E+04  0.10100000352E+00 0.  1.
       -3    1    3    3    0  502 -0.39045198740E+03  0.69756180584E+03  0.52873550361E+03  0.95843960186E+03  0.10100000352E+00 0. -1.
</event>
<event>
 5   0  0.1858913E-04  0.1605601E+04  0.7818609E-02  0.8817114E-01
       -2   -1    0    0    0  501  0.00000000000E+00  0.00000000000E+00  0.77126260576E+03  0.77126260576E+03  0.25500000920E-02 0. -1.
        2   -1    0    0  501    0  0.00000000000E+00  0.00000000000E+00 -0.83562827770E+03  0.83562827771E+03  0.25500000920E-02 0.  1.
    10030    2    1    2    0    0  0.00000000000E+00  0.00000000000E+00 -0.64365671946E+02  0.16068908835E+04  0.16056012493E+04 0.  0.
        4    1    3    3  502    0  0.59945530584E+03 -0.44001024246E+03 -0.33496766044E+03  0.81557380022E+03  0.12699999809E+01 0.  1.
       -4    1    3    3    0  502 -0.59945530584E+03  0.44001024246E+03  0.27060198850E+03  0.79131708325E+03  0.12699999809E+01 0. -1.
</event>
<event>
 5   0  0.9673017E-05  0.1600356E+04  0.7818609E-02  0.8820330E-01
       -1   -1    0    0    0  501  0.00000000000E+00  0.00000000000E+00  0.72976166498E+03  0.72976166500E+03  0.50400001928E-02 0.  1.
        1   -1    0    0  501    0  0.00000000000E+00  0.00000000000E+00 -0.87738865901E+03  0.87738865902E+03  0.50400001928E-02 0. -1.
    10030    2    1    2    0    0  0.00000000000E+00  0.00000000000E+00 -0.14762699403E+03  0.16071503240E+04  0.16003557213E+04 0.  0.
        1    1    3    3  502    0  0.50582871007E+03  0.23927613761E+02  0.54837274418E+03  0.74642339273E+03  0.50400001928E-02 0.  1.
       -1    1    3    3    0  502 -0.50582871007E+03 -0.23927613761E+02 -0.69599973821E+03  0.86072693129E+03  0.50400001928E-02 0. -1.
</event>
<event>
 5   0  0.1858913E-04  0.1605858E+04  0.7818609E-02  0.8816957E-01
        2   -1    0    0  501    0  0.00000000000E+00  0.00000000000E+00  0.16560364023E+04  0.16560364023E+04  0.25500000920E-02 0.  1.
       -2   -1    0    0    0  501  0.00000000000E+00  0.00000000000E+00 -0.38929985963E+03  0.38929985964E+03  0.25500000920E-02 0. -1.
    10030    2    1    2    0    0  0.00000000000E+00  0.00000000000E+00  0.12667365427E+04  0.20453362620E+04  0.16058577010E+04 0.  0.
        4    1    3    3  502    0  0.50269207908E+03  0.51072737516E+03  0.10946264063E+04  0.13083387789E+04  0.12699999809E+01 0.  1.
       -4    1    3    3    0  502 -0.50269207908E+03 -0.51072737516E+03  0.17211013641E+03  0.73699748308E+03  0.12699999809E+01 0. -1.
</event>
<event>
 5   0  0.9939872E-05  0.1601493E+04  0.7818609E-02  0.8819631E-01
        1   -1    0    0  501    0  0.00000000000E+00  0.00000000000E+00  0.97635469776E+03  0.97635469777E+03  0.50400001928E-02 0.  1.
       -1   -1    0    0    0  501  0.00000000000E+00  0.00000000000E+00 -0.65672340754E+03  0.65672340755E+03  0.50400001928E-02 0. -1.
    10030    2    1    2    0    0  0.00000000000E+00  0.00000000000E+00  0.31963129022E+03  0.16330781053E+04  0.16014930335E+04 0.  0.
        3    1    3    3  502    0  0.39066645624E+03 -0.62479995868E+02  0.86972907931E+03  0.95548558938E+03  0.10100000352E+00 0.  1.
       -3    1    3    3    0  502 -0.39066645624E+03  0.62479995868E+02 -0.55009778908E+03  0.67759251595E+03  0.10100000352E+00 0. -1.
</event>
<event>
 5   0  0.1914170E-04  0.1556110E+04  0.7818609E-02  0.8847974E-01
        2   -1    0    0  501    0  0.00000000000E+00  0.00000000000E+00  0.12408574257E+04  0.12408574257E+04  0.25500000920E-02 0. -1.
       -2   -1    0    0    0  501  0.00000000000E+00  0.00000000000E+00 -0.48786408325E+03  0.48786408325E+03  0.25500000920E-02 0.  1.
    10030    2    1    2    0    0  0.00000000000E+00  0.00000000000E+00  0.75299334247E+03  0.17287215090E+04  0.15561102409E+04 0.  0.
        3    1    3    3  502    0  0.72289163170E+03  0.27213069845E+03  0.48036863036E+03  0.90960511182E+03  0.10100000352E+00 0.  1.
       -3    1    3    3    0  502 -0.72289163170E+03 -0.27213069845E+03  0.27262471211E+03  0.81911639715E+03  0.10100000352E+00 0. -1.
</event>
<event>
 5   0  0.1914170E-04  0.1588989E+04  0.7818609E-02  0.8827341E-01
        2   -1    0    0  501    0  0.00000000000E+00  0.00000000000E+00  0.10563825232E+04  0.10563825232E+04  0.25500000920E-02 0.  1.
       -2   -1    0    0    0  501  0.00000000000E+00  0.00000000000E+00 -0.59753136558E+03  0.59753136559E+03  0.25500000920E-02 0. -1.
    10030    2    1    2    0    0  0.00000000000E+00  0.00000000000E+00  0.45885115766E+03  0.16539138888E+04  0.15889892280E+04 0.  0.
        3    1    3    3  502    0 -0.77174347527E+03 -0.39932962976E+02  0.42146069214E+03  0.88023392253E+03  0.10100000352E+00 0.  1.
       -3    1    3    3    0  502  0.77174347527E+03  0.39932962976E+02  0.37390465521E+02  0.77367996631E+03  0.10100000352E+00 0. -1.
</event>
<event>
 5   0  0.9432152E-05  0.1598224E+04  0.7818609E-02  0.8821640E-01
       -1   -1    0    0    0  501  0.00000000000E+00  0.00000000000E+00  0.65424010469E+03  0.65424010471E+03  0.50400001928E-02 0. -1.
        1   -1    0    0  501    0  0.00000000000E+00  0.00000000000E+00 -0.97606389056E+03  0.97606389057E+03  0.50400001928E-02 0.  1.
    10030    2    1    2    0    0  0.00000000000E+00  0.00000000000E+00 -0.32182378587E+03  0.16303039953E+04  0.15982241920E+04 0.  0.
        4    1    3    3  502    0  0.69752844672E+03 -0.38841036075E+03 -0.19580353156E+03  0.82203964515E+03  0.12699999809E+01 0. -1.
       -4    1    3    3    0  502 -0.69752844672E+03  0.38841036075E+03 -0.12602025430E+03  0.80826435014E+03  0.12699999809E+01 0.  1.
</event>
<event>
 5   0  0.9673017E-05  0.1589843E+04  0.7818609E-02  0.8826812E-01
       -1   -1    0    0    0  501  0.00000000000E+00  0.00000000000E+00  0.20307330744E+04  0.20307330745E+04  0.50400001928E-02 0.  1.
        1   -1    0    0  501    0  0.00000000000E+00  0.00000000000E+00 -0.31116841207E+03  0.31116841211E+03  0.50400001928E-02 0. -1.
    10030    2    1    2    0    0  0.00000000000E+00  0.00000000000E+00  0.17195646624E+04  0.23419014866E+04  0.15898427421E+04 0.  0.
        1    1    3    3  502    0  0.58493420187E+03 -0.19815011747E+03  0.15970214082E+04  0.17122759322E+04  0.50400001928E-02 0.  1.
       -1    1    3    3    0  502 -0.58493420187E+03  0.19815011747E+03  0.12254325416E+03  0.62962555438E+03  0.50400001928E-02 0. -1.
</event>
<event>
 5   0  0.1774934E-04  0.1601127E+04  0.7818609E-02  0.8819856E-01
        2   -1    0    0  501    0  0.00000000000E+00  0.00000000000E+00  0.11689822119E+04  0.11689822119E+04  0.25500000920E-02 0.  1.
       -2   -1    0    0    0  501  0.00000000000E+00  0.00000000000E+00 -0.54825606579E+03  0.54825606580E+03  0.25500000920E-02 0. -1.
    10030    2    1    2    0    0  0.00000000000E+00  0.00000000000E+00  0.62072614609E+03  0.17172382777E+04  0.16011265890E+04 0.  0.
        1    1    3    3  502    0  0.41608974759E+03  0.19677669837E+03  0.10128831879E+04  0.11125574589E+04  0.50400001928E-02 0.  1.
       -1    1    3    3    0  502 -0.41608974759E+03 -0.19677669837E+03 -0.39215704182E+03  0.60468081874E+03  0.50400001928E-02 0. -1.
</event>
<event>
 5   0  0.9432152E-05  0.1596788E+04  0.7818609E-02  0.8822524E-01
        1   -1    0    0  501    0  0.00000000000E+00  0.00000000000E+00  0.13809825636E+04  0.13809825636E+04  0.50400001928E-02 0.  1.
       -1   -1    0    0    0  501  0.00000000000E+00  0.00000000000E+00 -0.46157939297E+03  0.46157939300E+03  0.50400001928E-02 0. -1.
    10030    2    1    2    0    0  0.00000000000E+00  0.00000000000E+00  0.91940317066E+03  0.18425619566E+04  0.15967881431E+04 0.  0.
        4    1    3    3  502    0 -0.29365600112E+03 -0.66431202900E+03  0.84221641679E+03  0.11121485622E+04  0.12699999809E+01 0.  1.
       -4    1    3    3    0  502  0.29365600112E+03  0.66431202900E+03  0.77186753865E+02  0.73041339441E+03  0.12699999809E+01 0. -1.
</event>
<event>
 5   0  0.1835088E-04  0.1604344E+04  0.7818609E-02  0.8817884E-01
       -2   -1    0    0    0  501  0.00000000000E+00  0.00000000000E+00  0.22644989564E+03  0.22644989565E+03  0.25500000920E-02 0. -1.
        2   -1    0    0  501    0  0.00000000000E+00  0.00000000000E+00 -0.28416004213E+04  0.28416004213E+04  0.25500000920E-02 0.  1.
    10030    2    1    2    0    0  0.00000000000E+00  0.00000000000E+00 -0.26151505257E+04  0.30680503170E+04  0.16043442509E+04 0.  0.
        5    1    3    3  502    0  0.62777507443E+03 -0.35990503512E+03 -0.19695453474E+04  0.20982764698E+04  0.46999998093E+01 0.  1.
       -5    1    3    3    0  502 -0.62777507443E+03  0.35990503512E+03 -0.64560517827E+03  0.96977384713E+03  0.46999998093E+01 0. -1.
</event>
<event>
 5   0  0.9726935E-05  0.1606290E+04  0.7818609E-02  0.8816693E-01
        1   -1    0    0  501    0  0.00000000000E+00  0.00000000000E+00  0.92440977821E+03  0.92440977822E+03  0.50400001928E-02 0. -1.
       -1   -1    0    0    0  501  0.00000000000E+00  0.00000000000E+00 -0.69778771854E+03  0.69778771856E+03  0.50400001928E-02 0.  1.
    10030    2    1    2    0    0  0.00000000000E+00  0.00000000000E+00  0.22662205967E+03  0.16221974968E+04  0.16062898744E+04 0.  0.
        2    1    3    3  502    0  0.34296556107E+02 -0.56422773690E+03 -0.46287630177E+03  0.73060499834E+03  0.25500000920E-02 0.  1.
       -2    1    3    3    0  502 -0.34296556107E+02  0.56422773690E+03  0.68949836144E+03  0.89159249844E+03  0.25500000920E-02 0. -1.
</event>
<event>
 5   0  0.9616567E-05  0.1591825E+04  0.7818609E-02  0.8825586E-01
        1   -1    0    0  501    0  0.00000000000E+00  0.00000000000E+00  0.96760026638E+03  0.96760026639E+03  0.50400001928E-02 0.  1.
       -1   -1    0    0    0  501  0.00000000000E+00  0.00000000000E+00 -0.65468825858E+03  0.65468825859E+03  0.50400001928E-02 0. -1.
    10030    2    1    2    0    0  0.00000000000E+00  0.00000000000E+00  0.31291200780E+03  0.16222885250E+04  0.15918247811E+04 0.  0.
        5    1    3    3  502    0  0.67283724967E+03 -0.15740886684E+03 -0.24602843427E+03  0.73351182429E+03  0.46999998093E+01 0. -1.
       -5    1    3    3    0  502 -0.67283724967E+03  0.15740886684E+03  0.55894044207E+03  0.88877670069E+03  0.46999998093E+01 0.  1.
</event>
<event>
 5   0  0.9673017E-05  0.1602704E+04  0.7818609E-02  0.8818888E-01
       -1   -1    0    0    0  501  0.00000000000E+00  0.00000000000E+00  0.67131519611E+03  0.67131519613E+03  0.50400001928E-02 0.  1.
        1   -1    0    0  501    0  0.00000000000E+00  0.00000000000E+00 -0.95657798330E+03  0.95657798331E+03  0.50400001928E-02 0. -1.
    10030    2    1    2    0    0  0.00000000000E+00  0.00000000000E+00 -0.28526278719E+03  0.16278931794E+04  0.16027043851E+04 0.  0.
        1    1    3    3  502    0  0.50554230467E+02  0.75730312151E+03  0.11851162876E+03  0.76818536451E+03  0.50400001928E-02 0. -1.
       -1    1    3    3    0  502 -0.50554230467E+02 -0.75730312151E+03 -0.40377441595E+03  0.85970781494E+03  0.50400001928E-02 0.  1.
</event>
<event>
 5   0  0.1835088E-04  0.1588099E+04  0.7818609E-02  0.8827893E-01
        2   -1    0    0  501    0  0.00000000000E+00  0.00000000000E+00  0.15448169441E+04  0.15448169441E+04  0.25500000920E-02 0.  1.
       -2   -1    0    0    0  501  0.00000000000E+00  0.00000000000E+00 -0.40814820517E+03  0.40814820518E+03  0.25500000920E-02 0. -1.
    10030    2    1    2    0    0  0.00000000000E+00  0.00000000000E+00  0.11366687390E+04  0.19529651493E+04  0.15880985650E+04 0.  0.
        5    1    3    3  502    0  0.44255169034E+03  0.60171584742E+03  0.89963340897E+03  0.11693059139E+04  0.46999998093E+01 0.  1.
       -5    1    3    3    0  502 -0.44255169034E+03 -0.60171584742E+03  0.23703533000E+03  0.78365923546E+03  0.46999998093E+01 0. -1.
</event>
<event>
 5   0  0.9726935E-05  0.1603615E+04  0.7818609E-02  0.8818330E-01
       -1   -1    0    0    0  501  0.00000000000E+00  0.00000000000E+00  0.51582393662E+03  0.51582393665E+03  0.50400001928E-02 0. -1.
        1   -1    0    0  501    0  0.00000000000E+00  0.00000000000E+00 -0.12463461398E+04  0.12463461398E+04  0.50400001928E-02 0.  1.
    10030    2    1    2    0    0  0.00000000000E+00  0.00000000000E+00 -0.73052220314E+03  0.17621700764E+04  0.16036148817E+04 0.  0.
        2    1    3    3  502    0 -0.95585677779E+02 -0.63497979150E+03  0.16238044727E+03  0.66234686311E+03  0.25500000920E-02 0. -1.
       -2    1    3    3    0  502  0.95585677779E+02  0.63497979150E+03 -0.89290265041E+03  0.10998232133E+04  0.25500000920E-02 0.  1.
</event>
<event>
 5   0  0.9939872E-05  0.1598947E+04  0.7818609E-02  0.8821195E-01
       -1   -1    0    0    0  501  0.00000000000E+00  0.00000000000E+00  0.79584057571E+03  0.79584057572E+03  0.50400001928E-02 0.  1.
        1   -1    0    0  501    0  0.00000000000E+00  0.00000000000E+00 -0.80312336564E+03  0.80312336566E+03  0.50400001928E-02 0. -1.
    10030    2    1    2    0    0  0.00000000000E+00  0.00000000000E+00 -0.72827899336E+01  0.15989639414E+04  0.15989473559E+04 0.  0.
        3    1    3    3  502    0 -0.51079924353E+03 -0.61412252148E+03 -0.36744803531E+02  0.79963274655E+03  0.10100000352E+00 0. -1.
       -3    1    3    3    0  502  0.51079924353E+03  0.61412252148E+03  0.29462013597E+02  0.79933119482E+03  0.10100000352E+00 0.  1.
</event>
<event>
 5   0  0.1914170E-04  0.1609436E+04  0.7818609E-02  0.8814772E-01
       -2   -1    0    0    0  501  0.00000000000E+00  0.00000000000E+00  0.80521750987E+03  0.80521750988E+03  0.25500000920E-02 0.  1.
        2   -1    0    0  501    0  0.00000000000E+00  0.00000000000E+00 -0.80421883709E+03  0.80421883709E+03  0.25500000920E-02 0. -1.
    10030    2    1    2    0    0  0.00000000000E+00  0.00000000000E+00  0.99867278220E+00  0.16094363470E+04  0.16094360371E+04 0.  0.
        3    1    3    3  502    0 -0.34737669036E+03 -0.49241666835E+03 -0.53281712542E+03  0.80438724481E+03  0.10100000352E+00 0. -1.
       -3    1    3    3    0  502  0.34737669036E+03  0.49241666835E+03  0.53381579820E+03  0.80504910216E+03  0.10100000352E+00 0.  1.
</event>
<event>
 5   0  0.1835088E-04  0.1601577E+04  0.7818609E-02  0.8819580E-01
       -2   -1    0    0    0  501  0.00000000000E+00  0.00000000000E+00  0.64137574377E+03  0.64137574377E+03  0.25500000920E-02 0. -1.
        2   -1    0    0  501    0  0.00000000000E+00  0.00000000000E+00 -0.99982323592E+03  0.99982323593E+03  0.25500000920E-02 0.  1.
    10030    2    1    2    0    0  0.00000000000E+00  0.00000000000E+00 -0.35844749216E+03  0.16411989797E+04  0.16015771871E+04 0.  0.
        5    1    3    3  502    0 -0.72990341742E+02 -0.13306096864E+03  0.62648947207E+03  0.64462699290E+03  0.46999998093E+01 0. -1.
       -5    1    3    3    0  502  0.72990341742E+02  0.13306096864E+03 -0.98493696423E+03  0.99657198680E+03  0.46999998093E+01 0.  1.
</event>
<event>
 5   0  0.1774934E-04  0.1517218E+04  0.7818609E-02  0.8873083E-01
       -2   -1    0    0    0  501  0.00000000000E+00  0.00000000000E+00  0.38265288156E+03  0.38265288157E+03  0.25500000920E-02 0.  1.
        2   -1    0    0  501    0  0.00000000000E+00  0.00000000000E+00 -0.15039408643E+04  0.15039408643E+04  0.25500000920E-02 0. -1.
    10030    2    1    2    0    0  0.00000000000E+00  0.00000000000E+00 -0.11212879827E+04  0.18865937459E+04  0.15172175921E+04 0.  0.
        1    1    3    3  502    0 -0.73341154255E+03 -0.15149291614E+03 -0.71112126836E+03  0.10327323239E+04  0.50400001928E-02 0. -1.
       -1    1    3    3    0  502  0.73341154255E+03  0.15149291614E+03 -0.41016671436E+03  0.85386142200E+03  0.50400001928E-02 0.  1.
</event>
<event>
 5   0  0.9432152E-05  0.1610327E+04  0.7818609E-02  0.8814229E-01
       -1   -1    0    0    0  501  0.00000000000E+00  0.00000000000E+00  0.59971380695E+03  0.59971380697E+03  0.50400001928E-02 0.  1.
        1   -1    0    0  501    0  0.00000000000E+00  0.00000000000E+00 -0.10809957973E+04  0.10809957973E+04  0.50400001928E-02 0. -1.
    10030    2    1    2    0    0  0.00000000000E+00  0.00000000000E+00 -0.48128199035E+03  0.16807096043E+04  0.16103268052E+04 0.  0.
        4    1    3    3  502    0 -0.73327071164E+03 -0.21172383179E+03 -0.50831388148E+03  0.91700465239E+03  0.12699999809E+01 0. -1.
       -4    1    3    3    0  502  0.73327071164E+03  0.21172383179E+03  0.27031891132E+02  0.76370495189E+03  0.12699999809E+01 0.  1.
</event>
<event>
 5   0  0.9939872E-05  0.1596617E+04  0.7818609E-02  0.8822629E-01
       -1   -1    0    0    0  501  0.00000000000E+00  0.00000000000E+00  0.33446048889E+03  0.33446048893E+03  0.50400001928E-02 0. -1.
        1   -1    0    0  501    0  0.00000000000E+00  0.00000000000E+00 -0.19054460706E+04  0.19054460706E+04  0.50400001928E-02 0.  1.
    10030    2    1    2    0    0  0.00000000000E+00  0.00000000000E+00 -0.15709855817E+04  0.22399065595E+04  0.15966169539E+04 0.  0.
        3    1    3    3  502    0 -0.27994385390E+03 -0.69251038517E+03 -0.39028783162E+03  0.84277149728E+03  0.10100000352E+00 0. -1.
       -3    1    3    3    0  502  0.27994385390E+03  0.69251038517E+03 -0.11806977501E+04  0.13971350622E+04  0.10100000352E+00 0.  1.
</event>
<event>
 5   0  0.9673017E-05  0.1602846E+04  0.7818609E-02  0.8818802E-01
        1   -1    0    0  501    0  0.00000000000E+00  0.00000000000E+00  0.16992358076E+04  0.16992358076E+04  0.50400001928E-02 0. -1.
       -1   -1    0    0    0  501  0.00000000000E+00  0.00000000000E+00 -0.37798096099E+03  0.37798096102E+03  0.50400001928E-02 0.  1.
    10030    2    1    2    0    0  0.00000000000E+00  0.00000000000E+00  0.13212548466E+04  0.20772167686E+04  0.16028459483E+04 0.  0.
        1    1    3    3  502    0  0.18075004125E+03  0.77893609812E+03  0.73001565030E+03  0.10827441397E+04  0.50400001928E-02 0. -1.
       -1    1    3    3    0  502 -0.18075004125E+03 -0.77893609812E+03  0.59123919628E+03  0.99447262889E+03  0.50400001928E-02 0.  1.
</event>
<event>
 5   0  0.1832646E-04  0.1596922E+04  0.7818609E-02  0.8822441E-01
       -2   -1    0    0    0  501  0.00000000000E+00  0.00000000000E+00  0.42034258756E+03  0.42034258756E+03  0.25500000920E-02 0. -1.
        2   -1    0    0  501    0  0.00000000000E+00  0.00000000000E+00 -0.15167145890E+04  0.15167145890E+04  0.25500000920E-02 0.  1.
    10030    2    1    2    0    0  0.00000000000E+00  0.00000000000E+00 -0.10963720015E+04  0.19370571766E+04  0.15969217075E+04 0.  0.
        2    1    3    3  502    0 -0.32644677055E+03  0.21527108285E+03 -0.13926171258E+04  0.14464755761E+04  0.25500000920E-02 0.  1.
       -2    1    3    3    0  502  0.32644677055E+03 -0.21527108285E+03  0.29624512430E+03  0.49058160054E+03  0.25500000920E-02 0. -1.
</event>
<event>
 5   0  0.9673017E-05  0.1593333E+04  0.7818609E-02  0.8824655E-01
        1   -1    0    0  501    0  0.00000000000E+00  0.00000000000E+00  0.31152312742E+03  0.31152312746E+03  0.50400001928E-02 0.  1.
       -1   -1    0    0    0  501  0.00000000000E+00  0.00000000000E+00 -0.20373355735E+04  0.20373355735E+04  0.50400001928E-02 0. -1.
    10030    2    1    2    0    0  0.00000000000E+00  0.00000000000E+00 -0.17258124460E+04  0.23488587009E+04  0.15933325447E+04 0.  0.
        1    1    3    3  502    0 -0.76583636382E+03  0.11407451541E+01 -0.53935645231E+03  0.93670273839E+03  0.50400001928E-02 0. -1.
       -1    1    3    3    0  502  0.76583636382E+03 -0.11407451541E+01 -0.11864559937E+04  0.14121559625E+04  0.50400001928E-02 0.  1.
</event>
<event>
 5   0  0.6838750E-05  0.1580336E+04  0.7818609E-02  0.8832720E-01
       -4   -1    0    0    0  501  0.00000000000E+00  0.00000000000E+00  0.63768484871E+03  0.63768611336E+03  0.12699999809E+01 0. -1.
        4   -1    0    0  501    0  0.00000000000E+00  0.00000000000E+00 -0.97911008171E+03  0.97911090536E+03  0.12699999809E+01 0.  1.
    10030    2    1    2    0    0  0.00000000000E+00  0.00000000000E+00 -0.34142523300E+03  0.16167970187E+04  0.15803358536E+04 0.  0.
        3    1    3    3  502    0  0.37011486929E+03 -0.27187463220E+03 -0.82856011164E+03  0.94731869025E+03  0.10100000352E+00 0.  1.
       -3    1    3    3    0  502 -0.37011486929E+03  0.27187463220E+03  0.48713487864E+03  0.66947832847E+03  0.10100000352E+00 0. -1.
</event>
<event>
 5   0  0.9432152E-05  0.1607931E+04  0.7818609E-02  0.8815690E-01
       -1   -1    0    0    0  501  0.00000000000E+00  0.00000000000E+00  0.11664453913E+04  0.11664453913E+04  0.50400001928E-02 0. -1.
        1   -1    0    0  501    0  0.00000000000E+00  0.00000000000E+00 -0.55412859986E+03  0.55412859988E+03  0.50400001928E-02 0.  1.
    10030    2    1    2    0    0  0.00000000000E+00  0.00000000000E+00  0.61231679142E+03  0.17205739912E+04  0.16079312815E+04 0.  0.
        4    1    3    3  502    0 -0.19255350656E+01  0.49241314159E+03  0.98619859456E+03  0.11022992745E+04  0.12699999809E+01 0. -1.
       -4    1    3    3    0  502  0.19255350656E+01 -0.49241314159E+03 -0.37388180314E+03  0.61827471670E+03  0.12699999809E+01 0.  1.
</event>
<event>
 5   0  0.1774934E-04  0.1626831E+04  0.7818609E-02  0.8804232E-01
       -2   -1    0    0    0  501  0.00000000000E+00  0.00000000000E+00  0.36149305849E+03  0.36149305850E+03  0.25500000920E-02 0.  1.
        2   -1    0    0  501    0  0.00000000000E+00  0.00000000000E+00 -0.18303101532E+04  0.18303101532E+04  0.25500000920E-02 0. -1.
    10030    2    1    2    0    0  0.00000000000E+00  0.00000000000E+00 -0.14688170947E+04  0.21918032117E+04  0.16268305570E+04 0.  0.
        1    1    3    3  502    0  0.26141334830E+03 -0.34886458487E+03 -0.16596319009E+04  0.17159316664E+04  0.50400001928E-02 0. -1.
       -1    1    3    3    0  502 -0.26141334830E+03  0.34886458487E+03  0.19081480627E+03  0.47587154523E+03  0.50400001928E-02 0.  1.
</event>
<event>
 5   0  0.1914170E-04  0.1598631E+04  0.7818609E-02  0.8821390E-01
       -2   -1    0    0    0  501  0.00000000000E+00  0.00000000000E+00  0.26832979748E+03  0.26832979750E+03  0.25500000920E-02 0.  1.
        2   -1    0    0  501    0  0.00000000000E+00  0.00000000000E+00 -0.23810434809E+04  0.23810434809E+04  0.25500000920E-02 0. -1.
    10030    2    1    2    0    0  0.00000000000E+00  0.00000000000E+00 -0.21127136835E+04  0.26493732784E+04  0.15986305578E+04 0.  0.
        3    1    3    3  502    0  0.45569291118E+03  0.57986388820E+03 -0.54553169907E+03  0.91733472791E+03  0.10100000352E+00 0.  1.
       -3    1    3    3    0  502 -0.45569291118E+03 -0.57986388820E+03 -0.15671819844E+04  0.17320385505E+04  0.10100000352E+00 0. -1.
</event>
<event>
 5   0  0.9726935E-05  0.1609865E+04  0.7818609E-02  0.8814510E-01
        1   -1    0    0  501    0  0.00000000000E+00  0.00000000000E+00  0.12219327855E+04  0.12219327855E+04  0.50400001928E-02 0.  1.
       -1   -1    0    0    0  501  0.00000000000E+00  0.00000000000E+00 -0.53023885380E+03  0.53023885382E+03  0.50400001928E-02 0. -1.
    10030    2    1    2    0    0  0.00000000000E+00  0.00000000000E+00  0.69169393168E+03  0.17521716393E+04  0.16098648883E+04 0.  0.
        2    1    3    3  502    0  0.19766639121E+02 -0.79906014857E+03  0.44926411927E+03  0.91691116796E+03  0.25500000920E-02 0. -1.
       -2    1    3    3    0  502 -0.19766639121E+02  0.79906014857E+03  0.24242981241E+03  0.83526047135E+03  0.25500000920E-02 0.  1.
</event>
<event>
 5   0  0.6838750E-05  0.1599920E+04  0.7818609E-02  0.8820597E-01
        3   -1    0    0  501    0  0.00000000000E+00  0.00000000000E+00  0.53848742038E+03  0.53848742985E+03  0.10100000352E+00 0.  1.
       -3   -1    0    0    0  501  0.00000000000E+00  0.00000000000E+00 -0.11883956892E+04  0.11883956935E+04  0.10100000352E+00 0. -1.
    10030    2    1    2    0    0  0.00000000000E+00  0.00000000000E+00 -0.64990826880E+03  0.17268831233E+04  0.15999201742E+04 0.  0.
        3    1    3    3  502    0 -0.33393315713E+02 -0.79644552310E+03 -0.25258458797E+03  0.83620545865E+03  0.10100000352E+00 0. -1.
       -3    1    3    3    0  502  0.33393315713E+02  0.79644552310E+03 -0.39732368083E+03  0.89067766467E+03  0.10100000352E+00 0.  1.
</event>
<event>
 5   0  0.9616567E-05  0.1601952E+04  0.7818609E-02  0.8819350E-01
        1   -1    0    0  501    0  0.00000000000E+00  0.00000000000E+00  0.61363943593E+03  0.61363943595E+03  0.50400001928E-02 0. -1.
       -1   -1    0    0    0  501  0.00000000000E+00  0.00000000000E+00 -0.10455038227E+04  0.10455038227E+04  0.50400001928E-02 0.  1.
    10030    2    1    2    0    0  0.00000000000E+00  0.00000000000E+00 -0.43186438680E+03  0.16591432587E+04  0.16019517796E+04 0.  0.
        5    1    3    3  502    0 -0.79272490932E+03  0.42456864764E+02 -0.10571432773E+03  0.80088262331E+03  0.46999998093E+01 0. -1.
       -5    1    3    3    0  502  0.79272490932E+03 -0.42456864764E+02 -0.32615005907E+03  0.85826063539E+03  0.46999998093E+01 0.  1.
</event>
<event>
 5   0  0.1835088E-04  0.1610762E+04  0.7818609E-02  0.8813964E-01
        2   -1    0    0  501    0  0.00000000000E+00  0.00000000000E+00  0.65630278808E+03  0.65630278808E+03  0.25500000920E-02 0. -1.
       -2   -1    0    0    0  501  0.00000000000E+00  0.00000000000E+00 -0.98832221763E+03  0.98832221763E+03  0.25500000920E-02 0.  1.
    10030    2    1    2    0    0  0.00000000000E+00  0.00000000000E+00 -0.33201942955E+03  0.16446250057E+04  0.16107620891E+04 0.  0.
        5    1    3    3  502    0 -0.67010372694E+03  0.43032364843E+03 -0.28852859199E+03  0.84704680252E+03  0.46999998093E+01 0.  1.
       -5    1    3    3    0  502  0.67010372694E+03 -0.43032364843E+03 -0.43490837565E+02  0.79757820319E+03  0.46999998093E+01 0. -1.
</event>
<event>
 5   0  0.1774934E-04  0.1593058E+04  0.7818609E-02  0.8824824E-01
       -2   -1    0    0    0  501  0.00000000000E+00  0.00000000000E+00  0.12596758251E+04  0.12596758251E+04  0.25500000920E-02 0. -1.
        2   -1    0    0  501    0  0.00000000000E+00  0.00000000000E+00 -0.50366800388E+03  0.50366800388E+03  0.25500000920E-02 0.  1.
    10030    2    1    2    0    0  0.00000000000E+00  0.00000000000E+00  0.75600782125E+03  0.17633438290E+04  0.15930579505E+04 0.  0.
        1    1    3    3  502    0 -0.72208784307E+03 -0.25102827793E+03  0.62559266659E+03  0.98782196470E+03  0.50400001928E-02 0. -1.
       -1    1    3    3    0  502  0.72208784307E+03  0.25102827793E+03  0.13041515466E+03  0.77552186431E+03  0.50400001928E-02 0.  1.
</event>
<event>
 5   0  0.9616567E-05  0.1599590E+04  0.7818609E-02  0.8820800E-01
       -1   -1    0    0    0  501  0.00000000000E+00  0.00000000000E+00  0.33434506756E+03  0.33434506760E+03  0.50400001928E-02 0. -1.
        1   -1    0    0  501    0  0.00000000000E+00  0.00000000000E+00 -0.19132101223E+04  0.19132101223E+04  0.50400001928E-02 0.  1.
    10030    2    1    2    0    0  0.00000000000E+00  0.00000000000E+00 -0.15788650547E+04  0.22475551899E+04  0.15995904071E+04 0.  0.
        5    1    3    3  502    0 -0.11439313950E+03  0.56116392568E+03 -0.50249439704E+01  0.57274608851E+03  0.46999998093E+01 0. -1.
       -5    1    3    3    0  502  0.11439313950E+03 -0.56116392568E+03 -0.15738401108E+04  0.16748091014E+04  0.46999998093E+01 0.  1.
</event>
<event>
 5   0  0.9432152E-05  0.1621499E+04  0.7818609E-02  0.8807448E-01
       -1   -1    0    0    0  501  0.00000000000E+00  0.00000000000E+00  0.78158254074E+03  0.78158254076E+03  0.50400001928E-02 0. -1.
        1   -1    0    0  501    0  0.00000000000E+00  0.00000000000E+00 -0.84100447930E+03  0.84100447932E+03  0.50400001928E-02 0.  1.
    10030    2    1    2    0    0  0.00000000000E+00  0.00000000000E+00 -0.59421938564E+02  0.16225870201E+04  0.16214985880E+04 0.  0.
        4    1    3    3  502    0  0.63545436546E+02  0.71090830043E+03 -0.41452621332E+03  0.82538610878E+03  0.12699999809E+01 0.  1.
       -4    1    3    3    0  502 -0.63545436546E+02 -0.71090830043E+03  0.35510427476E+03  0.79720091130E+03  0.12699999809E+01 0. -1.
</event>
<event>
 5   0  0.1858913E-04  0.1598516E+04  0.7818609E-02  0.8821460E-01
        2   -1    0    0  501    0  0.00000000000E+00  0.00000000000E+00  0.14731899763E+04  0.14731899763E+04  0.25500000920E-02 0.  1.
       -2   -1    0    0    0  501  0.00000000000E+00  0.00000000000E+00 -0.43362605600E+03  0.43362605601E+03  0.25500000920E-02 0. -1.
    10030    2    1    2    0    0  0.00000000000E+00  0.00000000000E+00  0.10395639203E+04  0.19068160323E+04  0.15985162610E+04 0.  0.
        4    1    3    3  502    0  0.27842542397E+03 -0.27369861233E+03 -0.31213451295E+03  0.49986119492E+03  0.12699999809E+01 0. -1.
       -4    1    3    3    0  502 -0.27842542397E+03  0.27369861233E+03  0.13516984333E+04  0.14069548374E+04  0.12699999809E+01 0.  1.
</event>
<event>
 5   0  0.1774934E-04  0.1605250E+04  0.7818609E-02  0.8817330E-01
        2   -1    0    0  501    0  0.00000000000E+00  0.00000000000E+00  0.96045045242E+03  0.96045045242E+03  0.25500000920E-02 0.  1.
       -2   -1    0    0    0  501  0.00000000000E+00  0.00000000000E+00 -0.67073371599E+03  0.67073371600E+03  0.25500000920E-02 0. -1.
    10030    2    1    2    0    0  0.00000000000E+00  0.00000000000E+00  0.28971673643E+03  0.16311841684E+04  0.16052495145E+04 0.  0.
        1    1    3    3  502    0 -0.25262535645E+03  0.54641273577E+03  0.68430240442E+03  0.91140343935E+03  0.50400001928E-02 0. -1.
       -1    1    3    3    0  502  0.25262535645E+03 -0.54641273577E+03 -0.39458566799E+03  0.71978072907E+03  0.50400001928E-02 0.  1.
</event>
<event>
 5   0  0.1835088E-04  0.1637249E+04  0.7818609E-02  0.8797986E-01
       -2   -1    0    0    0  501  0.00000000000E+00  0.00000000000E+00  0.99301517042E+03  0.99301517043E+03  0.25500000920E-02 0.  1.
        2   -1    0    0  501    0  0.00000000000E+00  0.00000000000E+00 -0.67486006045E+03  0.67486006046E+03  0.25500000920E-02 0. -1.
    10030    2    1    2    0    0  0.00000000000E+00  0.00000000000E+00  0.31815510997E+03  0.16678752309E+04  0.16372492516E+04 0.  0.
        5    1    3    3  502    0  0.29619720477E+02 -0.66640968932E+03  0.64244778397E+03  0.92614277894E+03  0.46999998093E+01 0.  1.
       -5    1    3    3    0  502 -0.29619720477E+02  0.66640968932E+03 -0.32429267400E+03  0.74173245194E+03  0.46999998093E+01 0. -1.
</event>
<event>
 5   0  0.1835088E-04  0.1598500E+04  0.7818609E-02  0.8821470E-01
        2   -1    0    0  501    0  0.00000000000E+00  0.00000000000E+00  0.11093454249E+04  0.11093454249E+04  0.25500000920E-02 0. -1.
       -2   -1    0    0    0  501  0.00000000000E+00  0.00000000000E+00 -0.57583568705E+03  0.57583568706E+03  0.25500000920E-02 0.  1.
    10030    2    1    2    0    0  0.00000000000E+00  0.00000000000E+00  0.53350973787E+03  0.16851811120E+04  0.15985001532E+04 0.  0.
        5    1    3    3  502    0  0.61916476086E+03 -0.31063219954E+02 -0.26502757220E+03  0.67423410530E+03  0.46999998093E+01 0.  1.
       -5    1    3    3    0  502 -0.61916476086E+03  0.31063219954E+02  0.79853731007E+03  0.10109470067E+04  0.46999998093E+01 0. -1.
</event>
<event>
 5   0  0.1835088E-04  0.1546869E+04  0.7818609E-02  0.8853870E-01
       -2   -1    0    0    0  501  0.00000000000E+00  0.00000000000E+00  0.63686388026E+03  0.63686388027E+03  0.25500000920E-02 0. -1.
        2   -1    0    0  501    0  0.00000000000E+00  0.00000000000E+00 -0.93929187388E+03  0.93929187388E+03  0.25500000920E-02 0.  1.
    10030    2    1    2    0    0  0.00000000000E+00  0.00000000000E+00 -0.30242799361E+03  0.15761557541E+04  0.15468691832E+04 0.  0.
        5    1    3    3  502    0  0.58026471576E+03 -0.15429590251E+03 -0.64795247702E+03  0.88339055257E+03  0.46999998093E+01 0. -1.
       -5    1    3    3    0  502 -0.58026471576E+03  0.15429590251E+03  0.34552448341E+03  0.69276520158E+03  0.46999998093E+01 0.  1.
</event>
<event>
 5   0  0.9616567E-05  0.1599308E+04  0.7818609E-02  0.8820973E-01
        1   -1    0    0  501    0  0.00000000000E+00  0.00000000000E+00  0.86889215444E+03  0.86889215446E+03  0.50400001928E-02 0. -1.
       -1   -1    0    0    0  501  0.00000000000E+00  0.00000000000E+00 -0.73593316118E+03  0.73593316120E+03  0.50400001928E-02 0.  1.
    10030    2    1    2    0    0  0.00000000000E+00  0.00000000000E+00  0.13295899326E+03  0.16048253157E+04  0.15993080378E+04 0.  0.
        5    1    3    3  502    0 -0.58555629102E+01 -0.74921663518E+03 -0.21388481648E+03  0.77918461148E+03  0.46999998093E+01 0.  1.
       -5    1    3    3    0  502  0.58555629102E+01  0.74921663518E+03  0.34684380974E+03  0.82564070418E+03  0.46999998093E+01 0. -1.
</event>
<event>
 5   0  0.1774934E-04  0.1599497E+04  0.7818609E-02  0.8820857E-01
        2   -1    0    0  501    0  0.00000000000E+00  0.00000000000E+00  0.63253793612E+03  0.63253793612E+03  0.25500000920E-02 0. -1.
       -2   -1    0    0    0  501  0.00000000000E+00  0.00000000000E+00 -0.10111608612E+04  0.10111608612E+04  0.25500000920E-02 0.  1.
    10030    2    1    2    0    0  0.00000000000E+00  0.00000000000E+00 -0.37862292505E+03  0.16436987973E+04  0.15994969262E+04 0.  0.
        1    1    3    3  502    0 -0.33186221308E+02  0.73058142874E+02 -0.10070136257E+04  0.10102055533E+04  0.50400001928E-02 0.  1.
       -1    1    3    3    0  502  0.33186221308E+02 -0.73058142874E+02  0.62839070064E+03  0.63349324401E+03  0.50400001928E-02 0. -1.
</event>
<event>
 5   0  0.9726935E-05  0.1575322E+04  0.7818609E-02  0.8835854E-01
        1   -1    0    0  501    0  0.00000000000E+00  0.00000000000E+00  0.13911943271E+04  0.13911943272E+04  0.50400001928E-02 0.  1.
       -1   -1    0    0    0  501  0.00000000000E+00  0.00000000000E+00 -0.44595497638E+03  0.44595497641E+03  0.50400001928E-02 0. -1.
    10030    2    1    2    0    0  0.00000000000E+00  0.00000000000E+00  0.94523935076E+03  0.18371493036E+04  0.15753222316E+04 0.  0.
        2    1    3    3  502    0  0.23313312406E+03 -0.58962221516E+02  0.13473378197E+04  0.13686295326E+04  0.25500000920E-02 0.  1.
       -2    1    3    3    0  502 -0.23313312406E+03  0.58962221516E+02 -0.40209846891E+03  0.46851977099E+03  0.25500000920E-02 0. -1.
</event>
<event>
 5   0  0.9726935E-05  0.1602186E+04  0.7818609E-02  0.8819206E-01
        1   -1    0    0  501    0  0.00000000000E+00  0.00000000000E+00  0.10351969830E+04  0.10351969830E+04  0.50400001928E-02 0. -1.
       -1   -1    0    0    0  501  0.00000000000E+00  0.00000000000E+00 -0.61993003258E+03  0.61993003260E+03  0.50400001928E-02 0.  1.
    10030    2    1    2    0    0  0.00000000000E+00  0.00000000000E+00  0.41526695038E+03  0.16551270156E+04  0.16021856314E+04 0.  0.
        2    1    3    3  502    0 -0.42507643823E+03 -0.50097226792E+03  0.68113085038E+03  0.94636273537E+03  0.25500000920E-02 0. -1.
       -2    1    3    3    0  502  0.42507643823E+03  0.50097226792E+03 -0.26586390000E+03  0.70876428020E+03  0.25500000920E-02 0.  1.
</event>
<event>
 5   0  0.9939872E-05  0.1632924E+04  0.7818609E-02  0.8800573E-01
       -1   -1    0    0    0  501  0.00000000000E+00  0.00000000000E+00  0.75849825018E+03  0.75849825020E+03  0.50400001928E-02 0. -1.
        1   -1    0    0  501    0  0.00000000000E+00  0.00000000000E+00 -0.87885522680E+03  0.87885522682E+03  0.50400001928E-02 0.  1.
    10030    2    1    2    0    0  0.00000000000E+00  0.00000000000E+00 -0.12035697662E+03  0.16373534770E+04  0.16329239440E+04 0.  0.
        3    1    3    3  502    0 -0.38919707903E+01 -0.50879453013E+03 -0.70044259911E+03  0.86574064603E+03  0.10100000352E+00 0.  1.
       -3    1    3    3    0  502  0.38919707903E+01  0.50879453013E+03  0.58008562250E+03  0.77161283099E+03  0.10100000352E+00 0. -1.
</event>
<event>
 5   0  0.1774934E-04  0.1604935E+04  0.7818609E-02  0.8817522E-01
       -2   -1    0    0    0  501  0.00000000000E+00  0.00000000000E+00  0.77309623782E+03  0.77309623782E+03  0.25500000920E-02 0.  1.
        2   -1    0    0  501    0  0.00000000000E+00  0.00000000000E+00 -0.83295419320E+03  0.83295419321E+03  0.25500000920E-02 0. -1.
    10030    2    1    2    0    0  0.00000000000E+00  0.00000000000E+00 -0.59857955384E+02  0.16060504310E+04  0.16049345819E+04 0.  0.
        1    1    3    3  502    0  0.57580710491E+03 -0.54202371201E+03  0.10658517367E+03  0.79793729435E+03  0.50400001928E-02 0.  1.
       -1    1    3    3    0  502 -0.57580710491E+03  0.54202371201E+03 -0.16644312905E+03  0.80811313668E+03  0.50400001928E-02 0. -1.
</event>
<event>
 5   0  0.9432152E-05  0.1613676E+04  0.7818609E-02  0.8812190E-01
        1   -1    0    0  501    0  0.00000000000E+00  0.00000000000E+00  0.15260597133E+04  0.15260597133E+04  0.50400001928E-02 0.  1.
       -1   -1    0    0    0  501  0.00000000000E+00  0.00000000000E+00 -0.42658076733E+03  0.42658076736E+03  0.50400001928E-02 0. -1.
    10030    2    1    2    0    0  0.00000000000E+00  0.00000000000E+00  0.10994789460E+04  0.19526404807E+04  0.16136762049E+04 0.  0.
        4    1    3    3  502    0 -0.21079897677E+03 -0.13791705328E+03  0.14772534638E+04  0.14985782367E+04  0.12699999809E+01 0.  1.
       -4    1    3    3    0  502  0.21079897677E+03  0.13791705328E+03 -0.37777451784E+03  0.45406224399E+03  0.12699999809E+01 0. -1.
</event>
<event>
 5   0  0.9432152E-05  0.1600522E+04  0.7818609E-02  0.8820227E-01
        1   -1    0    0  501    0  0.00000000000E+00  0.00000000000E+00  0.73752304447E+03  0.73752304449E+03  0.50400001928E-02 0. -1.
       -1   -1    0    0    0  501  0.00000000000E+00  0.00000000000E+00 -0.86833632106E+03  0.86833632108E+03  0.50400001928E-02 0.  1.
    10030    2    1    2    0    0  0.00000000000E+00  0.00000000000E+00 -0.13081327659E+03  0.16058593656E+04  0.16005224736E+04 0.  0.
        4    1    3    3  502    0 -0.76636515902E+03  0.19980425743E+03  0.49776578285E+02  0.79354685992E+03  0.12699999809E+01 0.  1.
       -4    1    3    3    0  502  0.76636515902E+03 -0.19980425743E+03 -0.18058985487E+03  0.81231250565E+03  0.12699999809E+01 0. -1.
</event>
<event>
 5   0  0.9616567E-05  0.1605361E+04  0.7818609E-02  0.8817261E-01
        1   -1    0    0  501    0  0.00000000000E+00  0.00000000000E+00  0.85311910808E+03  0.85311910810E+03  0.50400001928E-02 0.  1.
       -1   -1    0    0    0  501  0.00000000000E+00  0.00000000000E+00 -0.75522379649E+03  0.75522379651E+03  0.50400001928E-02 0. -1.
    10030    2    1    2    0    0  0.00000000000E+00  0.00000000000E+00  0.97895311594E+02  0.16083429046E+04  0.16053608338E+04 0.  0.
        5    1    3    3  502    0  0.73146486034E+03  0.24156154445E+03 -0.17703939127E+03  0.79041625599E+03  0.46999998093E+01 0. -1.
       -5    1    3    3    0  502 -0.73146486034E+03 -0.24156154445E+03  0.27493470286E+03  0.81792664861E+03  0.46999998093E+01 0.  1.
</event>
<event>
 5   0  0.1832646E-04  0.1602373E+04  0.7818609E-02  0.8819092E-01
        2   -1    0    0  501    0  0.00000000000E+00  0.00000000000E+00  0.13167141014E+04  0.13167141014E+04  0.25500000920E-02 0. -1.
       -2   -1    0    0    0  501  0.00000000000E+00  0.00000000000E+00 -0.48750126804E+03  0.48750126805E+03  0.25500000920E-02 0.  1.
    10030    2    1    2    0    0  0.00000000000E+00  0.00000000000E+00  0.82921283338E+03  0.18042153695E+04  0.16023729829E+04 0.  0.
        2    1    3    3  502    0 -0.65951839312E+03 -0.31033634450E+03  0.40104005327E+02  0.72998732101E+03  0.25500000920E-02 0.  1.
       -2    1    3    3    0  502  0.65951839312E+03  0.31033634450E+03  0.78910882806E+03  0.10742280485E+04  0.25500000920E-02 0. -1.
</event>
<event>
 5   0  0.1858913E-04  0.1598320E+04  0.7818609E-02  0.8821581E-01
        2   -1    0    0  501    0  0.00000000000E+00  0.00000000000E+00  0.12360201688E+04  0.12360201688E+04  0.25500000920E-02 0. -1.
       -2   -1    0    0    0  501  0.00000000000E+00  0.00000000000E+00 -0.51670407622E+03  0.51670407623E+03  0.25500000920E-02 0.  1.
    10030    2    1    2    0    0  0.00000000000E+00  0.00000000000E+00  0.71931609256E+03  0.17527242450E+04  0.15983199423E+04 0.  0.
        4    1    3    3  502    0 -0.17321967034E+03 -0.41132708390E+03  0.10866164523E+04  0.11747050487E+04  0.12699999809E+01 0. -1.
       -4    1    3    3    0  502  0.17321967034E+03  0.41132708390E+03 -0.36730035974E+03  0.57801919631E+03  0.12699999809E+01 0.  1.
</event>
<event>
 5   0  0.1835088E-04  0.1558752E+04  0.7818609E-02  0.8846297E-01
        2   -1    0    0  501    0  0.00000000000E+00  0.00000000000E+00  0.71370066554E+03  0.71370066554E+03  0.25500000920E-02 0. -1.
       -2   -1    0    0    0  501  0.00000000000E+00  0.00000000000E+00 -0.85109506561E+03  0.85109506561E+03  0.25500000920E-02 0.  1.
    10030    2    1    2    0    0  0.00000000000E+00  0.00000000000E+00 -0.13739440007E+03  0.15647957312E+04  0.15587522122E+04 0.  0.
        5    1    3    3  502    0 -0.50345172167E+03  0.58714752812E+03 -0.16498136480E+03  0.79085194351E+03  0.46999998093E+01 0.  1.
       -5    1    3    3    0  502  0.50345172167E+03 -0.58714752812E+03  0.27586964726E+02  0.77394378765E+03  0.46999998093E+01 0. -1.
</event>
<event>
 5   0  0.1914170E-04  0.1598962E+04  0.7818609E-02  0.8821186E-01
        2   -1    0    0  501    0  0.00000000000E+00  0.00000000000E+00  0.13146744967E+04  0.13146744967E+04  0.25500000920E-02 0.  1.
       -2   -1    0    0    0  501  0.00000000000E+00  0.00000000000E+00 -0.48618107095E+03  0.48618107096E+03  0.25500000920E-02 0. -1.
    10030    2    1    2    0    0  0.00000000000E+00  0.00000000000E+00  0.82849342579E+03  0.18008555677E+04  0.15989619818E+04 0.  0.
        3    1    3    3  502    0  0.29351417684E+03  0.17610881581E+03  0.12279724623E+04  0.12747867529E+04  0.10100000352E+00 0.  1.
       -3    1    3    3    0  502 -0.29351417684E+03 -0.17610881581E+03 -0.39947903655E+03  0.52606881476E+03  0.10100000352E+00 0. -1.
</event>
<event>
 5   0  0.1835088E-04  0.1604418E+04  0.7818609E-02  0.8817838E-01
        2   -1    0    0  501    0  0.00000000000E+00  0.00000000000E+00  0.15544006163E+04  0.15544006163E+04  0.25500000920E-02 0. -1.
       -2   -1    0    0    0  501  0.00000000000E+00  0.00000000000E+00 -0.41401118637E+03  0.41401118638E+03  0.25500000920E-02 0.  1.
    10030    2    1    2    0    0  0.00000000000E+00  0.00000000000E+00  0.11403894299E+04  0.19684118027E+04  0.16044179546E+04 0.  0.
        5    1    3    3  502    0 -0.31559250762E+03 -0.44988877090E+03  0.12871723984E+04  0.13995832988E+04  0.46999998093E+01 0. -1.
       -5    1    3    3    0  502  0.31559250762E+03  0.44988877090E+03 -0.14678296844E+03  0.56882850392E+03  0.46999998093E+01 0.  1.
</event>
<event>
 5   0  0.1832646E-04  0.1599519E+04  0.7818609E-02  0.8820844E-01
       -2   -1    0    0    0  501  0.00000000000E+00  0.00000000000E+00  0.30331154640E+03  0.30331154641E+03  0.25500000920E-02 0. -1.
        2   -1    0    0  501    0  0.00000000000E+00  0.00000000000E+00 -0.21087721524E+04  0.21087721524E+04  0.25500000920E-02 0.  1.
    10030    2    1    2    0    0  0.00000000000E+00  0.00000000000E+00 -0.18054606060E+04  0.24120836988E+04  0.15995186058E+04 0.  0.
        2    1    3    3  502    0 -0.47253719423E+03 -0.32519244195E+03 -0.17431287061E+04  0.18350856139E+04  0.25500000920E-02 0.  1.
       -2    1    3    3    0  502  0.47253719423E+03  0.32519244195E+03 -0.62331899862E+02  0.57699808490E+03  0.25500000920E-02 0. -1.
</event>
<event>
 5   0  0.9673017E-05  0.1588348E+04  0.7818609E-02  0.8827739E-01
       -1   -1    0    0    0  501  0.00000000000E+00  0.00000000000E+00  0.29441237110E+03  0.29441237114E+03  0.50400001928E-02 0. -1.
        1   -1    0    0  501    0  0.00000000000E+00  0.00000000000E+00 -0.21422746455E+04  0.21422746455E+04  0.50400001928E-02 0.  1.
    10030    2    1    2    0    0  0.00000000000E+00  0.00000000000E+00 -0.18478622744E+04  0.24366870167E+04  0.15883477680E+04 0.  0.
        1    1    3    3  502    0 -0.75856824005E+03  0.17952946074E+03 -0.69099227430E+03  0.10416942571E+04  0.50400001928E-02 0. -1.
       -1    1    3    3    0  502  0.75856824005E+03 -0.17952946074E+03 -0.11568700001E+04  0.13949927596E+04  0.50400001928E-02 0.  1.
</event>
<event>
 5   0  0.9432152E-05  0.1596880E+04  0.7818609E-02  0.8822467E-01
        1   -1    0    0  501    0  0.00000000000E+00  0.00000000000E+00  0.64703439285E+03  0.64703439287E+03  0.50400001928E-02 0.  1.
       -1   -1    0    0    0  501  0.00000000000E+00  0.00000000000E+00 -0.98527481091E+03  0.98527481093E+03  0.50400001928E-02 0. -1.
    10030    2    1    2    0    0  0.00000000000E+00  0.00000000000E+00 -0.33824041807E+03  0.16323092038E+04  0.15968803200E+04 0.  0.
        4    1    3    3  502    0  0.77784403080E+03  0.16920502856E+03 -0.23240830513E+03  0.82926890159E+03  0.12699999809E+01 0. -1.
       -4    1    3    3    0  502 -0.77784403080E+03 -0.16920502856E+03 -0.10583211294E+03  0.80304030221E+03  0.12699999809E+01 0.  1.
</event>
<event>
 5   0  0.1858913E-04  0.1597482E+04  0.7818609E-02  0.8822096E-01
       -2   -1    0    0    0  501  0.00000000000E+00  0.00000000000E+00  0.63239090335E+03  0.63239090335E+03  0.25500000920E-02 0. -1.
        2   -1    0    0  501    0  0.00000000000E+00  0.00000000000E+00 -0.10088499605E+04  0.10088499605E+04  0.25500000920E-02 0.  1.
    10030    2    1    2    0    0  0.00000000000E+00  0.00000000000E+00 -0.37645905711E+03  0.16412408638E+04  0.15974824416E+04 0.  0.
        4    1    3    3  502    0 -0.24823857334E+03 -0.43440864365E+03 -0.82790193309E+03  0.96734506908E+03  0.12699999809E+01 0.  1.
       -4    1    3    3    0  502  0.24823857334E+03  0.43440864365E+03  0.45144287598E+03  0.67389579472E+03  0.12699999809E+01 0. -1.
</event>
<event>
 5   0  0.1858913E-04  0.1584800E+04  0.7818609E-02  0.8829941E-01
       -2   -1    0    0    0  501  0.00000000000E+00  0.00000000000E+00  0.92138843817E+03  0.92138843818E+03  0.25500000920E-02 0. -1.
        2   -1    0    0  501    0  0.00000000000E+00  0.00000000000E+00 -0.68146901047E+03  0.68146901047E+03  0.25500000920E-02 0.  1.
    10030    2    1    2    0    0  0.00000000000E+00  0.00000000000E+00  0.23991942771E+03  0.16028574486E+04  0.15847998829E+04 0.  0.
        4    1    3    3  502    0  0.29903560290E+03  0.25479133650E+03  0.81595411426E+03  0.90560678356E+03  0.12699999809E+01 0. -1.
       -4    1    3    3    0  502 -0.29903560290E+03 -0.25479133650E+03 -0.57603468655E+03  0.69725066509E+03  0.12699999809E+01 0.  1.
</event>
<event>
 5   0  0.9726935E-05  0.1599130E+04  0.7818609E-02  0.8821083E-01
       -1   -1    0    0    0  501  0.00000000000E+00  0.00000000000E+00  0.37735096136E+03  0.37735096139E+03  0.50400001928E-02 0.  1.
        1   -1    0    0  501    0  0.00000000000E+00  0.00000000000E+00 -0.16941891300E+04  0.16941891300E+04  0.50400001928E-02 0. -1.
    10030    2    1    2    0    0  0.00000000000E+00  0.00000000000E+00 -0.13168381686E+04  0.20715400914E+04  0.15991296345E+04 0.  0.
        2    1    3    3  502    0 -0.48477723645E+03 -0.40094237724E+03 -0.12977047185E+04  0.14421516201E+04  0.25500000920E-02 0. -1.
       -2    1    3    3    0  502  0.48477723645E+03  0.40094237724E+03 -0.19133450085E+02  0.62938847127E+03  0.25500000920E-02 0.  1.
</event>
<event>
 5   0  0.9726935E-05  0.1615439E+04  0.7818609E-02  0.8811119E-01
        1   -1    0    0  501    0  0.00000000000E+00  0.00000000000E+00  0.13045842043E+04  0.13045842043E+04  0.50400001928E-02 0. -1.
       -1   -1    0    0    0  501  0.00000000000E+00  0.00000000000E+00 -0.50009068648E+03  0.50009068651E+03  0.50400001928E-02 0.  1.
    10030    2    1    2    0    0  0.00000000000E+00  0.00000000000E+00  0.80449351777E+03  0.18046748908E+04  0.16154385291E+04 0.  0.
        2    1    3    3  502    0 -0.28151514520E+03 -0.48349534999E+03  0.10530643195E+04  0.11924608972E+04  0.25500000920E-02 0. -1.
       -2    1    3    3    0  502  0.28151514520E+03  0.48349534999E+03 -0.24857080170E+03  0.61221399355E+03  0.25500000920E-02 0.  1.
</event>
<event>
 5   0  0.1832646E-04  0.1606873E+04  0.7818609E-02  0.8816337E-01
        2   -1    0    0  501    0  0.00000000000E+00  0.00000000000E+00  0.18892402569E+04  0.18892402569E+04  0.25500000920E-02 0.  1.
       -2   -1    0    0    0  501  0.00000000000E+00  0.00000000000E+00 -0.34167698767E+03  0.34167698768E+03  0.25500000920E-02 0. -1.
    10030    2    1    2    0    0  0.00000000000E+00  0.00000000000E+00  0.15475632693E+04  0.22309172446E+04  0.16068726396E+04 0.  0.
        2    1    3    3  502    0  0.23926075021E+03  0.40159460071E+03  0.16809936996E+04  0.17447818626E+04  0.25500000920E-02 0.  1.
       -2    1    3    3    0  502 -0.23926075021E+03 -0.40159460071E+03 -0.13343043033E+03  0.48613538203E+03  0.25500000920E-02 0. -1.
</event>
<event>
 5   0  0.1914170E-04  0.1598324E+04  0.7818609E-02  0.8821578E-01
        2   -1    0    0  501    0  0.00000000000E+00  0.00000000000E+00  0.59092929870E+03  0.59092929871E+03  0.25500000920E-02 0. -1.
       -2   -1    0    0    0  501  0.00000000000E+00  0.00000000000E+00 -0.10807727623E+04  0.10807727623E+04  0.25500000920E-02 0.  1.
    10030    2    1    2    0    0  0.00000000000E+00  0.00000000000E+00 -0.48984346363E+03  0.16717020610E+04  0.15983244858E+04 0.  0.
        3    1    3    3  502    0 -0.54384250857E+03 -0.37912106560E+03 -0.71168649471E+03  0.97262281150E+03  0.10100000352E+00 0. -1.
       -3    1    3    3    0  502  0.54384250857E+03  0.37912106560E+03  0.22184303108E+03  0.69907924954E+03  0.10100000352E+00 0.  1.
</event>
<event>
 5   0  0.1832646E-04  0.1598689E+04  0.7818609E-02  0.8821354E-01
        2   -1    0    0  501    0  0.00000000000E+00  0.00000000000E+00  0.14787651058E+04  0.14787651058E+04  0.25500000920E-02 0.  1.
       -2   -1    0    0    0  501  0.00000000000E+00  0.00000000000E+00 -0.43208447792E+03  0.43208447793E+03  0.25500000920E-02 0. -1.
    10030    2    1    2    0    0  0.00000000000E+00  0.00000000000E+00  0.10466806279E+04  0.19108495837E+04  0.15986887736E+04 0.  0.
        2    1    3    3  502    0 -0.10217657436E+03 -0.47919822411E+03 -0.23155018076E+03  0.54192847918E+03  0.25500000920E-02 0. -1.
       -2    1    3    3    0  502  0.10217657436E+03  0.47919822411E+03  0.12782308086E+04  0.13689211046E+04  0.25500000920E-02 0.  1.
</event>
<event>
 5   0  0.1774934E-04  0.1599618E+04  0.7818609E-02  0.8820783E-01
        2   -1    0    0  501    0  0.00000000000E+00  0.00000000000E+00  0.14266355719E+04  0.14266355719E+04  0.25500000920E-02 0. -1.
       -2   -1    0    0    0  501  0.00000000000E+00  0.00000000000E+00 -0.44839362852E+03  0.44839362853E+03  0.25500000920E-02 0.  1.
    10030    2    1    2    0    0  0.00000000000E+00  0.00000000000E+00  0.97824194339E+03  0.18750292004E+04  0.15996178302E+04 0.  0.
        1    1    3    3  502    0  0.61000131880E+03 -0.49479909846E+03  0.66598534207E+03  0.10297884407E+04  0.50400001928E-02 0. -1.
       -1    1    3    3    0  502 -0.61000131880E+03  0.49479909846E+03  0.31225660132E+03  0.84524075971E+03  0.50400001928E-02 0.  1.
</event>
<event>
 5   0  0.9939872E-05  0.1601921E+04  0.7818609E-02  0.8819369E-01
        1   -1    0    0  501    0  0.00000000000E+00  0.00000000000E+00  0.10270118862E+04  0.10270118862E+04  0.50400001928E-02 0.  1.
       -1   -1    0    0    0  501  0.00000000000E+00  0.00000000000E+00 -0.62466415119E+03  0.62466415121E+03  0.50400001928E-02 0. -1.
    10030    2    1    2    0    0  0.00000000000E+00  0.00000000000E+00  0.40234773496E+03  0.16516760374E+04  0.16019207323E+04 0.  0.
        3    1    3    3  502    0 -0.25680025409E+03 -0.66992235209E+03 -0.16596908868E+03  0.73640211632E+03  0.10100000352E+00 0. -1.
       -3    1    3    3    0  502  0.25680025409E+03  0.66992235209E+03  0.56831682364E+03  0.91527392105E+03  0.10100000352E+00 0.  1.
</event>
<event>
 5   0  0.1835088E-04  0.1605023E+04  0.7818609E-02  0.8817468E-01
        2   -1    0    0  501    0  0.00000000000E+00  0.00000000000E+00  0.12697861036E+04  0.12697861036E+04  0.25500000920E-02 0. -1.
       -2   -1    0    0    0  501  0.00000000000E+00  0.00000000000E+00 -0.50719148364E+03  0.50719148365E+03  0.25500000920E-02 0.  1.
    10030    2    1    2    0    0  0.00000000000E+00  0.00000000000E+00  0.76259461997E+03  0.17769775873E+04  0.16050229878E+04 0.  0.
        5    1    3    3  502    0  0.58289400284E+03 -0.49856561560E+03  0.12007551054E+03  0.77638476919E+03  0.46999998093E+01 0.  1.
       -5    1    3    3    0  502 -0.58289400284E+03  0.49856561560E+03  0.64251910944E+03  0.10005928181E+04  0.46999998093E+01 0. -1.
</event>
<event>
 5   0  0.1858913E-04  0.1600969E+04  0.7818609E-02  0.8819953E-01
        2   -1    0    0  501    0  0.00000000000E+00  0.00000000000E+00  0.67949829134E+03  0.67949829135E+03  0.25500000920E-02 0. -1.
       -2   -1    0    0    0  501  0.00000000000E+00  0.00000000000E+00 -0.94301247822E+03  0.94301247822E+03  0.25500000920E-02 0.  1.
    10030    2    1    2    0    0  0.00000000000E+00  0.00000000000E+00 -0.26351418688E+03  0.16225107696E+04  0.16009689162E+04 0.  0.
        4    1    3    3  502    0  0.26097288198E+02 -0.33213323788E+03  0.60589664735E+03  0.69145203472E+03  0.12699999809E+01 0. -1.
       -4    1    3    3    0  502 -0.26097288198E+02  0.33213323788E+03 -0.86941083422E+03  0.93105873484E+03  0.12699999809E+01 0.  1.
</event>
<event>
 5   0  0.1832646E-04  0.1601149E+04  0.7818609E-02  0.8819842E-01
        2   -1    0    0  501    0  0.00000000000E+00  0.00000000000E+00  0.77565455308E+03  0.77565455309E+03  0.25500000920E-02 0. -1.
       -2   -1    0    0    0  501  0.00000000000E+00  0.00000000000E+00 -0.82629514670E+03  0.82629514670E+03  0.25500000920E-02 0.  1.
    10030    2    1    2    0    0  0.00000000000E+00  0.00000000000E+00 -0.50640593617E+02  0.16019496998E+04  0.16011490783E+04 0.  0.
        2    1    3    3  502    0 -0.51200124341E+03 -0.60924115416E+03  0.61898608459E+02  0.79821769895E+03  0.25500000920E-02 0. -1.
       -2    1    3    3    0  502  0.51200124341E+03  0.60924115416E+03 -0.11253920208E+03  0.80373200085E+03  0.25500000920E-02 0.  1.
</event>
<event>
 5   0  0.9939872E-05  0.1589989E+04  0.7818609E-02  0.8826722E-01
        1   -1    0    0  501    0  0.00000000000E+00  0.00000000000E+00  0.75592001807E+03  0.75592001809E+03  0.50400001928E-02 0. -1.
       -1   -1    0    0    0  501  0.00000000000E+00  0.00000000000E+00 -0.83608922855E+03  0.83608922856E+03  0.50400001928E-02 0.  1.
    10030    2    1    2    0    0  0.00000000000E+00  0.00000000000E+00 -0.80169210477E+02  0.15920092466E+04  0.15899894148E+04 0.  0.
        3    1    3    3  502    0  0.23881207851E+03 -0.37234862972E+03  0.62131631363E+03  0.76269829072E+03  0.10100000352E+00 0. -1.
       -3    1    3    3    0  502 -0.23881207851E+03  0.37234862972E+03 -0.70148552410E+03  0.82931095593E+03  0.10100000352E+00 0.  1.
</event>
<event>
 5   0  0.9616567E-05  0.1593805E+04  0.7818609E-02  0.8824363E-01
       -1   -1    0    0    0  501  0.00000000000E+00  0.00000000000E+00  0.66172239417E+03  0.66172239419E+03  0.50400001928E-02 0. -1.
        1   -1    0    0  501    0  0.00000000000E+00  0.00000000000E+00 -0.95969759999E+03  0.95969760000E+03  0.50400001928E-02 0.  1.
    10030    2    1    2    0    0  0.00000000000E+00  0.00000000000E+00 -0.29797520582E+03  0.16214199942E+04  0.15938047479E+04 0.  0.
        5    1    3    3  502    0 -0.50545885474E+03 -0.23297310080E+03 -0.72919046288E+03  0.91733632910E+03  0.46999998093E+01 0.  1.
       -5    1    3    3    0  502  0.50545885474E+03  0.23297310080E+03  0.43121525706E+03  0.70408366509E+03  0.46999998093E+01 0. -1.
</event>
<event>
 5   0  0.1774934E-04  0.1596989E+04  0.7818609E-02  0.8822400E-01
       -2   -1    0    0    0  501  0.00000000000E+00  0.00000000000E+00  0.53773150698E+03  0.53773150698E+03  0.25500000920E-02 0.  1.
        2   -1    0    0  501    0  0.00000000000E+00  0.00000000000E+00 -0.11857097863E+04  0.11857097863E+04  0.25500000920E-02 0. -1.
    10030    2    1    2    0    0  0.00000000000E+00  0.00000000000E+00 -0.64797827934E+03  0.17234412933E+04  0.15969890547E+04 0.  0.
        1    1    3    3  502    0 -0.39220507739E+03 -0.56226862205E+03 -0.76582498867E+03  0.10278417871E+04  0.50400001928E-02 0. -1.
       -1    1    3    3    0  502  0.39220507739E+03  0.56226862205E+03  0.11784670932E+03  0.69559950618E+03  0.50400001928E-02 0.  1.
</event>
<event>
 5   0  0.1835088E-04  0.1594409E+04  0.7818609E-02  0.8823990E-01
        2   -1    0    0  501    0  0.00000000000E+00  0.00000000000E+00  0.10635704142E+04  0.10635704142E+04  0.25500000920E-02 0.  1.
       -2   -1    0    0    0  501  0.00000000000E+00  0.00000000000E+00 -0.59754861643E+03  0.59754861644E+03  0.25500000920E-02 0. -1.
    10030    2    1    2    0    0  0.00000000000E+00  0.00000000000E+00  0.46602179780E+03  0.16611190307E+04  0.15944090184E+04 0.  0.
        5    1    3    3  502    0  0.53103941487E+03 -0.53645971437E+03 -0.34076422257E+02  0.75562899484E+03  0.46999998093E+01 0. -1.
       -5    1    3    3    0  502 -0.53103941487E+03  0.53645971437E+03  0.50009822006E+03  0.90549003583E+03  0.46999998093E+01 0.  1.
</event>
<event>
 5   0  0.1835088E-04  0.1598731E+04  0.7818609E-02  0.8821328E-01
        2   -1    0    0  501    0  0.00000000000E+00  0.00000000000E+00  0.14291281926E+04  0.14291281926E+04  0.25500000920E-02 0. -1.
       -2   -1    0    0    0  501  0.00000000000E+00  0.00000000000E+00 -0.44711549301E+03  0.44711549302E+03  0.25500000920E-02 0.  1.
    10030    2    1    2    0    0  0.00000000000E+00  0.00000000000E+00  0.98201269958E+03  0.18762436856E+04  0.15987311924E+04 0.  0.
        5    1    3    3  502    0  0.14559664348E+02 -0.79895531401E+03  0.46690674972E+03  0.92550828226E+03  0.46999998093E+01 0. -1.
       -5    1    3    3    0  502 -0.14559664348E+02  0.79895531401E+03  0.51510594985E+03  0.95073540335E+03  0.46999998093E+01 0.  1.
</event>
<event>
 5   0  0.9432152E-05  0.1602639E+04  0.7818609E-02  0.8818928E-01
       -1   -1    0    0    0  501  0.00000000000E+00  0.00000000000E+00  0.14893703346E+04  0.14893703346E+04  0.50400001928E-02 0. -1.
        1   -1    0    0  501    0  0.00000000000E+00  0.00000000000E+00 -0.43113053363E+03  0.43113053366E+03  0.50400001928E-02 0.  1.
    10030    2    1    2    0    0  0.00000000000E+00  0.00000000000E+00  0.10582398010E+04  0.19205008683E+04  0.16026391074E+04 0.  0.
        4    1    3    3  502    0  0.66592927970E+02  0.71333622290E+03  0.95923460530E+03  0.11972534510E+04  0.12699999809E+01 0. -1.
       -4    1    3    3    0  502 -0.66592927970E+02 -0.71333622290E+03  0.99005195667E+02  0.72324741730E+03  0.12699999809E+01 0.  1.
</event>
<event>
 5   0  0.9432152E-05  0.1574858E+04  0.7818609E-02  0.8836144E-01
       -1   -1    0    0    0  501  0.00000000000E+00  0.00000000000E+00  0.53286054175E+03  0.53286054178E+03  0.50400001928E-02 0. -1.
        1   -1    0    0  501    0  0.00000000000E+00  0.00000000000E+00 -0.11636155532E+04  0.11636155532E+04  0.50400001928E-02 0.  1.
    10030    2    1    2    0    0  0.00000000000E+00  0.00000000000E+00 -0.63075501144E+03  0.16964760950E+04  0.15748584877E+04 0.  0.
        4    1    3    3  502    0  0.42401264743E+03 -0.60400859509E+03 -0.19522766357E+02  0.73823834866E+03  0.12699999809E+01 0.  1.
       -4    1    3    3    0  502 -0.42401264743E+03  0.60400859509E+03 -0.61123224508E+03  0.95823774631E+03  0.12699999809E+01 0. -1.
</event>
<event>
 5   0  0.9726935E-05  0.1599878E+04  0.7818609E-02  0.8820623E-01
       -1   -1    0    0    0  501  0.00000000000E+00  0.00000000000E+00  0.61089040276E+03  0.61089040278E+03  0.50400001928E-02 0. -1.
        1   -1    0    0  501    0  0.00000000000E+00  0.00000000000E+00 -0.10474915036E+04  0.10474915036E+04  0.50400001928E-02 0.  1.
    10030    2    1    2    0    0  0.00000000000E+00  0.00000000000E+00 -0.43660110087E+03  0.16583819064E+04  0.15998781286E+04 0.  0.
        2    1    3    3  502    0 -0.36359920447E+03 -0.57598170428E+03 -0.65309490294E+03  0.94365897304E+03  0.25500000920E-02 0.  1.
       -2    1    3    3    0  502  0.36359920447E+03  0.57598170428E+03  0.21649380207E+03  0.71472293338E+03  0.25500000920E-02 0. -1.
</event>
<event>
 5   0  0.1774934E-04  0.1599116E+04  0.7818609E-02  0.8821091E-01
       -2   -1    0    0    0  501  0.00000000000E+00  0.00000000000E+00  0.45581641484E+03  0.45581641485E+03  0.25500000920E-02 0.  1.
        2   -1    0    0  501    0  0.00000000000E+00  0.00000000000E+00 -0.14025225866E+04  0.14025225866E+04  0.25500000920E-02 0. -1.
    10030    2    1    2    0    0  0.00000000000E+00  0.00000000000E+00 -0.94670617172E+03  0.18583390014E+04  0.15991157771E+04 0.  0.
        1    1    3    3  502    0  0.29013741827E+03 -0.74380089196E+03 -0.42305493330E+03  0.90354577359E+03  0.50400001928E-02 0.  1.
       -1    1    3    3    0  502 -0.29013741827E+03  0.74380089196E+03 -0.52365123842E+03  0.95479322782E+03  0.50400001928E-02 0. -1.
</event>
<event>
 5   0  0.1835088E-04  0.1608742E+04  0.7818609E-02  0.8815195E-01
       -2   -1    0    0    0  501  0.00000000000E+00  0.00000000000E+00  0.56426276642E+03  0.56426276642E+03  0.25500000920E-02 0.  1.
        2   -1    0    0  501    0  0.00000000000E+00  0.00000000000E+00 -0.11466517243E+04  0.11466517243E+04  0.25500000920E-02 0. -1.
    10030    2    1    2    0    0  0.00000000000E+00  0.00000000000E+00 -0.58238895790E+03  0.17109144907E+04  0.16087422094E+04 0.  0.
        5    1    3    3  502    0 -0.46101682963E+03  0.93967074652E+02  0.40263881333E+03  0.61927896163E+03  0.46999998093E+01 0.  1.
       -5    1    3    3    0  502  0.46101682963E+03 -0.93967074652E+02 -0.98502777124E+03  0.10916355291E+04  0.46999998093E+01 0. -1.
</event>
<event>
 5   0  0.1914170E-04  0.1603870E+04  0.7818609E-02  0.8818174E-01
        2   -1    0    0  501    0  0.00000000000E+00  0.00000000000E+00  0.12379988956E+04  0.12379988956E+04  0.25500000920E-02 0.  1.
       -2   -1    0    0    0  501  0.00000000000E+00  0.00000000000E+00 -0.51946730388E+03  0.51946730388E+03  0.25500000920E-02 0. -1.
    10030    2    1    2    0    0  0.00000000000E+00  0.00000000000E+00  0.71853159173E+03  0.17574661995E+04  0.16038702547E+04 0.  0.
        3    1    3    3  502    0  0.69942214670E+03  0.32336896829E+03  0.11586488282E+03  0.77921980867E+03  0.10100000352E+00 0. -1.
       -3    1    3    3    0  502 -0.69942214670E+03 -0.32336896829E+03  0.60266670891E+03  0.97824639083E+03  0.10100000352E+00 0.  1.
</event>
<event>
 5   0  0.9432152E-05  0.1623251E+04  0.7818609E-02  0.8806390E-01
        1   -1    0    0  501    0  0.00000000000E+00  0.00000000000E+00  0.34180756882E+03  0.34180756886E+03  0.50400001928E-02 0.  1.
       -1   -1    0    0    0  501  0.00000000000E+00  0.00000000000E+00 -0.19272131858E+04  0.19272131858E+04  0.50400001928E-02 0. -1.
    10030    2    1    2    0    0  0.00000000000E+00  0.00000000000E+00 -0.15854056170E+04  0.22690207546E+04  0.16232511250E+04 0.  0.
        4    1    3    3  502    0  0.10635539886E+02  0.81051533560E+03 -0.73530312922E+03  0.10944041889E+04  0.12699999809E+01 0.  1.
       -4    1    3    3    0  502 -0.10635539886E+02 -0.81051533560E+03 -0.85010248774E+03  0.11746165657E+04  0.12699999809E+01 0. -1.
</event>
<event>
 5   0  0.1774934E-04  0.1611004E+04  0.7818609E-02  0.8813816E-01
       -2   -1    0    0    0  501  0.00000000000E+00  0.00000000000E+00  0.76728567320E+03  0.76728567321E+03  0.25500000920E-02 0. -1.
        2   -1    0    0  501    0  0.00000000000E+00  0.00000000000E+00 -0.84562194214E+03  0.84562194214E+03  0.25500000920E-02 0.  1.
    10030    2    1    2    0    0  0.00000000000E+00  0.00000000000E+00 -0.78336268934E+02  0.16129076154E+04  0.16110041603E+04 0.  0.
        1    1    3    3  502    0  0.58452785271E+03  0.33584143603E+03  0.40222840391E+03  0.78501590410E+03  0.50400001928E-02 0. -1.
       -1    1    3    3    0  502 -0.58452785271E+03 -0.33584143603E+03 -0.48056467285E+03  0.82789171125E+03  0.50400001928E-02 0.  1.
</event>
<event>
 5   0  0.9432152E-05  0.1587129E+04  0.7818609E-02  0.8828494E-01
        1   -1    0    0  501    0  0.00000000000E+00  0.00000000000E+00  0.61002138899E+03  0.61002138901E+03  0.50400001928E-02 0.  1.
       -1   -1    0    0    0  501  0.00000000000E+00  0.00000000000E+00 -0.10323322943E+04  0.10323322943E+04  0.50400001928E-02 0. -1.
    10030    2    1    2    0    0  0.00000000000E+00  0.00000000000E+00 -0.42231090530E+03  0.16423536833E+04  0.15871292072E+04 0.  0.
        4    1    3    3  502    0 -0.66086870886E+03  0.35736696513E+03  0.53243466773E+02  0.75318993472E+03  0.12699999809E+01 0. -1.
       -4    1    3    3    0  502  0.66086870886E+03 -0.35736696513E+03 -0.47555437208E+03  0.88916374859E+03  0.12699999809E+01 0.  1.
</event>
<event>
 5   0  0.1914170E-04  0.1604120E+04  0.7818609E-02  0.8818021E-01
       -2   -1    0    0    0  501  0.00000000000E+00  0.00000000000E+00  0.39711094217E+03  0.39711094218E+03  0.25500000920E-02 0.  1.
        2   -1    0    0  501    0  0.00000000000E+00  0.00000000000E+00 -0.16199505070E+04  0.16199505070E+04  0.25500000920E-02 0. -1.
    10030    2    1    2    0    0  0.00000000000E+00  0.00000000000E+00 -0.12228395648E+04  0.20170614492E+04  0.16041197862E+04 0.  0.
        3    1    3    3  502    0  0.33695017181E+03  0.45813528028E+03 -0.13225901339E+04  0.14396763614E+04  0.10100000352E+00 0. -1.
       -3    1    3    3    0  502 -0.33695017181E+03 -0.45813528028E+03  0.99750569036E+02  0.57738508774E+03  0.10100000352E+00 0.  1.
</event>
<event>
 5   0  0.1858913E-04  0.1598347E+04  0.7818609E-02  0.8821564E-01
        2   -1    0    0  501    0  0.00000000000E+00  0.00000000000E+00  0.10298074112E+04  0.10298074112E+04  0.25500000920E-02 0.  1.
       -2   -1    0    0    0  501  0.00000000000E+00  0.00000000000E+00 -0.62019176900E+03  0.62019176900E+03  0.25500000920E-02 0. -1.
    10030    2    1    2    0    0  0.00000000000E+00  0.00000000000E+00  0.40961564220E+03  0.16499991802E+04  0.15983467460E+04 0.  0.
        4    1    3    3  502    0 -0.61666938905E+01 -0.26606419513E+03 -0.57310133952E+03  0.63188206361E+03  0.12699999809E+01 0. -1.
       -4    1    3    3    0  502  0.61666938905E+01  0.26606419513E+03  0.98271698173E+03  0.10181171166E+04  0.12699999809E+01 0.  1.
</event>
<event>
 5   0  0.9673017E-05  0.1659491E+04  0.7818609E-02  0.8784812E-01
       -1   -1    0    0    0  501  0.00000000000E+00  0.00000000000E+00  0.71959863274E+03  0.71959863276E+03  0.50400001928E-02 0. -1.
        1   -1    0    0  501    0  0.00000000000E+00  0.00000000000E+00 -0.95675168712E+03  0.95675168714E+03  0.50400001928E-02 0.  1.
    10030    2    1    2    0    0  0.00000000000E+00  0.00000000000E+00 -0.23715305438E+03  0.16763503199E+04  0.16594905314E+04 0.  0.
        1    1    3    3  502    0 -0.50463481683E+03  0.23573221449E+03 -0.73984623375E+03  0.92606610181E+03  0.50400001928E-02 0.  1.
       -1    1    3    3    0  502  0.50463481683E+03 -0.23573221449E+03  0.50269317937E+03  0.75028421809E+03  0.50400001928E-02 0. -1.
</event>
<event>
 5   0  0.1774934E-04  0.1584057E+04  0.7818609E-02  0.8830403E-01
        2   -1    0    0  501    0  0.00000000000E+00  0.00000000000E+00  0.49275698846E+03  0.49275698846E+03  0.25500000920E-02 0. -1.
       -2   -1    0    0    0  501  0.00000000000E+00  0.00000000000E+00 -0.12730601794E+04  0.12730601794E+04  0.25500000920E-02 0.  1.
    10030    2    1    2    0    0  0.00000000000E+00  0.00000000000E+00 -0.78030319095E+03  0.17658171679E+04  0.15840571961E+04 0.  0.
        1    1    3    3  502    0 -0.61159641689E+03  0.84547557510E+02 -0.94317083632E+03  0.11272842113E+04  0.50400001928E-02 0.  1.
       -1    1    3    3    0  502  0.61159641689E+03 -0.84547557510E+02  0.16286764537E+03  0.63853295653E+03  0.50400001928E-02 0. -1.
</event>
<event>
 5   0  0.9616567E-05  0.1591128E+04  0.7818609E-02  0.8826017E-01
        1   -1    0    0  501    0  0.00000000000E+00  0.00000000000E+00  0.80458101206E+03  0.80458101208E+03  0.50400001928E-02 0.  1.
       -1   -1    0    0    0  501  0.00000000000E+00  0.00000000000E+00 -0.78664840160E+03  0.78664840161E+03  0.50400001928E-02 0. -1.
    10030    2    1    2    0    0  0.00000000000E+00  0.00000000000E+00  0.17932610469E+02  0.15912294137E+04  0.15911283633E+04 0.  0.
        5    1    3    3  502    0 -0.15525707902E+03  0.76000521724E+03  0.18557759535E+03  0.79760505559E+03  0.46999998093E+01 0. -1.
       -5    1    3    3    0  502  0.15525707902E+03 -0.76000521724E+03 -0.16764498488E+03  0.79362435810E+03  0.46999998093E+01 0.  1.
</event>
<event>
 5   0  0.9616567E-05  0.1599900E+04  0.7818609E-02  0.8820609E-01
        1   -1    0    0  501    0  0.00000000000E+00  0.00000000000E+00  0.16398527353E+04  0.16398527353E+04  0.50400001928E-02 0.  1.
       -1   -1    0    0    0  501  0.00000000000E+00  0.00000000000E+00 -0.39023035765E+03  0.39023035768E+03  0.50400001928E-02 0. -1.
    10030    2    1    2    0    0  0.00000000000E+00  0.00000000000E+00  0.12496223776E+04  0.20300830930E+04  0.15999003962E+04 0.  0.
        5    1    3    3  502    0  0.22189886867E+03  0.45698550554E+03 -0.15925390758E+03  0.53240844966E+03  0.46999998093E+01 0. -1.
       -5    1    3    3    0  502 -0.22189886867E+03 -0.45698550554E+03  0.14088762852E+04  0.14976746433E+04  0.46999998093E+01 0.  1.
</event>
<event>
 5   0  0.9432152E-05  0.1596651E+04  0.7818609E-02  0.8822608E-01
       -1   -1    0    0    0  501  0.00000000000E+00  0.00000000000E+00  0.33841817158E+03  0.33841817162E+03  0.50400001928E-02 0. -1.
        1   -1    0    0  501    0  0.00000000000E+00  0.00000000000E+00 -0.18832432182E+04  0.18832432182E+04  0.50400001928E-02 0.  1.
    10030    2    1    2    0    0  0.00000000000E+00  0.00000000000E+00 -0.15448250466E+04  0.22216613898E+04  0.15966511536E+04 0.  0.
        4    1    3    3  502    0  0.68498659288E+03  0.27806975605E+03 -0.11916820276E+04  0.14023683858E+04  0.12699999809E+01 0.  1.
       -4    1    3    3    0  502 -0.68498659288E+03 -0.27806975605E+03 -0.35314301901E+03  0.81929300402E+03  0.12699999809E+01 0. -1.
</event>
<event>
 5   0  0.9939872E-05  0.1595741E+04  0.7818609E-02  0.8823169E-01
       -1   -1    0    0    0  501  0.00000000000E+00  0.00000000000E+00  0.74797094170E+03  0.74797094172E+03  0.50400001928E-02 0. -1.
        1   -1    0    0  501    0  0.00000000000E+00  0.00000000000E+00 -0.85109916116E+03  0.85109916117E+03  0.50400001928E-02 0.  1.
    10030    2    1    2    0    0  0.00000000000E+00  0.00000000000E+00 -0.10312821945E+03  0.15990701029E+04  0.15957411332E+04 0.  0.
        3    1    3    3  502    0  0.44711715986E+03  0.45505655593E+03 -0.53173720421E+03  0.83050267205E+03  0.10100000352E+00 0.  1.
       -3    1    3    3    0  502 -0.44711715986E+03 -0.45505655593E+03  0.42860898476E+03  0.76856743084E+03  0.10100000352E+00 0. -1.
</event>
<event>
 5   0  0.9939872E-05  0.1601102E+04  0.7818609E-02  0.8819871E-01
       -1   -1    0    0    0  501  0.00000000000E+00  0.00000000000E+00  0.75824061161E+03  0.75824061163E+03  0.50400001928E-02 0.  1.
        1   -1    0    0  501    0  0.00000000000E+00  0.00000000000E+00 -0.84522236928E+03  0.84522236929E+03  0.50400001928E-02 0. -1.
    10030    2    1    2    0    0  0.00000000000E+00  0.00000000000E+00 -0.86981757662E+02  0.16034629809E+04  0.16011020283E+04 0.  0.
        3    1    3    3  502    0  0.11329695351E+02  0.42882305108E+03 -0.72040498279E+03  0.83845150162E+03  0.10100000352E+00 0. -1.
       -3    1    3    3    0  502 -0.11329695351E+02 -0.42882305108E+03  0.63342322513E+03  0.76501147930E+03  0.10100000352E+00 0.  1.
</event>
<event>
 5   0  0.9432152E-05  0.1601823E+04  0.7818609E-02  0.8819429E-01
        1   -1    0    0  501    0  0.00000000000E+00  0.00000000000E+00  0.18044711798E+04  0.18044711798E+04  0.50400001928E-02 0.  1.
       -1   -1    0    0    0  501  0.00000000000E+00  0.00000000000E+00 -0.35548324807E+03  0.35548324811E+03  0.50400001928E-02 0. -1.
    10030    2    1    2    0    0  0.00000000000E+00  0.00000000000E+00  0.14489879317E+04  0.21599544279E+04  0.16018230565E+04 0.  0.
        4    1    3    3  502    0 -0.54723270996E+03  0.13563703281E+03  0.14915587341E+04  0.15945564003E+04  0.12699999809E+01 0.  1.
       -4    1    3    3    0  502  0.54723270996E+03 -0.13563703281E+03 -0.42570802388E+02  0.56539802762E+03  0.12699999809E+01 0. -1.
</event>
<event>
 5   0  0.9939872E-05  0.1594809E+04  0.7818609E-02  0.8823743E-01
       -1   -1    0    0    0  501  0.00000000000E+00  0.00000000000E+00  0.67432775300E+03  0.67432775301E+03  0.50400001928E-02 0. -1.
        1   -1    0    0  501    0  0.00000000000E+00  0.00000000000E+00 -0.94294533875E+03  0.94294533876E+03  0.50400001928E-02 0.  1.
    10030    2    1    2    0    0  0.00000000000E+00  0.00000000000E+00 -0.26861758575E+03  0.16172730918E+04  0.15948093447E+04 0.  0.
        3    1    3    3  502    0 -0.58866852209E+03 -0.41367792932E+03 -0.48294506364E+03  0.86654255683E+03  0.10100000352E+00 0.  1.
       -3    1    3    3    0  502  0.58866852209E+03  0.41367792932E+03  0.21432747789E+03  0.75073053494E+03  0.10100000352E+00 0. -1.
</event>
<event>
 5   0  0.9673017E-05  0.1596757E+04  0.7818609E-02  0.8822543E-01
       -1   -1    0    0    0  501  0.00000000000E+00  0.00000000000E+00  0.47250176704E+03  0.47250176707E+03  0.50400001928E-02 0. -1.
        1   -1    0    0  501    0  0.00000000000E+00  0.00000000000E+00 -0.13490067674E+04  0.13490067674E+04  0.50400001928E-02 0.  1.
    10030    2    1    2    0    0  0.00000000000E+00  0.00000000000E+00 -0.87650500034E+03  0.18215085345E+04  0.15967568148E+04 0.  0.
        1    1    3    3  502    0  0.69412319696E+03  0.30880573397E+02  0.10352207021E+02  0.69488689050E+03  0.50400001928E-02 0. -1.
       -1    1    3    3    0  502 -0.69412319696E+03 -0.30880573397E+02 -0.88685720737E+03  0.11266216440E+04  0.50400001928E-02 0.  1.
</event>
<event>
 5   0  0.9616567E-05  0.1602425E+04  0.7818609E-02  0.8819060E-01
       -1   -1    0    0    0  501  0.00000000000E+00  0.00000000000E+00  0.45157058540E+03  0.45157058543E+03  0.50400001928E-02 0.  1.
        1   -1    0    0  501    0  0.00000000000E+00  0.00000000000E+00 -0.14215753796E+04  0.14215753796E+04  0.50400001928E-02 0. -1.
    10030    2    1    2    0    0  0.00000000000E+00  0.00000000000E+00 -0.97000479420E+03  0.18731459650E+04  0.16024251950E+04 0.  0.
        5    1    3    3  502    0  0.28223714144E+03  0.55845424285E+03  0.99926206063E+02  0.63366890568E+03  0.46999998093E+01 0.  1.
       -5    1    3    3    0  502 -0.28223714144E+03 -0.55845424285E+03 -0.10699310003E+04  0.12394770594E+04  0.46999998093E+01 0. -1.
</event>
<event>
 5   0  0.1914170E-04  0.1607388E+04  0.7818609E-02  0.8816022E-01
       -2   -1    0    0    0  501  0.00000000000E+00  0.00000000000E+00  0.79959360667E+03  0.79959360667E+03  0.25500000920E-02 0.  1.
        2   -1    0    0  501    0  0.00000000000E+00  0.00000000000E+00 -0.80781501241E+03  0.80781501241E+03  0.25500000920E-02 0. -1.
    10030    2    1    2    0    0  0.00000000000E+00  0.00000000000E+00 -0.82214057437E+01  0.16074086191E+04  0.16073875940E+04 0.  0.
        3    1    3    3  502    0  0.58049909371E+03 -0.46049544982E+03  0.30716246763E+03  0.80211224204E+03  0.10100000352E+00 0.  1.
       -3    1    3    3    0  502 -0.58049909371E+03  0.46049544982E+03 -0.31538387337E+03  0.80529637705E+03  0.10100000352E+00 0. -1.
</event>
<event>
 5   0  0.1832646E-04  0.1601485E+04  0.7818609E-02  0.8819636E-01
       -2   -1    0    0    0  501  0.00000000000E+00  0.00000000000E+00  0.80282484379E+03  0.80282484379E+03  0.25500000920E-02 0. -1.
        2   -1    0    0  501    0  0.00000000000E+00  0.00000000000E+00 -0.79866527885E+03  0.79866527885E+03  0.25500000920E-02 0.  1.
    10030    2    1    2    0    0  0.00000000000E+00  0.00000000000E+00  0.41595649377E+01  0.16014901226E+04  0.16014847208E+04 0.  0.
        2    1    3    3  502    0 -0.59764470660E+03  0.30347802201E+03  0.44015685012E+03  0.80188288290E+03  0.25500000920E-02 0. -1.
       -2    1    3    3    0  502  0.59764470660E+03 -0.30347802201E+03 -0.43599728518E+03  0.79960723975E+03  0.25500000920E-02 0.  1.
</event>
<event>
 5   0  0.9616567E-05  0.1596648E+04  0.7818609E-02  0.8822610E-01
       -1   -1    0    0    0  501  0.00000000000E+00  0.00000000000E+00  0.51807704098E+03  0.51807704101E+03  0.50400001928E-02 0.  1.
        1   -1    0    0  501    0  0.00000000000E+00  0.00000000000E+00 -0.12301673669E+04  0.12301673669E+04  0.50400001928E-02 0. -1.
    10030    2    1    2    0    0  0.00000000000E+00  0.00000000000E+00 -0.71209032593E+03  0.17482444079E+04  0.15966483262E+04 0.  0.
        5    1    3    3  502    0 -0.77516507909E+03 -0.11557206594E+03 -0.52232415376E+03  0.94185052628E+03  0.46999998093E+01 0. -1.
       -5    1    3    3    0  502  0.77516507909E+03  0.11557206594E+03 -0.18976617217E+03  0.80639388165E+03  0.46999998093E+01 0.  1.
</event>
<event>
 5   0  0.1914170E-04  0.1600257E+04  0.7818609E-02  0.8820390E-01
       -2   -1    0    0    0  501  0.00000000000E+00  0.00000000000E+00  0.64515836125E+03  0.64515836125E+03  0.25500000920E-02 0. -1.
        2   -1    0    0  501    0  0.00000000000E+00  0.00000000000E+00 -0.99232271286E+03  0.99232271286E+03  0.25500000920E-02 0.  1.
    10030    2    1    2    0    0  0.00000000000E+00  0.00000000000E+00 -0.34716435161E+03  0.16374810741E+04  0.16002565985E+04 0.  0.
        3    1    3    3  502    0  0.11030805975E+03  0.20828252591E+03 -0.95599650596E+03  0.98462114961E+03  0.10100000352E+00 0.  1.
       -3    1    3    3    0  502 -0.11030805975E+03 -0.20828252591E+03  0.60883215435E+03  0.65285992450E+03  0.10100000352E+00 0. -1.
</event>
<event>
 5   0  0.1774934E-04  0.1595834E+04  0.7818609E-02  0.8823111E-01
       -2   -1    0    0    0  501  0.00000000000E+00  0.00000000000E+00  0.31179296544E+03  0.31179296545E+03  0.25500000920E-02 0. -1.
        2   -1    0    0  501    0  0.00000000000E+00  0.00000000000E+00 -0.20419689626E+04  0.20419689626E+04  0.25500000920E-02 0.  1.
    10030    2    1    2    0    0  0.00000000000E+00  0.00000000000E+00 -0.17301759971E+04  0.23537619280E+04  0.15958340242E+04 0.  0.
        1    1    3    3  502    0 -0.46751447336E+03  0.27721659984E+02  0.87743982552E+02  0.47648429117E+03  0.50400001928E-02 0. -1.
       -1    1    3    3    0  502  0.46751447336E+03 -0.27721659984E+02 -0.18179199797E+04  0.18772776369E+04  0.50400001928E-02 0.  1.
</event>
<event>
 5   0  0.1858913E-04  0.1592671E+04  0.7818609E-02  0.8825063E-01
        2   -1    0    0  501    0  0.00000000000E+00  0.00000000000E+00  0.22805901189E+04  0.22805901189E+04  0.25500000920E-02 0.  1.
       -2   -1    0    0    0  501  0.00000000000E+00  0.00000000000E+00 -0.27806417293E+03  0.27806417294E+03  0.25500000920E-02 0. -1.
    10030    2    1    2    0    0  0.00000000000E+00  0.00000000000E+00  0.20025259460E+04  0.25586542919E+04  0.15926712219E+04 0.  0.
        4    1    3    3  502    0  0.53260613437E+03 -0.29893164177E+03  0.18033505757E+03  0.63682946438E+03  0.12699999809E+01 0. -1.
       -4    1    3    3    0  502 -0.53260613437E+03  0.29893164177E+03  0.18221908884E+04  0.19218248275E+04  0.12699999809E+01 0.  1.
</event>
<event>
 5   0  0.1832646E-04  0.1598247E+04  0.7818609E-02  0.8821626E-01
       -2   -1    0    0    0  501  0.00000000000E+00  0.00000000000E+00  0.56437358369E+03  0.56437358369E+03  0.25500000920E-02 0.  1.
        2   -1    0    0  501    0  0.00000000000E+00  0.00000000000E+00 -0.11315168182E+04  0.11315168182E+04  0.25500000920E-02 0. -1.
    10030    2    1    2    0    0  0.00000000000E+00  0.00000000000E+00 -0.56714323452E+03  0.16958904019E+04  0.15982467916E+04 0.  0.
        2    1    3    3  502    0  0.45952464872E+03 -0.52178998728E+03 -0.70155453384E+03  0.98772792689E+03  0.25500000920E-02 0. -1.
       -2    1    3    3    0  502 -0.45952464872E+03  0.52178998728E+03  0.13441129932E+03  0.70816247500E+03  0.25500000920E-02 0.  1.
</event>
<event>
 5   0  0.9616567E-05  0.1582557E+04  0.7818609E-02  0.8831336E-01
        1   -1    0    0  501    0  0.00000000000E+00  0.00000000000E+00  0.62073245078E+03  0.62073245080E+03  0.50400001928E-02 0.  1.
       -1   -1    0    0    0  501  0.00000000000E+00  0.00000000000E+00 -0.10086818773E+04  0.10086818773E+04  0.50400001928E-02 0. -1.
    10030    2    1    2    0    0  0.00000000000E+00  0.00000000000E+00 -0.38794942653E+03  0.16294143281E+04  0.15825568853E+04 0.  0.
        5    1    3    3  502    0 -0.22563388968E+03  0.44050214773E+03  0.44167561725E+03  0.66336433067E+03  0.46999998093E+01 0.  1.
       -5    1    3    3    0  502  0.22563388968E+03 -0.44050214773E+03 -0.82962504378E+03  0.96604999746E+03  0.46999998093E+01 0. -1.
</event>
<event>
 5   0  0.1832646E-04  0.1598065E+04  0.7818609E-02  0.8821737E-01
        2   -1    0    0  501    0  0.00000000000E+00  0.00000000000E+00  0.44098140648E+03  0.44098140649E+03  0.25500000920E-02 0.  1.
       -2   -1    0    0    0  501  0.00000000000E+00  0.00000000000E+00 -0.14478008252E+04  0.14478008252E+04  0.25500000920E-02 0. -1.
    10030    2    1    2    0    0  0.00000000000E+00  0.00000000000E+00 -0.10068194187E+04  0.18887822317E+04  0.15980653856E+04 0.  0.
        2    1    3    3  502    0 -0.16394541101E+03 -0.71598904578E+03 -0.13165031176E+03  0.74622397178E+03  0.25500000920E-02 0.  1.
       -2    1    3    3    0  502  0.16394541101E+03  0.71598904578E+03 -0.87516910695E+03  0.11425582599E+04  0.25500000920E-02 0. -1.
</event>
<event>
 5   0  0.9616567E-05  0.1604824E+04  0.7818609E-02  0.8817590E-01
       -1   -1    0    0    0  501  0.00000000000E+00  0.00000000000E+00  0.54637381811E+03  0.54637381813E+03  0.50400001928E-02 0. -1.
        1   -1    0    0  501    0  0.00000000000E+00  0.00000000000E+00 -0.11784326746E+04  0.11784326746E+04  0.50400001928E-02 0.  1.
    10030    2    1    2    0    0  0.00000000000E+00  0.00000000000E+00 -0.63205885646E+03  0.17248064927E+04  0.16048236786E+04 0.  0.
        5    1    3    3  502    0  0.35919912630E+03  0.10408664500E+03 -0.10790244420E+04  0.11420043250E+04  0.46999998093E+01 0.  1.
       -5    1    3    3    0  502 -0.35919912630E+03 -0.10408664500E+03  0.44696558553E+03  0.58280216768E+03  0.46999998093E+01 0. -1.
</event>
<event>
 5   0  0.9726935E-05  0.1603415E+04  0.7818609E-02  0.8818453E-01
        1   -1    0    0  501    0  0.00000000000E+00  0.00000000000E+00  0.78847529717E+03  0.78847529718E+03  0.50400001928E-02 0. -1.
       -1   -1    0    0    0  501  0.00000000000E+00  0.00000000000E+00 -0.81516220661E+03  0.81516220663E+03  0.50400001928E-02 0.  1.
    10030    2    1    2    0    0  0.00000000000E+00  0.00000000000E+00 -0.26686909446E+02  0.16036375038E+04  0.16034154335E+04 0.  0.
        2    1    3    3  502    0 -0.35559428134E+03 -0.26479281298E+03 -0.68139759419E+03  0.81293616484E+03  0.25500000920E-02 0.  1.
       -2    1    3    3    0  502  0.35559428134E+03  0.26479281298E+03  0.65471068475E+03  0.79070133897E+03  0.25500000920E-02 0. -1.
</event>
<event>
 5   0  0.9726935E-05  0.1593828E+04  0.7818609E-02  0.8824349E-01
       -1   -1    0    0    0  501  0.00000000000E+00  0.00000000000E+00  0.33772834165E+03  0.33772834169E+03  0.50400001928E-02 0. -1.
        1   -1    0    0  501    0  0.00000000000E+00  0.00000000000E+00 -0.18804221590E+04  0.18804221590E+04  0.50400001928E-02 0.  1.
    10030    2    1    2    0    0  0.00000000000E+00  0.00000000000E+00 -0.15426938173E+04  0.22181505007E+04  0.15938279172E+04 0.  0.
        2    1    3    3  502    0  0.19512679254E+03  0.17065683545E+03  0.27741144607E+03  0.37967793071E+03  0.25500000920E-02 0. -1.
       -2    1    3    3    0  502 -0.19512679254E+03 -0.17065683545E+03 -0.18201052634E+04  0.18384725699E+04  0.25500000920E-02 0.  1.
</event>
<event>
 5   0  0.9432152E-05  0.1599557E+04  0.7818609E-02  0.8820820E-01
       -1   -1    0    0    0  501  0.00000000000E+00  0.00000000000E+00  0.34193891235E+03  0.34193891238E+03  0.50400001928E-02 0. -1.
        1   -1    0    0  501    0  0.00000000000E+00  0.00000000000E+00 -0.18706436660E+04  0.18706436660E+04  0.50400001928E-02 0.  1.
    10030    2    1    2    0    0  0.00000000000E+00  0.00000000000E+00 -0.15287047536E+04  0.22125825783E+04  0.15995572645E+04 0.  0.
        4    1    3    3  502    0 -0.57122639228E+03 -0.42305848700E+03 -0.25730951871E+03  0.75596817127E+03  0.12699999809E+01 0. -1.
       -4    1    3    3    0  502  0.57122639228E+03  0.42305848700E+03 -0.12713952349E+04  0.14566144071E+04  0.12699999809E+01 0.  1.
</event>
<event>
 5   0  0.1774934E-04  0.1599954E+04  0.7818609E-02  0.8820576E-01
        2   -1    0    0  501    0  0.00000000000E+00  0.00000000000E+00  0.12678872684E+04  0.12678872684E+04  0.25500000920E-02 0.  1.
       -2   -1    0    0    0  501  0.00000000000E+00  0.00000000000E+00 -0.50474791751E+03  0.50474791752E+03  0.25500000920E-02 0. -1.
    10030    2    1    2    0    0  0.00000000000E+00  0.00000000000E+00  0.76313935085E+03  0.17726351859E+04  0.15999543223E+04 0.  0.
        1    1    3    3  502    0  0.43744126411E+03 -0.31888924674E+03 -0.27099769316E+03  0.60538001368E+03  0.50400001928E-02 0. -1.
       -1    1    3    3    0  502 -0.43744126411E+03  0.31888924674E+03  0.10341370440E+04  0.11672551722E+04  0.50400001928E-02 0.  1.
</event>
<event>
 5   0  0.1858913E-04  0.1595848E+04  0.7818609E-02  0.8823103E-01
        2   -1    0    0  501    0  0.00000000000E+00  0.00000000000E+00  0.95832682552E+03  0.95832682552E+03  0.25500000920E-02 0.  1.
       -2   -1    0    0    0  501  0.00000000000E+00  0.00000000000E+00 -0.66436871161E+03  0.66436871162E+03  0.25500000920E-02 0. -1.
    10030    2    1    2    0    0  0.00000000000E+00  0.00000000000E+00  0.29395811390E+03  0.16226955371E+04  0.15958475596E+04 0.  0.
        4    1    3    3  502    0 -0.10052222105E+03 -0.78470344276E+03  0.41226779912E+02  0.79219029929E+03  0.12699999809E+01 0. -1.
       -4    1    3    3    0  502  0.10052222105E+03  0.78470344276E+03  0.25273133399E+03  0.83050523785E+03  0.12699999809E+01 0.  1.
</event>
<event>
 5   0  0.9939872E-05  0.1596057E+04  0.7818609E-02  0.8822974E-01
        1   -1    0    0  501    0  0.00000000000E+00  0.00000000000E+00  0.53395672315E+03  0.53395672317E+03  0.50400001928E-02 0. -1.
       -1   -1    0    0    0  501  0.00000000000E+00  0.00000000000E+00 -0.11926989231E+04  0.11926989231E+04  0.50400001928E-02 0.  1.
    10030    2    1    2    0    0  0.00000000000E+00  0.00000000000E+00 -0.65874219995E+03  0.17266556463E+04  0.15960571527E+04 0.  0.
        3    1    3    3  502    0  0.39328510504E+03  0.55495714145E+03  0.12215214986E+03  0.69106567025E+03  0.10100000352E+00 0.  1.
       -3    1    3    3    0  502 -0.39328510504E+03 -0.55495714145E+03 -0.78089434981E+03  0.10355899760E+04  0.10100000352E+00 0. -1.
</event>
<event>
 5   0  0.1914170E-04  0.1597603E+04  0.7818609E-02  0.8822022E-01
       -2   -1    0    0    0  501  0.00000000000E+00  0.00000000000E+00  0.35598792666E+03  0.35598792667E+03  0.25500000920E-02 0.  1.
        2   -1    0    0  501    0  0.00000000000E+00  0.00000000000E+00 -0.17924304567E+04  0.17924304567E+04  0.25500000920E-02 0. -1.
    10030    2    1    2    0    0  0.00000000000E+00  0.00000000000E+00 -0.14364425300E+04  0.21484183834E+04  0.15976027065E+04 0.  0.
        3    1    3    3  502    0 -0.58089018432E+03 -0.10645429633E+03 -0.14415530516E+04  0.15578321906E+04  0.10100000352E+00 0. -1.
       -3    1    3    3    0  502  0.58089018432E+03  0.10645429633E+03  0.51105215152E+01  0.59058619276E+03  0.10100000352E+00 0.  1.
</event>
<event>
 5   0  0.9939872E-05  0.1632360E+04  0.7818609E-02  0.8800911E-01
        1   -1    0    0  501    0  0.00000000000E+00  0.00000000000E+00  0.68247800856E+03  0.68247800858E+03  0.50400001928E-02 0.  1.
       -1   -1    0    0    0  501  0.00000000000E+00  0.00000000000E+00 -0.97607517547E+03  0.97607517548E+03  0.50400001928E-02 0. -1.
    10030    2    1    2    0    0  0.00000000000E+00  0.00000000000E+00 -0.29359716691E+03  0.16585531841E+04  0.16323600608E+04 0.  0.
        3    1    3    3  502    0  0.71373877553E+02 -0.39159062877E+03 -0.87077149897E+03  0.95743431344E+03  0.10100000352E+00 0. -1.
       -3    1    3    3    0  502 -0.71373877553E+02  0.39159062877E+03  0.57717433206E+03  0.70111887061E+03  0.10100000352E+00 0.  1.
</event>
<event>
 5   0  0.9726935E-05  0.1610135E+04  0.7818609E-02  0.8814346E-01
        1   -1    0    0  501    0  0.00000000000E+00  0.00000000000E+00  0.83786069959E+03  0.83786069960E+03  0.50400001928E-02 0. -1.
       -1   -1    0    0    0  501  0.00000000000E+00  0.00000000000E+00 -0.77355740107E+03  0.77355740108E+03  0.50400001928E-02 0.  1.
    10030    2    1    2    0    0  0.00000000000E+00  0.00000000000E+00  0.64303298521E+02  0.16114181007E+04  0.16101345848E+04 0.  0.
        2    1    3    3  502    0  0.94785609034E+02 -0.66880371584E+03  0.47050836693E+03  0.82320158246E+03  0.25500000920E-02 0. -1.
       -2    1    3    3    0  502 -0.94785609034E+02  0.66880371584E+03 -0.40620506841E+03  0.78821651823E+03  0.25500000920E-02 0.  1.
</event>
<event>
 5   0  0.1832646E-04  0.1576077E+04  0.7818609E-02  0.8835381E-01
       -2   -1    0    0    0  501  0.00000000000E+00  0.00000000000E+00  0.84863117453E+03  0.84863117454E+03  0.25500000920E-02 0.  1.
        2   -1    0    0  501    0  0.00000000000E+00  0.00000000000E+00 -0.73177178738E+03  0.73177178739E+03  0.25500000920E-02 0. -1.
    10030    2    1    2    0    0  0.00000000000E+00  0.00000000000E+00  0.11685938715E+03  0.15804029619E+04  0.15760765862E+04 0.  0.
        2    1    3    3  502    0 -0.36626054254E+03 -0.12266746508E+03  0.74719966978E+03  0.84113104718E+03  0.25500000920E-02 0.  1.
       -2    1    3    3    0  502  0.36626054254E+03  0.12266746508E+03 -0.63034028263E+03  0.73927191474E+03  0.25500000920E-02 0. -1.
</event>
<event>
 5   0  0.9616567E-05  0.1597531E+04  0.7818609E-02  0.8822066E-01
        1   -1    0    0  501    0  0.00000000000E+00  0.00000000000E+00  0.12644014966E+04  0.12644014966E+04  0.50400001928E-02 0. -1.
       -1   -1    0    0    0  501  0.00000000000E+00  0.00000000000E+00 -0.50460743482E+03  0.50460743484E+03  0.50400001928E-02 0.  1.
    10030    2    1    2    0    0  0.00000000000E+00  0.00000000000E+00  0.75979406181E+03  0.17690089315E+04  0.15975310899E+04 0.  0.
        5    1    3    3  502    0  0.25189160973E+03  0.58751381269E+03  0.91024485745E+03  0.11122902740E+04  0.46999998093E+01 0. -1.
       -5    1    3    3    0  502 -0.25189160973E+03 -0.58751381269E+03 -0.15045079564E+03  0.65671865746E+03  0.46999998093E+01 0.  1.
</event>
<event>
 5   0  0.9673017E-05  0.1607844E+04  0.7818609E-02  0.8815743E-01
        1   -1    0    0  501    0  0.00000000000E+00  0.00000000000E+00  0.70780163323E+03  0.70780163324E+03  0.50400001928E-02 0.  1.
       -1   -1    0    0    0  501  0.00000000000E+00  0.00000000000E+00 -0.91309590274E+03  0.91309590275E+03  0.50400001928E-02 0. -1.
    10030    2    1    2    0    0  0.00000000000E+00  0.00000000000E+00 -0.20529426951E+03  0.16208975360E+04  0.16078442353E+04 0.  0.
        1    1    3    3  502    0 -0.32802134787E+03 -0.29834532120E+03 -0.77867522918E+03  0.89607089447E+03  0.50400001928E-02 0.  1.
       -1    1    3    3    0  502  0.32802134787E+03  0.29834532120E+03  0.57338095967E+03  0.72482664153E+03  0.50400001928E-02 0. -1.
</event>
<event>
 5   0  0.1858913E-04  0.1602742E+04  0.7818609E-02  0.8818865E-01
       -2   -1    0    0    0  501  0.00000000000E+00  0.00000000000E+00  0.54600482198E+03  0.54600482199E+03  0.25500000920E-02 0.  1.
        2   -1    0    0  501    0  0.00000000000E+00  0.00000000000E+00 -0.11761719976E+04  0.11761719976E+04  0.25500000920E-02 0. -1.
    10030    2    1    2    0    0  0.00000000000E+00  0.00000000000E+00 -0.63016717560E+03  0.17221768196E+04  0.16027421279E+04 0.  0.
        4    1    3    3  502    0 -0.18154059560E+03 -0.73265647321E+03 -0.60430983244E+03  0.96692010118E+03  0.12699999809E+01 0.  1.
       -4    1    3    3    0  502  0.18154059560E+03  0.73265647321E+03 -0.25857343164E+02  0.75525671839E+03  0.12699999809E+01 0. -1.
</event>
<event>
 5   0  0.9673017E-05  0.1598269E+04  0.7818609E-02  0.8821612E-01
        1   -1    0    0  501    0  0.00000000000E+00  0.00000000000E+00  0.86132595298E+03  0.86132595299E+03  0.50400001928E-02 0. -1.
       -1   -1    0    0    0  501  0.00000000000E+00  0.00000000000E+00 -0.74143344373E+03  0.74143344375E+03  0.50400001928E-02 0.  1.
    10030    2    1    2    0    0  0.00000000000E+00  0.00000000000E+00  0.11989250925E+03  0.16027593967E+04  0.15982688979E+04 0.  0.
        1    1    3    3  502    0 -0.17430226184E+03  0.68358487246E+03 -0.31653671939E+03  0.77321733755E+03  0.50400001928E-02 0.  1.
       -1    1    3    3    0  502  0.17430226184E+03 -0.68358487246E+03  0.43642922864E+03  0.82954205919E+03  0.50400001928E-02 0. -1.
</event>
<event>
 5   0  0.1858913E-04  0.1596427E+04  0.7818609E-02  0.8822746E-01
       -2   -1    0    0    0  501  0.00000000000E+00  0.00000000000E+00  0.11385524084E+04  0.11385524084E+04  0.25500000920E-02 0.  1.
        2   -1    0    0  501    0  0.00000000000E+00  0.00000000000E+00 -0.55960920080E+03  0.55960920080E+03  0.25500000920E-02 0. -1.
    10030    2    1    2    0    0  0.00000000000E+00  0.00000000000E+00  0.57894320764E+03  0.16981616092E+04  0.15964265136E+04 0.  0.
        4    1    3    3  502    0 -0.55884627670E+03  0.52840484281E+03  0.62267058162E+02  0.77162143459E+03  0.12699999809E+01 0. -1.
       -4    1    3    3    0  502  0.55884627670E+03 -0.52840484281E+03  0.51667614947E+03  0.92654017464E+03  0.12699999809E+01 0.  1.
</event>
<event>
 5   0  0.1835088E-04  0.1595826E+04  0.7818609E-02  0.8823117E-01
        2   -1    0    0  501    0  0.00000000000E+00  0.00000000000E+00  0.11363899533E+04  0.11363899533E+04  0.25500000920E-02 0.  1.
       -2   -1    0    0    0  501  0.00000000000E+00  0.00000000000E+00 -0.56025205034E+03  0.56025205035E+03  0.25500000920E-02 0. -1.
    10030    2    1    2    0    0  0.00000000000E+00  0.00000000000E+00  0.57613790295E+03  0.16966420036E+04  0.15958255560E+04 0.  0.
        5    1    3    3  502    0  0.35352026787E+03 -0.67573091918E+03  0.38610241749E+02  0.76361095834E+03  0.46999998093E+01 0.  1.
       -5    1    3    3    0  502 -0.35352026787E+03  0.67573091918E+03  0.53752766120E+03  0.93303104530E+03  0.46999998093E+01 0. -1.
</event>
<event>
 5   0  0.9432152E-05  0.1598001E+04  0.7818609E-02  0.8821777E-01
       -1   -1    0    0    0  501  0.00000000000E+00  0.00000000000E+00  0.12216945007E+04  0.12216945007E+04  0.50400001928E-02 0. -1.
        1   -1    0    0  501    0  0.00000000000E+00  0.00000000000E+00 -0.52255430547E+03  0.52255430549E+03  0.50400001928E-02 0.  1.
    10030    2    1    2    0    0  0.00000000000E+00  0.00000000000E+00  0.69914019523E+03  0.17442488062E+04  0.15980009028E+04 0.  0.
        4    1    3    3  502    0  0.63642435862E+03  0.47865692116E+03  0.42074264617E+03  0.90065220792E+03  0.12699999809E+01 0. -1.
       -4    1    3    3    0  502 -0.63642435862E+03 -0.47865692116E+03  0.27839754906E+03  0.84359659829E+03  0.12699999809E+01 0.  1.
</event>
<event>
 5   0  0.1835088E-04  0.1595313E+04  0.7818609E-02  0.8823432E-01
       -2   -1    0    0    0  501  0.00000000000E+00  0.00000000000E+00  0.75840914990E+03  0.75840914991E+03  0.25500000920E-02 0.  1.
        2   -1    0    0  501    0  0.00000000000E+00  0.00000000000E+00 -0.83893521606E+03  0.83893521606E+03  0.25500000920E-02 0. -1.
    10030    2    1    2    0    0  0.00000000000E+00  0.00000000000E+00 -0.80526066154E+02  0.15973443660E+04  0.15953133160E+04 0.  0.
        5    1    3    3  502    0  0.35320574904E+03  0.45072461979E+03  0.51571597195E+03  0.77064391113E+03  0.46999998093E+01 0.  1.
       -5    1    3    3    0  502 -0.35320574904E+03 -0.45072461979E+03 -0.59624203810E+03  0.82670045484E+03  0.46999998093E+01 0. -1.
</event>
<event>
 5   0  0.9726935E-05  0.1593791E+04  0.7818609E-02  0.8824372E-01
        1   -1    0    0  501    0  0.00000000000E+00  0.00000000000E+00  0.98296170372E+03  0.98296170373E+03  0.50400001928E-02 0. -1.
       -1   -1    0    0    0  501  0.00000000000E+00  0.00000000000E+00 -0.64605004798E+03  0.64605004800E+03  0.50400001928E-02 0.  1.
    10030    2    1    2    0    0  0.00000000000E+00  0.00000000000E+00  0.33691165573E+03  0.16290117517E+04  0.15937910225E+04 0.  0.
        2    1    3    3  502    0  0.29331942489E+03  0.53957083548E+03  0.68748625354E+03  0.92185157175E+03  0.25500000920E-02 0. -1.
       -2    1    3    3    0  502 -0.29331942489E+03 -0.53957083548E+03 -0.35057459781E+03  0.70716017999E+03  0.25500000920E-02 0.  1.
</event>
<event>
 5   0  0.1832646E-04  0.1591546E+04  0.7818609E-02  0.8825759E-01
        2   -1    0    0  501    0  0.00000000000E+00  0.00000000000E+00  0.15712228742E+04  0.15712228742E+04  0.25500000920E-02 0.  1.
       -2   -1    0    0    0  501  0.00000000000E+00  0.00000000000E+00 -0.40303291270E+03  0.40303291271E+03  0.25500000920E-02 0. -1.
    10030    2    1    2    0    0  0.00000000000E+00  0.00000000000E+00  0.11681899615E+04  0.19742557869E+04  0.15915458291E+04 0.  0.
        2    1    3    3  502    0  0.20101688663E+02  0.76359549464E+03  0.86083913101E+03  0.11508806049E+04  0.25500000920E-02 0. -1.
       -2    1    3    3    0  502 -0.20101688663E+02 -0.76359549464E+03  0.30735083051E+03  0.82337518200E+03  0.25500000920E-02 0.  1.
</event>
<event>
 5   0  0.9616567E-05  0.1605732E+04  0.7818609E-02  0.8817034E-01
        1   -1    0    0  501    0  0.00000000000E+00  0.00000000000E+00  0.47793638982E+03  0.47793638985E+03  0.50400001928E-02 0. -1.
       -1   -1    0    0    0  501  0.00000000000E+00  0.00000000000E+00 -0.13487026270E+04  0.13487026270E+04  0.50400001928E-02 0.  1.
    10030    2    1    2    0    0  0.00000000000E+00  0.00000000000E+00 -0.87076623721E+03  0.18266390169E+04  0.16057323121E+04 0.  0.
        5    1    3    3  502    0  0.21327344635E+02  0.14778339897E+03 -0.13327530693E+04  0.13410994081E+04  0.46999998093E+01 0.  1.
       -5    1    3    3    0  502 -0.21327344635E+02 -0.14778339897E+03  0.46198683212E+03  0.48553960878E+03  0.46999998093E+01 0. -1.
</event>
</LesHouchesEvents>
