<LesHouchesEvents version="3.0">
<header>
<!--
#*********************************************************************
#                                                                    *
#                        MadGraph5_aMC@NLO                           *
#                                                                    *
#                           Going Beyond                             *
#                                                                    *
#                   http://madgraph.hep.uiuc.edu                     *
#                   http://madgraph.phys.ucl.ac.be                   *
#                   http://amcatnlo.cern.ch                          *
#                                                                    *
#                     The MadGraph5_aMC@NLO team                     *
#                                                                    *
#....................................................................*
#                                                                    *
# This file contains all the information necessary to reproduce      *
# the events generated:                                              *
#                                                                    *
# 1. software version                                                *
# 2. proc_card          : code generation info including model       *
# 3. param_card         : model primary parameters in the LH format  *
# 4. run_card           : running parameters (collider and cuts)     *
# 5. pythia_card        : present only if pythia has been run        *
# 6. pgs_card           : present only if pgs has been run           *
# 7. delphes_cards      : present only if delphes has been run       *
#                                                                    *
#                                                                    *
#*********************************************************************
-->
<MGVersion>
#5.2.2.3
</MGVersion>
<MG5ProcCard>
#************************************************************
#*                     MadGraph5_aMC@NLO                    *
#*                                                          *
#*                *                       *                 *
#*                  *        * *        *                   *
#*                    * * * * 5 * * * *                     *
#*                  *        * *        *                   *
#*                *                       *                 *
#*                                                          *
#*                                                          *
#*         VERSION 2.2.3                 2015-02-10         *
#*                                                          *
#*    The MadGraph5_aMC@NLO Development Team - Find us at   *
#*    https://server06.fynu.ucl.ac.be/projects/madgraph     *
#*                                                          *
#************************************************************
#*                                                          *
#*               Command File for MadGraph5_aMC@NLO         *
#*                                                          *
#*     run as ./bin/mg5_aMC  filename                       *
#*                                                          *
#************************************************************
set group_subprocesses Auto
set ignore_six_quark_processes False
set loop_optimized_output True
set gauge unitary
set complex_mass_scheme False
import model sm
define p = g u c d s u~ c~ d~ s~
define j = g u c d s u~ c~ d~ s~
define l+ = e+ mu+
define l- = e- mu-
define vl = ve vm vt
define vl~ = ve~ vm~ vt~
import model Zprime_UFO
generate p p > zph, zph > j j
add process p p > zph, zph > b b~
output Dijet_signal
</MG5ProcCard>
<MGProcCard>
#*********************************************************************
#                        MadGraph/MadEvent                           *
#                   http://madgraph.hep.uiuc.edu                     *
#                                                                    *
#                          proc_card.dat                             *
#*********************************************************************
#                                                                    *
#            This Files is generated by MADGRAPH 5                   *
#                                                                    *
# WARNING: This Files is generated for MADEVENT (compatibility issue)*
#          This files is NOT a valid MG4 proc_card.dat               *
#          Running this in MG4 will NEVER reproduce the result of MG5*
#                                                                    *
#*********************************************************************
#*********************************************************************
# Process(es) requested : mg2 input                                  *
#*********************************************************************
# Begin PROCESS # This is TAG. Do not modify this line
p p > zph , zph > j j           #Process
# Be carefull the coupling are here in MG5 convention
          
end_coup           # End the couplings input

done               # this tells MG there are no more procs
# End PROCESS  # This is TAG. Do not modify this line
#*********************************************************************
# Model information                                                  *
#*********************************************************************
# Begin MODEL  # This is TAG. Do not modify this line
Zprime_UFO
# End   MODEL  # This is TAG. Do not modify this line
#*********************************************************************
# Start multiparticle definitions                                    *
#*********************************************************************
# Begin MULTIPARTICLES # This is TAG. Do not modify this line

# End  MULTIPARTICLES # This is TAG. Do not modify this line
</MGProcCard>
<MGRunCard>
#*********************************************************************
#                       MadGraph5_aMC@NLO                            *
#                                                                    *
#                     run_card.dat MadEvent                          *
#                                                                    *
#  This file is used to set the parameters of the run.               *
#                                                                    *
#  Some notation/conventions:                                        *
#                                                                    *
#   Lines starting with a '# ' are info or comments                  *
#                                                                    *
#   mind the format:   value    = variable     ! comment             *
#*********************************************************************
#
#*******************                                                 
# Running parameters
#*******************                                                 
#                                                                    
#*********************************************************************
# Tag name for the run (one word)                                    *
#*********************************************************************
  tag_1     = run_tag ! name of the run 
#*********************************************************************
# Run to generate the grid pack                                      *
#*********************************************************************
  .false.     = gridpack  !True = setting up the grid pack
#*********************************************************************
# Number of events and rnd seed                                      *
# Warning: Do not generate more than 1M events in a single run       *
# If you want to run Pythia, avoid more than 50k events in a run.    *
#*********************************************************************
  2000 = nevents ! Number of unweighted events requested 
 1992 = iseed   ! rnd seed (0=assigned automatically=default))
#*********************************************************************
# Collider type and energy                                           *
# lpp: 0=No PDF, 1=proton, -1=antiproton, 2=photon from proton,      *
#                                         3=photon from electron     *
#*********************************************************************
        1     = lpp1    ! beam 1 type 
        1     = lpp2    ! beam 2 type
     4000     = ebeam1  ! beam 1 total energy in GeV
     4000     = ebeam2  ! beam 2 total energy in GeV
#*********************************************************************
# Beam polarization from -100 (left-handed) to 100 (right-handed)    *
#*********************************************************************
        0     = polbeam1 ! beam polarization for beam 1
        0     = polbeam2 ! beam polarization for beam 2
#*********************************************************************
# PDF CHOICE: this automatically fixes also alpha_s and its evol.    *
#*********************************************************************
 'nn23lo1'    = pdlabel     ! PDF set                                     
 230000    = lhaid     ! if pdlabel=lhapdf, this is the lhapdf number
#*********************************************************************
# Renormalization and factorization scales                           *
#*********************************************************************
 F        = fixed_ren_scale  ! if .true. use fixed ren scale
 F        = fixed_fac_scale  ! if .true. use fixed fac scale
 91.1880  = scale            ! fixed ren scale
 91.1880  = dsqrt_q2fact1    ! fixed fact scale for pdf1
 91.1880  = dsqrt_q2fact2    ! fixed fact scale for pdf2
 1        = scalefact        ! scale factor for event-by-event scales
#*********************************************************************
# Matching - Warning! ickkw > 1 is still beta
#*********************************************************************
 0        = ickkw            ! 0 no matching, 1 MLM, 2 CKKW matching
 1        = highestmult      ! for ickkw=2, highest mult group
 1        = ktscheme         ! for ickkw=1, 1 Durham kT, 2 Pythia pTE
 1        = alpsfact         ! scale factor for QCD emission vx
 F        = chcluster        ! cluster only according to channel diag
 T        = pdfwgt           ! for ickkw=1, perform pdf reweighting
 5        = asrwgtflavor     ! highest quark flavor for a_s reweight
 T        = clusinfo         ! include clustering tag in output
 3.0      = lhe_version       ! Change the way clustering information pass to shower.        
#*********************************************************************
#**********************************************************
#
#**********************************************************
# Automatic ptj and mjj cuts if xqcut > 0
# (turn off for VBF and single top processes)
#**********************************************************
   T  = auto_ptj_mjj  ! Automatic setting of ptj and mjj
#**********************************************************
#                                                                    
#**********************************
# BW cutoff (M+/-bwcutoff*Gamma)
#**********************************
  15  = bwcutoff      ! (M+/-bwcutoff*Gamma)
#**********************************************************
# Apply pt/E/eta/dr/mij cuts on decay products or not
# (note that etmiss/ptll/ptheavy/ht/sorted cuts always apply)
#**********************************************************
   T  = cut_decays    ! Cut decay products 
#*************************************************************
# Number of helicities to sum per event (0 = all helicities)
# 0 gives more stable result, but longer run time (needed for
# long decay chains e.g.).
# Use >=2 if most helicities contribute, e.g. pure QCD.
#*************************************************************
   0  = nhel          ! Number of helicities used per event
#*******************                                                 
# Standard Cuts
#*******************                                                 
#                                                                    
#*********************************************************************
# Minimum and maximum pt's (for max, -1 means no cut)                *
#*********************************************************************
 20  = ptj       ! minimum pt for the jets 
  0  = ptb       ! minimum pt for the b 
 10  = pta       ! minimum pt for the photons 
 10  = ptl       ! minimum pt for the charged leptons 
  0  = misset    ! minimum missing Et (sum of neutrino's momenta)
  0  = ptheavy   ! minimum pt for one heavy final state
 1.0 = ptonium   ! minimum pt for the quarkonium states
 -1  = ptjmax    ! maximum pt for the jets
 -1  = ptbmax    ! maximum pt for the b
 -1  = ptamax    ! maximum pt for the photons
 -1  = ptlmax    ! maximum pt for the charged leptons
 -1  = missetmax ! maximum missing Et (sum of neutrino's momenta)
#*********************************************************************
# Minimum and maximum E's (in the center of mass frame)              *
#*********************************************************************
  0  = ej     ! minimum E for the jets 
  0  = eb     ! minimum E for the b 
  0  = ea     ! minimum E for the photons 
  0  = el     ! minimum E for the charged leptons 
 -1   = ejmax ! maximum E for the jets
 -1   = ebmax ! maximum E for the b
 -1   = eamax ! maximum E for the photons
 -1   = elmax ! maximum E for the charged leptons
#*********************************************************************
# Maximum and minimum absolute rapidity (for max, -1 means no cut)   *
#*********************************************************************
   5  = etaj    ! max rap for the jets 
  -1  = etab    ! max rap for the b
 2.5  = etaa    ! max rap for the photons 
 2.5  = etal    ! max rap for the charged leptons 
 0.6  = etaonium ! max rap for the quarkonium states
   0  = etajmin ! min rap for the jets
   0  = etabmin ! min rap for the b
   0  = etaamin ! min rap for the photons
   0  = etalmin ! main rap for the charged leptons
#*********************************************************************
# Minimum and maximum DeltaR distance                                *
#*********************************************************************
 0.4 = drjj    ! min distance between jets 
 0   = drbb    ! min distance between b's 
 0.4 = drll    ! min distance between leptons 
 0.4 = draa    ! min distance between gammas 
 0   = drbj    ! min distance between b and jet 
 0.4 = draj    ! min distance between gamma and jet 
 0.4 = drjl    ! min distance between jet and lepton 
 0   = drab    ! min distance between gamma and b 
 0   = drbl    ! min distance between b and lepton 
 0.4 = dral    ! min distance between gamma and lepton 
 -1  = drjjmax ! max distance between jets
 -1  = drbbmax ! max distance between b's
 -1  = drllmax ! max distance between leptons
 -1  = draamax ! max distance between gammas
 -1  = drbjmax ! max distance between b and jet
 -1  = drajmax ! max distance between gamma and jet
 -1  = drjlmax ! max distance between jet and lepton
 -1  = drabmax ! max distance between gamma and b
 -1  = drblmax ! max distance between b and lepton
 -1  = dralmax ! maxdistance between gamma and lepton
#*********************************************************************
# Minimum and maximum invariant mass for pairs                       *
# WARNING: for four lepton final state mmll cut require to have      *
#          different lepton masses for each flavor!                  *           
#*********************************************************************
 0   = mmjj    ! min invariant mass of a jet pair 
 0   = mmbb    ! min invariant mass of a b pair 
 0   = mmaa    ! min invariant mass of gamma gamma pair
 0   = mmll    ! min invariant mass of l+l- (same flavour) lepton pair
 -1  = mmjjmax ! max invariant mass of a jet pair
 -1  = mmbbmax ! max invariant mass of a b pair
 -1  = mmaamax ! max invariant mass of gamma gamma pair
 -1  = mmllmax ! max invariant mass of l+l- (same flavour) lepton pair
#*********************************************************************
# Minimum and maximum invariant mass for all letpons                 *
#*********************************************************************
 0   = mmnl    ! min invariant mass for all letpons (l+- and vl) 
 -1  = mmnlmax ! max invariant mass for all letpons (l+- and vl) 
#*********************************************************************
# Minimum and maximum pt for 4-momenta sum of leptons                *
#*********************************************************************
 0   = ptllmin  ! Minimum pt for 4-momenta sum of leptons(l and vl)
 -1  = ptllmax  ! Maximum pt for 4-momenta sum of leptons(l and vl)
#*********************************************************************
# Inclusive cuts                                                     *
#*********************************************************************
 0  = xptj ! minimum pt for at least one jet  
 0  = xptb ! minimum pt for at least one b 
 0  = xpta ! minimum pt for at least one photon 
 0  = xptl ! minimum pt for at least one charged lepton 
#*********************************************************************
# Control the pt's of the jets sorted by pt                          *
#*********************************************************************
 0   = ptj1min ! minimum pt for the leading jet in pt
 0   = ptj2min ! minimum pt for the second jet in pt
 0   = ptj3min ! minimum pt for the third jet in pt
 0   = ptj4min ! minimum pt for the fourth jet in pt
 -1  = ptj1max ! maximum pt for the leading jet in pt 
 -1  = ptj2max ! maximum pt for the second jet in pt
 -1  = ptj3max ! maximum pt for the third jet in pt
 -1  = ptj4max ! maximum pt for the fourth jet in pt
 0   = cutuse  ! reject event if fails any (0) / all (1) jet pt cuts
#*********************************************************************
# Control the pt's of leptons sorted by pt                           *
#*********************************************************************
 0   = ptl1min ! minimum pt for the leading lepton in pt
 0   = ptl2min ! minimum pt for the second lepton in pt
 0   = ptl3min ! minimum pt for the third lepton in pt
 0   = ptl4min ! minimum pt for the fourth lepton in pt
 -1  = ptl1max ! maximum pt for the leading lepton in pt 
 -1  = ptl2max ! maximum pt for the second lepton in pt
 -1  = ptl3max ! maximum pt for the third lepton in pt
 -1  = ptl4max ! maximum pt for the fourth lepton in pt
#*********************************************************************
# Control the Ht(k)=Sum of k leading jets                            *
#*********************************************************************
 0   = htjmin ! minimum jet HT=Sum(jet pt)
 -1  = htjmax ! maximum jet HT=Sum(jet pt)
 0   = ihtmin  !inclusive Ht for all partons (including b)
 -1  = ihtmax  !inclusive Ht for all partons (including b)
 0   = ht2min ! minimum Ht for the two leading jets
 0   = ht3min ! minimum Ht for the three leading jets
 0   = ht4min ! minimum Ht for the four leading jets
 -1  = ht2max ! maximum Ht for the two leading jets
 -1  = ht3max ! maximum Ht for the three leading jets
 -1  = ht4max ! maximum Ht for the four leading jets
#***********************************************************************
# Photon-isolation cuts, according to hep-ph/9801442                   *
# When ptgmin=0, all the other parameters are ignored                  *
# When ptgmin>0, pta and draj are not going to be used                 *
#***********************************************************************
   0 = ptgmin ! Min photon transverse momentum
 0.4 = R0gamma ! Radius of isolation code
 1.0 = xn ! n parameter of eq.(3.4) in hep-ph/9801442
 1.0 = epsgamma ! epsilon_gamma parameter of eq.(3.4) in hep-ph/9801442
 .true. = isoEM ! isolate photons from EM energy (photons and leptons)
#*********************************************************************
# WBF cuts                                                           *
#*********************************************************************
 0   = xetamin ! minimum rapidity for two jets in the WBF case  
 0   = deltaeta ! minimum rapidity for two jets in the WBF case 
#*********************************************************************
# KT DURHAM CUT                                                      *
#*********************************************************************
 -1    =  ktdurham        
 0.4  =  dparameter 
#*********************************************************************
# maximal pdg code for quark to be considered as a light jet         *
# (otherwise b cuts are applied)                                     *
#*********************************************************************
 4 = maxjetflavor    ! Maximum jet pdg code
#*********************************************************************
# Jet measure cuts                                                   *
#*********************************************************************
 0   = xqcut   ! minimum kt jet measure between partons
#*********************************************************************
#
#*********************************************************************
# Store info for systematics studies                                 *
# WARNING: If use_syst is T, matched Pythia output is                *
#          meaningful ONLY if plotted taking matchscale              *
#          reweighting into account!                                 *
#*********************************************************************
   F  = use_syst      ! Enable systematics studies
#
#**************************************
# Parameter of the systematics study
#  will be used by SysCalc (if installed)
#**************************************                                  
#
0.5 1 2 = sys_scalefact  # factorization/renormalization scale factor
0.5 1 2 = sys_alpsfact  # \alpha_s emission scale factors
30 50 = sys_matchscale # variation of merging scale
# PDF sets and number of members (0 or none for all members).
CT10nlo.LHgrid = sys_pdf # matching scales
# MSTW2008nlo68cl.LHgrid 1  = sys_pdf
</MGRunCard>
<slha>
######################################################################
## PARAM_CARD AUTOMATICALY GENERATED BY MG5 FOLLOWING UFO MODEL   ####
######################################################################
##                                                                  ##
##  Width set on Auto will be computed following the information    ##
##        present in the decay.py files of the model.               ##
##        See  arXiv:1402.1178 for more details.                    ##
##                                                                  ##
######################################################################

###################################
## INFORMATION FOR CKMBLOCK
###################################
Block ckmblock 
    1 2.277360e-01 # cabi 

###################################
## INFORMATION FOR FRBLOCK
###################################
Block frblock 
    1 1.000000e+00 # gz 

###################################
## INFORMATION FOR MASS
###################################
Block mass 
    1 5.040000e-03 # MD 
    2 2.550000e-03 # MU 
    3 1.010000e-01 # MS 
    4 1.270000e+00 # MC 
    5 4.700000e+00 # MB 
    6 1.720000e+02 # MT 
   11 5.110000e-04 # Me 
   13 1.056600e-01 # MM 
   15 1.777000e+00 # MTA 
   23 9.118760e+01 # MZ 
   25 1.200000e+02 # MH 
  10030 2.700000e+03 # MZph 
  10031 3.000000e+02 # MZpl 
## Dependent parameters, given by model restrictions.
## Those values should be edited following the 
## analytical expression. MG5 ignores those values 
## but they are important for interfacing the output of MG5
## to external program such as Pythia.
  12 0.000000 # ve : 0.0 
  14 0.000000 # vm : 0.0 
  16 0.000000 # vt : 0.0 
  21 0.000000 # g : 0.0 
  22 0.000000 # a : 0.0 
  24 79.824360 # w+ : cmath.sqrt(MZ__exp__2/2. + cmath.sqrt(MZ__exp__4/4. - (aEW*cmath.pi*MZ__exp__2)/(Gf*sqrt__2))) 

###################################
## INFORMATION FOR SMINPUTS
###################################
Block sminputs 
    1 1.279000e+02 # aEWM1 
    2 1.166370e-05 # Gf 
    3 1.184000e-01 # aS 

###################################
## INFORMATION FOR YUKAWA
###################################
Block yukawa 
    1 5.040000e-03 # ymdo 
    2 2.550000e-03 # ymup 
    3 1.010000e-01 # yms 
    4 1.270000e+00 # ymc 
    5 4.700000e+00 # ymb 
    6 1.720000e+02 # ymt 
   11 5.110000e-04 # yme 
   13 1.056600e-01 # ymm 
   15 1.777000e+00 # ymtau 

###################################
## INFORMATION FOR DECAY
###################################
DECAY   6 1.508336e+00 # WT 
DECAY  23 2.495200e+00 # WZ 
DECAY  24 2.085000e+00 # WW 
DECAY  25 5.753088e-03 # WH 
## Dependent parameters, given by model restrictions.
## Those values should be edited following the 
## analytical expression. MG5 ignores those values 
## but they are important for interfacing the output of MG5
## to external program such as Pythia.
DECAY  1 0.000000 # d : 0.0 
DECAY  2 0.000000 # u : 0.0 
DECAY  3 0.000000 # s : 0.0 
DECAY  4 0.000000 # c : 0.0 
DECAY  5 0.000000 # b : 0.0 
DECAY  11 0.000000 # e- : 0.0 
DECAY  12 0.000000 # ve : 0.0 
DECAY  13 0.000000 # mu- : 0.0 
DECAY  14 0.000000 # vm : 0.0 
DECAY  15 0.000000 # ta- : 0.0 
DECAY  16 0.000000 # vt : 0.0 
DECAY  21 0.000000 # g : 0.0 
DECAY  22 0.000000 # a : 0.0 
DECAY  10030 0.308725 # zph : (gz__exp__2*MZph*(5 + cmath.sqrt(1 - (4*MT__exp__2)/MZph__exp__2)))/(144.*cmath.pi) 
DECAY  10031 0.132629 # zpl : (5*gz__exp__2*MZpl)/(144.*cmath.pi) 
#===========================================================
# QUANTUM NUMBERS OF NEW STATE(S) (NON SM PDG CODE)
#===========================================================

Block QNUMBERS 10030  # zph 
        1 0  # 3 times electric charge
        2 3  # number of spin states (2S+1)
        3 1  # colour rep (1: singlet, 3: triplet, 8: octet)
        4 0  # Particle/Antiparticle distinction (0=own anti)
Block QNUMBERS 10031  # zpl 
        1 0  # 3 times electric charge
        2 3  # number of spin states (2S+1)
        3 1  # colour rep (1: singlet, 3: triplet, 8: octet)
        4 0  # Particle/Antiparticle distinction (0=own anti)
</slha>
## END BANNER##
<MGGenerationInfo>
#  Number of Events        :         3919
#  Integrated weight (pb)  :  0.33504E-02
#  Max wgt                 :  0.12866E-05
#  Average wgt             :  0.85491E-06
</MGGenerationInfo>
</header>
<init>
     2212     2212  0.40000000000E+04  0.40000000000E+04 0 0  247000  247000 2   1
  0.33529745656E-02  0.66693210065E-05  0.12866410000E-05   0
</init>
<event>
 5   0  0.1276517E-05  0.2706179E+04  0.7818609E-02  0.8333003E-01
       -2   -1    0    0    0  501  0.00000000000E+00  0.00000000000E+00  0.15906360024E+04  0.15906360024E+04  0.25500000920E-02 0.  1.
        2   -1    0    0  501    0  0.00000000000E+00  0.00000000000E+00 -0.11510180849E+04  0.11510180849E+04  0.25500000920E-02 0. -1.
    10030    2    1    2    0    0  0.00000000000E+00  0.00000000000E+00  0.43961791751E+03  0.27416540872E+04  0.27061787119E+04 0.  0.
        1    1    3    3  502    0 -0.10700922009E+04 -0.33539642604E+03 -0.54725757864E+03  0.12478296913E+04  0.50400001928E-02 0. -1.
       -1    1    3    3    0  502  0.10700922009E+04  0.33539642604E+03  0.98687549615E+03  0.14938243960E+04  0.50400001928E-02 0.  1.
</event>
<event>
 5   0  0.1276517E-05  0.2693915E+04  0.7818609E-02  0.8336982E-01
       -2   -1    0    0    0  501  0.00000000000E+00  0.00000000000E+00  0.10033479632E+04  0.10033479632E+04  0.25500000920E-02 0.  1.
        2   -1    0    0  501    0  0.00000000000E+00  0.00000000000E+00 -0.18082401989E+04  0.18082401989E+04  0.25500000920E-02 0. -1.
    10030    2    1    2    0    0  0.00000000000E+00  0.00000000000E+00 -0.80489223571E+03  0.28115881622E+04  0.26939147133E+04 0.  0.
        1    1    3    3  502    0 -0.14753259834E+03  0.76933733331E+03  0.74115816388E+03  0.10784067989E+04  0.50400001928E-02 0.  1.
       -1    1    3    3    0  502  0.14753259834E+03 -0.76933733331E+03 -0.15460503996E+04  0.17331813633E+04  0.50400001928E-02 0. -1.
</event>
<event>
 5   0  0.1232559E-05  0.2688619E+04  0.7818609E-02  0.8338707E-01
       -2   -1    0    0    0  501  0.00000000000E+00  0.00000000000E+00  0.86344715313E+03  0.86344715314E+03  0.25500000920E-02 0.  1.
        2   -1    0    0  501    0  0.00000000000E+00  0.00000000000E+00 -0.20929690160E+04  0.20929690160E+04  0.25500000920E-02 0. -1.
    10030    2    1    2    0    0  0.00000000000E+00  0.00000000000E+00 -0.12295218629E+04  0.29564161692E+04  0.26886190794E+04 0.  0.
        3    1    3    3  502    0  0.33578372856E+03  0.84968602263E+03  0.46959079154E+03  0.10272451368E+04  0.10100000352E+00 0.  1.
       -3    1    3    3    0  502 -0.33578372856E+03 -0.84968602263E+03 -0.16991126544E+04  0.19291710324E+04  0.10100000352E+00 0. -1.
</event>
<event>
 5   0  0.1276517E-05  0.2713389E+04  0.7818609E-02  0.8330674E-01
       -2   -1    0    0    0  501  0.00000000000E+00  0.00000000000E+00  0.12099509252E+04  0.12099509252E+04  0.25500000920E-02 0. -1.
        2   -1    0    0  501    0  0.00000000000E+00  0.00000000000E+00 -0.15212347524E+04  0.15212347524E+04  0.25500000920E-02 0.  1.
    10030    2    1    2    0    0  0.00000000000E+00  0.00000000000E+00 -0.31128382725E+03  0.27311856776E+04  0.27133885797E+04 0.  0.
        1    1    3    3  502    0 -0.91009831120E+03 -0.23394903601E+03  0.82935118204E+03  0.12533293544E+04  0.50400001928E-02 0. -1.
       -1    1    3    3    0  502  0.91009831120E+03  0.23394903601E+03 -0.11406350093E+04  0.14778563232E+04  0.50400001928E-02 0.  1.
</event>
<event>
 5   0  0.1232559E-05  0.2703281E+04  0.7818609E-02  0.8333941E-01
        2   -1    0    0  501    0  0.00000000000E+00  0.00000000000E+00  0.13528483477E+04  0.13528483477E+04  0.25500000920E-02 0. -1.
       -2   -1    0    0    0  501  0.00000000000E+00  0.00000000000E+00 -0.13504340788E+04  0.13504340788E+04  0.25500000920E-02 0.  1.
    10030    2    1    2    0    0  0.00000000000E+00  0.00000000000E+00  0.24142688923E+01  0.27032824266E+04  0.27032813485E+04 0.  0.
        3    1    3    3  502    0  0.11526860916E+04 -0.38524754008E+03 -0.59025874639E+03  0.13511129822E+04  0.10100000352E+00 0.  1.
       -3    1    3    3    0  502 -0.11526860916E+04  0.38524754008E+03  0.59267301528E+03  0.13521694443E+04  0.10100000352E+00 0. -1.
</event>
<event>
 5   0  0.4826140E-06  0.2704548E+04  0.7818609E-02  0.8333531E-01
        1   -1    0    0  501    0  0.00000000000E+00  0.00000000000E+00  0.16443806352E+04  0.16443806352E+04  0.50400001928E-02 0.  1.
       -1   -1    0    0    0  501  0.00000000000E+00  0.00000000000E+00 -0.11120566167E+04  0.11120566167E+04  0.50400001928E-02 0. -1.
    10030    2    1    2    0    0  0.00000000000E+00  0.00000000000E+00  0.53232401853E+03  0.27564372519E+04  0.27045475523E+04 0.  0.
        1    1    3    3  502    0  0.28203891755E+03 -0.91300995284E+03 -0.70901921117E+03  0.11898913256E+04  0.50400001928E-02 0. -1.
       -1    1    3    3    0  502 -0.28203891755E+03  0.91300995284E+03  0.12413432297E+04  0.15665459262E+04  0.50400001928E-02 0.  1.
</event>
<event>
 5   0  0.5152288E-06  0.2709378E+04  0.7818609E-02  0.8331969E-01
       -1   -1    0    0    0  501  0.00000000000E+00  0.00000000000E+00  0.15318156411E+04  0.15318156412E+04  0.50400001928E-02 0.  1.
        1   -1    0    0  501    0  0.00000000000E+00  0.00000000000E+00 -0.11980438159E+04  0.11980438159E+04  0.50400001928E-02 0. -1.
    10030    2    1    2    0    0  0.00000000000E+00  0.00000000000E+00  0.33377182529E+03  0.27298594570E+04  0.27093779773E+04 0.  0.
        3    1    3    3  502    0 -0.18201975795E+03 -0.93384654424E+03 -0.80475969121E+03  0.12461295002E+04  0.10100000352E+00 0. -1.
       -3    1    3    3    0  502  0.18201975795E+03  0.93384654424E+03  0.11385315165E+04  0.14837299568E+04  0.10100000352E+00 0.  1.
</event>
<event>
 5   0  0.1276517E-05  0.2629021E+04  0.7818609E-02  0.8358410E-01
       -2   -1    0    0    0  501  0.00000000000E+00  0.00000000000E+00  0.91106606378E+03  0.91106606378E+03  0.25500000920E-02 0. -1.
        2   -1    0    0  501    0  0.00000000000E+00  0.00000000000E+00 -0.18966111052E+04  0.18966111052E+04  0.25500000920E-02 0.  1.
    10030    2    1    2    0    0  0.00000000000E+00  0.00000000000E+00 -0.98554504142E+03  0.28076771690E+04  0.26290211214E+04 0.  0.
        1    1    3    3  502    0 -0.18237646763E+03  0.21895257278E+03  0.87768369684E+03  0.92278387329E+03  0.50400001928E-02 0. -1.
       -1    1    3    3    0  502  0.18237646763E+03 -0.21895257278E+03 -0.18632287383E+04  0.18848932957E+04  0.50400001928E-02 0.  1.
</event>
<event>
 5   0  0.4846214E-06  0.2713020E+04  0.7818609E-02  0.8330793E-01
       -1   -1    0    0    0  501  0.00000000000E+00  0.00000000000E+00  0.26399326399E+04  0.26399326399E+04  0.50400001928E-02 0. -1.
        1   -1    0    0  501    0  0.00000000000E+00  0.00000000000E+00 -0.69703273134E+03  0.69703273135E+03  0.50400001928E-02 0.  1.
    10030    2    1    2    0    0  0.00000000000E+00  0.00000000000E+00  0.19428999086E+04  0.33369653713E+04  0.27130200579E+04 0.  0.
        2    1    3    3  502    0 -0.10952358093E+04 -0.45023912603E+03  0.15755627537E+03  0.11946048420E+04  0.25500000920E-02 0.  1.
       -2    1    3    3    0  502  0.10952358093E+04  0.45023912603E+03  0.17853436332E+04  0.21423605293E+04  0.25500000920E-02 0. -1.
</event>
<event>
 5   0  0.1276517E-05  0.2707000E+04  0.7818609E-02  0.8332737E-01
        2   -1    0    0  501    0  0.00000000000E+00  0.00000000000E+00  0.26445456422E+04  0.26445456422E+04  0.25500000920E-02 0.  1.
       -2   -1    0    0    0  501  0.00000000000E+00  0.00000000000E+00 -0.69273214171E+03  0.69273214172E+03  0.25500000920E-02 0. -1.
    10030    2    1    2    0    0  0.00000000000E+00  0.00000000000E+00  0.19518135005E+04  0.33372777839E+04  0.27069996428E+04 0.  0.
        1    1    3    3  502    0 -0.78832037864E+03  0.10093355661E+04  0.43605203581E+03  0.13529037964E+04  0.50400001928E-02 0. -1.
       -1    1    3    3    0  502  0.78832037864E+03 -0.10093355661E+04  0.15157614647E+04  0.19843739875E+04  0.50400001928E-02 0.  1.
</event>
<event>
 5   0  0.4846214E-06  0.2715193E+04  0.7818609E-02  0.8330092E-01
       -1   -1    0    0    0  501  0.00000000000E+00  0.00000000000E+00  0.95247743097E+03  0.95247743098E+03  0.50400001928E-02 0. -1.
        1   -1    0    0  501    0  0.00000000000E+00  0.00000000000E+00 -0.19350252033E+04  0.19350252033E+04  0.50400001928E-02 0.  1.
    10030    2    1    2    0    0  0.00000000000E+00  0.00000000000E+00 -0.98254777230E+03  0.28875026343E+04  0.27151926889E+04 0.  0.
        2    1    3    3  502    0  0.11856009566E+04  0.59254146953E+03 -0.80370866303E+03  0.15500653653E+04  0.25500000920E-02 0. -1.
       -2    1    3    3    0  502 -0.11856009566E+04 -0.59254146953E+03 -0.17883910927E+03  0.13374372690E+04  0.25500000920E-02 0.  1.
</event>
<event>
 5   0  0.1261364E-05  0.2359023E+04  0.7818609E-02  0.8455006E-01
        2   -1    0    0  501    0  0.00000000000E+00  0.00000000000E+00  0.17794798582E+04  0.17794798582E+04  0.25500000920E-02 0. -1.
       -2   -1    0    0    0  501  0.00000000000E+00  0.00000000000E+00 -0.78182832871E+03  0.78182832872E+03  0.25500000920E-02 0.  1.
    10030    2    1    2    0    0  0.00000000000E+00  0.00000000000E+00  0.99765152953E+03  0.25613081870E+04  0.23590233263E+04 0.  0.
        5    1    3    3  502    0  0.11421718445E+03  0.55784087186E+03 -0.62270327664E+03  0.84380890271E+03  0.46999998093E+01 0.  1.
       -5    1    3    3    0  502 -0.11421718445E+03 -0.55784087186E+03  0.16203548062E+04  0.17174992843E+04  0.46999998093E+01 0. -1.
</event>
<event>
 5   0  0.4824715E-06  0.2705747E+04  0.7818609E-02  0.8333143E-01
        1   -1    0    0  501    0  0.00000000000E+00  0.00000000000E+00  0.19201964745E+04  0.19201964746E+04  0.50400001928E-02 0.  1.
       -1   -1    0    0    0  501  0.00000000000E+00  0.00000000000E+00 -0.95316639249E+03  0.95316639251E+03  0.50400001928E-02 0. -1.
    10030    2    1    2    0    0  0.00000000000E+00  0.00000000000E+00  0.96703008205E+03  0.28733628671E+04  0.27057470292E+04 0.  0.
        5    1    3    3  502    0  0.11170432947E+02  0.13048201858E+04  0.10422833337E+03  0.13090325173E+04  0.46999998093E+01 0. -1.
       -5    1    3    3    0  502 -0.11170432947E+02 -0.13048201858E+04  0.86280174868E+03  0.15643303498E+04  0.46999998093E+01 0.  1.
</event>
<event>
 5   0  0.4826140E-06  0.2574684E+04  0.7818609E-02  0.8376852E-01
        1   -1    0    0  501    0  0.00000000000E+00  0.00000000000E+00  0.16650776714E+04  0.16650776714E+04  0.50400001928E-02 0.  1.
       -1   -1    0    0    0  501  0.00000000000E+00  0.00000000000E+00 -0.99529862677E+03  0.99529862678E+03  0.50400001928E-02 0. -1.
    10030    2    1    2    0    0  0.00000000000E+00  0.00000000000E+00  0.66977904462E+03  0.26603762982E+04  0.25746840737E+04 0.  0.
        1    1    3    3  502    0 -0.27642456390E+03 -0.64162488719E+02 -0.96257863598E+03  0.10035362450E+04  0.50400001928E-02 0. -1.
       -1    1    3    3    0  502  0.27642456390E+03  0.64162488719E+02  0.16323576806E+04  0.16568400532E+04  0.50400001928E-02 0.  1.
</event>
<event>
 5   0  0.5152288E-06  0.2655982E+04  0.7818609E-02  0.8349430E-01
       -1   -1    0    0    0  501  0.00000000000E+00  0.00000000000E+00  0.13507848259E+04  0.13507848259E+04  0.50400001928E-02 0.  1.
        1   -1    0    0  501    0  0.00000000000E+00  0.00000000000E+00 -0.13055816145E+04  0.13055816145E+04  0.50400001928E-02 0. -1.
    10030    2    1    2    0    0  0.00000000000E+00  0.00000000000E+00  0.45203211429E+02  0.26563664405E+04  0.26559818026E+04 0.  0.
        3    1    3    3  502    0  0.33994944426E+03 -0.43583739295E+02 -0.12605864025E+04  0.13063472951E+04  0.10100000352E+00 0. -1.
       -3    1    3    3    0  502 -0.33994944426E+03  0.43583739295E+02  0.13057896139E+04  0.13500191454E+04  0.10100000352E+00 0.  1.
</event>
<event>
 5   0  0.5152288E-06  0.2710603E+04  0.7818609E-02  0.8331573E-01
        1   -1    0    0  501    0  0.00000000000E+00  0.00000000000E+00  0.17177361567E+04  0.17177361567E+04  0.50400001928E-02 0. -1.
       -1   -1    0    0    0  501  0.00000000000E+00  0.00000000000E+00 -0.10693391863E+04  0.10693391863E+04  0.50400001928E-02 0.  1.
    10030    2    1    2    0    0  0.00000000000E+00  0.00000000000E+00  0.64839697043E+03  0.27870753430E+04  0.27106033159E+04 0.  0.
        3    1    3    3  502    0  0.72344398259E+03  0.30171882327E+03  0.14610297531E+04  0.16580148956E+04  0.10100000352E+00 0. -1.
       -3    1    3    3    0  502 -0.72344398259E+03 -0.30171882327E+03 -0.81263278268E+03  0.11290604474E+04  0.10100000352E+00 0.  1.
</event>
<event>
 5   0  0.1276517E-05  0.2694575E+04  0.7818609E-02  0.8336767E-01
       -2   -1    0    0    0  501  0.00000000000E+00  0.00000000000E+00  0.11131727906E+04  0.11131727906E+04  0.25500000920E-02 0.  1.
        2   -1    0    0  501    0  0.00000000000E+00  0.00000000000E+00 -0.16306390803E+04  0.16306390803E+04  0.25500000920E-02 0. -1.
    10030    2    1    2    0    0  0.00000000000E+00  0.00000000000E+00 -0.51746628972E+03  0.27438118709E+04  0.26945745901E+04 0.  0.
        1    1    3    3  502    0  0.51575054736E+03 -0.37338460157E+03  0.95029942803E+03  0.11438897197E+04  0.50400001928E-02 0.  1.
       -1    1    3    3    0  502 -0.51575054736E+03  0.37338460157E+03 -0.14677657177E+04  0.15999221512E+04  0.50400001928E-02 0. -1.
</event>
<event>
 5   0  0.4756800E-06  0.2704138E+04  0.7818609E-02  0.8333664E-01
        1   -1    0    0  501    0  0.00000000000E+00  0.00000000000E+00  0.12766101884E+04  0.12766101884E+04  0.50400001928E-02 0. -1.
       -1   -1    0    0    0  501  0.00000000000E+00  0.00000000000E+00 -0.14319877710E+04  0.14319877710E+04  0.50400001928E-02 0.  1.
    10030    2    1    2    0    0  0.00000000000E+00  0.00000000000E+00 -0.15537758266E+03  0.27085979594E+04  0.27041377022E+04 0.  0.
        4    1    3    3  502    0 -0.61614356515E+03 -0.48693786218E+03  0.10247387688E+04  0.12910586864E+04  0.12699999809E+01 0. -1.
       -4    1    3    3    0  502  0.61614356515E+03  0.48693786218E+03 -0.11801163515E+04  0.14175392730E+04  0.12699999809E+01 0.  1.
</event>
<event>
 5   0  0.4826140E-06  0.2711399E+04  0.7818609E-02  0.8331316E-01
       -1   -1    0    0    0  501  0.00000000000E+00  0.00000000000E+00  0.93876093310E+03  0.93876093311E+03  0.50400001928E-02 0. -1.
        1   -1    0    0  501    0  0.00000000000E+00  0.00000000000E+00 -0.19578155095E+04  0.19578155095E+04  0.50400001928E-02 0.  1.
    10030    2    1    2    0    0  0.00000000000E+00  0.00000000000E+00 -0.10190545764E+04  0.28965764426E+04  0.27113986904E+04 0.  0.
        1    1    3    3  502    0 -0.15272731135E+03 -0.88012033726E+03  0.57991640690E+03  0.10650072670E+04  0.50400001928E-02 0. -1.
       -1    1    3    3    0  502  0.15272731135E+03  0.88012033726E+03 -0.15989709833E+04  0.18315691756E+04  0.50400001928E-02 0.  1.
</event>
<event>
 5   0  0.1220908E-05  0.2740773E+04  0.7818609E-02  0.8321896E-01
        2   -1    0    0  501    0  0.00000000000E+00  0.00000000000E+00  0.28711877391E+04  0.28711877391E+04  0.25500000920E-02 0.  1.
       -2   -1    0    0    0  501  0.00000000000E+00  0.00000000000E+00 -0.65407046693E+03  0.65407046694E+03  0.25500000920E-02 0. -1.
    10030    2    1    2    0    0  0.00000000000E+00  0.00000000000E+00  0.22171172722E+04  0.35252582060E+04  0.27407729604E+04 0.  0.
        2    1    3    3  502    0  0.74309466840E+02 -0.11605204682E+03  0.28622532180E+04  0.28655686100E+04  0.25500000920E-02 0.  1.
       -2    1    3    3    0  502 -0.74309466840E+02  0.11605204682E+03 -0.64513594588E+03  0.65968959603E+03  0.25500000920E-02 0. -1.
</event>
<event>
 5   0  0.5152288E-06  0.2699216E+04  0.7818609E-02  0.8335259E-01
        1   -1    0    0  501    0  0.00000000000E+00  0.00000000000E+00  0.21343766670E+04  0.21343766671E+04  0.50400001928E-02 0. -1.
       -1   -1    0    0    0  501  0.00000000000E+00  0.00000000000E+00 -0.85338331722E+03  0.85338331724E+03  0.50400001928E-02 0.  1.
    10030    2    1    2    0    0  0.00000000000E+00  0.00000000000E+00  0.12809933498E+04  0.29877599843E+04  0.26992157679E+04 0.  0.
        3    1    3    3  502    0 -0.14354482199E+03 -0.13161193386E+04  0.93055117878E+03  0.16182400119E+04  0.10100000352E+00 0. -1.
       -3    1    3    3    0  502  0.14354482199E+03  0.13161193386E+04  0.35044217105E+03  0.13695199724E+04  0.10100000352E+00 0.  1.
</event>
<event>
 5   0  0.1232559E-05  0.2415811E+04  0.7818609E-02  0.8433608E-01
       -2   -1    0    0    0  501  0.00000000000E+00  0.00000000000E+00  0.74238362924E+03  0.74238362924E+03  0.25500000920E-02 0. -1.
        2   -1    0    0  501    0  0.00000000000E+00  0.00000000000E+00 -0.19653392900E+04  0.19653392900E+04  0.25500000920E-02 0.  1.
    10030    2    1    2    0    0  0.00000000000E+00  0.00000000000E+00 -0.12229556608E+04  0.27077229193E+04  0.24158110148E+04 0.  0.
        3    1    3    3  502    0 -0.34739053431E+02  0.10010547971E+04  0.14516243442E+03  0.10121213619E+04  0.10100000352E+00 0. -1.
       -3    1    3    3    0  502  0.34739053431E+02 -0.10010547971E+04 -0.13681180952E+04  0.16956015573E+04  0.10100000352E+00 0.  1.
</event>
<event>
 5   0  0.4826140E-06  0.2675044E+04  0.7818609E-02  0.8343148E-01
        1   -1    0    0  501    0  0.00000000000E+00  0.00000000000E+00  0.13629258349E+04  0.13629258349E+04  0.50400001928E-02 0. -1.
       -1   -1    0    0    0  501  0.00000000000E+00  0.00000000000E+00 -0.13125915733E+04  0.13125915733E+04  0.50400001928E-02 0.  1.
    10030    2    1    2    0    0  0.00000000000E+00  0.00000000000E+00  0.50334261591E+02  0.26755174082E+04  0.26750438994E+04 0.  0.
        1    1    3    3  502    0 -0.10150502581E+04 -0.80953847911E+02  0.89254864440E+03  0.13540766723E+04  0.50400001928E-02 0. -1.
       -1    1    3    3    0  502  0.10150502581E+04  0.80953847911E+02 -0.84221438281E+03  0.13214407359E+04  0.50400001928E-02 0.  1.
</event>
<event>
 5   0  0.1220908E-05  0.2708090E+04  0.7818609E-02  0.8332385E-01
       -2   -1    0    0    0  501  0.00000000000E+00  0.00000000000E+00  0.14158832710E+04  0.14158832710E+04  0.25500000920E-02 0.  1.
        2   -1    0    0  501    0  0.00000000000E+00  0.00000000000E+00 -0.12949077303E+04  0.12949077303E+04  0.25500000920E-02 0. -1.
    10030    2    1    2    0    0  0.00000000000E+00  0.00000000000E+00  0.12097554071E+03  0.27107910014E+04  0.27080902444E+04 0.  0.
        2    1    3    3  502    0 -0.87508789994E+03 -0.10144334146E+04  0.25711229947E+03  0.13641703412E+04  0.25500000920E-02 0. -1.
       -2    1    3    3    0  502  0.87508789994E+03  0.10144334146E+04 -0.13613675876E+03  0.13466206602E+04  0.25500000920E-02 0.  1.
</event>
<event>
 5   0  0.4846214E-06  0.2631811E+04  0.7818609E-02  0.8357475E-01
       -1   -1    0    0    0  501  0.00000000000E+00  0.00000000000E+00  0.12107871526E+04  0.12107871526E+04  0.50400001928E-02 0. -1.
        1   -1    0    0  501    0  0.00000000000E+00  0.00000000000E+00 -0.14301502952E+04  0.14301502952E+04  0.50400001928E-02 0.  1.
    10030    2    1    2    0    0  0.00000000000E+00  0.00000000000E+00 -0.21936314264E+03  0.26409374478E+04  0.26318112423E+04 0.  0.
        2    1    3    3  502    0  0.84541927359E+03 -0.15919636781E+03  0.88952754561E+03  0.12374718122E+04  0.25500000920E-02 0. -1.
       -2    1    3    3    0  502 -0.84541927359E+03  0.15919636781E+03 -0.11088906883E+04  0.14034656356E+04  0.25500000920E-02 0.  1.
</event>
<event>
 5   0  0.1232559E-05  0.2586198E+04  0.7818609E-02  0.8372904E-01
       -2   -1    0    0    0  501  0.00000000000E+00  0.00000000000E+00  0.80862253871E+03  0.80862253871E+03  0.25500000920E-02 0. -1.
        2   -1    0    0  501    0  0.00000000000E+00  0.00000000000E+00 -0.20678444946E+04  0.20678444946E+04  0.25500000920E-02 0.  1.
    10030    2    1    2    0    0  0.00000000000E+00  0.00000000000E+00 -0.12592219559E+04  0.28764670333E+04  0.25861984958E+04 0.  0.
        3    1    3    3  502    0  0.85509142571E+03 -0.22591110824E+03  0.41960606992E+03  0.97892105875E+03  0.10100000352E+00 0. -1.
       -3    1    3    3    0  502 -0.85509142571E+03  0.22591110824E+03 -0.16788280258E+04  0.18975459746E+04  0.10100000352E+00 0.  1.
</event>
<event>
 5   0  0.1261364E-05  0.2761063E+04  0.7818609E-02  0.8315460E-01
       -2   -1    0    0    0  501  0.00000000000E+00  0.00000000000E+00  0.11346252072E+04  0.11346252072E+04  0.25500000920E-02 0.  1.
        2   -1    0    0  501    0  0.00000000000E+00  0.00000000000E+00 -0.16797326070E+04  0.16797326070E+04  0.25500000920E-02 0. -1.
    10030    2    1    2    0    0  0.00000000000E+00  0.00000000000E+00 -0.54510739985E+03  0.28143578142E+04  0.27610628079E+04 0.  0.
        5    1    3    3  502    0  0.48641905791E+03  0.12691937009E+04 -0.26251952521E+02  0.13594732087E+04  0.46999998093E+01 0.  1.
       -5    1    3    3    0  502 -0.48641905791E+03 -0.12691937009E+04 -0.51885544733E+03  0.14548846055E+04  0.46999998093E+01 0. -1.
</event>
<event>
 5   0  0.4846214E-06  0.2685026E+04  0.7818609E-02  0.8339880E-01
       -1   -1    0    0    0  501  0.00000000000E+00  0.00000000000E+00  0.30312959871E+04  0.30312959871E+04  0.50400001928E-02 0.  1.
        1   -1    0    0  501    0  0.00000000000E+00  0.00000000000E+00 -0.59457753753E+03  0.59457753755E+03  0.50400001928E-02 0. -1.
    10030    2    1    2    0    0  0.00000000000E+00  0.00000000000E+00  0.24367184496E+04  0.36258735247E+04  0.26850255147E+04 0.  0.
        2    1    3    3  502    0 -0.50097536821E+02 -0.11316352105E+04  0.21914316471E+04  0.24668767048E+04  0.25500000920E-02 0.  1.
       -2    1    3    3    0  502  0.50097536821E+02  0.11316352105E+04  0.24528680251E+03  0.11589968199E+04  0.25500000920E-02 0. -1.
</event>
<event>
 5   0  0.1232559E-05  0.2648315E+04  0.7818609E-02  0.8351972E-01
       -2   -1    0    0    0  501  0.00000000000E+00  0.00000000000E+00  0.13495561695E+04  0.13495561695E+04  0.25500000920E-02 0.  1.
        2   -1    0    0  501    0  0.00000000000E+00  0.00000000000E+00 -0.12992370306E+04  0.12992370306E+04  0.25500000920E-02 0. -1.
    10030    2    1    2    0    0  0.00000000000E+00  0.00000000000E+00  0.50319138893E+02  0.26487932001E+04  0.26483152004E+04 0.  0.
        3    1    3    3  502    0 -0.71105124833E+01  0.37847782137E+02 -0.12986768232E+04  0.12992476728E+04  0.10100000352E+00 0. -1.
       -3    1    3    3    0  502  0.71105124833E+01 -0.37847782137E+02  0.13489959621E+04  0.13495455272E+04  0.10100000352E+00 0.  1.
</event>
<event>
 5   0  0.1276517E-05  0.2709558E+04  0.7818609E-02  0.8331910E-01
       -2   -1    0    0    0  501  0.00000000000E+00  0.00000000000E+00  0.19227853506E+04  0.19227853506E+04  0.25500000920E-02 0.  1.
        2   -1    0    0  501    0  0.00000000000E+00  0.00000000000E+00 -0.95456658254E+03  0.95456658255E+03  0.25500000920E-02 0. -1.
    10030    2    1    2    0    0  0.00000000000E+00  0.00000000000E+00  0.96821876801E+03  0.28773519331E+04  0.27095583707E+04 0.  0.
        1    1    3    3  502    0 -0.11423851099E+04 -0.11168963746E+03  0.12483338195E+04  0.16958347913E+04  0.50400001928E-02 0.  1.
       -1    1    3    3    0  502  0.11423851099E+04  0.11168963746E+03 -0.28011505144E+03  0.11815171419E+04  0.50400001928E-02 0. -1.
</event>
<event>
 5   0  0.4824715E-06  0.2727862E+04  0.7818609E-02  0.8326021E-01
       -1   -1    0    0    0  501  0.00000000000E+00  0.00000000000E+00  0.82408836796E+03  0.82408836797E+03  0.50400001928E-02 0.  1.
        1   -1    0    0  501    0  0.00000000000E+00  0.00000000000E+00 -0.22574126540E+04  0.22574126540E+04  0.50400001928E-02 0. -1.
    10030    2    1    2    0    0  0.00000000000E+00  0.00000000000E+00 -0.14333242860E+04  0.30815010219E+04  0.27278618072E+04 0.  0.
        5    1    3    3  502    0 -0.78914377863E+03  0.10415399063E+04 -0.27518810439E+03  0.13354040072E+04  0.46999998093E+01 0.  1.
       -5    1    3    3    0  502  0.78914377863E+03 -0.10415399063E+04 -0.11581361816E+04  0.17460970147E+04  0.46999998093E+01 0. -1.
</event>
<event>
 5   0  0.1232559E-05  0.2695800E+04  0.7818609E-02  0.8336369E-01
       -2   -1    0    0    0  501  0.00000000000E+00  0.00000000000E+00  0.22855959478E+04  0.22855959478E+04  0.25500000920E-02 0. -1.
        2   -1    0    0  501    0  0.00000000000E+00  0.00000000000E+00 -0.79490641913E+03  0.79490641914E+03  0.25500000920E-02 0.  1.
    10030    2    1    2    0    0  0.00000000000E+00  0.00000000000E+00  0.14906895287E+04  0.30805023670E+04  0.26958003565E+04 0.  0.
        3    1    3    3  502    0  0.91404572819E+03  0.95762649244E+03  0.45556888692E+03  0.14000253973E+04  0.10100000352E+00 0. -1.
       -3    1    3    3    0  502 -0.91404572819E+03 -0.95762649244E+03  0.10351206418E+04  0.16804769696E+04  0.10100000352E+00 0.  1.
</event>
<event>
 5   0  0.4756800E-06  0.2730663E+04  0.7818609E-02  0.8325124E-01
        1   -1    0    0  501    0  0.00000000000E+00  0.00000000000E+00  0.15692500151E+04  0.15692500151E+04  0.50400001928E-02 0.  1.
       -1   -1    0    0    0  501  0.00000000000E+00  0.00000000000E+00 -0.11879115122E+04  0.11879115122E+04  0.50400001928E-02 0. -1.
    10030    2    1    2    0    0  0.00000000000E+00  0.00000000000E+00  0.38133850282E+03  0.27571615273E+04  0.27306630393E+04 0.  0.
        4    1    3    3  502    0 -0.10876646518E+04  0.34838050467E+03  0.94609064006E+03  0.14830618608E+04  0.12699999809E+01 0.  1.
       -4    1    3    3    0  502  0.10876646518E+04 -0.34838050467E+03 -0.56475213724E+03  0.12740996665E+04  0.12699999809E+01 0. -1.
</event>
<event>
 5   0  0.4826140E-06  0.2674256E+04  0.7818609E-02  0.8343407E-01
        1   -1    0    0  501    0  0.00000000000E+00  0.00000000000E+00  0.19274941174E+04  0.19274941175E+04  0.50400001928E-02 0. -1.
       -1   -1    0    0    0  501  0.00000000000E+00  0.00000000000E+00 -0.92758345985E+03  0.92758345986E+03  0.50400001928E-02 0.  1.
    10030    2    1    2    0    0  0.00000000000E+00  0.00000000000E+00  0.99991065760E+03  0.28550775773E+04  0.26742562797E+04 0.  0.
        1    1    3    3  502    0  0.72637955354E+03  0.11176176627E+04  0.61301761214E+03  0.14671356749E+04  0.50400001928E-02 0.  1.
       -1    1    3    3    0  502 -0.72637955354E+03 -0.11176176627E+04  0.38689304545E+03  0.13879419024E+04  0.50400001928E-02 0. -1.
</event>
<event>
 5   0  0.5152288E-06  0.2682821E+04  0.7818609E-02  0.8340601E-01
       -1   -1    0    0    0  501  0.00000000000E+00  0.00000000000E+00  0.11356891624E+04  0.11356891624E+04  0.50400001928E-02 0. -1.
        1   -1    0    0  501    0  0.00000000000E+00  0.00000000000E+00 -0.15843966351E+04  0.15843966351E+04  0.50400001928E-02 0.  1.
    10030    2    1    2    0    0  0.00000000000E+00  0.00000000000E+00 -0.44870747273E+03  0.27200857975E+04  0.26828209686E+04 0.  0.
        3    1    3    3  502    0 -0.61632831964E+03 -0.15659383809E+03 -0.14218605445E+04  0.15575845550E+04  0.10100000352E+00 0.  1.
       -3    1    3    3    0  502  0.61632831964E+03  0.15659383809E+03  0.97315307174E+03  0.11625012426E+04  0.10100000352E+00 0. -1.
</event>
<event>
 5   0  0.1286641E-05  0.2695170E+04  0.7818609E-02  0.8336574E-01
       -2   -1    0    0    0  501  0.00000000000E+00  0.00000000000E+00  0.14617372000E+04  0.14617372000E+04  0.25500000920E-02 0. -1.
        2   -1    0    0  501    0  0.00000000000E+00  0.00000000000E+00 -0.12423475172E+04  0.12423475172E+04  0.25500000920E-02 0.  1.
    10030    2    1    2    0    0  0.00000000000E+00  0.00000000000E+00  0.21938968279E+03  0.27040847173E+04  0.26951701849E+04 0.  0.
        4    1    3    3  502    0  0.12913459257E+04  0.30831586835E+03  0.34143716536E+03  0.13708442381E+04  0.12699999809E+01 0. -1.
       -4    1    3    3    0  502 -0.12913459257E+04 -0.30831586835E+03 -0.12204748257E+03  0.13332404792E+04  0.12699999809E+01 0.  1.
</event>
<event>
 5   0  0.1286641E-05  0.2639218E+04  0.7818609E-02  0.8355001E-01
        2   -1    0    0  501    0  0.00000000000E+00  0.00000000000E+00  0.13886976648E+04  0.13886976649E+04  0.25500000920E-02 0.  1.
       -2   -1    0    0    0  501  0.00000000000E+00  0.00000000000E+00 -0.12539573129E+04  0.12539573129E+04  0.25500000920E-02 0. -1.
    10030    2    1    2    0    0  0.00000000000E+00  0.00000000000E+00  0.13474035195E+03  0.26426549778E+04  0.26392177570E+04 0.  0.
        4    1    3    3  502    0 -0.12373296689E+04 -0.21064173709E+03 -0.34060534300E+03  0.13005261488E+04  0.12699999809E+01 0. -1.
       -4    1    3    3    0  502  0.12373296689E+04  0.21064173709E+03  0.47534569495E+03  0.13421288290E+04  0.12699999809E+01 0.  1.
</event>
<event>
 5   0  0.4846214E-06  0.2709522E+04  0.7818609E-02  0.8331922E-01
        1   -1    0    0  501    0  0.00000000000E+00  0.00000000000E+00  0.19734421767E+04  0.19734421767E+04  0.50400001928E-02 0. -1.
       -1   -1    0    0    0  501  0.00000000000E+00  0.00000000000E+00 -0.93003844117E+03  0.93003844118E+03  0.50400001928E-02 0.  1.
    10030    2    1    2    0    0  0.00000000000E+00  0.00000000000E+00  0.10434037355E+04  0.29034806179E+04  0.27095217923E+04 0.  0.
        2    1    3    3  502    0  0.62301141154E+03  0.47460860118E+03  0.17062655907E+04  0.18774287760E+04  0.25500000920E-02 0. -1.
       -2    1    3    3    0  502 -0.62301141154E+03 -0.47460860118E+03 -0.66286185511E+03  0.10260518419E+04  0.25500000920E-02 0.  1.
</event>
<event>
 5   0  0.4824715E-06  0.2579328E+04  0.7818609E-02  0.8375257E-01
       -1   -1    0    0    0  501  0.00000000000E+00  0.00000000000E+00  0.10258400260E+04  0.10258400260E+04  0.50400001928E-02 0.  1.
        1   -1    0    0  501    0  0.00000000000E+00  0.00000000000E+00 -0.16213383166E+04  0.16213383166E+04  0.50400001928E-02 0. -1.
    10030    2    1    2    0    0  0.00000000000E+00  0.00000000000E+00 -0.59549829065E+03  0.26471783426E+04  0.25793283938E+04 0.  0.
        5    1    3    3  502    0  0.93053208602E+03 -0.37721168031E+03 -0.11283802000E+04  0.15104444977E+04  0.46999998093E+01 0. -1.
       -5    1    3    3    0  502 -0.93053208602E+03  0.37721168031E+03  0.53288190932E+03  0.11367338449E+04  0.46999998093E+01 0.  1.
</event>
<event>
 5   0  0.4824715E-06  0.2572407E+04  0.7818609E-02  0.8377635E-01
       -1   -1    0    0    0  501  0.00000000000E+00  0.00000000000E+00  0.13684901900E+04  0.13684901900E+04  0.50400001928E-02 0.  1.
        1   -1    0    0  501    0  0.00000000000E+00  0.00000000000E+00 -0.12088646436E+04  0.12088646436E+04  0.50400001928E-02 0. -1.
    10030    2    1    2    0    0  0.00000000000E+00  0.00000000000E+00  0.15962554637E+03  0.25773548336E+04  0.25724069707E+04 0.  0.
        5    1    3    3  502    0  0.68855804845E+03  0.79266353179E+03 -0.66449540883E+03  0.12425795343E+04  0.46999998093E+01 0. -1.
       -5    1    3    3    0  502 -0.68855804845E+03 -0.79266353179E+03  0.82412095520E+03  0.13347752993E+04  0.46999998093E+01 0.  1.
</event>
<event>
 5   0  0.1220908E-05  0.2678726E+04  0.7818609E-02  0.8341941E-01
        2   -1    0    0  501    0  0.00000000000E+00  0.00000000000E+00  0.24193053687E+04  0.24193053687E+04  0.25500000920E-02 0. -1.
       -2   -1    0    0    0  501  0.00000000000E+00  0.00000000000E+00 -0.74149123604E+03  0.74149123605E+03  0.25500000920E-02 0.  1.
    10030    2    1    2    0    0  0.00000000000E+00  0.00000000000E+00  0.16778141327E+04  0.31607966048E+04  0.26787263602E+04 0.  0.
        2    1    3    3  502    0 -0.61947264482E+03 -0.39034239208E+03 -0.48443029354E+03  0.87794433197E+03  0.25500000920E-02 0.  1.
       -2    1    3    3    0  502  0.61947264482E+03  0.39034239208E+03  0.21622444262E+04  0.22828522728E+04  0.25500000920E-02 0. -1.
</event>
<event>
 5   0  0.1232559E-05  0.2705857E+04  0.7818609E-02  0.8333107E-01
        2   -1    0    0  501    0  0.00000000000E+00  0.00000000000E+00  0.17323208986E+04  0.17323208986E+04  0.25500000920E-02 0. -1.
       -2   -1    0    0    0  501  0.00000000000E+00  0.00000000000E+00 -0.10566263039E+04  0.10566263039E+04  0.25500000920E-02 0.  1.
    10030    2    1    2    0    0  0.00000000000E+00  0.00000000000E+00  0.67569459477E+03  0.27889472025E+04  0.27058572233E+04 0.  0.
        3    1    3    3  502    0  0.13278851408E+04 -0.13693400513E+02  0.71156127633E+02  0.13298607675E+04  0.10100000352E+00 0.  1.
       -3    1    3    3    0  502 -0.13278851408E+04  0.13693400513E+02  0.60453846714E+03  0.14590864350E+04  0.10100000352E+00 0. -1.
</event>
<event>
 5   0  0.1276517E-05  0.2649866E+04  0.7818609E-02  0.8351457E-01
       -2   -1    0    0    0  501  0.00000000000E+00  0.00000000000E+00  0.10396426851E+04  0.10396426851E+04  0.25500000920E-02 0.  1.
        2   -1    0    0  501    0  0.00000000000E+00  0.00000000000E+00 -0.16885105575E+04  0.16885105575E+04  0.25500000920E-02 0. -1.
    10030    2    1    2    0    0  0.00000000000E+00  0.00000000000E+00 -0.64886787241E+03  0.27281532426E+04  0.26498661475E+04 0.  0.
        1    1    3    3  502    0  0.77722218066E+03 -0.97883336438E+03 -0.77703358488E+03  0.14717235696E+04  0.50400001928E-02 0. -1.
       -1    1    3    3    0  502 -0.77722218066E+03  0.97883336438E+03  0.12816571247E+03  0.12564296730E+04  0.50400001928E-02 0.  1.
</event>
<event>
 5   0  0.1220908E-05  0.2711233E+04  0.7818609E-02  0.8331369E-01
        2   -1    0    0  501    0  0.00000000000E+00  0.00000000000E+00  0.21417583024E+04  0.21417583024E+04  0.25500000920E-02 0. -1.
       -2   -1    0    0    0  501  0.00000000000E+00  0.00000000000E+00 -0.85803166428E+03  0.85803166429E+03  0.25500000920E-02 0.  1.
    10030    2    1    2    0    0  0.00000000000E+00  0.00000000000E+00  0.12837266381E+04  0.29997899667E+04  0.27112332550E+04 0.  0.
        2    1    3    3  502    0  0.39066017082E+03 -0.12061651241E+04  0.11095352874E+03  0.12726980636E+04  0.25500000920E-02 0.  1.
       -2    1    3    3    0  502 -0.39066017082E+03  0.12061651241E+04  0.11727731094E+04  0.17270919031E+04  0.25500000920E-02 0. -1.
</event>
<event>
 5   0  0.1232559E-05  0.2684440E+04  0.7818609E-02  0.8340071E-01
        2   -1    0    0  501    0  0.00000000000E+00  0.00000000000E+00  0.16837552145E+04  0.16837552145E+04  0.25500000920E-02 0. -1.
       -2   -1    0    0    0  501  0.00000000000E+00  0.00000000000E+00 -0.10699623458E+04  0.10699623459E+04  0.25500000920E-02 0.  1.
    10030    2    1    2    0    0  0.00000000000E+00  0.00000000000E+00  0.61379286861E+03  0.27537175603E+04  0.26844401123E+04 0.  0.
        3    1    3    3  502    0  0.95093780159E+03 -0.77566178038E+03 -0.25084530349E+03  0.12525403293E+04  0.10100000352E+00 0.  1.
       -3    1    3    3    0  502 -0.95093780159E+03  0.77566178038E+03  0.86463817211E+03  0.15011772310E+04  0.10100000352E+00 0. -1.
</event>
<event>
 5   0  0.5152288E-06  0.2617137E+04  0.7818609E-02  0.8362403E-01
       -1   -1    0    0    0  501  0.00000000000E+00  0.00000000000E+00  0.83612626368E+03  0.83612626369E+03  0.50400001928E-02 0.  1.
        1   -1    0    0  501    0  0.00000000000E+00  0.00000000000E+00 -0.20479585088E+04  0.20479585088E+04  0.50400001928E-02 0. -1.
    10030    2    1    2    0    0  0.00000000000E+00  0.00000000000E+00 -0.12118322452E+04  0.28840847725E+04  0.26171372881E+04 0.  0.
        3    1    3    3  502    0 -0.39513640294E+02 -0.12502404334E+04 -0.10294188428E+04  0.16199893929E+04  0.10100000352E+00 0.  1.
       -3    1    3    3    0  502  0.39513640294E+02  0.12502404334E+04 -0.18241340239E+03  0.12640953796E+04  0.10100000352E+00 0. -1.
</event>
<event>
 5   0  0.1261364E-05  0.2435320E+04  0.7818609E-02  0.8426398E-01
        2   -1    0    0  501    0  0.00000000000E+00  0.00000000000E+00  0.10836841611E+04  0.10836841611E+04  0.25500000920E-02 0. -1.
       -2   -1    0    0    0  501  0.00000000000E+00  0.00000000000E+00 -0.13681990210E+04  0.13681990210E+04  0.25500000920E-02 0.  1.
    10030    2    1    2    0    0  0.00000000000E+00  0.00000000000E+00 -0.28451485988E+03  0.24518831821E+04  0.24353197805E+04 0.  0.
        5    1    3    3  502    0  0.79560278707E+03  0.37800770171E+02  0.78501742655E+03  0.11183412462E+04  0.46999998093E+01 0. -1.
       -5    1    3    3    0  502 -0.79560278707E+03 -0.37800770171E+02 -0.10695322864E+04  0.13335419359E+04  0.46999998093E+01 0.  1.
</event>
<event>
 5   0  0.4824715E-06  0.2663632E+04  0.7818609E-02  0.8346903E-01
       -1   -1    0    0    0  501  0.00000000000E+00  0.00000000000E+00  0.93699977238E+03  0.93699977239E+03  0.50400001928E-02 0.  1.
        1   -1    0    0  501    0  0.00000000000E+00  0.00000000000E+00 -0.18929922400E+04  0.18929922400E+04  0.50400001928E-02 0. -1.
    10030    2    1    2    0    0  0.00000000000E+00  0.00000000000E+00 -0.95599246761E+03  0.28299920124E+04  0.26636315796E+04 0.  0.
        5    1    3    3  502    0  0.26183405618E+02 -0.39047440946E+03 -0.18305140421E+04  0.18718866375E+04  0.46999998093E+01 0. -1.
       -5    1    3    3    0  502 -0.26183405618E+02  0.39047440946E+03  0.87452157450E+03  0.95810537491E+03  0.46999998093E+01 0.  1.
</event>
<event>
 5   0  0.5152288E-06  0.2190336E+04  0.7818609E-02  0.8522461E-01
        1   -1    0    0  501    0  0.00000000000E+00  0.00000000000E+00  0.16544082752E+04  0.16544082752E+04  0.50400001928E-02 0. -1.
       -1   -1    0    0    0  501  0.00000000000E+00  0.00000000000E+00 -0.72496801144E+03  0.72496801145E+03  0.50400001928E-02 0.  1.
    10030    2    1    2    0    0  0.00000000000E+00  0.00000000000E+00  0.92944026373E+03  0.23793762866E+04  0.21903361179E+04 0.  0.
        3    1    3    3  502    0 -0.55394283592E+03  0.75947933668E+03 -0.14567540236E+03  0.95125331083E+03  0.10100000352E+00 0.  1.
       -3    1    3    3    0  502  0.55394283592E+03 -0.75947933668E+03  0.10751156661E+04  0.14281229758E+04  0.10100000352E+00 0. -1.
</event>
<event>
 5   0  0.1232559E-05  0.2715570E+04  0.7818609E-02  0.8329971E-01
       -2   -1    0    0    0  501  0.00000000000E+00  0.00000000000E+00  0.18458764880E+04  0.18458764880E+04  0.25500000920E-02 0.  1.
        2   -1    0    0  501    0  0.00000000000E+00  0.00000000000E+00 -0.99875601091E+03  0.99875601091E+03  0.25500000920E-02 0. -1.
    10030    2    1    2    0    0  0.00000000000E+00  0.00000000000E+00  0.84712047704E+03  0.28446324989E+04  0.27155700969E+04 0.  0.
        3    1    3    3  502    0  0.11854334927E+04 -0.62377077472E+03  0.19111858732E+03  0.13530960312E+04  0.10100000352E+00 0. -1.
       -3    1    3    3    0  502 -0.11854334927E+04  0.62377077472E+03  0.65600188972E+03  0.14915364677E+04  0.10100000352E+00 0.  1.
</event>
<event>
 5   0  0.4826140E-06  0.2582971E+04  0.7818609E-02  0.8374009E-01
       -1   -1    0    0    0  501  0.00000000000E+00  0.00000000000E+00  0.17293945767E+04  0.17293945767E+04  0.50400001928E-02 0.  1.
        1   -1    0    0  501    0  0.00000000000E+00  0.00000000000E+00 -0.96446149981E+03  0.96446149983E+03  0.50400001928E-02 0. -1.
    10030    2    1    2    0    0  0.00000000000E+00  0.00000000000E+00  0.76493307684E+03  0.26938560765E+04  0.25829707603E+04 0.  0.
        1    1    3    3  502    0  0.10739534963E+04  0.71708416680E+03  0.40194092570E+03  0.13524578819E+04  0.50400001928E-02 0. -1.
       -1    1    3    3    0  502 -0.10739534963E+04 -0.71708416680E+03  0.36299215115E+03  0.13413981946E+04  0.50400001928E-02 0.  1.
</event>
<event>
 5   0  0.5152288E-06  0.2687143E+04  0.7818609E-02  0.8339189E-01
        1   -1    0    0  501    0  0.00000000000E+00  0.00000000000E+00  0.77444698368E+03  0.77444698369E+03  0.50400001928E-02 0. -1.
       -1   -1    0    0    0  501  0.00000000000E+00  0.00000000000E+00 -0.23309336925E+04  0.23309336925E+04  0.50400001928E-02 0.  1.
    10030    2    1    2    0    0  0.00000000000E+00  0.00000000000E+00 -0.15564867088E+04  0.31053806762E+04  0.26871431427E+04 0.  0.
        3    1    3    3  502    0  0.72298293302E+03 -0.55187413981E+03  0.36456823509E+03  0.97988744041E+03  0.10100000352E+00 0. -1.
       -3    1    3    3    0  502 -0.72298293302E+03  0.55187413981E+03 -0.19210549439E+04  0.21254932358E+04  0.10100000352E+00 0.  1.
</event>
<event>
 5   0  0.4756800E-06  0.2732379E+04  0.7818609E-02  0.8324575E-01
       -1   -1    0    0    0  501  0.00000000000E+00  0.00000000000E+00  0.10114837953E+04  0.10114837954E+04  0.50400001928E-02 0. -1.
        1   -1    0    0  501    0  0.00000000000E+00  0.00000000000E+00 -0.18452824783E+04  0.18452824783E+04  0.50400001928E-02 0.  1.
    10030    2    1    2    0    0  0.00000000000E+00  0.00000000000E+00 -0.83379868298E+03  0.28567662737E+04  0.27323786888E+04 0.  0.
        4    1    3    3  502    0 -0.99340175289E+03  0.35345864842E+03 -0.13251769211E+04  0.16934803052E+04  0.12699999809E+01 0.  1.
       -4    1    3    3    0  502  0.99340175289E+03 -0.35345864842E+03  0.49137823814E+03  0.11632859685E+04  0.12699999809E+01 0. -1.
</event>
<event>
 5   0  0.4824715E-06  0.2744170E+04  0.7818609E-02  0.8320814E-01
       -1   -1    0    0    0  501  0.00000000000E+00  0.00000000000E+00  0.12670612166E+04  0.12670612167E+04  0.50400001928E-02 0.  1.
        1   -1    0    0  501    0  0.00000000000E+00  0.00000000000E+00 -0.14858135199E+04  0.14858135199E+04  0.50400001928E-02 0. -1.
    10030    2    1    2    0    0  0.00000000000E+00  0.00000000000E+00 -0.21875230328E+03  0.27528747366E+04  0.27441695912E+04 0.  0.
        5    1    3    3  502    0 -0.10124802933E+04 -0.69708334391E+03  0.50210901455E+03  0.13278467852E+04  0.46999998093E+01 0. -1.
       -5    1    3    3    0  502  0.10124802933E+04  0.69708334391E+03 -0.72086131783E+03  0.14250279513E+04  0.46999998093E+01 0.  1.
</event>
<event>
 5   0  0.1286641E-05  0.2696091E+04  0.7818609E-02  0.8336274E-01
       -2   -1    0    0    0  501  0.00000000000E+00  0.00000000000E+00  0.12744910727E+04  0.12744910727E+04  0.25500000920E-02 0. -1.
        2   -1    0    0  501    0  0.00000000000E+00  0.00000000000E+00 -0.14258450880E+04  0.14258450880E+04  0.25500000920E-02 0.  1.
    10030    2    1    2    0    0  0.00000000000E+00  0.00000000000E+00 -0.15135401521E+03  0.27003361607E+04  0.26960911229E+04 0.  0.
        4    1    3    3  502    0 -0.63149324561E+02 -0.29404777453E+03 -0.13918134884E+04  0.14239376146E+04  0.12699999809E+01 0.  1.
       -4    1    3    3    0  502  0.63149324561E+02  0.29404777453E+03  0.12404594732E+04  0.12763985461E+04  0.12699999809E+01 0. -1.
</event>
<event>
 5   0  0.1276517E-05  0.2690151E+04  0.7818609E-02  0.8338208E-01
       -2   -1    0    0    0  501  0.00000000000E+00  0.00000000000E+00  0.15322323139E+04  0.15322323139E+04  0.25500000920E-02 0.  1.
        2   -1    0    0  501    0  0.00000000000E+00  0.00000000000E+00 -0.11807788182E+04  0.11807788182E+04  0.25500000920E-02 0. -1.
    10030    2    1    2    0    0  0.00000000000E+00  0.00000000000E+00  0.35145349571E+03  0.27130111321E+04  0.26901505243E+04 0.  0.
        1    1    3    3  502    0  0.42755120757E+03 -0.10289212753E+04  0.93562066404E+03  0.14549450343E+04  0.50400001928E-02 0.  1.
       -1    1    3    3    0  502 -0.42755120757E+03  0.10289212753E+04 -0.58416716834E+03  0.12580660978E+04  0.50400001928E-02 0. -1.
</event>
<event>
 5   0  0.4756800E-06  0.2578018E+04  0.7818609E-02  0.8375706E-01
       -1   -1    0    0    0  501  0.00000000000E+00  0.00000000000E+00  0.85778907219E+03  0.85778907221E+03  0.50400001928E-02 0.  1.
        1   -1    0    0  501    0  0.00000000000E+00  0.00000000000E+00 -0.19370085919E+04  0.19370085919E+04  0.50400001928E-02 0. -1.
    10030    2    1    2    0    0  0.00000000000E+00  0.00000000000E+00 -0.10792195197E+04  0.27947976641E+04  0.25780184661E+04 0.  0.
        4    1    3    3  502    0 -0.28295090459E+03  0.33167095851E+03  0.77543638086E+03  0.88958981153E+03  0.12699999809E+01 0.  1.
       -4    1    3    3    0  502  0.28295090459E+03 -0.33167095851E+03 -0.18546559005E+04  0.19052078525E+04  0.12699999809E+01 0. -1.
</event>
<event>
 5   0  0.1220908E-05  0.2708817E+04  0.7818609E-02  0.8332150E-01
       -2   -1    0    0    0  501  0.00000000000E+00  0.00000000000E+00  0.13053670795E+04  0.13053670795E+04  0.25500000920E-02 0.  1.
        2   -1    0    0  501    0  0.00000000000E+00  0.00000000000E+00 -0.14052918833E+04  0.14052918833E+04  0.25500000920E-02 0. -1.
    10030    2    1    2    0    0  0.00000000000E+00  0.00000000000E+00 -0.99924803835E+02  0.27106589627E+04  0.27088165397E+04 0.  0.
        2    1    3    3  502    0 -0.64695523139E+03 -0.89717123252E+03  0.73220499913E+03  0.13264959301E+04  0.25500000920E-02 0.  1.
       -2    1    3    3    0  502  0.64695523139E+03  0.89717123252E+03 -0.83212980296E+03  0.13841630326E+04  0.25500000920E-02 0. -1.
</event>
<event>
 5   0  0.4824715E-06  0.2879859E+04  0.7818609E-02  0.8278895E-01
       -1   -1    0    0    0  501  0.00000000000E+00  0.00000000000E+00  0.70180165985E+03  0.70180165987E+03  0.50400001928E-02 0.  1.
        1   -1    0    0  501    0  0.00000000000E+00  0.00000000000E+00 -0.29543917754E+04  0.29543917754E+04  0.50400001928E-02 0. -1.
    10030    2    1    2    0    0  0.00000000000E+00  0.00000000000E+00 -0.22525901156E+04  0.36561934353E+04  0.28798590604E+04 0.  0.
        5    1    3    3  502    0  0.35559033052E+01 -0.96589719035E+03  0.22947948376E+03  0.99280055915E+03  0.46999998093E+01 0.  1.
       -5    1    3    3    0  502 -0.35559033052E+01  0.96589719035E+03 -0.24820695993E+04  0.26633928762E+04  0.46999998093E+01 0. -1.
</event>
<event>
 5   0  0.1220908E-05  0.2706194E+04  0.7818609E-02  0.8332998E-01
        2   -1    0    0  501    0  0.00000000000E+00  0.00000000000E+00  0.13871923864E+04  0.13871923864E+04  0.25500000920E-02 0.  1.
       -2   -1    0    0    0  501  0.00000000000E+00  0.00000000000E+00 -0.13198396157E+04  0.13198396157E+04  0.25500000920E-02 0. -1.
    10030    2    1    2    0    0  0.00000000000E+00  0.00000000000E+00  0.67352770748E+02  0.27070320022E+04  0.27061939814E+04 0.  0.
        2    1    3    3  502    0  0.79657814986E+03 -0.30030505504E+03 -0.10183867193E+04  0.13273399658E+04  0.25500000920E-02 0. -1.
       -2    1    3    3    0  502 -0.79657814986E+03  0.30030505504E+03  0.10857394900E+04  0.13796920363E+04  0.25500000920E-02 0.  1.
</event>
<event>
 5   0  0.4756800E-06  0.2692065E+04  0.7818609E-02  0.8337584E-01
       -1   -1    0    0    0  501  0.00000000000E+00  0.00000000000E+00  0.82061997338E+03  0.82061997339E+03  0.50400001928E-02 0.  1.
        1   -1    0    0  501    0  0.00000000000E+00  0.00000000000E+00 -0.22078468219E+04  0.22078468219E+04  0.50400001928E-02 0. -1.
    10030    2    1    2    0    0  0.00000000000E+00  0.00000000000E+00 -0.13872268485E+04  0.30284667953E+04  0.26920647839E+04 0.  0.
        4    1    3    3  502    0  0.12473504600E+04  0.50561763928E+03 -0.71207169493E+03  0.15226884379E+04  0.12699999809E+01 0.  1.
       -4    1    3    3    0  502 -0.12473504600E+04 -0.50561763928E+03 -0.67515515359E+03  0.15057783574E+04  0.12699999809E+01 0. -1.
</event>
<event>
 5   0  0.4756800E-06  0.2773296E+04  0.7818609E-02  0.8311607E-01
       -1   -1    0    0    0  501  0.00000000000E+00  0.00000000000E+00  0.98094572357E+03  0.98094572359E+03  0.50400001928E-02 0.  1.
        1   -1    0    0  501    0  0.00000000000E+00  0.00000000000E+00 -0.19601415406E+04  0.19601415406E+04  0.50400001928E-02 0. -1.
    10030    2    1    2    0    0  0.00000000000E+00  0.00000000000E+00 -0.97919581699E+03  0.29410872642E+04  0.27732958456E+04 0.  0.
        4    1    3    3  502    0  0.20841788592E+03  0.80675136019E+03 -0.16650371550E+04  0.18618904674E+04  0.12699999809E+01 0. -1.
       -4    1    3    3    0  502 -0.20841788592E+03 -0.80675136019E+03  0.68584133797E+03  0.10791967967E+04  0.12699999809E+01 0.  1.
</event>
<event>
 5   0  0.4756800E-06  0.2299206E+04  0.7818609E-02  0.8478234E-01
       -1   -1    0    0    0  501  0.00000000000E+00  0.00000000000E+00  0.16651407833E+04  0.16651407833E+04  0.50400001928E-02 0. -1.
        1   -1    0    0  501    0  0.00000000000E+00  0.00000000000E+00 -0.79367871191E+03  0.79367871192E+03  0.50400001928E-02 0.  1.
    10030    2    1    2    0    0  0.00000000000E+00  0.00000000000E+00  0.87146207142E+03  0.24588194953E+04  0.22992057690E+04 0.  0.
        4    1    3    3  502    0 -0.49821208277E+02  0.91746313714E+03  0.11746108969E+04  0.14912857315E+04  0.12699999809E+01 0. -1.
       -4    1    3    3    0  502  0.49821208277E+02 -0.91746313714E+03 -0.30314882549E+03  0.96753376380E+03  0.12699999809E+01 0.  1.
</event>
<event>
 5   0  0.1220908E-05  0.2726188E+04  0.7818609E-02  0.8326558E-01
       -2   -1    0    0    0  501  0.00000000000E+00  0.00000000000E+00  0.14793690899E+04  0.14793690899E+04  0.25500000920E-02 0. -1.
        2   -1    0    0  501    0  0.00000000000E+00  0.00000000000E+00 -0.12559579753E+04  0.12559579753E+04  0.25500000920E-02 0.  1.
    10030    2    1    2    0    0  0.00000000000E+00  0.00000000000E+00  0.22341111461E+03  0.27353270652E+04  0.27261881130E+04 0.  0.
        2    1    3    3  502    0  0.10879643028E+04 -0.80051869861E+03 -0.72017248267E+02  0.13526577524E+04  0.25500000920E-02 0.  1.
       -2    1    3    3    0  502 -0.10879643028E+04  0.80051869861E+03  0.29542836287E+03  0.13826693128E+04  0.25500000920E-02 0. -1.
</event>
<event>
 5   0  0.4188000E-06  0.2689250E+04  0.7818609E-02  0.8338501E-01
        3   -1    0    0  501    0  0.00000000000E+00  0.00000000000E+00  0.23771373003E+04  0.23771373025E+04  0.10100000352E+00 0. -1.
       -3   -1    0    0    0  501  0.00000000000E+00  0.00000000000E+00 -0.76058570905E+03  0.76058571576E+03  0.10100000352E+00 0.  1.
    10030    2    1    2    0    0  0.00000000000E+00  0.00000000000E+00  0.16165515913E+04  0.31377230182E+04  0.26892502100E+04 0.  0.
        4    1    3    3  502    0 -0.86037484948E+03 -0.18546149825E+03 -0.37779934108E+03  0.95779684901E+03  0.12699999809E+01 0.  1.
       -4    1    3    3    0  502  0.86037484948E+03  0.18546149825E+03  0.19943509324E+04  0.21799261692E+04  0.12699999809E+01 0. -1.
</event>
<event>
 5   0  0.1261364E-05  0.2711922E+04  0.7818609E-02  0.8331147E-01
       -2   -1    0    0    0  501  0.00000000000E+00  0.00000000000E+00  0.74487412352E+03  0.74487412353E+03  0.25500000920E-02 0.  1.
        2   -1    0    0  501    0  0.00000000000E+00  0.00000000000E+00 -0.24683778889E+04  0.24683778889E+04  0.25500000920E-02 0. -1.
    10030    2    1    2    0    0  0.00000000000E+00  0.00000000000E+00 -0.17235037654E+04  0.32132520124E+04  0.27119224300E+04 0.  0.
        5    1    3    3  502    0 -0.11812061759E+04  0.65331562972E+03 -0.70937215404E+03  0.15248935324E+04  0.46999998093E+01 0. -1.
       -5    1    3    3    0  502  0.11812061759E+04 -0.65331562972E+03 -0.10141316114E+04  0.16883584801E+04  0.46999998093E+01 0.  1.
</event>
<event>
 5   0  0.1261364E-05  0.2713463E+04  0.7818609E-02  0.8330650E-01
       -2   -1    0    0    0  501  0.00000000000E+00  0.00000000000E+00  0.17997082666E+04  0.17997082666E+04  0.25500000920E-02 0.  1.
        2   -1    0    0  501    0  0.00000000000E+00  0.00000000000E+00 -0.10227878482E+04  0.10227878482E+04  0.25500000920E-02 0. -1.
    10030    2    1    2    0    0  0.00000000000E+00  0.00000000000E+00  0.77692041842E+03  0.28224961148E+04  0.27134625447E+04 0.  0.
        5    1    3    3  502    0 -0.10002544992E+04  0.26347962418E+03  0.13016711380E+04  0.16626185423E+04  0.46999998093E+01 0.  1.
       -5    1    3    3    0  502  0.10002544992E+04 -0.26347962418E+03 -0.52475071960E+03  0.11598775725E+04  0.46999998093E+01 0. -1.
</event>
<event>
 5   0  0.1286641E-05  0.2644162E+04  0.7818609E-02  0.8353353E-01
        2   -1    0    0  501    0  0.00000000000E+00  0.00000000000E+00  0.10407760838E+04  0.10407760838E+04  0.25500000920E-02 0. -1.
       -2   -1    0    0    0  501  0.00000000000E+00  0.00000000000E+00 -0.16794181033E+04  0.16794181033E+04  0.25500000920E-02 0.  1.
    10030    2    1    2    0    0  0.00000000000E+00  0.00000000000E+00 -0.63864201946E+03  0.27201941871E+04  0.26441620197E+04 0.  0.
        4    1    3    3  502    0 -0.46977504421E+03  0.12008999384E+04 -0.19306550522E+02  0.12896602692E+04  0.12699999809E+01 0.  1.
       -4    1    3    3    0  502  0.46977504421E+03 -0.12008999384E+04 -0.61933546894E+03  0.14305339179E+04  0.12699999809E+01 0. -1.
</event>
<event>
 5   0  0.4756800E-06  0.2700265E+04  0.7818609E-02  0.8334919E-01
        1   -1    0    0  501    0  0.00000000000E+00  0.00000000000E+00  0.22229054540E+04  0.22229054540E+04  0.50400001928E-02 0.  1.
       -1   -1    0    0    0  501  0.00000000000E+00  0.00000000000E+00 -0.82003388812E+03  0.82003388814E+03  0.50400001928E-02 0. -1.
    10030    2    1    2    0    0  0.00000000000E+00  0.00000000000E+00  0.14028715658E+04  0.30429393421E+04  0.27002650258E+04 0.  0.
        4    1    3    3  502    0 -0.47211625466E+03  0.12549485510E+04  0.52301956701E+03  0.14392153084E+04  0.12699999809E+01 0.  1.
       -4    1    3    3    0  502  0.47211625466E+03 -0.12549485510E+04  0.87985199882E+03  0.16037240337E+04  0.12699999809E+01 0. -1.
</event>
<event>
 5   0  0.4846214E-06  0.2702930E+04  0.7818609E-02  0.8334055E-01
        1   -1    0    0  501    0  0.00000000000E+00  0.00000000000E+00  0.61531021706E+03  0.61531021708E+03  0.50400001928E-02 0.  1.
       -1   -1    0    0    0  501  0.00000000000E+00  0.00000000000E+00 -0.29683532149E+04  0.29683532150E+04  0.50400001928E-02 0. -1.
    10030    2    1    2    0    0  0.00000000000E+00  0.00000000000E+00 -0.23530429979E+04  0.35836634320E+04  0.27029303069E+04 0.  0.
        2    1    3    3  502    0 -0.30506681634E+03  0.93794591284E+03  0.48467615170E+02  0.98750058612E+03  0.25500000920E-02 0.  1.
       -2    1    3    3    0  502  0.30506681634E+03 -0.93794591284E+03 -0.24015106131E+04  0.25961628459E+04  0.25500000920E-02 0. -1.
</event>
<event>
 5   0  0.1220908E-05  0.2597485E+04  0.7818609E-02  0.8369056E-01
       -2   -1    0    0    0  501  0.00000000000E+00  0.00000000000E+00  0.11505668798E+04  0.11505668798E+04  0.25500000920E-02 0. -1.
        2   -1    0    0  501    0  0.00000000000E+00  0.00000000000E+00 -0.14660007751E+04  0.14660007751E+04  0.25500000920E-02 0.  1.
    10030    2    1    2    0    0  0.00000000000E+00  0.00000000000E+00 -0.31543389530E+03  0.26165676548E+04  0.25974848893E+04 0.  0.
        2    1    3    3  502    0  0.47907430898E+03 -0.21905139822E+03  0.10381168909E+04  0.11641230123E+04  0.25500000920E-02 0. -1.
       -2    1    3    3    0  502 -0.47907430898E+03  0.21905139822E+03 -0.13535507862E+04  0.14524446425E+04  0.25500000920E-02 0.  1.
</event>
<event>
 5   0  0.4846214E-06  0.2671922E+04  0.7818609E-02  0.8344173E-01
        1   -1    0    0  501    0  0.00000000000E+00  0.00000000000E+00  0.10266335302E+04  0.10266335302E+04  0.50400001928E-02 0.  1.
       -1   -1    0    0    0  501  0.00000000000E+00  0.00000000000E+00 -0.17384900830E+04  0.17384900830E+04  0.50400001928E-02 0. -1.
    10030    2    1    2    0    0  0.00000000000E+00  0.00000000000E+00 -0.71185655285E+03  0.27651236132E+04  0.26719223126E+04 0.  0.
        2    1    3    3  502    0 -0.13186556559E+04 -0.20459293528E+03 -0.42204096557E+03  0.13995819321E+04  0.25500000920E-02 0. -1.
       -2    1    3    3    0  502  0.13186556559E+04  0.20459293528E+03 -0.28981558727E+03  0.13655416811E+04  0.25500000920E-02 0.  1.
</event>
<event>
 5   0  0.1232559E-05  0.2743361E+04  0.7818609E-02  0.8321071E-01
       -2   -1    0    0    0  501  0.00000000000E+00  0.00000000000E+00  0.93714203364E+03  0.93714203364E+03  0.25500000920E-02 0.  1.
        2   -1    0    0  501    0  0.00000000000E+00  0.00000000000E+00 -0.20077075522E+04  0.20077075522E+04  0.25500000920E-02 0. -1.
    10030    2    1    2    0    0  0.00000000000E+00  0.00000000000E+00 -0.10705655185E+04  0.29448495858E+04  0.27433608136E+04 0.  0.
        3    1    3    3  502    0  0.57864322672E+03  0.76748799116E+03  0.51518233635E+03  0.10905405312E+04  0.10100000352E+00 0.  1.
       -3    1    3    3    0  502 -0.57864322672E+03 -0.76748799116E+03 -0.15857478549E+04  0.18543090546E+04  0.10100000352E+00 0. -1.
</event>
<event>
 5   0  0.1261364E-05  0.2703816E+04  0.7818609E-02  0.8333768E-01
       -2   -1    0    0    0  501  0.00000000000E+00  0.00000000000E+00  0.11381844766E+04  0.11381844766E+04  0.25500000920E-02 0.  1.
        2   -1    0    0  501    0  0.00000000000E+00  0.00000000000E+00 -0.16057641801E+04  0.16057641801E+04  0.25500000920E-02 0. -1.
    10030    2    1    2    0    0  0.00000000000E+00  0.00000000000E+00 -0.46757970349E+03  0.27439486567E+04  0.27038164604E+04 0.  0.
        5    1    3    3  502    0 -0.60339332787E+03 -0.20632118360E+02  0.99376081479E+03  0.11627948398E+04  0.46999998093E+01 0.  1.
       -5    1    3    3    0  502  0.60339332787E+03  0.20632118360E+02 -0.14613405183E+04  0.15811538169E+04  0.46999998093E+01 0. -1.
</event>
<event>
 5   0  0.4824715E-06  0.2710680E+04  0.7818609E-02  0.8331548E-01
        1   -1    0    0  501    0  0.00000000000E+00  0.00000000000E+00  0.98391852347E+03  0.98391852348E+03  0.50400001928E-02 0. -1.
       -1   -1    0    0    0  501  0.00000000000E+00  0.00000000000E+00 -0.18669704110E+04  0.18669704110E+04  0.50400001928E-02 0.  1.
    10030    2    1    2    0    0  0.00000000000E+00  0.00000000000E+00 -0.88305188751E+03  0.28508889345E+04  0.27106801878E+04 0.  0.
        5    1    3    3  502    0  0.53739518590E+03  0.72085069263E+03 -0.15081350796E+04  0.17558225466E+04  0.46999998093E+01 0.  1.
       -5    1    3    3    0  502 -0.53739518590E+03 -0.72085069263E+03  0.62508319205E+03  0.10950663879E+04  0.46999998093E+01 0. -1.
</event>
<event>
 5   0  0.5152288E-06  0.2363264E+04  0.7818609E-02  0.8453386E-01
       -1   -1    0    0    0  501  0.00000000000E+00  0.00000000000E+00  0.19101159371E+04  0.19101159371E+04  0.50400001928E-02 0. -1.
        1   -1    0    0  501    0  0.00000000000E+00  0.00000000000E+00 -0.73097898976E+03  0.73097898978E+03  0.50400001928E-02 0.  1.
    10030    2    1    2    0    0  0.00000000000E+00  0.00000000000E+00  0.11791369474E+04  0.26410949269E+04  0.23632643679E+04 0.  0.
        3    1    3    3  502    0  0.48779498089E+03  0.91106709840E+03 -0.50734599456E+02  0.10346792793E+04  0.10100000352E+00 0.  1.
       -3    1    3    3    0  502 -0.48779498089E+03 -0.91106709840E+03  0.12298715468E+04  0.16064156477E+04  0.10100000352E+00 0. -1.
</event>
<event>
 5   0  0.1232559E-05  0.2715800E+04  0.7818609E-02  0.8329896E-01
        2   -1    0    0  501    0  0.00000000000E+00  0.00000000000E+00  0.13677226168E+04  0.13677226168E+04  0.25500000920E-02 0.  1.
       -2   -1    0    0    0  501  0.00000000000E+00  0.00000000000E+00 -0.13481482027E+04  0.13481482027E+04  0.25500000920E-02 0. -1.
    10030    2    1    2    0    0  0.00000000000E+00  0.00000000000E+00  0.19574414081E+02  0.27158708195E+04  0.27158002781E+04 0.  0.
        3    1    3    3  502    0 -0.46008216841E+03  0.28398095790E+03 -0.12358662740E+04  0.13489574654E+04  0.10100000352E+00 0. -1.
       -3    1    3    3    0  502  0.46008216841E+03 -0.28398095790E+03  0.12554406881E+04  0.13669133541E+04  0.10100000352E+00 0.  1.
</event>
<event>
 5   0  0.1276517E-05  0.2708287E+04  0.7818609E-02  0.8332321E-01
        2   -1    0    0  501    0  0.00000000000E+00  0.00000000000E+00  0.27018679510E+04  0.27018679510E+04  0.25500000920E-02 0. -1.
       -2   -1    0    0    0  501  0.00000000000E+00  0.00000000000E+00 -0.67868027353E+03  0.67868027354E+03  0.25500000920E-02 0.  1.
    10030    2    1    2    0    0  0.00000000000E+00  0.00000000000E+00  0.20231876774E+04  0.33805482245E+04  0.27082868977E+04 0.  0.
        1    1    3    3  502    0  0.73663169888E+03  0.10994880076E+04  0.13694758288E+04  0.19044590267E+04  0.50400001928E-02 0.  1.
       -1    1    3    3    0  502 -0.73663169888E+03 -0.10994880076E+04  0.65371184862E+03  0.14760891978E+04  0.50400001928E-02 0. -1.
</event>
<event>
 5   0  0.1276517E-05  0.2655994E+04  0.7818609E-02  0.8349426E-01
        2   -1    0    0  501    0  0.00000000000E+00  0.00000000000E+00  0.16983966163E+04  0.16983966163E+04  0.25500000920E-02 0.  1.
       -2   -1    0    0    0  501  0.00000000000E+00  0.00000000000E+00 -0.10383770558E+04  0.10383770558E+04  0.25500000920E-02 0. -1.
    10030    2    1    2    0    0  0.00000000000E+00  0.00000000000E+00  0.66001956049E+03  0.27367736721E+04  0.26559940346E+04 0.  0.
        1    1    3    3  502    0  0.12636396806E+03 -0.37862718733E+03 -0.97510217650E+03  0.10536368701E+04  0.50400001928E-02 0. -1.
       -1    1    3    3    0  502 -0.12636396806E+03  0.37862718733E+03  0.16351217370E+04  0.16831368020E+04  0.50400001928E-02 0.  1.
</event>
<event>
 5   0  0.1220908E-05  0.2711707E+04  0.7818609E-02  0.8331217E-01
        2   -1    0    0  501    0  0.00000000000E+00  0.00000000000E+00  0.22167344447E+04  0.22167344447E+04  0.25500000920E-02 0.  1.
       -2   -1    0    0    0  501  0.00000000000E+00  0.00000000000E+00 -0.82930025876E+03  0.82930025876E+03  0.25500000920E-02 0. -1.
    10030    2    1    2    0    0  0.00000000000E+00  0.00000000000E+00  0.13874341859E+04  0.30460347035E+04  0.27117068046E+04 0.  0.
        2    1    3    3  502    0  0.17948053837E+03  0.10207116777E+04 -0.28829386436E+03  0.10757225223E+04  0.25500000920E-02 0. -1.
       -2    1    3    3    0  502 -0.17948053837E+03 -0.10207116777E+04  0.16757280503E+04  0.19703121812E+04  0.25500000920E-02 0.  1.
</event>
<event>
 5   0  0.4826140E-06  0.2754380E+04  0.7818609E-02  0.8317573E-01
       -1   -1    0    0    0  501  0.00000000000E+00  0.00000000000E+00  0.14906023459E+04  0.14906023459E+04  0.50400001928E-02 0. -1.
        1   -1    0    0  501    0  0.00000000000E+00  0.00000000000E+00 -0.12724064001E+04  0.12724064001E+04  0.50400001928E-02 0.  1.
    10030    2    1    2    0    0  0.00000000000E+00  0.00000000000E+00  0.21819594580E+03  0.27630087460E+04  0.27543797596E+04 0.  0.
        1    1    3    3  502    0 -0.97030176317E+03  0.66413472683E+03  0.82834596897E+03  0.14383036854E+04  0.50400001928E-02 0. -1.
       -1    1    3    3    0  502  0.97030176317E+03 -0.66413472683E+03 -0.61015002316E+03  0.13247050607E+04  0.50400001928E-02 0.  1.
</event>
<event>
 5   0  0.1276517E-05  0.2683047E+04  0.7818609E-02  0.8340527E-01
        2   -1    0    0  501    0  0.00000000000E+00  0.00000000000E+00  0.19579768351E+04  0.19579768351E+04  0.25500000920E-02 0. -1.
       -2   -1    0    0    0  501  0.00000000000E+00  0.00000000000E+00 -0.91915553364E+03  0.91915553364E+03  0.25500000920E-02 0.  1.
    10030    2    1    2    0    0  0.00000000000E+00  0.00000000000E+00  0.10388213014E+04  0.28771323687E+04  0.26830469565E+04 0.  0.
        1    1    3    3  502    0 -0.72874274326E+03 -0.41844496770E+03 -0.60195059724E+03  0.10336859767E+04  0.50400001928E-02 0.  1.
       -1    1    3    3    0  502  0.72874274326E+03  0.41844496770E+03  0.16407718986E+04  0.18434463920E+04  0.50400001928E-02 0. -1.
</event>
<event>
 5   0  0.1286641E-05  0.2705712E+04  0.7818609E-02  0.8333154E-01
        2   -1    0    0  501    0  0.00000000000E+00  0.00000000000E+00  0.19312577449E+04  0.19312577449E+04  0.25500000920E-02 0. -1.
       -2   -1    0    0    0  501  0.00000000000E+00  0.00000000000E+00 -0.94768236615E+03  0.94768236615E+03  0.25500000920E-02 0.  1.
    10030    2    1    2    0    0  0.00000000000E+00  0.00000000000E+00  0.98357537877E+03  0.28789401111E+04  0.27057116693E+04 0.  0.
        4    1    3    3  502    0 -0.18656706507E+03 -0.44410163767E+03  0.18369183525E+04  0.18990271670E+04  0.12699999809E+01 0. -1.
       -4    1    3    3    0  502  0.18656706507E+03  0.44410163767E+03 -0.85334297370E+03  0.97991294410E+03  0.12699999809E+01 0.  1.
</event>
<event>
 5   0  0.1232559E-05  0.2651425E+04  0.7818609E-02  0.8350940E-01
        2   -1    0    0  501    0  0.00000000000E+00  0.00000000000E+00  0.26017166007E+04  0.26017166007E+04  0.25500000920E-02 0. -1.
       -2   -1    0    0    0  501  0.00000000000E+00  0.00000000000E+00 -0.67552075974E+03  0.67552075974E+03  0.25500000920E-02 0.  1.
    10030    2    1    2    0    0  0.00000000000E+00  0.00000000000E+00  0.19261958410E+04  0.32772373605E+04  0.26514249563E+04 0.  0.
        3    1    3    3  502    0  0.91090572633E+02 -0.97495140214E+03  0.20677271952E+04  0.22878643957E+04  0.10100000352E+00 0. -1.
       -3    1    3    3    0  502 -0.91090572633E+02  0.97495140214E+03 -0.14153135427E+03  0.98937296476E+03  0.10100000352E+00 0.  1.
</event>
<event>
 5   0  0.4824715E-06  0.2702708E+04  0.7818609E-02  0.8334127E-01
        1   -1    0    0  501    0  0.00000000000E+00  0.00000000000E+00  0.13630277898E+04  0.13630277898E+04  0.50400001928E-02 0.  1.
       -1   -1    0    0    0  501  0.00000000000E+00  0.00000000000E+00 -0.13397800182E+04  0.13397800182E+04  0.50400001928E-02 0. -1.
    10030    2    1    2    0    0  0.00000000000E+00  0.00000000000E+00  0.23247771601E+02  0.27028078080E+04  0.27027078251E+04 0.  0.
        5    1    3    3  502    0 -0.94071679343E+03  0.63449236120E+03  0.74554930154E+03  0.13577166468E+04  0.46999998093E+01 0.  1.
       -5    1    3    3    0  502  0.94071679343E+03 -0.63449236120E+03 -0.72230152994E+03  0.13450911612E+04  0.46999998093E+01 0. -1.
</event>
<event>
 5   0  0.4846214E-06  0.2801134E+04  0.7818609E-02  0.8302916E-01
       -1   -1    0    0    0  501  0.00000000000E+00  0.00000000000E+00  0.15789529107E+04  0.15789529107E+04  0.50400001928E-02 0. -1.
        1   -1    0    0  501    0  0.00000000000E+00  0.00000000000E+00 -0.12423344925E+04  0.12423344925E+04  0.50400001928E-02 0.  1.
    10030    2    1    2    0    0  0.00000000000E+00  0.00000000000E+00  0.33661841827E+03  0.28212874032E+04  0.28011338155E+04 0.  0.
        2    1    3    3  502    0 -0.54782886001E+03  0.10720892030E+04 -0.55244824308E+03  0.13246474173E+04  0.25500000920E-02 0.  1.
       -2    1    3    3    0  502  0.54782886001E+03 -0.10720892030E+04  0.88906666135E+03  0.14966399859E+04  0.25500000920E-02 0. -1.
</event>
<event>
 5   0  0.1276517E-05  0.2723035E+04  0.7818609E-02  0.8327569E-01
        2   -1    0    0  501    0  0.00000000000E+00  0.00000000000E+00  0.11145266657E+04  0.11145266657E+04  0.25500000920E-02 0.  1.
       -2   -1    0    0    0  501  0.00000000000E+00  0.00000000000E+00 -0.16632439138E+04  0.16632439138E+04  0.25500000920E-02 0. -1.
    10030    2    1    2    0    0  0.00000000000E+00  0.00000000000E+00 -0.54871724810E+03  0.27777705796E+04  0.27230348464E+04 0.  0.
        1    1    3    3  502    0  0.97937992978E+03  0.25424022360E+03 -0.12036625511E+04  0.15724587992E+04  0.50400001928E-02 0. -1.
       -1    1    3    3    0  502 -0.97937992978E+03 -0.25424022360E+03  0.65494530297E+03  0.12053117804E+04  0.50400001928E-02 0.  1.
</event>
<event>
 5   0  0.1286641E-05  0.2712387E+04  0.7818609E-02  0.8330997E-01
        2   -1    0    0  501    0  0.00000000000E+00  0.00000000000E+00  0.23248027215E+04  0.23248027215E+04  0.25500000920E-02 0. -1.
       -2   -1    0    0    0  501  0.00000000000E+00  0.00000000000E+00 -0.79114728620E+03  0.79114728620E+03  0.25500000920E-02 0.  1.
    10030    2    1    2    0    0  0.00000000000E+00  0.00000000000E+00  0.15336554353E+04  0.31159500077E+04  0.27123874089E+04 0.  0.
        4    1    3    3  502    0  0.11543083046E+04 -0.67602154483E+03  0.10232589723E+04  0.16841892199E+04  0.12699999809E+01 0. -1.
       -4    1    3    3    0  502 -0.11543083046E+04  0.67602154483E+03  0.51039646296E+03  0.14317607878E+04  0.12699999809E+01 0.  1.
</event>
<event>
 5   0  0.1232559E-05  0.2702209E+04  0.7818609E-02  0.8334288E-01
        2   -1    0    0  501    0  0.00000000000E+00  0.00000000000E+00  0.12555270132E+04  0.12555270132E+04  0.25500000920E-02 0. -1.
       -2   -1    0    0    0  501  0.00000000000E+00  0.00000000000E+00 -0.14539583426E+04  0.14539583426E+04  0.25500000920E-02 0.  1.
    10030    2    1    2    0    0  0.00000000000E+00  0.00000000000E+00 -0.19843132947E+03  0.27094853558E+04  0.27022094480E+04 0.  0.
        3    1    3    3  502    0  0.62831691704E+03 -0.20080163307E+03 -0.12815345791E+04  0.14413307502E+04  0.10100000352E+00 0.  1.
       -3    1    3    3    0  502 -0.62831691704E+03  0.20080163307E+03  0.10831032496E+04  0.12681546055E+04  0.10100000352E+00 0. -1.
</event>
<event>
 5   0  0.4826140E-06  0.2698491E+04  0.7818609E-02  0.8335495E-01
        1   -1    0    0  501    0  0.00000000000E+00  0.00000000000E+00  0.11760615631E+04  0.11760615631E+04  0.50400001928E-02 0.  1.
       -1   -1    0    0    0  501  0.00000000000E+00  0.00000000000E+00 -0.15479325374E+04  0.15479325374E+04  0.50400001928E-02 0. -1.
    10030    2    1    2    0    0  0.00000000000E+00  0.00000000000E+00 -0.37187097429E+03  0.27239941005E+04  0.26984914004E+04 0.  0.
        1    1    3    3  502    0 -0.49110250812E+03  0.12530981441E+04 -0.90025304452E+02  0.13489036985E+04  0.50400001928E-02 0.  1.
       -1    1    3    3    0  502  0.49110250812E+03 -0.12530981441E+04 -0.28184566983E+03  0.13750904021E+04  0.50400001928E-02 0. -1.
</event>
<event>
 5   0  0.1220908E-05  0.2686988E+04  0.7818609E-02  0.8339239E-01
       -2   -1    0    0    0  501  0.00000000000E+00  0.00000000000E+00  0.84410586058E+03  0.84410586058E+03  0.25500000920E-02 0. -1.
        2   -1    0    0  501    0  0.00000000000E+00  0.00000000000E+00 -0.21383289542E+04  0.21383289542E+04  0.25500000920E-02 0.  1.
    10030    2    1    2    0    0  0.00000000000E+00  0.00000000000E+00 -0.12942230936E+04  0.29824348148E+04  0.26869879063E+04 0.  0.
        2    1    3    3  502    0 -0.25375807717E+03  0.99629581853E+03 -0.16070635307E+04  0.19077871243E+04  0.25500000920E-02 0.  1.
       -2    1    3    3    0  502  0.25375807717E+03 -0.99629581853E+03  0.31284043706E+03  0.10746476906E+04  0.25500000920E-02 0. -1.
</event>
<event>
 5   0  0.4826140E-06  0.2706676E+04  0.7818609E-02  0.8332842E-01
       -1   -1    0    0    0  501  0.00000000000E+00  0.00000000000E+00  0.13178841549E+04  0.13178841549E+04  0.50400001928E-02 0.  1.
        1   -1    0    0  501    0  0.00000000000E+00  0.00000000000E+00 -0.13897460433E+04  0.13897460433E+04  0.50400001928E-02 0. -1.
    10030    2    1    2    0    0  0.00000000000E+00  0.00000000000E+00 -0.71861888422E+02  0.27076301983E+04  0.27066764047E+04 0.  0.
        1    1    3    3  502    0 -0.13212431725E+04 -0.29233585017E+03 -0.16417158669E+02  0.13532971933E+04  0.50400001928E-02 0.  1.
       -1    1    3    3    0  502  0.13212431725E+04  0.29233585017E+03 -0.55444729752E+02  0.13543330050E+04  0.50400001928E-02 0. -1.
</event>
<event>
 5   0  0.4846214E-06  0.2705057E+04  0.7818609E-02  0.8333366E-01
        1   -1    0    0  501    0  0.00000000000E+00  0.00000000000E+00  0.13361490679E+04  0.13361490679E+04  0.50400001928E-02 0.  1.
       -1   -1    0    0    0  501  0.00000000000E+00  0.00000000000E+00 -0.13691092050E+04  0.13691092050E+04  0.50400001928E-02 0. -1.
    10030    2    1    2    0    0  0.00000000000E+00  0.00000000000E+00 -0.32960137054E+02  0.27052582729E+04  0.27050574767E+04 0.  0.
        2    1    3    3  502    0 -0.11895060862E+04 -0.34531709964E+02 -0.65934721524E+03  0.13604616564E+04  0.25500000920E-02 0.  1.
       -2    1    3    3    0  502  0.11895060862E+04  0.34531709964E+02  0.62638707819E+03  0.13447966165E+04  0.25500000920E-02 0. -1.
</event>
<event>
 5   0  0.1261364E-05  0.2703858E+04  0.7818609E-02  0.8333754E-01
        2   -1    0    0  501    0  0.00000000000E+00  0.00000000000E+00  0.15193319586E+04  0.15193319586E+04  0.25500000920E-02 0.  1.
       -2   -1    0    0    0  501  0.00000000000E+00  0.00000000000E+00 -0.12029711577E+04  0.12029711577E+04  0.25500000920E-02 0. -1.
    10030    2    1    2    0    0  0.00000000000E+00  0.00000000000E+00  0.31636080088E+03  0.27223031163E+04  0.27038583729E+04 0.  0.
        5    1    3    3  502    0  0.10946137579E+04  0.57298868881E+03  0.71073666272E+03  0.14253645183E+04  0.46999998093E+01 0.  1.
       -5    1    3    3    0  502 -0.10946137579E+04 -0.57298868881E+03 -0.39437586185E+03  0.12969385979E+04  0.46999998093E+01 0. -1.
</event>
<event>
 5   0  0.4826140E-06  0.2722413E+04  0.7818609E-02  0.8327769E-01
        1   -1    0    0  501    0  0.00000000000E+00  0.00000000000E+00  0.16029883435E+04  0.16029883436E+04  0.50400001928E-02 0. -1.
       -1   -1    0    0    0  501  0.00000000000E+00  0.00000000000E+00 -0.11558929949E+04  0.11558929949E+04  0.50400001928E-02 0.  1.
    10030    2    1    2    0    0  0.00000000000E+00  0.00000000000E+00  0.44709534869E+03  0.27588813384E+04  0.27224128983E+04 0.  0.
        1    1    3    3  502    0  0.46232313503E+03 -0.10861501141E+04 -0.46333592574E+03  0.12681265440E+04  0.50400001928E-02 0.  1.
       -1    1    3    3    0  502 -0.46232313503E+03  0.10861501141E+04  0.91043127443E+03  0.14907547944E+04  0.50400001928E-02 0. -1.
</event>
<event>
 5   0  0.1286641E-05  0.2688820E+04  0.7818609E-02  0.8338642E-01
        2   -1    0    0  501    0  0.00000000000E+00  0.00000000000E+00  0.16529999931E+04  0.16529999931E+04  0.25500000920E-02 0. -1.
       -2   -1    0    0    0  501  0.00000000000E+00  0.00000000000E+00 -0.10934291847E+04  0.10934291847E+04  0.25500000920E-02 0.  1.
    10030    2    1    2    0    0  0.00000000000E+00  0.00000000000E+00  0.55957080836E+03  0.27464291778E+04  0.26888201388E+04 0.  0.
        4    1    3    3  502    0  0.55122912007E+03  0.26094035756E+03 -0.94400559148E+03  0.11238734727E+04  0.12699999809E+01 0.  1.
       -4    1    3    3    0  502 -0.55122912007E+03 -0.26094035756E+03  0.15035763998E+04  0.16225557051E+04  0.12699999809E+01 0. -1.
</event>
<event>
 5   0  0.4188000E-06  0.2679644E+04  0.7818609E-02  0.8341640E-01
        3   -1    0    0  501    0  0.00000000000E+00  0.00000000000E+00  0.87485200723E+03  0.87485201306E+03  0.10100000352E+00 0. -1.
       -3   -1    0    0    0  501  0.00000000000E+00  0.00000000000E+00 -0.20519154655E+04  0.20519154680E+04  0.10100000352E+00 0.  1.
    10030    2    1    2    0    0  0.00000000000E+00  0.00000000000E+00 -0.11770634583E+04  0.29267674811E+04  0.26796435404E+04 0.  0.
        4    1    3    3  502    0 -0.10447179177E+04  0.13158143176E+03 -0.14934114093E+04  0.18273008650E+04  0.12699999809E+01 0.  1.
       -4    1    3    3    0  502  0.10447179177E+04 -0.13158143176E+03  0.31634795106E+03  0.10994666161E+04  0.12699999809E+01 0. -1.
</event>
<event>
 5   0  0.1232559E-05  0.2692886E+04  0.7818609E-02  0.8337317E-01
       -2   -1    0    0    0  501  0.00000000000E+00  0.00000000000E+00  0.93694126324E+03  0.93694126325E+03  0.25500000920E-02 0. -1.
        2   -1    0    0  501    0  0.00000000000E+00  0.00000000000E+00 -0.19349219729E+04  0.19349219729E+04  0.25500000920E-02 0.  1.
    10030    2    1    2    0    0  0.00000000000E+00  0.00000000000E+00 -0.99798070970E+03  0.28718632362E+04  0.26928856178E+04 0.  0.
        3    1    3    3  502    0 -0.79511021142E+03  0.51715309507E+03  0.52017164250E+03  0.10817699015E+04  0.10100000352E+00 0. -1.
       -3    1    3    3    0  502  0.79511021142E+03 -0.51715309507E+03 -0.15181523522E+04  0.17900933346E+04  0.10100000352E+00 0.  1.
</event>
<event>
 5   0  0.1232559E-05  0.2861324E+04  0.7818609E-02  0.8284479E-01
       -2   -1    0    0    0  501  0.00000000000E+00  0.00000000000E+00  0.15889588671E+04  0.15889588671E+04  0.25500000920E-02 0.  1.
        2   -1    0    0  501    0  0.00000000000E+00  0.00000000000E+00 -0.12881350520E+04  0.12881350520E+04  0.25500000920E-02 0. -1.
    10030    2    1    2    0    0  0.00000000000E+00  0.00000000000E+00  0.30082381507E+03  0.28770939191E+04  0.28613238984E+04 0.  0.
        3    1    3    3  502    0 -0.95478042619E+03 -0.89360071570E+03  0.73383881370E+03  0.14995490376E+04  0.10100000352E+00 0.  1.
       -3    1    3    3    0  502  0.95478042619E+03  0.89360071570E+03 -0.43301499862E+03  0.13775448815E+04  0.10100000352E+00 0. -1.
</event>
<event>
 5   0  0.5152288E-06  0.2696961E+04  0.7818609E-02  0.8335992E-01
       -1   -1    0    0    0  501  0.00000000000E+00  0.00000000000E+00  0.16307236751E+04  0.16307236751E+04  0.50400001928E-02 0.  1.
        1   -1    0    0  501    0  0.00000000000E+00  0.00000000000E+00 -0.11150875858E+04  0.11150875858E+04  0.50400001928E-02 0. -1.
    10030    2    1    2    0    0  0.00000000000E+00  0.00000000000E+00  0.51563608927E+03  0.27458112609E+04  0.26969610498E+04 0.  0.
        3    1    3    3  502    0  0.11163968701E+04  0.45690789773E+02 -0.51082029411E+03  0.12285629829E+04  0.10100000352E+00 0. -1.
       -3    1    3    3    0  502 -0.11163968701E+04 -0.45690789773E+02  0.10264563834E+04  0.15172482780E+04  0.10100000352E+00 0.  1.
</event>
<event>
 5   0  0.1220908E-05  0.2676828E+04  0.7818609E-02  0.8342563E-01
        2   -1    0    0  501    0  0.00000000000E+00  0.00000000000E+00  0.20971058711E+04  0.20971058711E+04  0.25500000920E-02 0.  1.
       -2   -1    0    0    0  501  0.00000000000E+00  0.00000000000E+00 -0.85420231128E+03  0.85420231129E+03  0.25500000920E-02 0. -1.
    10030    2    1    2    0    0  0.00000000000E+00  0.00000000000E+00  0.12429035598E+04  0.29513081824E+04  0.26768284832E+04 0.  0.
        2    1    3    3  502    0  0.61925853155E+03 -0.11800037274E+04  0.48435177304E+03  0.14179162759E+04  0.25500000920E-02 0. -1.
       -2    1    3    3    0  502 -0.61925853155E+03  0.11800037274E+04  0.75855178678E+03  0.15333919065E+04  0.25500000920E-02 0.  1.
</event>
<event>
 5   0  0.1286641E-05  0.2694563E+04  0.7818609E-02  0.8336771E-01
        2   -1    0    0  501    0  0.00000000000E+00  0.00000000000E+00  0.14839100182E+04  0.14839100182E+04  0.25500000920E-02 0. -1.
       -2   -1    0    0    0  501  0.00000000000E+00  0.00000000000E+00 -0.12232330003E+04  0.12232330003E+04  0.25500000920E-02 0.  1.
    10030    2    1    2    0    0  0.00000000000E+00  0.00000000000E+00  0.26067701790E+03  0.27071430186E+04  0.26945631956E+04 0.  0.
        4    1    3    3  502    0  0.11928249772E+04 -0.27478267031E+03 -0.43516511445E+03  0.12991178668E+04  0.12699999809E+01 0.  1.
       -4    1    3    3    0  502 -0.11928249772E+04  0.27478267031E+03  0.69584213236E+03  0.14080251518E+04  0.12699999809E+01 0. -1.
</event>
<event>
 5   0  0.1286641E-05  0.2755850E+04  0.7818609E-02  0.8317108E-01
       -2   -1    0    0    0  501  0.00000000000E+00  0.00000000000E+00  0.13157303325E+04  0.13157303325E+04  0.25500000920E-02 0. -1.
        2   -1    0    0  501    0  0.00000000000E+00  0.00000000000E+00 -0.14430600289E+04  0.14430600289E+04  0.25500000920E-02 0.  1.
    10030    2    1    2    0    0  0.00000000000E+00  0.00000000000E+00 -0.12732969635E+03  0.27587903614E+04  0.27558503963E+04 0.  0.
        4    1    3    3  502    0  0.36231514878E+03  0.44122530519E+03 -0.13190857271E+04  0.14373380971E+04  0.12699999809E+01 0.  1.
       -4    1    3    3    0  502 -0.36231514878E+03 -0.44122530519E+03  0.11917560308E+04  0.13214522643E+04  0.12699999809E+01 0. -1.
</event>
<event>
 5   0  0.4756800E-06  0.2723722E+04  0.7818609E-02  0.8327349E-01
       -1   -1    0    0    0  501  0.00000000000E+00  0.00000000000E+00  0.86177437139E+03  0.86177437140E+03  0.50400001928E-02 0.  1.
        1   -1    0    0  501    0  0.00000000000E+00  0.00000000000E+00 -0.21521469481E+04  0.21521469481E+04  0.50400001928E-02 0. -1.
    10030    2    1    2    0    0  0.00000000000E+00  0.00000000000E+00 -0.12903725767E+04  0.30139213195E+04  0.27237217797E+04 0.  0.
        4    1    3    3  502    0  0.96915842379E+03  0.45468775886E+03 -0.15766939471E+04  0.19057739699E+04  0.12699999809E+01 0. -1.
       -4    1    3    3    0  502 -0.96915842379E+03 -0.45468775886E+03  0.28632137041E+03  0.11081473496E+04  0.12699999809E+01 0.  1.
</event>
<event>
 5   0  0.4824715E-06  0.2730003E+04  0.7818609E-02  0.8325335E-01
        1   -1    0    0  501    0  0.00000000000E+00  0.00000000000E+00  0.14509405890E+04  0.14509405891E+04  0.50400001928E-02 0.  1.
       -1   -1    0    0    0  501  0.00000000000E+00  0.00000000000E+00 -0.12841524596E+04  0.12841524596E+04  0.50400001928E-02 0. -1.
    10030    2    1    2    0    0  0.00000000000E+00  0.00000000000E+00  0.16678812943E+03  0.27350930487E+04  0.27300028763E+04 0.  0.
        5    1    3    3  502    0  0.20398921866E+02 -0.15522295991E+03 -0.12751196654E+04  0.12847032865E+04  0.46999998093E+01 0. -1.
       -5    1    3    3    0  502 -0.20398921866E+02  0.15522295991E+03  0.14419077948E+04  0.14503897621E+04  0.46999998093E+01 0.  1.
</event>
<event>
 5   0  0.4826140E-06  0.2663677E+04  0.7818609E-02  0.8346888E-01
       -1   -1    0    0    0  501  0.00000000000E+00  0.00000000000E+00  0.12888094463E+04  0.12888094463E+04  0.50400001928E-02 0.  1.
        1   -1    0    0  501    0  0.00000000000E+00  0.00000000000E+00 -0.13763039022E+04  0.13763039022E+04  0.50400001928E-02 0. -1.
    10030    2    1    2    0    0  0.00000000000E+00  0.00000000000E+00 -0.87494455901E+02  0.26651133485E+04  0.26636767598E+04 0.  0.
        1    1    3    3  502    0  0.10833912786E+04 -0.75629726253E+03  0.12388792808E+03  0.13270532885E+04  0.50400001928E-02 0. -1.
       -1    1    3    3    0  502 -0.10833912786E+04  0.75629726253E+03 -0.21138238398E+03  0.13380600600E+04  0.50400001928E-02 0.  1.
</event>
<event>
 5   0  0.4756800E-06  0.2517350E+04  0.7818609E-02  0.8396831E-01
       -1   -1    0    0    0  501  0.00000000000E+00  0.00000000000E+00  0.12500931498E+04  0.12500931498E+04  0.50400001928E-02 0. -1.
        1   -1    0    0  501    0  0.00000000000E+00  0.00000000000E+00 -0.12673153249E+04  0.12673153249E+04  0.50400001928E-02 0.  1.
    10030    2    1    2    0    0  0.00000000000E+00  0.00000000000E+00 -0.17222175126E+02  0.25174084747E+04  0.25173495636E+04 0.  0.
        4    1    3    3  502    0 -0.98366014142E+03  0.53460649465E+03 -0.58383687081E+03  0.12626394903E+04  0.12699999809E+01 0.  1.
       -4    1    3    3    0  502  0.98366014142E+03 -0.53460649465E+03  0.56661469569E+03  0.12547689844E+04  0.12699999809E+01 0. -1.
</event>
<event>
 5   0  0.4826140E-06  0.2737097E+04  0.7818609E-02  0.8323068E-01
        1   -1    0    0  501    0  0.00000000000E+00  0.00000000000E+00  0.22218322872E+04  0.22218322872E+04  0.50400001928E-02 0. -1.
       -1   -1    0    0    0  501  0.00000000000E+00  0.00000000000E+00 -0.84296424839E+03  0.84296424840E+03  0.50400001928E-02 0.  1.
    10030    2    1    2    0    0  0.00000000000E+00  0.00000000000E+00  0.13788680388E+04  0.30647965356E+04  0.27370971368E+04 0.  0.
        1    1    3    3  502    0 -0.94736242472E+03 -0.98389210996E+03  0.59320319329E+03  0.14891035143E+04  0.50400001928E-02 0. -1.
       -1    1    3    3    0  502  0.94736242472E+03  0.98389210996E+03  0.78566484552E+03  0.15756930213E+04  0.50400001928E-02 0.  1.
</event>
<event>
 5   0  0.1220908E-05  0.2695764E+04  0.7818609E-02  0.8336381E-01
        2   -1    0    0  501    0  0.00000000000E+00  0.00000000000E+00  0.16049427901E+04  0.16049427901E+04  0.25500000920E-02 0.  1.
       -2   -1    0    0    0  501  0.00000000000E+00  0.00000000000E+00 -0.11319939063E+04  0.11319939063E+04  0.25500000920E-02 0. -1.
    10030    2    1    2    0    0  0.00000000000E+00  0.00000000000E+00  0.47294888378E+03  0.27369366964E+04  0.26957636828E+04 0.  0.
        2    1    3    3  502    0 -0.88392644356E+03  0.88825656823E+03 -0.26755505558E+03  0.12813709051E+04  0.25500000920E-02 0. -1.
       -2    1    3    3    0  502  0.88392644356E+03 -0.88825656823E+03  0.74050393937E+03  0.14555657913E+04  0.25500000920E-02 0.  1.
</event>
<event>
 5   0  0.4756800E-06  0.2714324E+04  0.7818609E-02  0.8330372E-01
        1   -1    0    0  501    0  0.00000000000E+00  0.00000000000E+00  0.16692695361E+04  0.16692695361E+04  0.50400001928E-02 0.  1.
       -1   -1    0    0    0  501  0.00000000000E+00  0.00000000000E+00 -0.11034096507E+04  0.11034096507E+04  0.50400001928E-02 0. -1.
    10030    2    1    2    0    0  0.00000000000E+00  0.00000000000E+00  0.56585988536E+03  0.27726791868E+04  0.27143235738E+04 0.  0.
        4    1    3    3  502    0 -0.11382273714E+04 -0.49642957292E+03  0.84231860718E+03  0.15005019556E+04  0.12699999809E+01 0.  1.
       -4    1    3    3    0  502  0.11382273714E+04  0.49642957292E+03 -0.27645872181E+03  0.12721772312E+04  0.12699999809E+01 0. -1.
</event>
<event>
 5   0  0.1220908E-05  0.2973840E+04  0.7818609E-02  0.8251241E-01
       -2   -1    0    0    0  501  0.00000000000E+00  0.00000000000E+00  0.15139868267E+04  0.15139868267E+04  0.25500000920E-02 0. -1.
        2   -1    0    0  501    0  0.00000000000E+00  0.00000000000E+00 -0.14603368019E+04  0.14603368019E+04  0.25500000920E-02 0.  1.
    10030    2    1    2    0    0  0.00000000000E+00  0.00000000000E+00  0.53650024884E+02  0.29743236286E+04  0.29738397271E+04 0.  0.
        2    1    3    3  502    0  0.14186421818E+04  0.41086167509E+03  0.19883475337E+03  0.14902644783E+04  0.25500000920E-02 0. -1.
       -2    1    3    3    0  502 -0.14186421818E+04 -0.41086167509E+03 -0.14518472849E+03  0.14840591503E+04  0.25500000920E-02 0.  1.
</event>
<event>
 5   0  0.4826140E-06  0.2686779E+04  0.7818609E-02  0.8339307E-01
       -1   -1    0    0    0  501  0.00000000000E+00  0.00000000000E+00  0.11780133610E+04  0.11780133610E+04  0.50400001928E-02 0.  1.
        1   -1    0    0  501    0  0.00000000000E+00  0.00000000000E+00 -0.15319823616E+04  0.15319823616E+04  0.50400001928E-02 0. -1.
    10030    2    1    2    0    0  0.00000000000E+00  0.00000000000E+00 -0.35396900062E+03  0.27099957226E+04  0.26867792546E+04 0.  0.
        1    1    3    3  502    0 -0.16856775949E+03  0.97612478177E+03 -0.10922732828E+04  0.14745492882E+04  0.50400001928E-02 0. -1.
       -1    1    3    3    0  502  0.16856775949E+03 -0.97612478177E+03  0.73830428215E+03  0.12354464344E+04  0.50400001928E-02 0.  1.
</event>
<event>
 5   0  0.5152288E-06  0.2656972E+04  0.7818609E-02  0.8349103E-01
       -1   -1    0    0    0  501  0.00000000000E+00  0.00000000000E+00  0.10757578056E+04  0.10757578056E+04  0.50400001928E-02 0.  1.
        1   -1    0    0  501    0  0.00000000000E+00  0.00000000000E+00 -0.16405874482E+04  0.16405874482E+04  0.50400001928E-02 0. -1.
    10030    2    1    2    0    0  0.00000000000E+00  0.00000000000E+00 -0.56482964256E+03  0.27163452538E+04  0.26569717749E+04 0.  0.
        3    1    3    3  502    0  0.11585443044E+04 -0.43139196441E+03  0.21481852740E+03  0.12547792404E+04  0.10100000352E+00 0.  1.
       -3    1    3    3    0  502 -0.11585443044E+04  0.43139196441E+03 -0.77964816996E+03  0.14615660133E+04  0.10100000352E+00 0. -1.
</event>
<event>
 5   0  0.1220908E-05  0.2688219E+04  0.7818609E-02  0.8338837E-01
       -2   -1    0    0    0  501  0.00000000000E+00  0.00000000000E+00  0.12449793852E+04  0.12449793852E+04  0.25500000920E-02 0. -1.
        2   -1    0    0  501    0  0.00000000000E+00  0.00000000000E+00 -0.14511331386E+04  0.14511331386E+04  0.25500000920E-02 0.  1.
    10030    2    1    2    0    0  0.00000000000E+00  0.00000000000E+00 -0.20615375335E+03  0.26961125238E+04  0.26882193681E+04 0.  0.
        2    1    3    3  502    0 -0.62592945769E+03 -0.91828082571E+03 -0.86134140614E+03  0.14060356961E+04  0.25500000920E-02 0.  1.
       -2    1    3    3    0  502  0.62592945769E+03  0.91828082571E+03  0.65518765278E+03  0.12900768276E+04  0.25500000920E-02 0. -1.
</event>
<event>
 5   0  0.1232559E-05  0.2664013E+04  0.7818609E-02  0.8346777E-01
       -2   -1    0    0    0  501  0.00000000000E+00  0.00000000000E+00  0.72757954691E+03  0.72757954691E+03  0.25500000920E-02 0.  1.
        2   -1    0    0  501    0  0.00000000000E+00  0.00000000000E+00 -0.24385523239E+04  0.24385523239E+04  0.25500000920E-02 0. -1.
    10030    2    1    2    0    0  0.00000000000E+00  0.00000000000E+00 -0.17109727770E+04  0.31661318708E+04  0.26640126088E+04 0.  0.
        3    1    3    3  502    0 -0.76000189847E+03 -0.98477881822E+03 -0.14215441562E+04  0.18889626795E+04  0.10100000352E+00 0. -1.
       -3    1    3    3    0  502  0.76000189847E+03  0.98477881822E+03 -0.28942862085E+03  0.12771691913E+04  0.10100000352E+00 0.  1.
</event>
<event>
 5   0  0.1261364E-05  0.2704687E+04  0.7818609E-02  0.8333486E-01
        2   -1    0    0  501    0  0.00000000000E+00  0.00000000000E+00  0.25989563389E+04  0.25989563389E+04  0.25500000920E-02 0.  1.
       -2   -1    0    0    0  501  0.00000000000E+00  0.00000000000E+00 -0.70367972812E+03  0.70367972812E+03  0.25500000920E-02 0. -1.
    10030    2    1    2    0    0  0.00000000000E+00  0.00000000000E+00  0.18952766108E+04  0.33026360670E+04  0.27046869615E+04 0.  0.
        5    1    3    3  502    0  0.60302520581E+03 -0.38149837877E+03  0.23503546771E+04  0.24562918414E+04  0.46999998093E+01 0.  1.
       -5    1    3    3    0  502 -0.60302520581E+03  0.38149837877E+03 -0.45507806632E+03  0.84634422565E+03  0.46999998093E+01 0. -1.
</event>
<event>
 5   0  0.4756800E-06  0.2727030E+04  0.7818609E-02  0.8326287E-01
        1   -1    0    0  501    0  0.00000000000E+00  0.00000000000E+00  0.21794797208E+04  0.21794797208E+04  0.50400001928E-02 0. -1.
       -1   -1    0    0    0  501  0.00000000000E+00  0.00000000000E+00 -0.85303562037E+03  0.85303562038E+03  0.50400001928E-02 0.  1.
    10030    2    1    2    0    0  0.00000000000E+00  0.00000000000E+00  0.13264441004E+04  0.30325153412E+04  0.27270304991E+04 0.  0.
        4    1    3    3  502    0 -0.11707869733E+04  0.56272029937E+03  0.11241087673E+04  0.17178528476E+04  0.12699999809E+01 0.  1.
       -4    1    3    3    0  502  0.11707869733E+04 -0.56272029937E+03  0.20233533310E+03  0.13146624936E+04  0.12699999809E+01 0. -1.
</event>
<event>
 5   0  0.4826140E-06  0.2737575E+04  0.7818609E-02  0.8322915E-01
        1   -1    0    0  501    0  0.00000000000E+00  0.00000000000E+00  0.15939625981E+04  0.15939625981E+04  0.50400001928E-02 0.  1.
       -1   -1    0    0    0  501  0.00000000000E+00  0.00000000000E+00 -0.11754223097E+04  0.11754223097E+04  0.50400001928E-02 0. -1.
    10030    2    1    2    0    0  0.00000000000E+00  0.00000000000E+00  0.41854028844E+03  0.27693849078E+04  0.27375749843E+04 0.  0.
        1    1    3    3  502    0  0.18080831791E+03  0.13018588672E+04  0.59587706617E+03  0.14431207974E+04  0.50400001928E-02 0.  1.
       -1    1    3    3    0  502 -0.18080831791E+03 -0.13018588672E+04 -0.17733677773E+03  0.13262641104E+04  0.50400001928E-02 0. -1.
</event>
<event>
 5   0  0.5152288E-06  0.2797602E+04  0.7818609E-02  0.8304013E-01
       -1   -1    0    0    0  501  0.00000000000E+00  0.00000000000E+00  0.11045093385E+04  0.11045093385E+04  0.50400001928E-02 0. -1.
        1   -1    0    0  501    0  0.00000000000E+00  0.00000000000E+00 -0.17715057201E+04  0.17715057202E+04  0.50400001928E-02 0.  1.
    10030    2    1    2    0    0  0.00000000000E+00  0.00000000000E+00 -0.66699638168E+03  0.28760150586E+04  0.27976022670E+04 0.  0.
        3    1    3    3  502    0 -0.12567852844E+04 -0.54146564557E+03 -0.35635353315E+02  0.13689281153E+04  0.10100000352E+00 0.  1.
       -3    1    3    3    0  502  0.12567852844E+04  0.54146564557E+03 -0.63136102837E+03  0.15070869433E+04  0.10100000352E+00 0. -1.
</event>
<event>
 5   0  0.1232559E-05  0.2651188E+04  0.7818609E-02  0.8351019E-01
       -2   -1    0    0    0  501  0.00000000000E+00  0.00000000000E+00  0.65059586352E+03  0.65059586352E+03  0.25500000920E-02 0. -1.
        2   -1    0    0  501    0  0.00000000000E+00  0.00000000000E+00 -0.27009083678E+04  0.27009083678E+04  0.25500000920E-02 0.  1.
    10030    2    1    2    0    0  0.00000000000E+00  0.00000000000E+00 -0.20503125042E+04  0.33515042313E+04  0.26511882708E+04 0.  0.
        3    1    3    3  502    0 -0.10420032100E+04  0.30220509894E+02  0.99947834390E+01  0.10424892684E+04  0.10100000352E+00 0. -1.
       -3    1    3    3    0  502  0.10420032100E+04 -0.30220509894E+02 -0.20603072877E+04  0.23090149629E+04  0.10100000352E+00 0.  1.
</event>
<event>
 5   0  0.1220908E-05  0.2691843E+04  0.7818609E-02  0.8337656E-01
        2   -1    0    0  501    0  0.00000000000E+00  0.00000000000E+00  0.13809507797E+04  0.13809507797E+04  0.25500000920E-02 0. -1.
       -2   -1    0    0    0  501  0.00000000000E+00  0.00000000000E+00 -0.13117812619E+04  0.13117812619E+04  0.25500000920E-02 0.  1.
    10030    2    1    2    0    0  0.00000000000E+00  0.00000000000E+00  0.69169517847E+02  0.26927320416E+04  0.26918434995E+04 0.  0.
        2    1    3    3  502    0  0.93122166456E+03 -0.66610541465E+03 -0.67320454951E+03  0.13281846925E+04  0.25500000920E-02 0.  1.
       -2    1    3    3    0  502 -0.93122166456E+03  0.66610541465E+03  0.74237406735E+03  0.13645473491E+04  0.25500000920E-02 0. -1.
</event>
<event>
 5   0  0.4846214E-06  0.2561960E+04  0.7818609E-02  0.8381238E-01
       -1   -1    0    0    0  501  0.00000000000E+00  0.00000000000E+00  0.11393826641E+04  0.11393826641E+04  0.50400001928E-02 0.  1.
        1   -1    0    0  501    0  0.00000000000E+00  0.00000000000E+00 -0.14401748678E+04  0.14401748678E+04  0.50400001928E-02 0. -1.
    10030    2    1    2    0    0  0.00000000000E+00  0.00000000000E+00 -0.30079220374E+03  0.25795575319E+04  0.25619604038E+04 0.  0.
        2    1    3    3  502    0 -0.40568954257E+03 -0.62182236392E+03 -0.12014353923E+04  0.14123363831E+04  0.25500000920E-02 0. -1.
       -2    1    3    3    0  502  0.40568954257E+03  0.62182236392E+03  0.90064318852E+03  0.11672211488E+04  0.25500000920E-02 0.  1.
</event>
<event>
 5   0  0.4846214E-06  0.2686272E+04  0.7818609E-02  0.8339473E-01
       -1   -1    0    0    0  501  0.00000000000E+00  0.00000000000E+00  0.10500149629E+04  0.10500149629E+04  0.50400001928E-02 0.  1.
        1   -1    0    0  501    0  0.00000000000E+00  0.00000000000E+00 -0.17180840542E+04  0.17180840542E+04  0.50400001928E-02 0. -1.
    10030    2    1    2    0    0  0.00000000000E+00  0.00000000000E+00 -0.66806909134E+03  0.27680990171E+04  0.26862717394E+04 0.  0.
        2    1    3    3  502    0  0.34630250992E+02 -0.78563964525E+03 -0.14560479274E+04  0.16548427337E+04  0.25500000920E-02 0. -1.
       -2    1    3    3    0  502 -0.34630250992E+02  0.78563964525E+03  0.78797883603E+03  0.11132562834E+04  0.25500000920E-02 0.  1.
</event>
<event>
 5   0  0.1276517E-05  0.2697485E+04  0.7818609E-02  0.8335821E-01
        2   -1    0    0  501    0  0.00000000000E+00  0.00000000000E+00  0.16209586409E+04  0.16209586409E+04  0.25500000920E-02 0. -1.
       -2   -1    0    0    0  501  0.00000000000E+00  0.00000000000E+00 -0.11222412242E+04  0.11222412242E+04  0.25500000920E-02 0.  1.
    10030    2    1    2    0    0  0.00000000000E+00  0.00000000000E+00  0.49871741663E+03  0.27431998651E+04  0.26974852063E+04 0.  0.
        1    1    3    3  502    0  0.45028993919E+03  0.18237732524E+03 -0.10301709930E+04  0.11389797158E+04  0.50400001928E-02 0.  1.
       -1    1    3    3    0  502 -0.45028993919E+03 -0.18237732524E+03  0.15288884097E+04  0.16042201493E+04  0.50400001928E-02 0. -1.
</event>
<event>
 5   0  0.5152288E-06  0.2705068E+04  0.7818609E-02  0.8333362E-01
        1   -1    0    0  501    0  0.00000000000E+00  0.00000000000E+00  0.13473028394E+04  0.13473028394E+04  0.50400001928E-02 0.  1.
       -1   -1    0    0    0  501  0.00000000000E+00  0.00000000000E+00 -0.13577859570E+04  0.13577859570E+04  0.50400001928E-02 0. -1.
    10030    2    1    2    0    0  0.00000000000E+00  0.00000000000E+00 -0.10483117661E+02  0.27050887964E+04  0.27050684836E+04 0.  0.
        3    1    3    3  502    0  0.57532575536E+03  0.72658024125E+03 -0.99035316041E+03  0.13563620329E+04  0.10100000352E+00 0. -1.
       -3    1    3    3    0  502 -0.57532575536E+03 -0.72658024125E+03  0.97987004275E+03  0.13487267635E+04  0.10100000352E+00 0.  1.
</event>
<event>
 5   0  0.1276517E-05  0.2704322E+04  0.7818609E-02  0.8333604E-01
        2   -1    0    0  501    0  0.00000000000E+00  0.00000000000E+00  0.24660477984E+04  0.24660477984E+04  0.25500000920E-02 0. -1.
       -2   -1    0    0    0  501  0.00000000000E+00  0.00000000000E+00 -0.74140463604E+03  0.74140463605E+03  0.25500000920E-02 0.  1.
    10030    2    1    2    0    0  0.00000000000E+00  0.00000000000E+00  0.17246431624E+04  0.32074524345E+04  0.27043219264E+04 0.  0.
        1    1    3    3  502    0 -0.37447777713E+02 -0.40945938131E+03 -0.66546139998E+03  0.78223921909E+03  0.50400001928E-02 0.  1.
       -1    1    3    3    0  502  0.37447777713E+02  0.40945938131E+03  0.23901045624E+04  0.24252132154E+04  0.50400001928E-02 0. -1.
</event>
<event>
 5   0  0.4846214E-06  0.2703792E+04  0.7818609E-02  0.8333776E-01
       -1   -1    0    0    0  501  0.00000000000E+00  0.00000000000E+00  0.96609339982E+03  0.96609339984E+03  0.50400001928E-02 0.  1.
        1   -1    0    0  501    0  0.00000000000E+00  0.00000000000E+00 -0.18917660322E+04  0.18917660322E+04  0.50400001928E-02 0. -1.
    10030    2    1    2    0    0  0.00000000000E+00  0.00000000000E+00 -0.92567263239E+03  0.28578594321E+04  0.27037919134E+04 0.  0.
        2    1    3    3  502    0  0.38474835996E+03  0.12952060066E+04 -0.41518087048E+03  0.14134939177E+04  0.25500000920E-02 0.  1.
       -2    1    3    3    0  502 -0.38474835996E+03 -0.12952060066E+04 -0.51049176191E+03  0.14443655144E+04  0.25500000920E-02 0. -1.
</event>
<event>
 5   0  0.4756800E-06  0.2735251E+04  0.7818609E-02  0.8323657E-01
        1   -1    0    0  501    0  0.00000000000E+00  0.00000000000E+00  0.22274489828E+04  0.22274489828E+04  0.50400001928E-02 0. -1.
       -1   -1    0    0    0  501  0.00000000000E+00  0.00000000000E+00 -0.83970445495E+03  0.83970445496E+03  0.50400001928E-02 0.  1.
    10030    2    1    2    0    0  0.00000000000E+00  0.00000000000E+00  0.13877445279E+04  0.30671534378E+04  0.27352505071E+04 0.  0.
        4    1    3    3  502    0 -0.10324582491E+04  0.36560409142E+03 -0.22450736792E+03  0.11180525743E+04  0.12699999809E+01 0.  1.
       -4    1    3    3    0  502  0.10324582491E+04 -0.36560409142E+03  0.16122518958E+04  0.19491008635E+04  0.12699999809E+01 0. -1.
</event>
<event>
 5   0  0.1286641E-05  0.2719058E+04  0.7818609E-02  0.8328848E-01
       -2   -1    0    0    0  501  0.00000000000E+00  0.00000000000E+00  0.14466390448E+04  0.14466390448E+04  0.25500000920E-02 0. -1.
        2   -1    0    0  501    0  0.00000000000E+00  0.00000000000E+00 -0.12776642597E+04  0.12776642597E+04  0.25500000920E-02 0.  1.
    10030    2    1    2    0    0  0.00000000000E+00  0.00000000000E+00  0.16897478512E+03  0.27243033045E+04  0.27190579282E+04 0.  0.
        4    1    3    3  502    0 -0.66929050351E+03  0.11779392018E+04 -0.28986775652E+02  0.13551134223E+04  0.12699999809E+01 0.  1.
       -4    1    3    3    0  502  0.66929050351E+03 -0.11779392018E+04  0.19796156077E+03  0.13691898822E+04  0.12699999809E+01 0. -1.
</event>
<event>
 5   0  0.1220908E-05  0.2700920E+04  0.7818609E-02  0.8334707E-01
       -2   -1    0    0    0  501  0.00000000000E+00  0.00000000000E+00  0.11821313483E+04  0.11821313483E+04  0.25500000920E-02 0. -1.
        2   -1    0    0  501    0  0.00000000000E+00  0.00000000000E+00 -0.15427572689E+04  0.15427572689E+04  0.25500000920E-02 0.  1.
    10030    2    1    2    0    0  0.00000000000E+00  0.00000000000E+00 -0.36062592059E+03  0.27248886172E+04  0.27009196437E+04 0.  0.
        2    1    3    3  502    0  0.18513626067E+03 -0.81749137911E+02 -0.15273712190E+04  0.15407209991E+04  0.25500000920E-02 0.  1.
       -2    1    3    3    0  502 -0.18513626067E+03  0.81749137911E+02  0.11667452984E+04  0.11841676181E+04  0.25500000920E-02 0. -1.
</event>
<event>
 5   0  0.4824715E-06  0.2714869E+04  0.7818609E-02  0.8330197E-01
       -1   -1    0    0    0  501  0.00000000000E+00  0.00000000000E+00  0.69646502942E+03  0.69646502943E+03  0.50400001928E-02 0. -1.
        1   -1    0    0  501    0  0.00000000000E+00  0.00000000000E+00 -0.26456873642E+04  0.26456873642E+04  0.50400001928E-02 0.  1.
    10030    2    1    2    0    0  0.00000000000E+00  0.00000000000E+00 -0.19492223348E+04  0.33421523936E+04  0.27148692255E+04 0.  0.
        5    1    3    3  502    0  0.77561533113E+02  0.56877153728E+03  0.53968102721E+03  0.78790516825E+03  0.46999998093E+01 0. -1.
       -5    1    3    3    0  502 -0.77561533113E+02 -0.56877153728E+03 -0.24889033620E+04  0.25542472254E+04  0.46999998093E+01 0.  1.
</event>
<event>
 5   0  0.1261364E-05  0.2786040E+04  0.7818609E-02  0.8307616E-01
        2   -1    0    0  501    0  0.00000000000E+00  0.00000000000E+00  0.13798738188E+04  0.13798738188E+04  0.25500000920E-02 0.  1.
       -2   -1    0    0    0  501  0.00000000000E+00  0.00000000000E+00 -0.14062909489E+04  0.14062909489E+04  0.25500000920E-02 0. -1.
    10030    2    1    2    0    0  0.00000000000E+00  0.00000000000E+00 -0.26417130094E+02  0.27861647676E+04  0.27860395273E+04 0.  0.
        5    1    3    3  502    0 -0.13910940853E+04 -0.37082971636E+02  0.49755133362E+02  0.13924853910E+04  0.46999998093E+01 0.  1.
       -5    1    3    3    0  502  0.13910940853E+04  0.37082971636E+02 -0.76172263456E+02  0.13936793766E+04  0.46999998093E+01 0. -1.
</event>
<event>
 5   0  0.1220908E-05  0.2698906E+04  0.7818609E-02  0.8335360E-01
        2   -1    0    0  501    0  0.00000000000E+00  0.00000000000E+00  0.15934818877E+04  0.15934818877E+04  0.25500000920E-02 0.  1.
       -2   -1    0    0    0  501  0.00000000000E+00  0.00000000000E+00 -0.11427953635E+04  0.11427953635E+04  0.25500000920E-02 0. -1.
    10030    2    1    2    0    0  0.00000000000E+00  0.00000000000E+00  0.45068652424E+03  0.27362772512E+04  0.26989062326E+04 0.  0.
        2    1    3    3  502    0  0.11283184640E+04 -0.47797137813E+02  0.97424363510E+03  0.14914884455E+04  0.25500000920E-02 0.  1.
       -2    1    3    3    0  502 -0.11283184640E+04  0.47797137813E+02 -0.52355711085E+03  0.12447888057E+04  0.25500000920E-02 0. -1.
</event>
<event>
 5   0  0.4188000E-06  0.2704383E+04  0.7818609E-02  0.8333584E-01
       -4   -1    0    0    0  501  0.00000000000E+00  0.00000000000E+00  0.17842563436E+04  0.17842567956E+04  0.12699999809E+01 0. -1.
        4   -1    0    0  501    0  0.00000000000E+00  0.00000000000E+00 -0.10247522554E+04  0.10247530424E+04  0.12699999809E+01 0.  1.
    10030    2    1    2    0    0  0.00000000000E+00  0.00000000000E+00  0.75950408817E+03  0.28090098379E+04  0.27043834435E+04 0.  0.
        5    1    3    3  502    0 -0.57015908088E+03  0.11870234123E+04  0.60798119378E+02  0.13182657017E+04  0.46999998093E+01 0.  1.
       -5    1    3    3    0  502  0.57015908088E+03 -0.11870234123E+04  0.69870596880E+03  0.14907441362E+04  0.46999998093E+01 0. -1.
</event>
<event>
 5   0  0.5152288E-06  0.2634389E+04  0.7818609E-02  0.8356613E-01
        1   -1    0    0  501    0  0.00000000000E+00  0.00000000000E+00  0.12022042417E+04  0.12022042417E+04  0.50400001928E-02 0.  1.
       -1   -1    0    0    0  501  0.00000000000E+00  0.00000000000E+00 -0.14431838873E+04  0.14431838873E+04  0.50400001928E-02 0. -1.
    10030    2    1    2    0    0  0.00000000000E+00  0.00000000000E+00 -0.24097964557E+03  0.26453881290E+04  0.26343893341E+04 0.  0.
        3    1    3    3  502    0  0.59879150505E+03 -0.11185274713E+04  0.23503185292E+03  0.12903080844E+04  0.10100000352E+00 0.  1.
       -3    1    3    3    0  502 -0.59879150505E+03  0.11185274713E+04 -0.47601149849E+03  0.13550800447E+04  0.10100000352E+00 0. -1.
</event>
<event>
 5   0  0.1276517E-05  0.2713936E+04  0.7818609E-02  0.8330497E-01
        2   -1    0    0  501    0  0.00000000000E+00  0.00000000000E+00  0.10277334025E+04  0.10277334026E+04  0.25500000920E-02 0. -1.
       -2   -1    0    0    0  501  0.00000000000E+00  0.00000000000E+00 -0.17916728298E+04  0.17916728298E+04  0.25500000920E-02 0.  1.
    10030    2    1    2    0    0  0.00000000000E+00  0.00000000000E+00 -0.76393942729E+03  0.28194062324E+04  0.27139358973E+04 0.  0.
        1    1    3    3  502    0 -0.33864391629E+03 -0.10004322128E+04 -0.12670279482E+04  0.16495163340E+04  0.50400001928E-02 0.  1.
       -1    1    3    3    0  502  0.33864391629E+03  0.10004322128E+04  0.50308852092E+03  0.11698898984E+04  0.50400001928E-02 0. -1.
</event>
<event>
 5   0  0.5152288E-06  0.2719799E+04  0.7818609E-02  0.8328609E-01
       -1   -1    0    0    0  501  0.00000000000E+00  0.00000000000E+00  0.12278967626E+04  0.12278967626E+04  0.50400001928E-02 0. -1.
        1   -1    0    0  501    0  0.00000000000E+00  0.00000000000E+00 -0.15060931911E+04  0.15060931911E+04  0.50400001928E-02 0.  1.
    10030    2    1    2    0    0  0.00000000000E+00  0.00000000000E+00 -0.27819642858E+03  0.27339899537E+04  0.27197992231E+04 0.  0.
        3    1    3    3  502    0 -0.11401783054E+04 -0.61835850296E+03 -0.54982909911E+03  0.14087887900E+04  0.10100000352E+00 0.  1.
       -3    1    3    3    0  502  0.11401783054E+04  0.61835850296E+03  0.27163267053E+03  0.13252011637E+04  0.10100000352E+00 0. -1.
</event>
<event>
 5   0  0.1220908E-05  0.2723472E+04  0.7818609E-02  0.8327429E-01
       -2   -1    0    0    0  501  0.00000000000E+00  0.00000000000E+00  0.10071013534E+04  0.10071013534E+04  0.25500000920E-02 0.  1.
        2   -1    0    0  501    0  0.00000000000E+00  0.00000000000E+00 -0.18412500223E+04  0.18412500223E+04  0.25500000920E-02 0. -1.
    10030    2    1    2    0    0  0.00000000000E+00  0.00000000000E+00 -0.83414866893E+03  0.28483513757E+04  0.27234723347E+04 0.  0.
        2    1    3    3  502    0 -0.47908102071E+03 -0.99091318645E+03 -0.12556486811E+04  0.16697548257E+04  0.25500000920E-02 0. -1.
       -2    1    3    3    0  502  0.47908102071E+03  0.99091318645E+03  0.42150001218E+03  0.11785965500E+04  0.25500000920E-02 0.  1.
</event>
<event>
 5   0  0.1232559E-05  0.2711971E+04  0.7818609E-02  0.8331131E-01
       -2   -1    0    0    0  501  0.00000000000E+00  0.00000000000E+00  0.88996958488E+03  0.88996958489E+03  0.25500000920E-02 0. -1.
        2   -1    0    0  501    0  0.00000000000E+00  0.00000000000E+00 -0.20660224682E+04  0.20660224682E+04  0.25500000920E-02 0.  1.
    10030    2    1    2    0    0  0.00000000000E+00  0.00000000000E+00 -0.11760528834E+04  0.29559920531E+04  0.27119713556E+04 0.  0.
        3    1    3    3  502    0  0.69981170812E+03 -0.30190953697E+03 -0.18104618452E+04  0.19643466849E+04  0.10100000352E+00 0.  1.
       -3    1    3    3    0  502 -0.69981170812E+03  0.30190953697E+03  0.63440896182E+03  0.99164536825E+03  0.10100000352E+00 0. -1.
</event>
<event>
 5   0  0.1276517E-05  0.2685152E+04  0.7818609E-02  0.8339839E-01
        2   -1    0    0  501    0  0.00000000000E+00  0.00000000000E+00  0.86592998285E+03  0.86592998286E+03  0.25500000920E-02 0. -1.
       -2   -1    0    0    0  501  0.00000000000E+00  0.00000000000E+00 -0.20815893863E+04  0.20815893863E+04  0.25500000920E-02 0.  1.
    10030    2    1    2    0    0  0.00000000000E+00  0.00000000000E+00 -0.12156594034E+04  0.29475193691E+04  0.26851522576E+04 0.  0.
        1    1    3    3  502    0 -0.56720161498E+03 -0.55466997422E+01  0.72793638807E+03  0.92284333612E+03  0.50400001928E-02 0. -1.
       -1    1    3    3    0  502  0.56720161498E+03  0.55466997422E+01 -0.19435957915E+04  0.20246760330E+04  0.50400001928E-02 0.  1.
</event>
<event>
 5   0  0.1261364E-05  0.2737918E+04  0.7818609E-02  0.8322806E-01
        2   -1    0    0  501    0  0.00000000000E+00  0.00000000000E+00  0.20492092673E+04  0.20492092673E+04  0.25500000920E-02 0. -1.
       -2   -1    0    0    0  501  0.00000000000E+00  0.00000000000E+00 -0.91452274885E+03  0.91452274885E+03  0.25500000920E-02 0.  1.
    10030    2    1    2    0    0  0.00000000000E+00  0.00000000000E+00  0.11346865184E+04  0.29637320161E+04  0.27379178162E+04 0.  0.
        5    1    3    3  502    0  0.68685025379E+03 -0.37080424944E+02 -0.71386655949E+03  0.99134544121E+03  0.46999998093E+01 0.  1.
       -5    1    3    3    0  502 -0.68685025379E+03  0.37080424944E+02  0.18485530779E+04  0.19723865749E+04  0.46999998093E+01 0. -1.
</event>
<event>
 5   0  0.4756800E-06  0.2731097E+04  0.7818609E-02  0.8324985E-01
       -1   -1    0    0    0  501  0.00000000000E+00  0.00000000000E+00  0.94832921086E+03  0.94832921087E+03  0.50400001928E-02 0.  1.
        1   -1    0    0  501    0  0.00000000000E+00  0.00000000000E+00 -0.19663241637E+04  0.19663241637E+04  0.50400001928E-02 0. -1.
    10030    2    1    2    0    0  0.00000000000E+00  0.00000000000E+00 -0.10179949528E+04  0.29146533746E+04  0.27310969536E+04 0.  0.
        4    1    3    3  502    0 -0.86386035991E+03 -0.52001262283E+03  0.47379390527E+03  0.11140691751E+04  0.12699999809E+01 0.  1.
       -4    1    3    3    0  502  0.86386035991E+03  0.52001262283E+03 -0.14917888581E+04  0.18005841995E+04  0.12699999809E+01 0. -1.
</event>
<event>
 5   0  0.4824715E-06  0.2686824E+04  0.7818609E-02  0.8339293E-01
       -1   -1    0    0    0  501  0.00000000000E+00  0.00000000000E+00  0.14125334870E+04  0.14125334870E+04  0.50400001928E-02 0. -1.
        1   -1    0    0  501    0  0.00000000000E+00  0.00000000000E+00 -0.12776730426E+04  0.12776730426E+04  0.50400001928E-02 0.  1.
    10030    2    1    2    0    0  0.00000000000E+00  0.00000000000E+00  0.13486044437E+03  0.26902065296E+04  0.26868241164E+04 0.  0.
        5    1    3    3  502    0  0.45157664040E+03  0.18288290876E+03  0.13209512678E+04  0.14079424570E+04  0.46999998093E+01 0. -1.
       -5    1    3    3    0  502 -0.45157664040E+03 -0.18288290876E+03 -0.11860908234E+04  0.12822640726E+04  0.46999998093E+01 0.  1.
</event>
<event>
 5   0  0.1286641E-05  0.2693829E+04  0.7818609E-02  0.8337010E-01
       -2   -1    0    0    0  501  0.00000000000E+00  0.00000000000E+00  0.20746705698E+04  0.20746705698E+04  0.25500000920E-02 0. -1.
        2   -1    0    0  501    0  0.00000000000E+00  0.00000000000E+00 -0.87444196841E+03  0.87444196841E+03  0.25500000920E-02 0.  1.
    10030    2    1    2    0    0  0.00000000000E+00  0.00000000000E+00  0.12002286014E+04  0.29491125382E+04  0.26938292573E+04 0.  0.
        4    1    3    3  502    0  0.29024147333E+02 -0.60447829372E+03  0.19174507618E+04  0.20106853174E+04  0.12699999809E+01 0. -1.
       -4    1    3    3    0  502 -0.29024147333E+02  0.60447829372E+03 -0.71722216035E+03  0.93842722089E+03  0.12699999809E+01 0.  1.
</event>
<event>
 5   0  0.4756800E-06  0.2697658E+04  0.7818609E-02  0.8335765E-01
        1   -1    0    0  501    0  0.00000000000E+00  0.00000000000E+00  0.13260490455E+04  0.13260490455E+04  0.50400001928E-02 0. -1.
       -1   -1    0    0    0  501  0.00000000000E+00  0.00000000000E+00 -0.13720001546E+04  0.13720001546E+04  0.50400001928E-02 0.  1.
    10030    2    1    2    0    0  0.00000000000E+00  0.00000000000E+00 -0.45951109105E+02  0.26980492001E+04  0.26976578697E+04 0.  0.
        4    1    3    3  502    0  0.10720350296E+04  0.80584252395E+03 -0.16685956857E+03  0.13514751225E+04  0.12699999809E+01 0.  1.
       -4    1    3    3    0  502 -0.10720350296E+04 -0.80584252395E+03  0.12090845947E+03  0.13465740777E+04  0.12699999809E+01 0. -1.
</event>
<event>
 5   0  0.4826140E-06  0.2675759E+04  0.7818609E-02  0.8342913E-01
        1   -1    0    0  501    0  0.00000000000E+00  0.00000000000E+00  0.18994816172E+04  0.18994816172E+04  0.50400001928E-02 0. -1.
       -1   -1    0    0    0  501  0.00000000000E+00  0.00000000000E+00 -0.94232121057E+03  0.94232121058E+03  0.50400001928E-02 0.  1.
    10030    2    1    2    0    0  0.00000000000E+00  0.00000000000E+00  0.95716040665E+03  0.28418028278E+04  0.26757591947E+04 0.  0.
        1    1    3    3  502    0 -0.47078482910E+03  0.79285757505E+03 -0.55093404422E+03  0.10741460844E+04  0.50400001928E-02 0.  1.
       -1    1    3    3    0  502  0.47078482910E+03 -0.79285757505E+03  0.15080944509E+04  0.17676567434E+04  0.50400001928E-02 0. -1.
</event>
<event>
 5   0  0.1276517E-05  0.2705933E+04  0.7818609E-02  0.8333082E-01
        2   -1    0    0  501    0  0.00000000000E+00  0.00000000000E+00  0.20786457490E+04  0.20786457490E+04  0.25500000920E-02 0.  1.
       -2   -1    0    0    0  501  0.00000000000E+00  0.00000000000E+00 -0.88063041722E+03  0.88063041722E+03  0.25500000920E-02 0. -1.
    10030    2    1    2    0    0  0.00000000000E+00  0.00000000000E+00  0.11980153318E+04  0.29592761662E+04  0.27059332388E+04 0.  0.
        1    1    3    3  502    0  0.73780603408E+03 -0.97242681429E+03 -0.39192571168E+02  0.12212729878E+04  0.50400001928E-02 0. -1.
       -1    1    3    3    0  502 -0.73780603408E+03  0.97242681429E+03  0.12372079030E+04  0.17380031784E+04  0.50400001928E-02 0.  1.
</event>
<event>
 5   0  0.4824715E-06  0.2695773E+04  0.7818609E-02  0.8336378E-01
        1   -1    0    0  501    0  0.00000000000E+00  0.00000000000E+00  0.18113813184E+04  0.18113813184E+04  0.50400001928E-02 0. -1.
       -1   -1    0    0    0  501  0.00000000000E+00  0.00000000000E+00 -0.10029905804E+04  0.10029905804E+04  0.50400001928E-02 0.  1.
    10030    2    1    2    0    0  0.00000000000E+00  0.00000000000E+00  0.80839073802E+03  0.28143718988E+04  0.26957732841E+04 0.  0.
        5    1    3    3  502    0  0.11474304851E+04  0.25019447642E+03  0.10947976396E+04  0.16055522277E+04  0.46999998093E+01 0. -1.
       -5    1    3    3    0  502 -0.11474304851E+04 -0.25019447642E+03 -0.28640690155E+03  0.12088196712E+04  0.46999998093E+01 0.  1.
</event>
<event>
 5   0  0.1286641E-05  0.2726598E+04  0.7818609E-02  0.8326426E-01
       -2   -1    0    0    0  501  0.00000000000E+00  0.00000000000E+00  0.11336358978E+04  0.11336358978E+04  0.25500000920E-02 0. -1.
        2   -1    0    0  501    0  0.00000000000E+00  0.00000000000E+00 -0.16394893040E+04  0.16394893040E+04  0.25500000920E-02 0.  1.
    10030    2    1    2    0    0  0.00000000000E+00  0.00000000000E+00 -0.50585340620E+03  0.27731252018E+04  0.27265978281E+04 0.  0.
        4    1    3    3  502    0 -0.79940869422E+03  0.45396534785E+03  0.77095119455E+03  0.11997942135E+04  0.12699999809E+01 0. -1.
       -4    1    3    3    0  502  0.79940869422E+03 -0.45396534785E+03 -0.12768046007E+04  0.15733309883E+04  0.12699999809E+01 0.  1.
</event>
<event>
 5   0  0.1276517E-05  0.2716234E+04  0.7818609E-02  0.8329757E-01
        2   -1    0    0  501    0  0.00000000000E+00  0.00000000000E+00  0.12682028595E+04  0.12682028595E+04  0.25500000920E-02 0.  1.
       -2   -1    0    0    0  501  0.00000000000E+00  0.00000000000E+00 -0.14544058912E+04  0.14544058912E+04  0.25500000920E-02 0. -1.
    10030    2    1    2    0    0  0.00000000000E+00  0.00000000000E+00 -0.18620303177E+03  0.27226087507E+04  0.27162339443E+04 0.  0.
        1    1    3    3  502    0  0.34018727471E+03  0.87045928236E+03  0.89463240950E+03  0.12937518666E+04  0.50400001928E-02 0.  1.
       -1    1    3    3    0  502 -0.34018727471E+03 -0.87045928236E+03 -0.10808354413E+04  0.14288568841E+04  0.50400001928E-02 0. -1.
</event>
<event>
 5   0  0.1232559E-05  0.2677894E+04  0.7818609E-02  0.8342213E-01
        2   -1    0    0  501    0  0.00000000000E+00  0.00000000000E+00  0.98176165754E+03  0.98176165754E+03  0.25500000920E-02 0. -1.
       -2   -1    0    0    0  501  0.00000000000E+00  0.00000000000E+00 -0.18260839700E+04  0.18260839700E+04  0.25500000920E-02 0.  1.
    10030    2    1    2    0    0  0.00000000000E+00  0.00000000000E+00 -0.84432231244E+03  0.28078456275E+04  0.26778941168E+04 0.  0.
        3    1    3    3  502    0  0.11760476783E+04 -0.50054290282E+03 -0.38684912986E+01  0.12781417428E+04  0.10100000352E+00 0. -1.
       -3    1    3    3    0  502 -0.11760476783E+04  0.50054290282E+03 -0.84045382114E+03  0.15297038847E+04  0.10100000352E+00 0.  1.
</event>
<event>
 5   0  0.1220908E-05  0.2747518E+04  0.7818609E-02  0.8319750E-01
        2   -1    0    0  501    0  0.00000000000E+00  0.00000000000E+00  0.14883263690E+04  0.14883263690E+04  0.25500000920E-02 0.  1.
       -2   -1    0    0    0  501  0.00000000000E+00  0.00000000000E+00 -0.12680105245E+04  0.12680105245E+04  0.25500000920E-02 0. -1.
    10030    2    1    2    0    0  0.00000000000E+00  0.00000000000E+00  0.22031584457E+03  0.27563368935E+04  0.27475177887E+04 0.  0.
        2    1    3    3  502    0 -0.22348166725E+03  0.87225008905E+03  0.11510089137E+04  0.14613643601E+04  0.25500000920E-02 0.  1.
       -2    1    3    3    0  502  0.22348166725E+03 -0.87225008905E+03 -0.93069306911E+03  0.12949725334E+04  0.25500000920E-02 0. -1.
</event>
<event>
 5   0  0.1276517E-05  0.2696367E+04  0.7818609E-02  0.8336185E-01
        2   -1    0    0  501    0  0.00000000000E+00  0.00000000000E+00  0.15542295986E+04  0.15542295986E+04  0.25500000920E-02 0. -1.
       -2   -1    0    0    0  501  0.00000000000E+00  0.00000000000E+00 -0.11694529169E+04  0.11694529169E+04  0.25500000920E-02 0.  1.
    10030    2    1    2    0    0  0.00000000000E+00  0.00000000000E+00  0.38477668171E+03  0.27236825155E+04  0.26963666943E+04 0.  0.
        1    1    3    3  502    0 -0.25260912731E+03  0.73162925651E+03 -0.92265383098E+03  0.12043184097E+04  0.50400001928E-02 0.  1.
       -1    1    3    3    0  502  0.25260912731E+03 -0.73162925651E+03  0.13074305127E+04  0.15193641057E+04  0.50400001928E-02 0. -1.
</event>
<event>
 5   0  0.1261364E-05  0.2726173E+04  0.7818609E-02  0.8326563E-01
        2   -1    0    0  501    0  0.00000000000E+00  0.00000000000E+00  0.17694173061E+04  0.17694173061E+04  0.25500000920E-02 0.  1.
       -2   -1    0    0    0  501  0.00000000000E+00  0.00000000000E+00 -0.10500655885E+04  0.10500655885E+04  0.25500000920E-02 0. -1.
    10030    2    1    2    0    0  0.00000000000E+00  0.00000000000E+00  0.71935171754E+03  0.28194828946E+04  0.27261725733E+04 0.  0.
        5    1    3    3  502    0 -0.51269624835E+03  0.12180848285E+04  0.14494684348E+02  0.13216732873E+04  0.46999998093E+01 0. -1.
       -5    1    3    3    0  502  0.51269624835E+03 -0.12180848285E+04  0.70485703319E+03  0.14978096073E+04  0.46999998093E+01 0.  1.
</event>
<event>
 5   0  0.1220908E-05  0.2797385E+04  0.7818609E-02  0.8304081E-01
        2   -1    0    0  501    0  0.00000000000E+00  0.00000000000E+00  0.20980739114E+04  0.20980739114E+04  0.25500000920E-02 0. -1.
       -2   -1    0    0    0  501  0.00000000000E+00  0.00000000000E+00 -0.93244582970E+03  0.93244582971E+03  0.25500000920E-02 0.  1.
    10030    2    1    2    0    0  0.00000000000E+00  0.00000000000E+00  0.11656280817E+04  0.30305197411E+04  0.27973846851E+04 0.  0.
        2    1    3    3  502    0 -0.98833316065E+02 -0.12251265862E+04 -0.14038125165E+03  0.12370974385E+04  0.25500000920E-02 0.  1.
       -2    1    3    3    0  502  0.98833316065E+02  0.12251265862E+04  0.13060093334E+04  0.17934223026E+04  0.25500000920E-02 0. -1.
</event>
<event>
 5   0  0.5152288E-06  0.2707098E+04  0.7818609E-02  0.8332705E-01
       -1   -1    0    0    0  501  0.00000000000E+00  0.00000000000E+00  0.20167471023E+04  0.20167471023E+04  0.50400001928E-02 0.  1.
        1   -1    0    0  501    0  0.00000000000E+00  0.00000000000E+00 -0.90844084237E+03  0.90844084238E+03  0.50400001928E-02 0. -1.
    10030    2    1    2    0    0  0.00000000000E+00  0.00000000000E+00  0.11083062599E+04  0.29251879447E+04  0.27070983997E+04 0.  0.
        3    1    3    3  502    0  0.43500607114E+03  0.67712158060E+03  0.17301162685E+04  0.19081473291E+04  0.10100000352E+00 0.  1.
       -3    1    3    3    0  502 -0.43500607114E+03 -0.67712158060E+03 -0.62181000855E+03  0.10170406156E+04  0.10100000352E+00 0. -1.
</event>
<event>
 5   0  0.4826140E-06  0.2726466E+04  0.7818609E-02  0.8326468E-01
        1   -1    0    0  501    0  0.00000000000E+00  0.00000000000E+00  0.19193592776E+04  0.19193592776E+04  0.50400001928E-02 0. -1.
       -1   -1    0    0    0  501  0.00000000000E+00  0.00000000000E+00 -0.96824205644E+03  0.96824205645E+03  0.50400001928E-02 0.  1.
    10030    2    1    2    0    0  0.00000000000E+00  0.00000000000E+00  0.95111722115E+03  0.28876013340E+04  0.27264661186E+04 0.  0.
        1    1    3    3  502    0 -0.13339288486E+03  0.51023692671E+03  0.18069404776E+04  0.18823308085E+04  0.50400001928E-02 0. -1.
       -1    1    3    3    0  502  0.13339288486E+03 -0.51023692671E+03 -0.85582325647E+03  0.10052705255E+04  0.50400001928E-02 0.  1.
</event>
<event>
 5   0  0.1220908E-05  0.2689491E+04  0.7818609E-02  0.8338423E-01
       -2   -1    0    0    0  501  0.00000000000E+00  0.00000000000E+00  0.11286258182E+04  0.11286258182E+04  0.25500000920E-02 0.  1.
        2   -1    0    0  501    0  0.00000000000E+00  0.00000000000E+00 -0.16022492111E+04  0.16022492111E+04  0.25500000920E-02 0. -1.
    10030    2    1    2    0    0  0.00000000000E+00  0.00000000000E+00 -0.47362339297E+03  0.27308750293E+04  0.26894905293E+04 0.  0.
        2    1    3    3  502    0 -0.79507753780E+03 -0.10833981309E+04 -0.28696840153E+03  0.13741363341E+04  0.25500000920E-02 0. -1.
       -2    1    3    3    0  502  0.79507753780E+03  0.10833981309E+04 -0.18665499143E+03  0.13567386952E+04  0.25500000920E-02 0.  1.
</event>
<event>
 5   0  0.1261364E-05  0.2699900E+04  0.7818609E-02  0.8335038E-01
        2   -1    0    0  501    0  0.00000000000E+00  0.00000000000E+00  0.11923847413E+04  0.11923847413E+04  0.25500000920E-02 0.  1.
       -2   -1    0    0    0  501  0.00000000000E+00  0.00000000000E+00 -0.15283359612E+04  0.15283359612E+04  0.25500000920E-02 0. -1.
    10030    2    1    2    0    0  0.00000000000E+00  0.00000000000E+00 -0.33595121988E+03  0.27207207024E+04  0.26998996127E+04 0.  0.
        5    1    3    3  502    0 -0.47685200531E+03  0.11383239380E+03 -0.14354498364E+04  0.15168664976E+04  0.46999998093E+01 0. -1.
       -5    1    3    3    0  502  0.47685200531E+03 -0.11383239380E+03  0.10994986165E+04  0.12038542048E+04  0.46999998093E+01 0.  1.
</event>
<event>
 5   0  0.1261364E-05  0.2791502E+04  0.7818609E-02  0.8305912E-01
       -2   -1    0    0    0  501  0.00000000000E+00  0.00000000000E+00  0.11358608784E+04  0.11358608784E+04  0.25500000920E-02 0. -1.
        2   -1    0    0  501    0  0.00000000000E+00  0.00000000000E+00 -0.17151045899E+04  0.17151045899E+04  0.25500000920E-02 0.  1.
    10030    2    1    2    0    0  0.00000000000E+00  0.00000000000E+00 -0.57924371150E+03  0.28509654684E+04  0.27915015358E+04 0.  0.
        5    1    3    3  502    0  0.47153581730E+03 -0.11303910004E+04 -0.97318354649E+03  0.15643650936E+04  0.46999998093E+01 0.  1.
       -5    1    3    3    0  502 -0.47153581730E+03  0.11303910004E+04  0.39393983499E+03  0.12866003748E+04  0.46999998093E+01 0. -1.
</event>
<event>
 5   0  0.4756800E-06  0.2702958E+04  0.7818609E-02  0.8334046E-01
       -1   -1    0    0    0  501  0.00000000000E+00  0.00000000000E+00  0.88166964904E+03  0.88166964906E+03  0.50400001928E-02 0.  1.
        1   -1    0    0  501    0  0.00000000000E+00  0.00000000000E+00 -0.20716323888E+04  0.20716323888E+04  0.50400001928E-02 0. -1.
    10030    2    1    2    0    0  0.00000000000E+00  0.00000000000E+00 -0.11899627398E+04  0.29533020379E+04  0.27029579362E+04 0.  0.
        4    1    3    3  502    0  0.68955797839E+03 -0.23997810843E+03  0.64763586171E+03  0.97596799146E+03  0.12699999809E+01 0.  1.
       -4    1    3    3    0  502 -0.68955797839E+03  0.23997810843E+03 -0.18375986015E+04  0.19773340464E+04  0.12699999809E+01 0. -1.
</event>
<event>
 5   0  0.4824715E-06  0.2658238E+04  0.7818609E-02  0.8348684E-01
       -1   -1    0    0    0  501  0.00000000000E+00  0.00000000000E+00  0.10126291479E+04  0.10126291479E+04  0.50400001928E-02 0. -1.
        1   -1    0    0  501    0  0.00000000000E+00  0.00000000000E+00 -0.17445250647E+04  0.17445250647E+04  0.50400001928E-02 0.  1.
    10030    2    1    2    0    0  0.00000000000E+00  0.00000000000E+00 -0.73189591679E+03  0.27571542127E+04  0.26582377094E+04 0.  0.
        5    1    3    3  502    0  0.65548459438E+03 -0.65547052507E+03 -0.13538791672E+04  0.16408267892E+04  0.46999998093E+01 0.  1.
       -5    1    3    3    0  502 -0.65548459438E+03  0.65547052507E+03  0.62198325039E+03  0.11163274235E+04  0.46999998093E+01 0. -1.
</event>
<event>
 5   0  0.1276517E-05  0.2711870E+04  0.7818609E-02  0.8331164E-01
       -2   -1    0    0    0  501  0.00000000000E+00  0.00000000000E+00  0.74353194138E+03  0.74353194139E+03  0.25500000920E-02 0.  1.
        2   -1    0    0  501    0  0.00000000000E+00  0.00000000000E+00 -0.24727376112E+04  0.24727376112E+04  0.25500000920E-02 0. -1.
    10030    2    1    2    0    0  0.00000000000E+00  0.00000000000E+00 -0.17292056698E+04  0.32162695526E+04  0.27118697584E+04 0.  0.
        1    1    3    3  502    0  0.69002022688E+03  0.35932837338E+03 -0.21817082894E+04  0.23162676558E+04  0.50400001928E-02 0. -1.
       -1    1    3    3    0  502 -0.69002022688E+03 -0.35932837338E+03  0.45250261958E+03  0.90000189676E+03  0.50400001928E-02 0.  1.
</event>
<event>
 5   0  0.1286641E-05  0.2682002E+04  0.7818609E-02  0.8340868E-01
        2   -1    0    0  501    0  0.00000000000E+00  0.00000000000E+00  0.10905623575E+04  0.10905623575E+04  0.25500000920E-02 0. -1.
       -2   -1    0    0    0  501  0.00000000000E+00  0.00000000000E+00 -0.16489506296E+04  0.16489506296E+04  0.25500000920E-02 0.  1.
    10030    2    1    2    0    0  0.00000000000E+00  0.00000000000E+00 -0.55838827210E+03  0.27395129870E+04  0.26820018538E+04 0.  0.
        4    1    3    3  502    0 -0.92646807826E+03  0.54817662178E+03 -0.10959919848E+04  0.15362424133E+04  0.12699999809E+01 0.  1.
       -4    1    3    3    0  502  0.92646807826E+03 -0.54817662178E+03  0.53760371274E+03  0.12032705737E+04  0.12699999809E+01 0. -1.
</event>
<event>
 5   0  0.1220908E-05  0.2702408E+04  0.7818609E-02  0.8334224E-01
       -2   -1    0    0    0  501  0.00000000000E+00  0.00000000000E+00  0.11706410309E+04  0.11706410309E+04  0.25500000920E-02 0.  1.
        2   -1    0    0  501    0  0.00000000000E+00  0.00000000000E+00 -0.15596173631E+04  0.15596173631E+04  0.25500000920E-02 0. -1.
    10030    2    1    2    0    0  0.00000000000E+00  0.00000000000E+00 -0.38897633222E+03  0.27302583940E+04  0.27024078728E+04 0.  0.
        2    1    3    3  502    0  0.19466951877E+03  0.97841723932E+03  0.72625223299E+03  0.12339525200E+04  0.25500000920E-02 0.  1.
       -2    1    3    3    0  502 -0.19466951877E+03 -0.97841723932E+03 -0.11152285652E+04  0.14963058739E+04  0.25500000920E-02 0. -1.
</event>
<event>
 5   0  0.1220908E-05  0.2698013E+04  0.7818609E-02  0.8335650E-01
       -2   -1    0    0    0  501  0.00000000000E+00  0.00000000000E+00  0.92369650775E+03  0.92369650775E+03  0.25500000920E-02 0. -1.
        2   -1    0    0  501    0  0.00000000000E+00  0.00000000000E+00 -0.19701472598E+04  0.19701472598E+04  0.25500000920E-02 0.  1.
    10030    2    1    2    0    0  0.00000000000E+00  0.00000000000E+00 -0.10464507520E+04  0.28938437675E+04  0.26980127084E+04 0.  0.
        2    1    3    3  502    0 -0.77201794419E+03  0.60031767805E+03  0.47342636635E+03  0.10865199239E+04  0.25500000920E-02 0. -1.
       -2    1    3    3    0  502  0.77201794419E+03 -0.60031767805E+03 -0.15198771184E+04  0.18073238436E+04  0.25500000920E-02 0.  1.
</event>
<event>
 5   0  0.4846214E-06  0.2687843E+04  0.7818609E-02  0.8338960E-01
       -1   -1    0    0    0  501  0.00000000000E+00  0.00000000000E+00  0.30205751507E+04  0.30205751507E+04  0.50400001928E-02 0. -1.
        1   -1    0    0  501    0  0.00000000000E+00  0.00000000000E+00 -0.59794063664E+03  0.59794063666E+03  0.50400001928E-02 0.  1.
    10030    2    1    2    0    0  0.00000000000E+00  0.00000000000E+00  0.24226345140E+04  0.36185157873E+04  0.26878427251E+04 0.  0.
        2    1    3    3  502    0 -0.18814852019E+03  0.12779974833E+04  0.71220922335E+03  0.14750997969E+04  0.25500000920E-02 0.  1.
       -2    1    3    3    0  502  0.18814852019E+03 -0.12779974833E+04  0.17104252907E+04  0.21434159904E+04  0.25500000920E-02 0. -1.
</event>
<event>
 5   0  0.5152288E-06  0.2693394E+04  0.7818609E-02  0.8337152E-01
       -1   -1    0    0    0  501  0.00000000000E+00  0.00000000000E+00  0.13376870991E+04  0.13376870991E+04  0.50400001928E-02 0. -1.
        1   -1    0    0  501    0  0.00000000000E+00  0.00000000000E+00 -0.13557675587E+04  0.13557675587E+04  0.50400001928E-02 0.  1.
    10030    2    1    2    0    0  0.00000000000E+00  0.00000000000E+00 -0.18080459641E+02  0.26934546579E+04  0.26933939725E+04 0.  0.
        3    1    3    3  502    0 -0.12063792552E+04 -0.50040777999E+03  0.31934790662E+03  0.13445229449E+04  0.10100000352E+00 0. -1.
       -3    1    3    3    0  502  0.12063792552E+04  0.50040777999E+03 -0.33742836626E+03  0.13489317130E+04  0.10100000352E+00 0.  1.
</event>
<event>
 5   0  0.1261364E-05  0.2717156E+04  0.7818609E-02  0.8329460E-01
        2   -1    0    0  501    0  0.00000000000E+00  0.00000000000E+00  0.20093092362E+04  0.20093092362E+04  0.25500000920E-02 0. -1.
       -2   -1    0    0    0  501  0.00000000000E+00  0.00000000000E+00 -0.91859160373E+03  0.91859160374E+03  0.25500000920E-02 0.  1.
    10030    2    1    2    0    0  0.00000000000E+00  0.00000000000E+00  0.10907176325E+04  0.29279008400E+04  0.27171563030E+04 0.  0.
        5    1    3    3  502    0  0.53694620176E+03 -0.71518253090E+03 -0.55666247582E+03  0.10534194217E+04  0.46999998093E+01 0.  1.
       -5    1    3    3    0  502 -0.53694620176E+03  0.71518253090E+03  0.16473801083E+04  0.18744814182E+04  0.46999998093E+01 0. -1.
</event>
<event>
 5   0  0.1276517E-05  0.2297282E+04  0.7818609E-02  0.8478993E-01
        2   -1    0    0  501    0  0.00000000000E+00  0.00000000000E+00  0.19054777499E+04  0.19054777499E+04  0.25500000920E-02 0. -1.
       -2   -1    0    0    0  501  0.00000000000E+00  0.00000000000E+00 -0.69241234904E+03  0.69241234904E+03  0.25500000920E-02 0.  1.
    10030    2    1    2    0    0  0.00000000000E+00  0.00000000000E+00  0.12130654009E+04  0.25978900990E+04  0.22972821550E+04 0.  0.
        1    1    3    3  502    0 -0.80609350706E+03  0.77573716805E+03  0.31202957833E+03  0.11614290137E+04  0.50400001928E-02 0. -1.
       -1    1    3    3    0  502  0.80609350706E+03 -0.77573716805E+03  0.90103582254E+03  0.14364610853E+04  0.50400001928E-02 0.  1.
</event>
<event>
 5   0  0.4756800E-06  0.2703792E+04  0.7818609E-02  0.8333776E-01
       -1   -1    0    0    0  501  0.00000000000E+00  0.00000000000E+00  0.11276238677E+04  0.11276238677E+04  0.50400001928E-02 0.  1.
        1   -1    0    0  501    0  0.00000000000E+00  0.00000000000E+00 -0.16207728923E+04  0.16207728923E+04  0.50400001928E-02 0. -1.
    10030    2    1    2    0    0  0.00000000000E+00  0.00000000000E+00 -0.49314902456E+03  0.27483967600E+04  0.27037915582E+04 0.  0.
        4    1    3    3  502    0 -0.36247575078E+03  0.76106973806E+03  0.82774566803E+03  0.11814314707E+04  0.12699999809E+01 0.  1.
       -4    1    3    3    0  502  0.36247575078E+03 -0.76106973806E+03 -0.13208946926E+04  0.15669652893E+04  0.12699999809E+01 0. -1.
</event>
<event>
 5   0  0.5152288E-06  0.2701607E+04  0.7818609E-02  0.8334484E-01
        1   -1    0    0  501    0  0.00000000000E+00  0.00000000000E+00  0.10650773870E+04  0.10650773870E+04  0.50400001928E-02 0. -1.
       -1   -1    0    0    0  501  0.00000000000E+00  0.00000000000E+00 -0.17131811365E+04  0.17131811365E+04  0.50400001928E-02 0.  1.
    10030    2    1    2    0    0  0.00000000000E+00  0.00000000000E+00 -0.64810374955E+03  0.27782585235E+04  0.27016072907E+04 0.  0.
        3    1    3    3  502    0 -0.12789814599E+03  0.50098453424E+03 -0.16073877878E+04  0.16885019839E+04  0.10100000352E+00 0.  1.
       -3    1    3    3    0  502  0.12789814599E+03 -0.50098453424E+03  0.95928403822E+03  0.10897565395E+04  0.10100000352E+00 0. -1.
</event>
<event>
 5   0  0.1261364E-05  0.2709965E+04  0.7818609E-02  0.8331779E-01
        2   -1    0    0  501    0  0.00000000000E+00  0.00000000000E+00  0.19036331739E+04  0.19036331739E+04  0.25500000920E-02 0.  1.
       -2   -1    0    0    0  501  0.00000000000E+00  0.00000000000E+00 -0.96445961353E+03  0.96445961354E+03  0.25500000920E-02 0. -1.
    10030    2    1    2    0    0  0.00000000000E+00  0.00000000000E+00  0.93917356037E+03  0.28680927874E+04  0.27099648080E+04 0.  0.
        5    1    3    3  502    0 -0.52727533598E+03 -0.34143846714E+03 -0.80103160183E+03  0.10179750606E+04  0.46999998093E+01 0. -1.
       -5    1    3    3    0  502  0.52727533598E+03  0.34143846714E+03  0.17402051622E+04  0.18501177269E+04  0.46999998093E+01 0.  1.
</event>
<event>
 5   0  0.4188000E-06  0.2681316E+04  0.7818609E-02  0.8341093E-01
       -4   -1    0    0    0  501  0.00000000000E+00  0.00000000000E+00  0.82921887481E+03  0.82921984735E+03  0.12699999809E+01 0. -1.
        4   -1    0    0  501    0  0.00000000000E+00  0.00000000000E+00 -0.21675365431E+04  0.21675369151E+04  0.12699999809E+01 0.  1.
    10030    2    1    2    0    0  0.00000000000E+00  0.00000000000E+00 -0.13383176683E+04  0.29967567625E+04  0.26813162649E+04 0.  0.
        4    1    3    3  502    0  0.67456564799E+03  0.92941445253E+03  0.10396690113E+03  0.11531091741E+04  0.12699999809E+01 0. -1.
       -4    1    3    3    0  502 -0.67456564799E+03 -0.92941445253E+03 -0.14422845694E+04  0.18436475884E+04  0.12699999809E+01 0.  1.
</event>
<event>
 5   0  0.1220908E-05  0.2699892E+04  0.7818609E-02  0.8335040E-01
       -2   -1    0    0    0  501  0.00000000000E+00  0.00000000000E+00  0.12949604578E+04  0.12949604578E+04  0.25500000920E-02 0. -1.
        2   -1    0    0  501    0  0.00000000000E+00  0.00000000000E+00 -0.14072662861E+04  0.14072662861E+04  0.25500000920E-02 0.  1.
    10030    2    1    2    0    0  0.00000000000E+00  0.00000000000E+00 -0.11230582827E+03  0.27022267439E+04  0.26998919935E+04 0.  0.
        2    1    3    3  502    0  0.31901192054E+03  0.70818787974E+03  0.10489103423E+04  0.13051864176E+04  0.25500000920E-02 0. -1.
       -2    1    3    3    0  502 -0.31901192054E+03 -0.70818787974E+03 -0.11612161706E+04  0.13970403263E+04  0.25500000920E-02 0.  1.
</event>
<event>
 5   0  0.1286641E-05  0.2593799E+04  0.7818609E-02  0.8370311E-01
       -2   -1    0    0    0  501  0.00000000000E+00  0.00000000000E+00  0.14073424216E+04  0.14073424216E+04  0.25500000920E-02 0. -1.
        2   -1    0    0  501    0  0.00000000000E+00  0.00000000000E+00 -0.11951233573E+04  0.11951233573E+04  0.25500000920E-02 0.  1.
    10030    2    1    2    0    0  0.00000000000E+00  0.00000000000E+00  0.21221906431E+03  0.26024657790E+04  0.25937986043E+04 0.  0.
        4    1    3    3  502    0 -0.12184253842E+04  0.11061413810E+03 -0.32561921221E+03  0.12660274044E+04  0.12699999809E+01 0.  1.
       -4    1    3    3    0  502  0.12184253842E+04 -0.11061413810E+03  0.53783827652E+03  0.13364383746E+04  0.12699999809E+01 0. -1.
</event>
<event>
 5   0  0.4826140E-06  0.2687386E+04  0.7818609E-02  0.8339109E-01
       -1   -1    0    0    0  501  0.00000000000E+00  0.00000000000E+00  0.14734275641E+04  0.14734275641E+04  0.50400001928E-02 0. -1.
        1   -1    0    0  501    0  0.00000000000E+00  0.00000000000E+00 -0.12253813643E+04  0.12253813643E+04  0.50400001928E-02 0.  1.
    10030    2    1    2    0    0  0.00000000000E+00  0.00000000000E+00  0.24804619983E+03  0.26988089284E+04  0.26873858515E+04 0.  0.
        1    1    3    3  502    0 -0.11567794392E+04  0.22052318857E+03  0.77387610287E+03  0.14091321337E+04  0.50400001928E-02 0. -1.
       -1    1    3    3    0  502  0.11567794392E+04 -0.22052318857E+03 -0.52582990304E+03  0.12896767947E+04  0.50400001928E-02 0.  1.
</event>
<event>
 5   0  0.4826140E-06  0.2703294E+04  0.7818609E-02  0.8333937E-01
       -1   -1    0    0    0  501  0.00000000000E+00  0.00000000000E+00  0.95956965350E+03  0.95956965351E+03  0.50400001928E-02 0.  1.
        1   -1    0    0  501    0  0.00000000000E+00  0.00000000000E+00 -0.19039253966E+04  0.19039253966E+04  0.50400001928E-02 0. -1.
    10030    2    1    2    0    0  0.00000000000E+00  0.00000000000E+00 -0.94435574310E+03  0.28634950501E+04  0.27032935713E+04 0.  0.
        1    1    3    3  502    0 -0.79985665343E+03 -0.62438926506E+03  0.47366408984E+03  0.11198170790E+04  0.50400001928E-02 0.  1.
       -1    1    3    3    0  502  0.79985665343E+03  0.62438926506E+03 -0.14180198329E+04  0.17436779711E+04  0.50400001928E-02 0. -1.
</event>
<event>
 5   0  0.4824715E-06  0.2676458E+04  0.7818609E-02  0.8342684E-01
       -1   -1    0    0    0  501  0.00000000000E+00  0.00000000000E+00  0.13156311250E+04  0.13156311250E+04  0.50400001928E-02 0.  1.
        1   -1    0    0  501    0  0.00000000000E+00  0.00000000000E+00 -0.13612148043E+04  0.13612148043E+04  0.50400001928E-02 0. -1.
    10030    2    1    2    0    0  0.00000000000E+00  0.00000000000E+00 -0.45583679253E+02  0.26768459293E+04  0.26764577818E+04 0.  0.
        5    1    3    3  502    0  0.66882139265E+03  0.43412876168E+03 -0.10976777301E+04  0.13567270640E+04  0.46999998093E+01 0. -1.
       -5    1    3    3    0  502 -0.66882139265E+03 -0.43412876168E+03  0.10520940508E+04  0.13201188654E+04  0.46999998093E+01 0.  1.
</event>
<event>
 5   0  0.1276517E-05  0.2706537E+04  0.7818609E-02  0.8332887E-01
        2   -1    0    0  501    0  0.00000000000E+00  0.00000000000E+00  0.13282012485E+04  0.13282012485E+04  0.25500000920E-02 0.  1.
       -2   -1    0    0    0  501  0.00000000000E+00  0.00000000000E+00 -0.13788089463E+04  0.13788089463E+04  0.25500000920E-02 0. -1.
    10030    2    1    2    0    0  0.00000000000E+00  0.00000000000E+00 -0.50607697750E+02  0.27070101948E+04  0.27065370966E+04 0.  0.
        1    1    3    3  502    0 -0.11715740315E+04 -0.23136669873E+03  0.61137596006E+03  0.13416023349E+04  0.50400001928E-02 0.  1.
       -1    1    3    3    0  502  0.11715740315E+04  0.23136669873E+03 -0.66198365781E+03  0.13654078598E+04  0.50400001928E-02 0. -1.
</event>
<event>
 5   0  0.1286641E-05  0.2679435E+04  0.7818609E-02  0.8341709E-01
       -2   -1    0    0    0  501  0.00000000000E+00  0.00000000000E+00  0.15459350717E+04  0.15459350717E+04  0.25500000920E-02 0.  1.
        2   -1    0    0  501    0  0.00000000000E+00  0.00000000000E+00 -0.11610076905E+04  0.11610076905E+04  0.25500000920E-02 0. -1.
    10030    2    1    2    0    0  0.00000000000E+00  0.00000000000E+00  0.38492738123E+03  0.27069427623E+04  0.26794346473E+04 0.  0.
        4    1    3    3  502    0  0.11936601948E+04  0.45308559522E+03 -0.21757215786E+03  0.12951642652E+04  0.12699999809E+01 0.  1.
       -4    1    3    3    0  502 -0.11936601948E+04 -0.45308559522E+03  0.60249953909E+03  0.14117784970E+04  0.12699999809E+01 0. -1.
</event>
<event>
 5   0  0.4756800E-06  0.2625709E+04  0.7818609E-02  0.8359521E-01
       -1   -1    0    0    0  501  0.00000000000E+00  0.00000000000E+00  0.10877773573E+04  0.10877773573E+04  0.50400001928E-02 0.  1.
        1   -1    0    0  501    0  0.00000000000E+00  0.00000000000E+00 -0.15845032339E+04  0.15845032339E+04  0.50400001928E-02 0. -1.
    10030    2    1    2    0    0  0.00000000000E+00  0.00000000000E+00 -0.49672587659E+03  0.26722805912E+04  0.26257088494E+04 0.  0.
        4    1    3    3  502    0  0.73669004961E+03  0.95229760870E+03 -0.78109947732E+03  0.14351658340E+04  0.12699999809E+01 0. -1.
       -4    1    3    3    0  502 -0.73669004961E+03 -0.95229760870E+03  0.28437360072E+03  0.12371147572E+04  0.12699999809E+01 0.  1.
</event>
<event>
 5   0  0.4824715E-06  0.2708035E+04  0.7818609E-02  0.8332403E-01
       -1   -1    0    0    0  501  0.00000000000E+00  0.00000000000E+00  0.20327611436E+04  0.20327611436E+04  0.50400001928E-02 0.  1.
        1   -1    0    0  501    0  0.00000000000E+00  0.00000000000E+00 -0.90190766397E+03  0.90190766399E+03  0.50400001928E-02 0. -1.
    10030    2    1    2    0    0  0.00000000000E+00  0.00000000000E+00  0.11308534796E+04  0.29346688076E+04  0.27080346043E+04 0.  0.
        5    1    3    3  502    0 -0.44616609262E+03  0.11428548339E+04  0.11862204644E+04  0.17065527925E+04  0.46999998093E+01 0. -1.
       -5    1    3    3    0  502  0.44616609262E+03 -0.11428548339E+04 -0.55366984731E+02  0.12281160151E+04  0.46999998093E+01 0.  1.
</event>
<event>
 5   0  0.1276517E-05  0.2704970E+04  0.7818609E-02  0.8333394E-01
        2   -1    0    0  501    0  0.00000000000E+00  0.00000000000E+00  0.14502061566E+04  0.14502061566E+04  0.25500000920E-02 0. -1.
       -2   -1    0    0    0  501  0.00000000000E+00  0.00000000000E+00 -0.12613490519E+04  0.12613490519E+04  0.25500000920E-02 0.  1.
    10030    2    1    2    0    0  0.00000000000E+00  0.00000000000E+00  0.18885710469E+03  0.27115552084E+04  0.27049703589E+04 0.  0.
        1    1    3    3  502    0 -0.30953343054E+03 -0.51056952356E+03  0.13109411752E+04  0.14405064901E+04  0.50400001928E-02 0. -1.
       -1    1    3    3    0  502  0.30953343054E+03  0.51056952356E+03 -0.11220840706E+04  0.12710487184E+04  0.50400001928E-02 0.  1.
</event>
<event>
 5   0  0.5152288E-06  0.2647285E+04  0.7818609E-02  0.8352315E-01
       -1   -1    0    0    0  501  0.00000000000E+00  0.00000000000E+00  0.13621959701E+04  0.13621959701E+04  0.50400001928E-02 0. -1.
        1   -1    0    0  501    0  0.00000000000E+00  0.00000000000E+00 -0.12861804760E+04  0.12861804760E+04  0.50400001928E-02 0.  1.
    10030    2    1    2    0    0  0.00000000000E+00  0.00000000000E+00  0.76015494098E+02  0.26483764461E+04  0.26472852973E+04 0.  0.
        3    1    3    3  502    0  0.52403258281E+01  0.64084091436E+03  0.11966411084E+04  0.13574441024E+04  0.10100000352E+00 0. -1.
       -3    1    3    3    0  502 -0.52403258281E+01 -0.64084091436E+03 -0.11206256143E+04  0.12909323438E+04  0.10100000352E+00 0.  1.
</event>
<event>
 5   0  0.1220908E-05  0.2690223E+04  0.7818609E-02  0.8338184E-01
        2   -1    0    0  501    0  0.00000000000E+00  0.00000000000E+00  0.12801112684E+04  0.12801112684E+04  0.25500000920E-02 0. -1.
       -2   -1    0    0    0  501  0.00000000000E+00  0.00000000000E+00 -0.14134127090E+04  0.14134127090E+04  0.25500000920E-02 0.  1.
    10030    2    1    2    0    0  0.00000000000E+00  0.00000000000E+00 -0.13330144059E+03  0.26935239775E+04  0.26902234374E+04 0.  0.
        2    1    3    3  502    0  0.57277532101E+03  0.99501904565E+03  0.63505937330E+03  0.13120346326E+04  0.25500000920E-02 0. -1.
       -2    1    3    3    0  502 -0.57277532101E+03 -0.99501904565E+03 -0.76836081389E+03  0.13814893448E+04  0.25500000920E-02 0.  1.
</event>
<event>
 5   0  0.1220908E-05  0.2690736E+04  0.7818609E-02  0.8338017E-01
       -2   -1    0    0    0  501  0.00000000000E+00  0.00000000000E+00  0.20786202278E+04  0.20786202278E+04  0.25500000920E-02 0. -1.
        2   -1    0    0  501    0  0.00000000000E+00  0.00000000000E+00 -0.87077737409E+03  0.87077737409E+03  0.25500000920E-02 0.  1.
    10030    2    1    2    0    0  0.00000000000E+00  0.00000000000E+00  0.12078428538E+04  0.29493976019E+04  0.26907363035E+04 0.  0.
        2    1    3    3  502    0 -0.68549687694E+03  0.83595502997E+03 -0.27386522524E+03  0.11152259601E+04  0.25500000920E-02 0.  1.
       -2    1    3    3    0  502  0.68549687694E+03 -0.83595502997E+03  0.14817080790E+04  0.18341716419E+04  0.25500000920E-02 0. -1.
</event>
<event>
 5   0  0.1286641E-05  0.2715170E+04  0.7818609E-02  0.8330100E-01
        2   -1    0    0  501    0  0.00000000000E+00  0.00000000000E+00  0.10053763902E+04  0.10053763902E+04  0.25500000920E-02 0.  1.
       -2   -1    0    0    0  501  0.00000000000E+00  0.00000000000E+00 -0.18331805430E+04  0.18331805430E+04  0.25500000920E-02 0. -1.
    10030    2    1    2    0    0  0.00000000000E+00  0.00000000000E+00 -0.82780415281E+03  0.28385569332E+04  0.27151695615E+04 0.  0.
        4    1    3    3  502    0  0.27203257928E+02  0.20237945569E+03  0.98922880004E+03  0.10100854880E+04  0.12699999809E+01 0.  1.
       -4    1    3    3    0  502 -0.27203257928E+02 -0.20237945569E+03 -0.18170329528E+04  0.18284714452E+04  0.12699999809E+01 0. -1.
</event>
<event>
 5   0  0.1261364E-05  0.2718053E+04  0.7818609E-02  0.8329171E-01
       -2   -1    0    0    0  501  0.00000000000E+00  0.00000000000E+00  0.62203443170E+03  0.62203443171E+03  0.25500000920E-02 0. -1.
        2   -1    0    0  501    0  0.00000000000E+00  0.00000000000E+00 -0.29692141889E+04  0.29692141889E+04  0.25500000920E-02 0.  1.
    10030    2    1    2    0    0  0.00000000000E+00  0.00000000000E+00 -0.23471797572E+04  0.35912486206E+04  0.27180533185E+04 0.  0.
        5    1    3    3  502    0 -0.46696117616E+03  0.19435170812E+03  0.49303194016E+03  0.70634829264E+03  0.46999998093E+01 0. -1.
       -5    1    3    3    0  502  0.46696117616E+03 -0.19435170812E+03 -0.28402116974E+04  0.28849003280E+04  0.46999998093E+01 0.  1.
</event>
<event>
 5   0  0.1276517E-05  0.2615199E+04  0.7818609E-02  0.8363057E-01
       -2   -1    0    0    0  501  0.00000000000E+00  0.00000000000E+00  0.81108177387E+03  0.81108177387E+03  0.25500000920E-02 0. -1.
        2   -1    0    0  501    0  0.00000000000E+00  0.00000000000E+00 -0.21080695058E+04  0.21080695058E+04  0.25500000920E-02 0.  1.
    10030    2    1    2    0    0  0.00000000000E+00  0.00000000000E+00 -0.12969877319E+04  0.29191512796E+04  0.26151992308E+04 0.  0.
        1    1    3    3  502    0 -0.78399136054E+03  0.23363846182E+03  0.49015835461E+03  0.95366901851E+03  0.50400001928E-02 0. -1.
       -1    1    3    3    0  502  0.78399136054E+03 -0.23363846182E+03 -0.17871460865E+04  0.19654822611E+04  0.50400001928E-02 0.  1.
</event>
<event>
 5   0  0.1261364E-05  0.2696175E+04  0.7818609E-02  0.8336247E-01
       -2   -1    0    0    0  501  0.00000000000E+00  0.00000000000E+00  0.77268280964E+03  0.77268280965E+03  0.25500000920E-02 0. -1.
        2   -1    0    0  501    0  0.00000000000E+00  0.00000000000E+00 -0.23519873928E+04  0.23519873928E+04  0.25500000920E-02 0.  1.
    10030    2    1    2    0    0  0.00000000000E+00  0.00000000000E+00 -0.15793045832E+04  0.31246702025E+04  0.26961752368E+04 0.  0.
        5    1    3    3  502    0 -0.33220303833E+03 -0.12272024902E+04 -0.13091481113E+04  0.18249042928E+04  0.46999998093E+01 0.  1.
       -5    1    3    3    0  502  0.33220303833E+03  0.12272024902E+04 -0.27015647190E+03  0.12997659097E+04  0.46999998093E+01 0. -1.
</event>
<event>
 5   0  0.4756800E-06  0.2710157E+04  0.7818609E-02  0.8331717E-01
        1   -1    0    0  501    0  0.00000000000E+00  0.00000000000E+00  0.18935811644E+04  0.18935811644E+04  0.50400001928E-02 0. -1.
       -1   -1    0    0    0  501  0.00000000000E+00  0.00000000000E+00 -0.96971670633E+03  0.96971670635E+03  0.50400001928E-02 0.  1.
    10030    2    1    2    0    0  0.00000000000E+00  0.00000000000E+00  0.92386445807E+03  0.28632978708E+04  0.27101566670E+04 0.  0.
        4    1    3    3  502    0  0.45844022481E+03  0.77737935632E+03  0.15298661121E+04  0.17762257844E+04  0.12699999809E+01 0. -1.
       -4    1    3    3    0  502 -0.45844022481E+03 -0.77737935632E+03 -0.60600165402E+03  0.10870720864E+04  0.12699999809E+01 0.  1.
</event>
<event>
 5   0  0.4824715E-06  0.2709474E+04  0.7818609E-02  0.8331938E-01
       -1   -1    0    0    0  501  0.00000000000E+00  0.00000000000E+00  0.14120648034E+04  0.14120648034E+04  0.50400001928E-02 0.  1.
        1   -1    0    0  501    0  0.00000000000E+00  0.00000000000E+00 -0.12997362899E+04  0.12997362899E+04  0.50400001928E-02 0. -1.
    10030    2    1    2    0    0  0.00000000000E+00  0.00000000000E+00  0.11232851349E+03  0.27118010933E+04  0.27094736527E+04 0.  0.
        5    1    3    3  502    0  0.53737176711E+03 -0.91438764901E+03  0.89975041787E+03  0.13908436624E+04  0.46999998093E+01 0.  1.
       -5    1    3    3    0  502 -0.53737176711E+03  0.91438764901E+03 -0.78742190438E+03  0.13209574309E+04  0.46999998093E+01 0. -1.
</event>
<event>
 5   0  0.1286641E-05  0.2681650E+04  0.7818609E-02  0.8340984E-01
        2   -1    0    0  501    0  0.00000000000E+00  0.00000000000E+00  0.16848175026E+04  0.16848175026E+04  0.25500000920E-02 0. -1.
       -2   -1    0    0    0  501  0.00000000000E+00  0.00000000000E+00 -0.10670658568E+04  0.10670658568E+04  0.25500000920E-02 0.  1.
    10030    2    1    2    0    0  0.00000000000E+00  0.00000000000E+00  0.61775164579E+03  0.27518833595E+04  0.26816496655E+04 0.  0.
        4    1    3    3  502    0  0.11271692114E+04 -0.22346331230E+03  0.10178860695E+04  0.15351025850E+04  0.12699999809E+01 0. -1.
       -4    1    3    3    0  502 -0.11271692114E+04  0.22346331230E+03 -0.40013442375E+03  0.12167807745E+04  0.12699999809E+01 0.  1.
</event>
<event>
 5   0  0.1220908E-05  0.2689741E+04  0.7818609E-02  0.8338341E-01
        2   -1    0    0  501    0  0.00000000000E+00  0.00000000000E+00  0.14509661347E+04  0.14509661347E+04  0.25500000920E-02 0. -1.
       -2   -1    0    0    0  501  0.00000000000E+00  0.00000000000E+00 -0.12465323334E+04  0.12465323334E+04  0.25500000920E-02 0.  1.
    10030    2    1    2    0    0  0.00000000000E+00  0.00000000000E+00  0.20443380125E+03  0.26974984681E+04  0.26897406579E+04 0.  0.
        2    1    3    3  502    0 -0.19264556462E+03 -0.11313393148E+04  0.80540628008E+03  0.14020414526E+04  0.25500000920E-02 0. -1.
       -2    1    3    3    0  502  0.19264556462E+03  0.11313393148E+04 -0.60097247884E+03  0.12954570155E+04  0.25500000920E-02 0.  1.
</event>
<event>
 5   0  0.4824715E-06  0.2695551E+04  0.7818609E-02  0.8336450E-01
        1   -1    0    0  501    0  0.00000000000E+00  0.00000000000E+00  0.10926075117E+04  0.10926075117E+04  0.50400001928E-02 0.  1.
       -1   -1    0    0    0  501  0.00000000000E+00  0.00000000000E+00 -0.16625350397E+04  0.16625350397E+04  0.50400001928E-02 0. -1.
    10030    2    1    2    0    0  0.00000000000E+00  0.00000000000E+00 -0.56992752803E+03  0.27551425514E+04  0.26955506101E+04 0.  0.
        5    1    3    3  502    0 -0.62226265672E+03  0.11925786677E+04 -0.19931694606E+03  0.13598544141E+04  0.46999998093E+01 0.  1.
       -5    1    3    3    0  502  0.62226265672E+03 -0.11925786677E+04 -0.37061058197E+03  0.13952881373E+04  0.46999998093E+01 0. -1.
</event>
<event>
 5   0  0.4756800E-06  0.2657268E+04  0.7818609E-02  0.8349005E-01
       -1   -1    0    0    0  501  0.00000000000E+00  0.00000000000E+00  0.10782853321E+04  0.10782853321E+04  0.50400001928E-02 0.  1.
        1   -1    0    0  501    0  0.00000000000E+00  0.00000000000E+00 -0.16371068332E+04  0.16371068332E+04  0.50400001928E-02 0. -1.
    10030    2    1    2    0    0  0.00000000000E+00  0.00000000000E+00 -0.55882150111E+03  0.27153921653E+04  0.26572679845E+04 0.  0.
        4    1    3    3  502    0  0.56428568914E+03  0.37601314618E+03  0.88814975873E+03  0.11174147985E+04  0.12699999809E+01 0.  1.
       -4    1    3    3    0  502 -0.56428568914E+03 -0.37601314618E+03 -0.14469712598E+04  0.15979773668E+04  0.12699999809E+01 0. -1.
</event>
<event>
 5   0  0.1261364E-05  0.2753727E+04  0.7818609E-02  0.8317780E-01
        2   -1    0    0  501    0  0.00000000000E+00  0.00000000000E+00  0.16196907019E+04  0.16196907020E+04  0.25500000920E-02 0.  1.
       -2   -1    0    0    0  501  0.00000000000E+00  0.00000000000E+00 -0.11704411831E+04  0.11704411831E+04  0.25500000920E-02 0. -1.
    10030    2    1    2    0    0  0.00000000000E+00  0.00000000000E+00  0.44924951888E+03  0.27901318850E+04  0.27537267122E+04 0.  0.
        5    1    3    3  502    0  0.56290124669E+03 -0.78579526421E+03  0.12180967734E+04  0.15550285689E+04  0.46999998093E+01 0.  1.
       -5    1    3    3    0  502 -0.56290124669E+03  0.78579526421E+03 -0.76884725449E+03  0.12351033161E+04  0.46999998093E+01 0. -1.
</event>
<event>
 5   0  0.4846214E-06  0.2710625E+04  0.7818609E-02  0.8331566E-01
       -1   -1    0    0    0  501  0.00000000000E+00  0.00000000000E+00  0.84173128826E+03  0.84173128828E+03  0.50400001928E-02 0. -1.
        1   -1    0    0  501    0  0.00000000000E+00  0.00000000000E+00 -0.21822544608E+04  0.21822544608E+04  0.50400001928E-02 0.  1.
    10030    2    1    2    0    0  0.00000000000E+00  0.00000000000E+00 -0.13405231725E+04  0.30239857491E+04  0.27106249159E+04 0.  0.
        2    1    3    3  502    0 -0.33749462054E+02  0.80172613413E+03  0.54823612650E+03  0.97183675107E+03  0.25500000920E-02 0. -1.
       -2    1    3    3    0  502  0.33749462054E+02 -0.80172613413E+03 -0.18887592990E+04  0.20521489980E+04  0.25500000920E-02 0.  1.
</event>
<event>
 5   0  0.5152288E-06  0.2701761E+04  0.7818609E-02  0.8334434E-01
       -1   -1    0    0    0  501  0.00000000000E+00  0.00000000000E+00  0.16303540069E+04  0.16303540069E+04  0.50400001928E-02 0. -1.
        1   -1    0    0  501    0  0.00000000000E+00  0.00000000000E+00 -0.11193139083E+04  0.11193139083E+04  0.50400001928E-02 0.  1.
    10030    2    1    2    0    0  0.00000000000E+00  0.00000000000E+00  0.51104009853E+03  0.27496679152E+04  0.27017608447E+04 0.  0.
        3    1    3    3  502    0 -0.11220645423E+04 -0.22517833620E+02  0.10207447393E+04  0.15170549505E+04  0.10100000352E+00 0. -1.
       -3    1    3    3    0  502  0.11220645423E+04  0.22517833620E+02 -0.50970464072E+03  0.12326129647E+04  0.10100000352E+00 0.  1.
</event>
<event>
 5   0  0.4826140E-06  0.2695941E+04  0.7818609E-02  0.8336323E-01
       -1   -1    0    0    0  501  0.00000000000E+00  0.00000000000E+00  0.15954755894E+04  0.15954755894E+04  0.50400001928E-02 0. -1.
        1   -1    0    0  501    0  0.00000000000E+00  0.00000000000E+00 -0.11388603891E+04  0.11388603891E+04  0.50400001928E-02 0.  1.
    10030    2    1    2    0    0  0.00000000000E+00  0.00000000000E+00  0.45661520031E+03  0.27343359786E+04  0.26959406156E+04 0.  0.
        1    1    3    3  502    0 -0.12405243888E+04  0.49316958045E+03  0.38812691003E+02  0.13355236498E+04  0.50400001928E-02 0.  1.
       -1    1    3    3    0  502  0.12405243888E+04 -0.49316958045E+03  0.41780250931E+03  0.13988123287E+04  0.50400001928E-02 0. -1.
</event>
<event>
 5   0  0.1276517E-05  0.2681786E+04  0.7818609E-02  0.8340939E-01
        2   -1    0    0  501    0  0.00000000000E+00  0.00000000000E+00  0.15721562225E+04  0.15721562225E+04  0.25500000920E-02 0.  1.
       -2   -1    0    0    0  501  0.00000000000E+00  0.00000000000E+00 -0.11436481490E+04  0.11436481490E+04  0.25500000920E-02 0. -1.
    10030    2    1    2    0    0  0.00000000000E+00  0.00000000000E+00  0.42850807353E+03  0.27158043715E+04  0.26817856393E+04 0.  0.
        1    1    3    3  502    0 -0.55995692926E+03  0.43379365540E+03  0.13672327666E+04  0.15398227613E+04  0.50400001928E-02 0.  1.
       -1    1    3    3    0  502  0.55995692926E+03 -0.43379365540E+03 -0.93872469308E+03  0.11759816102E+04  0.50400001928E-02 0. -1.
</event>
<event>
 5   0  0.1232559E-05  0.2720082E+04  0.7818609E-02  0.8328518E-01
       -2   -1    0    0    0  501  0.00000000000E+00  0.00000000000E+00  0.14580225949E+04  0.14580225949E+04  0.25500000920E-02 0.  1.
        2   -1    0    0  501    0  0.00000000000E+00  0.00000000000E+00 -0.12686438052E+04  0.12686438052E+04  0.25500000920E-02 0. -1.
    10030    2    1    2    0    0  0.00000000000E+00  0.00000000000E+00  0.18937878965E+03  0.27266664001E+04  0.27200818612E+04 0.  0.
        3    1    3    3  502    0 -0.22762336314E+03  0.37097364013E+03  0.13863260802E+04  0.14530429615E+04  0.10100000352E+00 0.  1.
       -3    1    3    3    0  502  0.22762336314E+03 -0.37097364013E+03 -0.11969472905E+04  0.12736234387E+04  0.10100000352E+00 0. -1.
</event>
<event>
 5   0  0.1261364E-05  0.2604496E+04  0.7818609E-02  0.8366675E-01
       -2   -1    0    0    0  501  0.00000000000E+00  0.00000000000E+00  0.70172411705E+03  0.70172411706E+03  0.25500000920E-02 0.  1.
        2   -1    0    0  501    0  0.00000000000E+00  0.00000000000E+00 -0.24166911372E+04  0.24166911372E+04  0.25500000920E-02 0. -1.
    10030    2    1    2    0    0  0.00000000000E+00  0.00000000000E+00 -0.17149670201E+04  0.31184152543E+04  0.26044964615E+04 0.  0.
        5    1    3    3  502    0 -0.44632705755E+03 -0.11831371565E+04 -0.48495155196E+03  0.13543343277E+04  0.46999998093E+01 0.  1.
       -5    1    3    3    0  502  0.44632705755E+03  0.11831371565E+04 -0.12300154682E+04  0.17640809265E+04  0.46999998093E+01 0. -1.
</event>
<event>
 5   0  0.1286641E-05  0.2934030E+04  0.7818609E-02  0.8262824E-01
       -2   -1    0    0    0  501  0.00000000000E+00  0.00000000000E+00  0.17430504089E+04  0.17430504089E+04  0.25500000920E-02 0. -1.
        2   -1    0    0  501    0  0.00000000000E+00  0.00000000000E+00 -0.12346933969E+04  0.12346933969E+04  0.25500000920E-02 0.  1.
    10030    2    1    2    0    0  0.00000000000E+00  0.00000000000E+00  0.50835701197E+03  0.29777438057E+04  0.29340298773E+04 0.  0.
        4    1    3    3  502    0  0.61324990925E+03  0.12775610890E+03 -0.10921353892E+04  0.12590307367E+04  0.12699999809E+01 0.  1.
       -4    1    3    3    0  502 -0.61324990925E+03 -0.12775610890E+03  0.16004924012E+04  0.17187130691E+04  0.12699999809E+01 0. -1.
</event>
<event>
 5   0  0.1276517E-05  0.2647013E+04  0.7818609E-02  0.8352405E-01
       -2   -1    0    0    0  501  0.00000000000E+00  0.00000000000E+00  0.10394889382E+04  0.10394889382E+04  0.25500000920E-02 0. -1.
        2   -1    0    0  501    0  0.00000000000E+00  0.00000000000E+00 -0.16851253090E+04  0.16851253090E+04  0.25500000920E-02 0.  1.
    10030    2    1    2    0    0  0.00000000000E+00  0.00000000000E+00 -0.64563637075E+03  0.27246142472E+04  0.26470127451E+04 0.  0.
        1    1    3    3  502    0 -0.37102471498E+01 -0.87717623488E+03 -0.13429417023E+04  0.16040400022E+04  0.50400001928E-02 0.  1.
       -1    1    3    3    0  502  0.37102471498E+01  0.87717623488E+03  0.69730533156E+03  0.11205742449E+04  0.50400001928E-02 0. -1.
</event>
<event>
 5   0  0.4846214E-06  0.2700691E+04  0.7818609E-02  0.8334781E-01
        1   -1    0    0  501    0  0.00000000000E+00  0.00000000000E+00  0.88633648988E+03  0.88633648989E+03  0.50400001928E-02 0. -1.
       -1   -1    0    0    0  501  0.00000000000E+00  0.00000000000E+00 -0.20572695298E+04  0.20572695299E+04  0.50400001928E-02 0.  1.
    10030    2    1    2    0    0  0.00000000000E+00  0.00000000000E+00 -0.11709330400E+04  0.29436060197E+04  0.27006910626E+04 0.  0.
        2    1    3    3  502    0 -0.33969737846E+03  0.96602950294E+03  0.37394912528E+03  0.10901583636E+04  0.25500000920E-02 0.  1.
       -2    1    3    3    0  502  0.33969737846E+03 -0.96602950294E+03 -0.15448821652E+04  0.18534476561E+04  0.25500000920E-02 0. -1.
</event>
<event>
 5   0  0.5152288E-06  0.2344589E+04  0.7818609E-02  0.8460545E-01
       -1   -1    0    0    0  501  0.00000000000E+00  0.00000000000E+00  0.12131894907E+04  0.12131894908E+04  0.50400001928E-02 0. -1.
        1   -1    0    0  501    0  0.00000000000E+00  0.00000000000E+00 -0.11327780002E+04  0.11327780002E+04  0.50400001928E-02 0.  1.
    10030    2    1    2    0    0  0.00000000000E+00  0.00000000000E+00  0.80411490581E+02  0.23459674909E+04  0.23445889748E+04 0.  0.
        3    1    3    3  502    0 -0.75279468930E+03  0.50399406129E+03  0.78466234704E+03  0.11985010918E+04  0.10100000352E+00 0. -1.
       -3    1    3    3    0  502  0.75279468930E+03 -0.50399406129E+03 -0.70425085646E+03  0.11474663991E+04  0.10100000352E+00 0.  1.
</event>
<event>
 5   0  0.1232559E-05  0.2744719E+04  0.7818609E-02  0.8320639E-01
        2   -1    0    0  501    0  0.00000000000E+00  0.00000000000E+00  0.12112381414E+04  0.12112381414E+04  0.25500000920E-02 0.  1.
       -2   -1    0    0    0  501  0.00000000000E+00  0.00000000000E+00 -0.15549140862E+04  0.15549140862E+04  0.25500000920E-02 0. -1.
    10030    2    1    2    0    0  0.00000000000E+00  0.00000000000E+00 -0.34367594475E+03  0.27661522276E+04  0.27447194741E+04 0.  0.
        3    1    3    3  502    0  0.10018299570E+04  0.51241518108E+03 -0.96355409402E+03  0.14814415557E+04  0.10100000352E+00 0. -1.
       -3    1    3    3    0  502 -0.10018299570E+04 -0.51241518108E+03  0.61987814928E+03  0.12847106720E+04  0.10100000352E+00 0.  1.
</event>
<event>
 5   0  0.1232559E-05  0.2688260E+04  0.7818609E-02  0.8338824E-01
        2   -1    0    0  501    0  0.00000000000E+00  0.00000000000E+00  0.11855871640E+04  0.11855871640E+04  0.25500000920E-02 0. -1.
       -2   -1    0    0    0  501  0.00000000000E+00  0.00000000000E+00 -0.15238734399E+04  0.15238734399E+04  0.25500000920E-02 0.  1.
    10030    2    1    2    0    0  0.00000000000E+00  0.00000000000E+00 -0.33828627587E+03  0.27094606040E+04  0.26882595038E+04 0.  0.
        3    1    3    3  502    0  0.54975152158E+02 -0.13420010876E+04 -0.22147170431E+03  0.13612637189E+04  0.10100000352E+00 0.  1.
       -3    1    3    3    0  502 -0.54975152158E+02  0.13420010876E+04 -0.11681457156E+03  0.13481968850E+04  0.10100000352E+00 0. -1.
</event>
<event>
 5   0  0.4756800E-06  0.2746991E+04  0.7818609E-02  0.8319917E-01
        1   -1    0    0  501    0  0.00000000000E+00  0.00000000000E+00  0.13871520546E+04  0.13871520546E+04  0.50400001928E-02 0.  1.
       -1   -1    0    0    0  501  0.00000000000E+00  0.00000000000E+00 -0.13599729307E+04  0.13599729307E+04  0.50400001928E-02 0. -1.
    10030    2    1    2    0    0  0.00000000000E+00  0.00000000000E+00  0.27179123971E+02  0.27471249853E+04  0.27469905315E+04 0.  0.
        4    1    3    3  502    0  0.48065902813E+03 -0.11130073741E+04  0.65912027813E+03  0.13799491549E+04  0.12699999809E+01 0.  1.
       -4    1    3    3    0  502 -0.48065902813E+03  0.11130073741E+04 -0.63194115416E+03  0.13671758304E+04  0.12699999809E+01 0. -1.
</event>
<event>
 5   0  0.4826140E-06  0.2709491E+04  0.7818609E-02  0.8331932E-01
        1   -1    0    0  501    0  0.00000000000E+00  0.00000000000E+00  0.23024114422E+04  0.23024114422E+04  0.50400001928E-02 0.  1.
       -1   -1    0    0    0  501  0.00000000000E+00  0.00000000000E+00 -0.79713628156E+03  0.79713628157E+03  0.50400001928E-02 0. -1.
    10030    2    1    2    0    0  0.00000000000E+00  0.00000000000E+00  0.15052751606E+04  0.30995477237E+04  0.27094912405E+04 0.  0.
        1    1    3    3  502    0 -0.31132622914E+03  0.61964182146E+03  0.20839898312E+04  0.21963364097E+04  0.50400001928E-02 0.  1.
       -1    1    3    3    0  502  0.31132622914E+03 -0.61964182146E+03 -0.57871467060E+03  0.90321131406E+03  0.50400001928E-02 0. -1.
</event>
<event>
 5   0  0.1261364E-05  0.2689071E+04  0.7818609E-02  0.8338560E-01
        2   -1    0    0  501    0  0.00000000000E+00  0.00000000000E+00  0.14457614946E+04  0.14457614946E+04  0.25500000920E-02 0. -1.
       -2   -1    0    0    0  501  0.00000000000E+00  0.00000000000E+00 -0.12503969188E+04  0.12503969188E+04  0.25500000920E-02 0.  1.
    10030    2    1    2    0    0  0.00000000000E+00  0.00000000000E+00  0.19536457585E+03  0.26961584134E+04  0.26890710055E+04 0.  0.
        5    1    3    3  502    0  0.87070213057E+03 -0.82607551884E+03  0.70527506903E+03  0.13921055908E+04  0.46999998093E+01 0. -1.
       -5    1    3    3    0  502 -0.87070213057E+03  0.82607551884E+03 -0.50991049318E+03  0.13040528226E+04  0.46999998093E+01 0.  1.
</event>
<event>
 5   0  0.4756800E-06  0.2693970E+04  0.7818609E-02  0.8336964E-01
       -1   -1    0    0    0  501  0.00000000000E+00  0.00000000000E+00  0.75893138969E+03  0.75893138970E+03  0.50400001928E-02 0. -1.
        1   -1    0    0  501    0  0.00000000000E+00  0.00000000000E+00 -0.23906878704E+04  0.23906878704E+04  0.50400001928E-02 0.  1.
    10030    2    1    2    0    0  0.00000000000E+00  0.00000000000E+00 -0.16317564807E+04  0.31496192601E+04  0.26939696122E+04 0.  0.
        4    1    3    3  502    0 -0.34798695549E+03  0.30949053934E+02  0.70503975603E+03  0.78685159695E+03  0.12699999809E+01 0. -1.
       -4    1    3    3    0  502  0.34798695549E+03 -0.30949053934E+02 -0.23367962367E+04  0.23627676631E+04  0.12699999809E+01 0.  1.
</event>
<event>
 5   0  0.4826140E-06  0.2720022E+04  0.7818609E-02  0.8328538E-01
       -1   -1    0    0    0  501  0.00000000000E+00  0.00000000000E+00  0.10673507131E+04  0.10673507131E+04  0.50400001928E-02 0. -1.
        1   -1    0    0  501    0  0.00000000000E+00  0.00000000000E+00 -0.17329171940E+04  0.17329171940E+04  0.50400001928E-02 0.  1.
    10030    2    1    2    0    0  0.00000000000E+00  0.00000000000E+00 -0.66556648088E+03  0.28002679072E+04  0.27200223550E+04 0.  0.
        1    1    3    3  502    0  0.36924290646E+03 -0.68018935434E+03  0.81852594253E+03  0.11264912784E+04  0.50400001928E-02 0. -1.
       -1    1    3    3    0  502 -0.36924290646E+03  0.68018935434E+03 -0.14840924234E+04  0.16737766288E+04  0.50400001928E-02 0.  1.
</event>
<event>
 5   0  0.1286641E-05  0.2689582E+04  0.7818609E-02  0.8338393E-01
       -2   -1    0    0    0  501  0.00000000000E+00  0.00000000000E+00  0.12507377067E+04  0.12507377067E+04  0.25500000920E-02 0.  1.
        2   -1    0    0  501    0  0.00000000000E+00  0.00000000000E+00 -0.14459172204E+04  0.14459172204E+04  0.25500000920E-02 0. -1.
    10030    2    1    2    0    0  0.00000000000E+00  0.00000000000E+00 -0.19517951364E+03  0.26966549271E+04  0.26895822637E+04 0.  0.
        4    1    3    3  502    0  0.58481155429E+03 -0.11840124481E+04  0.15718777723E+03  0.13298870785E+04  0.12699999809E+01 0.  1.
       -4    1    3    3    0  502 -0.58481155429E+03  0.11840124481E+04 -0.35236729087E+03  0.13667678486E+04  0.12699999809E+01 0. -1.
</event>
<event>
 5   0  0.5152288E-06  0.2969209E+04  0.7818609E-02  0.8252578E-01
        1   -1    0    0  501    0  0.00000000000E+00  0.00000000000E+00  0.15178232351E+04  0.15178232351E+04  0.50400001928E-02 0.  1.
       -1   -1    0    0    0  501  0.00000000000E+00  0.00000000000E+00 -0.14521131626E+04  0.14521131626E+04  0.50400001928E-02 0. -1.
    10030    2    1    2    0    0  0.00000000000E+00  0.00000000000E+00  0.65710072459E+02  0.29699363977E+04  0.29692093885E+04 0.  0.
        3    1    3    3  502    0 -0.12024408290E+04  0.85678980271E+03 -0.12241948544E+03  0.14815327381E+04  0.10100000352E+00 0.  1.
       -3    1    3    3    0  502  0.12024408290E+04 -0.85678980271E+03  0.18812955790E+03  0.14884036597E+04  0.10100000352E+00 0. -1.
</event>
<event>
 5   0  0.4826140E-06  0.2712630E+04  0.7818609E-02  0.8330919E-01
       -1   -1    0    0    0  501  0.00000000000E+00  0.00000000000E+00  0.80131516019E+03  0.80131516021E+03  0.50400001928E-02 0.  1.
        1   -1    0    0  501    0  0.00000000000E+00  0.00000000000E+00 -0.22957142486E+04  0.22957142486E+04  0.50400001928E-02 0. -1.
    10030    2    1    2    0    0  0.00000000000E+00  0.00000000000E+00 -0.14943990884E+04  0.30970294088E+04  0.27126301856E+04 0.  0.
        1    1    3    3  502    0  0.13310708500E+04  0.42644510327E+02 -0.10405593571E+04  0.16900686192E+04  0.50400001928E-02 0. -1.
       -1    1    3    3    0  502 -0.13310708500E+04 -0.42644510327E+02 -0.45383973130E+03  0.14069607896E+04  0.50400001928E-02 0.  1.
</event>
<event>
 5   0  0.4826140E-06  0.2540632E+04  0.7818609E-02  0.8388652E-01
        1   -1    0    0  501    0  0.00000000000E+00  0.00000000000E+00  0.13203954001E+04  0.13203954001E+04  0.50400001928E-02 0.  1.
       -1   -1    0    0    0  501  0.00000000000E+00  0.00000000000E+00 -0.12221358244E+04  0.12221358244E+04  0.50400001928E-02 0. -1.
    10030    2    1    2    0    0  0.00000000000E+00  0.00000000000E+00  0.98259575696E+02  0.25425312246E+04  0.25406318276E+04 0.  0.
        1    1    3    3  502    0  0.30583637087E+03  0.12297588484E+04  0.13785163683E+03  0.12746943887E+04  0.50400001928E-02 0.  1.
       -1    1    3    3    0  502 -0.30583637087E+03 -0.12297588484E+04 -0.39592061138E+02  0.12678368358E+04  0.50400001928E-02 0. -1.
</event>
<event>
 5   0  0.4824715E-06  0.2449172E+04  0.7818609E-02  0.8421320E-01
       -1   -1    0    0    0  501  0.00000000000E+00  0.00000000000E+00  0.81049327056E+03  0.81049327058E+03  0.50400001928E-02 0.  1.
        1   -1    0    0  501    0  0.00000000000E+00  0.00000000000E+00 -0.18502446062E+04  0.18502446062E+04  0.50400001928E-02 0. -1.
    10030    2    1    2    0    0  0.00000000000E+00  0.00000000000E+00 -0.10397513356E+04  0.26607378768E+04  0.24491719435E+04 0.  0.
        5    1    3    3  502    0  0.48540156248E+03  0.36008974910E+03  0.63716489214E+03  0.87822576484E+03  0.46999998093E+01 0.  1.
       -5    1    3    3    0  502 -0.48540156248E+03 -0.36008974910E+03 -0.16769162278E+04  0.17825121119E+04  0.46999998093E+01 0. -1.
</event>
<event>
 5   0  0.4824715E-06  0.2790974E+04  0.7818609E-02  0.8306076E-01
        1   -1    0    0  501    0  0.00000000000E+00  0.00000000000E+00  0.17037065321E+04  0.17037065321E+04  0.50400001928E-02 0.  1.
       -1   -1    0    0    0  501  0.00000000000E+00  0.00000000000E+00 -0.11430280902E+04  0.11430280902E+04  0.50400001928E-02 0. -1.
    10030    2    1    2    0    0  0.00000000000E+00  0.00000000000E+00  0.56067844194E+03  0.28467346223E+04  0.27909743271E+04 0.  0.
        5    1    3    3  502    0  0.13136402767E+03 -0.10667373074E+04 -0.62748622193E+03  0.12445666071E+04  0.46999998093E+01 0. -1.
       -5    1    3    3    0  502 -0.13136402767E+03  0.10667373074E+04  0.11881646639E+04  0.16021680153E+04  0.46999998093E+01 0.  1.
</event>
<event>
 5   0  0.4846214E-06  0.2688505E+04  0.7818609E-02  0.8338744E-01
        1   -1    0    0  501    0  0.00000000000E+00  0.00000000000E+00  0.11886776680E+04  0.11886776680E+04  0.50400001928E-02 0. -1.
       -1   -1    0    0    0  501  0.00000000000E+00  0.00000000000E+00 -0.15201894977E+04  0.15201894977E+04  0.50400001928E-02 0.  1.
    10030    2    1    2    0    0  0.00000000000E+00  0.00000000000E+00 -0.33151182970E+03  0.27088671656E+04  0.26885053892E+04 0.  0.
        2    1    3    3  502    0  0.62747135994E+03  0.11881243416E+04 -0.20675250467E+03  0.13594507556E+04  0.25500000920E-02 0. -1.
       -2    1    3    3    0  502 -0.62747135994E+03 -0.11881243416E+04 -0.12475932503E+03  0.13494164101E+04  0.25500000920E-02 0.  1.
</event>
<event>
 5   0  0.4846214E-06  0.2746099E+04  0.7818609E-02  0.8320201E-01
       -1   -1    0    0    0  501  0.00000000000E+00  0.00000000000E+00  0.90699083262E+03  0.90699083264E+03  0.50400001928E-02 0.  1.
        1   -1    0    0  501    0  0.00000000000E+00  0.00000000000E+00 -0.20785931516E+04  0.20785931516E+04  0.50400001928E-02 0. -1.
    10030    2    1    2    0    0  0.00000000000E+00  0.00000000000E+00 -0.11716023189E+04  0.29855839842E+04  0.27460990028E+04 0.  0.
        2    1    3    3  502    0 -0.36989843104E+03 -0.72166423439E+02 -0.20212598802E+04  0.20560944397E+04  0.25500000920E-02 0. -1.
       -2    1    3    3    0  502  0.36989843104E+03  0.72166423439E+02  0.84965756121E+03  0.92948954448E+03  0.25500000920E-02 0.  1.
</event>
<event>
 5   0  0.4846214E-06  0.2184211E+04  0.7818609E-02  0.8525029E-01
        1   -1    0    0  501    0  0.00000000000E+00  0.00000000000E+00  0.11531184145E+04  0.11531184145E+04  0.50400001928E-02 0. -1.
       -1   -1    0    0    0  501  0.00000000000E+00  0.00000000000E+00 -0.10343206391E+04  0.10343206391E+04  0.50400001928E-02 0.  1.
    10030    2    1    2    0    0  0.00000000000E+00  0.00000000000E+00  0.11879777537E+03  0.21874390536E+04  0.21842107732E+04 0.  0.
        2    1    3    3  502    0  0.69188029384E+03 -0.75017726716E+03 -0.33005877439E+03  0.10725684443E+04  0.25500000920E-02 0.  1.
       -2    1    3    3    0  502 -0.69188029384E+03  0.75017726716E+03  0.44885654976E+03  0.11148706093E+04  0.25500000920E-02 0. -1.
</event>
<event>
 5   0  0.1261364E-05  0.2714174E+04  0.7818609E-02  0.8330421E-01
       -2   -1    0    0    0  501  0.00000000000E+00  0.00000000000E+00  0.12787977523E+04  0.12787977523E+04  0.25500000920E-02 0. -1.
        2   -1    0    0  501    0  0.00000000000E+00  0.00000000000E+00 -0.14401694139E+04  0.14401694139E+04  0.25500000920E-02 0.  1.
    10030    2    1    2    0    0  0.00000000000E+00  0.00000000000E+00 -0.16137166163E+03  0.27189671663E+04  0.27141742092E+04 0.  0.
        5    1    3    3  502    0 -0.36222440725E+03  0.15004490281E+03  0.12208171709E+04  0.12822389203E+04  0.46999998093E+01 0. -1.
       -5    1    3    3    0  502  0.36222440725E+03 -0.15004490281E+03 -0.13821888325E+04  0.14367282460E+04  0.46999998093E+01 0.  1.
</event>
<event>
 5   0  0.4826140E-06  0.2693549E+04  0.7818609E-02  0.8337101E-01
       -1   -1    0    0    0  501  0.00000000000E+00  0.00000000000E+00  0.65581310657E+03  0.65581310659E+03  0.50400001928E-02 0.  1.
        1   -1    0    0  501    0  0.00000000000E+00  0.00000000000E+00 -0.27657298453E+04  0.27657298453E+04  0.50400001928E-02 0. -1.
    10030    2    1    2    0    0  0.00000000000E+00  0.00000000000E+00 -0.21099167387E+04  0.34215429519E+04  0.26935492435E+04 0.  0.
        1    1    3    3  502    0 -0.26660103921E+03 -0.82635570225E+03 -0.23626993743E+04  0.25171984812E+04  0.50400001928E-02 0. -1.
       -1    1    3    3    0  502  0.26660103921E+03  0.82635570225E+03  0.25278263554E+03  0.90434447065E+03  0.50400001928E-02 0.  1.
</event>
<event>
 5   0  0.4188000E-06  0.2696782E+04  0.7818609E-02  0.8336050E-01
        3   -1    0    0  501    0  0.00000000000E+00  0.00000000000E+00  0.10159123689E+04  0.10159123739E+04  0.10100000352E+00 0. -1.
       -3   -1    0    0    0  501  0.00000000000E+00  0.00000000000E+00 -0.17896797909E+04  0.17896797937E+04  0.10100000352E+00 0.  1.
    10030    2    1    2    0    0  0.00000000000E+00  0.00000000000E+00 -0.77376742193E+03  0.28055921676E+04  0.26967816723E+04 0.  0.
        3    1    3    3  502    0  0.11843170800E+04 -0.20423627087E+03 -0.10229768749E+04  0.15782272007E+04  0.10100000352E+00 0.  1.
       -3    1    3    3    0  502 -0.11843170800E+04  0.20423627087E+03  0.24920945296E+03  0.12273649669E+04  0.10100000352E+00 0. -1.
</event>
<event>
 5   0  0.1261364E-05  0.2689160E+04  0.7818609E-02  0.8338531E-01
       -2   -1    0    0    0  501  0.00000000000E+00  0.00000000000E+00  0.10922585335E+04  0.10922585335E+04  0.25500000920E-02 0.  1.
        2   -1    0    0  501    0  0.00000000000E+00  0.00000000000E+00 -0.16551897340E+04  0.16551897340E+04  0.25500000920E-02 0. -1.
    10030    2    1    2    0    0  0.00000000000E+00  0.00000000000E+00 -0.56293120047E+03  0.27474482676E+04  0.26891598031E+04 0.  0.
        5    1    3    3  502    0  0.13226848335E+04  0.17336449935E+02 -0.52768151586E+03  0.14241718975E+04  0.46999998093E+01 0.  1.
       -5    1    3    3    0  502 -0.13226848335E+04 -0.17336449935E+02 -0.35249684614E+02  0.13232763701E+04  0.46999998093E+01 0. -1.
</event>
<event>
 5   0  0.4756800E-06  0.2670966E+04  0.7818609E-02  0.8344487E-01
        1   -1    0    0  501    0  0.00000000000E+00  0.00000000000E+00  0.11108460596E+04  0.11108460596E+04  0.50400001928E-02 0.  1.
       -1   -1    0    0    0  501  0.00000000000E+00  0.00000000000E+00 -0.16055468088E+04  0.16055468088E+04  0.50400001928E-02 0. -1.
    10030    2    1    2    0    0  0.00000000000E+00  0.00000000000E+00 -0.49470074918E+03  0.27163928684E+04  0.26709663765E+04 0.  0.
        4    1    3    3  502    0 -0.58540689536E+03 -0.76399391053E+03 -0.11889070045E+04  0.15296697051E+04  0.12699999809E+01 0. -1.
       -4    1    3    3    0  502  0.58540689536E+03  0.76399391053E+03  0.69420625532E+03  0.11867231633E+04  0.12699999809E+01 0.  1.
</event>
<event>
 5   0  0.1286641E-05  0.2629147E+04  0.7818609E-02  0.8358367E-01
        2   -1    0    0  501    0  0.00000000000E+00  0.00000000000E+00  0.24455288908E+04  0.24455288908E+04  0.25500000920E-02 0. -1.
       -2   -1    0    0    0  501  0.00000000000E+00  0.00000000000E+00 -0.70663802666E+03  0.70663802666E+03  0.25500000920E-02 0.  1.
    10030    2    1    2    0    0  0.00000000000E+00  0.00000000000E+00  0.17388908641E+04  0.31521669175E+04  0.26291471694E+04 0.  0.
        4    1    3    3  502    0 -0.12047051003E+03  0.84229918298E+02  0.24356436573E+04  0.24400757080E+04  0.12699999809E+01 0. -1.
       -4    1    3    3    0  502  0.12047051003E+03 -0.84229918298E+02 -0.69675279312E+03  0.71209120942E+03  0.12699999809E+01 0.  1.
</event>
<event>
 5   0  0.1276517E-05  0.2731561E+04  0.7818609E-02  0.8324837E-01
        2   -1    0    0  501    0  0.00000000000E+00  0.00000000000E+00  0.79838763716E+03  0.79838763716E+03  0.25500000920E-02 0.  1.
       -2   -1    0    0    0  501  0.00000000000E+00  0.00000000000E+00 -0.23364040873E+04  0.23364040873E+04  0.25500000920E-02 0. -1.
    10030    2    1    2    0    0  0.00000000000E+00  0.00000000000E+00 -0.15380164502E+04  0.31347917245E+04  0.27315608276E+04 0.  0.
        1    1    3    3  502    0  0.12725782229E+04 -0.37178019703E+03 -0.11455957463E+04  0.17521602273E+04  0.50400001928E-02 0.  1.
       -1    1    3    3    0  502 -0.12725782229E+04  0.37178019703E+03 -0.39242070391E+03  0.13826314972E+04  0.50400001928E-02 0. -1.
</event>
<event>
 5   0  0.5152288E-06  0.2496662E+04  0.7818609E-02  0.8404176E-01
        1   -1    0    0  501    0  0.00000000000E+00  0.00000000000E+00  0.17897400025E+04  0.17897400026E+04  0.50400001928E-02 0.  1.
       -1   -1    0    0    0  501  0.00000000000E+00  0.00000000000E+00 -0.87070174578E+03  0.87070174579E+03  0.50400001928E-02 0. -1.
    10030    2    1    2    0    0  0.00000000000E+00  0.00000000000E+00  0.91903825677E+03  0.26604417483E+04  0.24966615668E+04 0.  0.
        3    1    3    3  502    0 -0.45249161388E+03 -0.99224527994E+03  0.11068482387E+04  0.15538379549E+04  0.10100000352E+00 0.  1.
       -3    1    3    3    0  502  0.45249161388E+03  0.99224527994E+03 -0.18780998197E+03  0.11066037935E+04  0.10100000352E+00 0. -1.
</event>
<event>
 5   0  0.1232559E-05  0.2684122E+04  0.7818609E-02  0.8340175E-01
        2   -1    0    0  501    0  0.00000000000E+00  0.00000000000E+00  0.20896438856E+04  0.20896438856E+04  0.25500000920E-02 0. -1.
       -2   -1    0    0    0  501  0.00000000000E+00  0.00000000000E+00 -0.86193066788E+03  0.86193066789E+03  0.25500000920E-02 0.  1.
    10030    2    1    2    0    0  0.00000000000E+00  0.00000000000E+00  0.12277132177E+04  0.29515745534E+04  0.26841223146E+04 0.  0.
        3    1    3    3  502    0  0.55275405912E+03 -0.40988361337E+03  0.18808748598E+04  0.20028060003E+04  0.10100000352E+00 0. -1.
       -3    1    3    3    0  502 -0.55275405912E+03  0.40988361337E+03 -0.65316164216E+03  0.94876855311E+03  0.10100000352E+00 0.  1.
</event>
<event>
 5   0  0.4756800E-06  0.2709366E+04  0.7818609E-02  0.8331972E-01
        1   -1    0    0  501    0  0.00000000000E+00  0.00000000000E+00  0.17025838004E+04  0.17025838004E+04  0.50400001928E-02 0.  1.
       -1   -1    0    0    0  501  0.00000000000E+00  0.00000000000E+00 -0.10778714559E+04  0.10778714559E+04  0.50400001928E-02 0. -1.
    10030    2    1    2    0    0  0.00000000000E+00  0.00000000000E+00  0.62471234449E+03  0.27804552564E+04  0.27093663317E+04 0.  0.
        4    1    3    3  502    0 -0.36772788123E+03 -0.45946768730E+03 -0.93983550245E+03  0.11088853570E+04  0.12699999809E+01 0. -1.
       -4    1    3    3    0  502  0.36772788123E+03  0.45946768730E+03  0.15645478469E+04  0.16715698994E+04  0.12699999809E+01 0.  1.
</event>
<event>
 5   0  0.1220908E-05  0.2688763E+04  0.7818609E-02  0.8338660E-01
        2   -1    0    0  501    0  0.00000000000E+00  0.00000000000E+00  0.16671318348E+04  0.16671318348E+04  0.25500000920E-02 0.  1.
       -2   -1    0    0    0  501  0.00000000000E+00  0.00000000000E+00 -0.10841140832E+04  0.10841140832E+04  0.25500000920E-02 0. -1.
    10030    2    1    2    0    0  0.00000000000E+00  0.00000000000E+00  0.58301775161E+03  0.27512459181E+04  0.26887626156E+04 0.  0.
        2    1    3    3  502    0  0.11564540370E+04 -0.37683190462E+03 -0.29448882846E+03  0.12514439237E+04  0.25500000920E-02 0. -1.
       -2    1    3    3    0  502 -0.11564540370E+04  0.37683190462E+03  0.87750658007E+03  0.14998019943E+04  0.25500000920E-02 0.  1.
</event>
<event>
 5   0  0.4756800E-06  0.2753026E+04  0.7818609E-02  0.8318002E-01
        1   -1    0    0  501    0  0.00000000000E+00  0.00000000000E+00  0.11044029159E+04  0.11044029159E+04  0.50400001928E-02 0.  1.
       -1   -1    0    0    0  501  0.00000000000E+00  0.00000000000E+00 -0.17156675596E+04  0.17156675596E+04  0.50400001928E-02 0. -1.
    10030    2    1    2    0    0  0.00000000000E+00  0.00000000000E+00 -0.61126464368E+03  0.28200704755E+04  0.27530261572E+04 0.  0.
        4    1    3    3  502    0  0.82217435992E+03  0.10457437017E+03 -0.14314331115E+04  0.16540582948E+04  0.12699999809E+01 0. -1.
       -4    1    3    3    0  502 -0.82217435992E+03 -0.10457437017E+03  0.82016846783E+03  0.11660121807E+04  0.12699999809E+01 0.  1.
</event>
<event>
 5   0  0.4756800E-06  0.2682003E+04  0.7818609E-02  0.8340868E-01
       -1   -1    0    0    0  501  0.00000000000E+00  0.00000000000E+00  0.12427454075E+04  0.12427454075E+04  0.50400001928E-02 0. -1.
        1   -1    0    0  501    0  0.00000000000E+00  0.00000000000E+00 -0.14470265029E+04  0.14470265029E+04  0.50400001928E-02 0.  1.
    10030    2    1    2    0    0  0.00000000000E+00  0.00000000000E+00 -0.20428109541E+03  0.26897719103E+04  0.26820033862E+04 0.  0.
        4    1    3    3  502    0  0.29855339206E+03 -0.11509932924E+04  0.51962638367E+03  0.12976643936E+04  0.12699999809E+01 0.  1.
       -4    1    3    3    0  502 -0.29855339206E+03  0.11509932924E+04 -0.72390747908E+03  0.13921075167E+04  0.12699999809E+01 0. -1.
</event>
<event>
 5   0  0.4846214E-06  0.2695446E+04  0.7818609E-02  0.8336484E-01
       -1   -1    0    0    0  501  0.00000000000E+00  0.00000000000E+00  0.12182642930E+04  0.12182642930E+04  0.50400001928E-02 0. -1.
        1   -1    0    0  501    0  0.00000000000E+00  0.00000000000E+00 -0.14909390843E+04  0.14909390843E+04  0.50400001928E-02 0.  1.
    10030    2    1    2    0    0  0.00000000000E+00  0.00000000000E+00 -0.27267479133E+03  0.27092033773E+04  0.26954464190E+04 0.  0.
        2    1    3    3  502    0 -0.47449968893E+03  0.89822079764E+03  0.75385056551E+03  0.12650064155E+04  0.25500000920E-02 0. -1.
       -2    1    3    3    0  502  0.47449968893E+03 -0.89822079764E+03 -0.10265253568E+04  0.14441969618E+04  0.25500000920E-02 0.  1.
</event>
<event>
 5   0  0.1220908E-05  0.2592985E+04  0.7818609E-02  0.8370588E-01
       -2   -1    0    0    0  501  0.00000000000E+00  0.00000000000E+00  0.60872023122E+03  0.60872023123E+03  0.25500000920E-02 0.  1.
        2   -1    0    0  501    0  0.00000000000E+00  0.00000000000E+00 -0.27613550714E+04  0.27613550714E+04  0.25500000920E-02 0. -1.
    10030    2    1    2    0    0  0.00000000000E+00  0.00000000000E+00 -0.21526348402E+04  0.33700753026E+04  0.25929849190E+04 0.  0.
        2    1    3    3  502    0  0.12959689150E+04  0.14194333021E+02 -0.10321319952E+04  0.16568142211E+04  0.25500000920E-02 0.  1.
       -2    1    3    3    0  502 -0.12959689150E+04 -0.14194333021E+02 -0.11205028450E+04  0.17132610815E+04  0.25500000920E-02 0. -1.
</event>
<event>
 5   0  0.1276517E-05  0.2716874E+04  0.7818609E-02  0.8329551E-01
       -2   -1    0    0    0  501  0.00000000000E+00  0.00000000000E+00  0.14074882427E+04  0.14074882427E+04  0.25500000920E-02 0. -1.
        2   -1    0    0  501    0  0.00000000000E+00  0.00000000000E+00 -0.13110952600E+04  0.13110952600E+04  0.25500000920E-02 0.  1.
    10030    2    1    2    0    0  0.00000000000E+00  0.00000000000E+00  0.96392982654E+02  0.27185835027E+04  0.27168740593E+04 0.  0.
        1    1    3    3  502    0  0.69558285200E+03  0.50742558831E+03  0.10995882714E+04  0.13965710144E+04  0.50400001928E-02 0. -1.
       -1    1    3    3    0  502 -0.69558285200E+03 -0.50742558831E+03 -0.10031952888E+04  0.13220124883E+04  0.50400001928E-02 0.  1.
</event>
<event>
 5   0  0.4188000E-06  0.2706033E+04  0.7818609E-02  0.8333050E-01
        4   -1    0    0  501    0  0.00000000000E+00  0.00000000000E+00  0.11901828825E+04  0.11901835601E+04  0.12699999809E+01 0.  1.
       -4   -1    0    0    0  501  0.00000000000E+00  0.00000000000E+00 -0.15381265493E+04  0.15381270736E+04  0.12699999809E+01 0. -1.
    10030    2    1    2    0    0  0.00000000000E+00  0.00000000000E+00 -0.34794366674E+03  0.27283106337E+04  0.27060329116E+04 0.  0.
        3    1    3    3  502    0 -0.22149779623E+03  0.31229850711E+02  0.11714113410E+04  0.11925775100E+04  0.10100000352E+00 0.  1.
       -3    1    3    3    0  502  0.22149779623E+03 -0.31229850711E+02 -0.15193550078E+04  0.15357331237E+04  0.10100000352E+00 0. -1.
</event>
<event>
 5   0  0.1276517E-05  0.2703516E+04  0.7818609E-02  0.8333865E-01
       -2   -1    0    0    0  501  0.00000000000E+00  0.00000000000E+00  0.73131633705E+03  0.73131633706E+03  0.25500000920E-02 0.  1.
        2   -1    0    0  501    0  0.00000000000E+00  0.00000000000E+00 -0.24985764737E+04  0.24985764737E+04  0.25500000920E-02 0. -1.
    10030    2    1    2    0    0  0.00000000000E+00  0.00000000000E+00 -0.17672601366E+04  0.32298928107E+04  0.27035160769E+04 0.  0.
        1    1    3    3  502    0 -0.15889178550E+03  0.53081483040E+03 -0.23566718352E+04  0.24209322838E+04  0.50400001928E-02 0. -1.
       -1    1    3    3    0  502  0.15889178550E+03 -0.53081483040E+03  0.58941169861E+03  0.80896052695E+03  0.50400001928E-02 0.  1.
</event>
<event>
 5   0  0.4826140E-06  0.2298224E+04  0.7818609E-02  0.8478622E-01
        1   -1    0    0  501    0  0.00000000000E+00  0.00000000000E+00  0.19448466971E+04  0.19448466971E+04  0.50400001928E-02 0.  1.
       -1   -1    0    0    0  501  0.00000000000E+00  0.00000000000E+00 -0.67895242614E+03  0.67895242615E+03  0.50400001928E-02 0. -1.
    10030    2    1    2    0    0  0.00000000000E+00  0.00000000000E+00  0.12658942710E+04  0.26237991233E+04  0.22982239956E+04 0.  0.
        1    1    3    3  502    0  0.61417598192E+03 -0.83866988669E+03  0.73789314078E+02  0.10421248383E+04  0.50400001928E-02 0. -1.
       -1    1    3    3    0  502 -0.61417598192E+03  0.83866988669E+03  0.11921049569E+04  0.15816742850E+04  0.50400001928E-02 0.  1.
</event>
<event>
 5   0  0.1261364E-05  0.2708231E+04  0.7818609E-02  0.8332339E-01
       -2   -1    0    0    0  501  0.00000000000E+00  0.00000000000E+00  0.82578438863E+03  0.82578438864E+03  0.25500000920E-02 0.  1.
        2   -1    0    0  501    0  0.00000000000E+00  0.00000000000E+00 -0.22204695934E+04  0.22204695934E+04  0.25500000920E-02 0. -1.
    10030    2    1    2    0    0  0.00000000000E+00  0.00000000000E+00 -0.13946852048E+04  0.30462539821E+04  0.27082312499E+04 0.  0.
        5    1    3    3  502    0  0.33309815635E+03 -0.12189531677E+04 -0.14997818845E+03  0.12725237734E+04  0.46999998093E+01 0.  1.
       -5    1    3    3    0  502 -0.33309815635E+03  0.12189531677E+04 -0.12447070164E+04  0.17737302087E+04  0.46999998093E+01 0. -1.
</event>
<event>
 5   0  0.1286641E-05  0.2715604E+04  0.7818609E-02  0.8329960E-01
       -2   -1    0    0    0  501  0.00000000000E+00  0.00000000000E+00  0.10530059778E+04  0.10530059778E+04  0.25500000920E-02 0.  1.
        2   -1    0    0  501    0  0.00000000000E+00  0.00000000000E+00 -0.17508224670E+04  0.17508224671E+04  0.25500000920E-02 0. -1.
    10030    2    1    2    0    0  0.00000000000E+00  0.00000000000E+00 -0.69781648922E+03  0.28038284449E+04  0.27156041861E+04 0.  0.
        4    1    3    3  502    0 -0.42385927653E+03  0.54655679037E+03 -0.15553048048E+04  0.17021620546E+04  0.12699999809E+01 0. -1.
       -4    1    3    3    0  502  0.42385927653E+03 -0.54655679037E+03  0.85748831553E+03  0.11016663903E+04  0.12699999809E+01 0.  1.
</event>
<event>
 5   0  0.1286641E-05  0.2669735E+04  0.7818609E-02  0.8344892E-01
        2   -1    0    0  501    0  0.00000000000E+00  0.00000000000E+00  0.12313355722E+04  0.12313355722E+04  0.25500000920E-02 0.  1.
       -2   -1    0    0    0  501  0.00000000000E+00  0.00000000000E+00 -0.14471044805E+04  0.14471044805E+04  0.25500000920E-02 0. -1.
    10030    2    1    2    0    0  0.00000000000E+00  0.00000000000E+00 -0.21576890837E+03  0.26784400527E+04  0.26697349858E+04 0.  0.
        4    1    3    3  502    0 -0.11236584054E+04  0.70469047380E+03 -0.25895010696E+03  0.13513895244E+04  0.12699999809E+01 0. -1.
       -4    1    3    3    0  502  0.11236584054E+04 -0.70469047380E+03  0.43181198592E+02  0.13270505283E+04  0.12699999809E+01 0.  1.
</event>
<event>
 5   0  0.4846214E-06  0.2517930E+04  0.7818609E-02  0.8396625E-01
       -1   -1    0    0    0  501  0.00000000000E+00  0.00000000000E+00  0.79044617923E+03  0.79044617925E+03  0.50400001928E-02 0.  1.
        1   -1    0    0  501    0  0.00000000000E+00  0.00000000000E+00 -0.20051882209E+04  0.20051882209E+04  0.50400001928E-02 0. -1.
    10030    2    1    2    0    0  0.00000000000E+00  0.00000000000E+00 -0.12147420417E+04  0.27956344002E+04  0.25179303945E+04 0.  0.
        2    1    3    3  502    0  0.12033247629E+04 -0.33520099044E+02 -0.19809784321E+03  0.12199823103E+04  0.25500000920E-02 0.  1.
       -2    1    3    3    0  502 -0.12033247629E+04  0.33520099044E+02 -0.10166441985E+04  0.15756520899E+04  0.25500000920E-02 0. -1.
</event>
<event>
 5   0  0.5152288E-06  0.2623352E+04  0.7818609E-02  0.8360312E-01
        1   -1    0    0  501    0  0.00000000000E+00  0.00000000000E+00  0.12453142113E+04  0.12453142113E+04  0.50400001928E-02 0.  1.
       -1   -1    0    0    0  501  0.00000000000E+00  0.00000000000E+00 -0.13815746631E+04  0.13815746631E+04  0.50400001928E-02 0. -1.
    10030    2    1    2    0    0  0.00000000000E+00  0.00000000000E+00 -0.13626045175E+03  0.26268888744E+04  0.26233524825E+04 0.  0.
        3    1    3    3  502    0 -0.40239009741E+03  0.12117783406E+04 -0.36881824448E+03  0.13290415512E+04  0.10100000352E+00 0. -1.
       -3    1    3    3    0  502  0.40239009741E+03 -0.12117783406E+04  0.23255779273E+03  0.12978473232E+04  0.10100000352E+00 0.  1.
</event>
<event>
 5   0  0.4824715E-06  0.2736012E+04  0.7818609E-02  0.8323414E-01
        1   -1    0    0  501    0  0.00000000000E+00  0.00000000000E+00  0.14181288801E+04  0.14181288801E+04  0.50400001928E-02 0.  1.
       -1   -1    0    0    0  501  0.00000000000E+00  0.00000000000E+00 -0.13196548407E+04  0.13196548407E+04  0.50400001928E-02 0. -1.
    10030    2    1    2    0    0  0.00000000000E+00  0.00000000000E+00  0.98474039390E+02  0.27377837207E+04  0.27360121647E+04 0.  0.
        5    1    3    3  502    0 -0.77174775486E+03  0.10697521882E+04 -0.31356388615E+03  0.13558424473E+04  0.46999998093E+01 0.  1.
       -5    1    3    3    0  502  0.77174775486E+03 -0.10697521882E+04  0.41203792554E+03  0.13819412735E+04  0.46999998093E+01 0. -1.
</event>
<event>
 5   0  0.1286641E-05  0.2758558E+04  0.7818609E-02  0.8316251E-01
       -2   -1    0    0    0  501  0.00000000000E+00  0.00000000000E+00  0.10817595581E+04  0.10817595581E+04  0.25500000920E-02 0. -1.
        2   -1    0    0  501    0  0.00000000000E+00  0.00000000000E+00 -0.17586258819E+04  0.17586258819E+04  0.25500000920E-02 0.  1.
    10030    2    1    2    0    0  0.00000000000E+00  0.00000000000E+00 -0.67686632376E+03  0.28403854400E+04  0.27585578529E+04 0.  0.
        4    1    3    3  502    0  0.64185044467E+03  0.97223901408E+03 -0.10987040225E+04  0.16013659282E+04  0.12699999809E+01 0.  1.
       -4    1    3    3    0  502 -0.64185044467E+03 -0.97223901408E+03  0.42183769878E+03  0.12390195119E+04  0.12699999809E+01 0. -1.
</event>
<event>
 5   0  0.1261364E-05  0.2670002E+04  0.7818609E-02  0.8344804E-01
       -2   -1    0    0    0  501  0.00000000000E+00  0.00000000000E+00  0.12046974783E+04  0.12046974783E+04  0.25500000920E-02 0. -1.
        2   -1    0    0  501    0  0.00000000000E+00  0.00000000000E+00 -0.14793984086E+04  0.14793984086E+04  0.25500000920E-02 0.  1.
    10030    2    1    2    0    0  0.00000000000E+00  0.00000000000E+00 -0.27470093035E+03  0.26840958869E+04  0.26700018968E+04 0.  0.
        5    1    3    3  502    0 -0.28418018151E+03  0.23104082851E+03  0.11531968005E+04  0.12099682602E+04  0.46999998093E+01 0. -1.
       -5    1    3    3    0  502  0.28418018151E+03 -0.23104082851E+03 -0.14278977309E+04  0.14741276267E+04  0.46999998093E+01 0.  1.
</event>
<event>
 5   0  0.1276517E-05  0.2306171E+04  0.7818609E-02  0.8475492E-01
        2   -1    0    0  501    0  0.00000000000E+00  0.00000000000E+00  0.80000625979E+03  0.80000625980E+03  0.25500000920E-02 0.  1.
       -2   -1    0    0    0  501  0.00000000000E+00  0.00000000000E+00 -0.16619941388E+04  0.16619941388E+04  0.25500000920E-02 0. -1.
    10030    2    1    2    0    0  0.00000000000E+00  0.00000000000E+00 -0.86198787905E+03  0.24620003986E+04  0.23061706050E+04 0.  0.
        1    1    3    3  502    0 -0.29694119054E+03 -0.11140985951E+04 -0.44668267366E+03  0.12364930898E+04  0.50400001928E-02 0. -1.
       -1    1    3    3    0  502  0.29694119054E+03  0.11140985951E+04 -0.41530520539E+03  0.12255073088E+04  0.50400001928E-02 0.  1.
</event>
<event>
 5   0  0.1276517E-05  0.2681907E+04  0.7818609E-02  0.8340899E-01
        2   -1    0    0  501    0  0.00000000000E+00  0.00000000000E+00  0.11627238141E+04  0.11627238141E+04  0.25500000920E-02 0. -1.
       -2   -1    0    0    0  501  0.00000000000E+00  0.00000000000E+00 -0.15465032762E+04  0.15465032762E+04  0.25500000920E-02 0.  1.
    10030    2    1    2    0    0  0.00000000000E+00  0.00000000000E+00 -0.38377946217E+03  0.27092270903E+04  0.26819069244E+04 0.  0.
        1    1    3    3  502    0  0.83479998430E+03  0.93802575531E+03  0.28340597674E+03  0.12872848477E+04  0.50400001928E-02 0. -1.
       -1    1    3    3    0  502 -0.83479998430E+03 -0.93802575531E+03 -0.66718543890E+03  0.14219422426E+04  0.50400001928E-02 0.  1.
</event>
<event>
 5   0  0.4188000E-06  0.2669420E+04  0.7818609E-02  0.8344996E-01
       -3   -1    0    0    0  501  0.00000000000E+00  0.00000000000E+00  0.13577746755E+04  0.13577746792E+04  0.10100000352E+00 0. -1.
        3   -1    0    0  501    0  0.00000000000E+00  0.00000000000E+00 -0.13120366395E+04  0.13120366434E+04  0.10100000352E+00 0.  1.
    10030    2    1    2    0    0  0.00000000000E+00  0.00000000000E+00  0.45738035951E+02  0.26698113226E+04  0.26694195119E+04 0.  0.
        2    1    3    3  502    0 -0.31096599134E+03  0.12907437848E+04  0.15974949819E+03  0.13372506376E+04  0.25500000920E-02 0. -1.
       -2    1    3    3    0  502  0.31096599134E+03 -0.12907437848E+04 -0.11401146224E+03  0.13325606850E+04  0.25500000920E-02 0.  1.
</event>
<event>
 5   0  0.4188000E-06  0.2698861E+04  0.7818609E-02  0.8335375E-01
       -3   -1    0    0    0  501  0.00000000000E+00  0.00000000000E+00  0.15988379087E+04  0.15988379119E+04  0.10100000352E+00 0.  1.
        3   -1    0    0  501    0  0.00000000000E+00  0.00000000000E+00 -0.11389290858E+04  0.11389290903E+04  0.10100000352E+00 0. -1.
    10030    2    1    2    0    0  0.00000000000E+00  0.00000000000E+00  0.45990882286E+03  0.27377670021E+04  0.26988612474E+04 0.  0.
        4    1    3    3  502    0  0.13216964461E+04  0.19015871418E+03  0.42749101795E+03  0.14020670511E+04  0.12699999809E+01 0. -1.
       -4    1    3    3    0  502 -0.13216964461E+04 -0.19015871418E+03  0.32417804908E+02  0.13356999511E+04  0.12699999809E+01 0.  1.
</event>
<event>
 5   0  0.1286641E-05  0.2703070E+04  0.7818609E-02  0.8334010E-01
        2   -1    0    0  501    0  0.00000000000E+00  0.00000000000E+00  0.15347636699E+04  0.15347636699E+04  0.25500000920E-02 0.  1.
       -2   -1    0    0    0  501  0.00000000000E+00  0.00000000000E+00 -0.11901810617E+04  0.11901810617E+04  0.25500000920E-02 0. -1.
    10030    2    1    2    0    0  0.00000000000E+00  0.00000000000E+00  0.34458260829E+03  0.27249447316E+04  0.27030698504E+04 0.  0.
        4    1    3    3  502    0 -0.41694572949E+03 -0.12168990171E+04  0.59032541995E+03  0.14153348273E+04  0.12699999809E+01 0.  1.
       -4    1    3    3    0  502  0.41694572949E+03  0.12168990171E+04 -0.24574281166E+03  0.13096099043E+04  0.12699999809E+01 0. -1.
</event>
<event>
 5   0  0.4756800E-06  0.2694678E+04  0.7818609E-02  0.8336734E-01
       -1   -1    0    0    0  501  0.00000000000E+00  0.00000000000E+00  0.10024822867E+04  0.10024822867E+04  0.50400001928E-02 0. -1.
        1   -1    0    0  501    0  0.00000000000E+00  0.00000000000E+00 -0.18108276063E+04  0.18108276063E+04  0.50400001928E-02 0.  1.
    10030    2    1    2    0    0  0.00000000000E+00  0.00000000000E+00 -0.80834531963E+03  0.28133098930E+04  0.26946781623E+04 0.  0.
        4    1    3    3  502    0 -0.68147549959E+03  0.11041811094E+04 -0.78304884271E+03  0.15155170345E+04  0.12699999809E+01 0. -1.
       -4    1    3    3    0  502  0.68147549959E+03 -0.11041811094E+04 -0.25296476923E+02  0.12977928585E+04  0.12699999809E+01 0.  1.
</event>
<event>
 5   0  0.1286641E-05  0.2615511E+04  0.7818609E-02  0.8362951E-01
       -2   -1    0    0    0  501  0.00000000000E+00  0.00000000000E+00  0.12034002484E+04  0.12034002484E+04  0.25500000920E-02 0. -1.
        2   -1    0    0  501    0  0.00000000000E+00  0.00000000000E+00 -0.14211603144E+04  0.14211603144E+04  0.25500000920E-02 0.  1.
    10030    2    1    2    0    0  0.00000000000E+00  0.00000000000E+00 -0.21776006609E+03  0.26245605628E+04  0.26155111740E+04 0.  0.
        4    1    3    3  502    0  0.10775536346E+04  0.56270047064E+03  0.37493897115E+03  0.12721377677E+04  0.12699999809E+01 0. -1.
       -4    1    3    3    0  502 -0.10775536346E+04 -0.56270047064E+03 -0.59269903724E+03  0.13524227951E+04  0.12699999809E+01 0.  1.
</event>
<event>
 5   0  0.5152288E-06  0.2688596E+04  0.7818609E-02  0.8338715E-01
        1   -1    0    0  501    0  0.00000000000E+00  0.00000000000E+00  0.16918680467E+04  0.16918680467E+04  0.50400001928E-02 0. -1.
       -1   -1    0    0    0  501  0.00000000000E+00  0.00000000000E+00 -0.10681312502E+04  0.10681312502E+04  0.50400001928E-02 0.  1.
    10030    2    1    2    0    0  0.00000000000E+00  0.00000000000E+00  0.62373679649E+03  0.27599992969E+04  0.26885960142E+04 0.  0.
        3    1    3    3  502    0  0.43072089662E+02  0.81246201313E+03 -0.78668633682E+03  0.11317354507E+04  0.10100000352E+00 0.  1.
       -3    1    3    3    0  502 -0.43072089662E+02 -0.81246201313E+03  0.14104231333E+04  0.16282638462E+04  0.10100000352E+00 0. -1.
</event>
<event>
 5   0  0.4756800E-06  0.2593075E+04  0.7818609E-02  0.8370557E-01
        1   -1    0    0  501    0  0.00000000000E+00  0.00000000000E+00  0.16405353060E+04  0.16405353060E+04  0.50400001928E-02 0.  1.
       -1   -1    0    0    0  501  0.00000000000E+00  0.00000000000E+00 -0.10246716994E+04  0.10246716994E+04  0.50400001928E-02 0. -1.
    10030    2    1    2    0    0  0.00000000000E+00  0.00000000000E+00  0.61586360657E+03  0.26652070055E+04  0.25930754713E+04 0.  0.
        4    1    3    3  502    0  0.49045319708E+03 -0.11097767823E+04  0.77765613123E+03  0.14411452100E+04  0.12699999809E+01 0.  1.
       -4    1    3    3    0  502 -0.49045319708E+03  0.11097767823E+04 -0.16179252466E+03  0.12240617954E+04  0.12699999809E+01 0. -1.
</event>
<event>
 5   0  0.4846214E-06  0.2659027E+04  0.7818609E-02  0.8348423E-01
       -1   -1    0    0    0  501  0.00000000000E+00  0.00000000000E+00  0.79536763700E+03  0.79536763702E+03  0.50400001928E-02 0. -1.
        1   -1    0    0  501    0  0.00000000000E+00  0.00000000000E+00 -0.22223757246E+04  0.22223757246E+04  0.50400001928E-02 0.  1.
    10030    2    1    2    0    0  0.00000000000E+00  0.00000000000E+00 -0.14270080876E+04  0.30177433616E+04  0.26590266855E+04 0.  0.
        2    1    3    3  502    0  0.43090884289E+02 -0.12623114805E+04 -0.24239035366E+03  0.12860949349E+04  0.25500000920E-02 0. -1.
       -2    1    3    3    0  502 -0.43090884289E+02  0.12623114805E+04 -0.11846177339E+04  0.17316484267E+04  0.25500000920E-02 0.  1.
</event>
<event>
 5   0  0.1276517E-05  0.2679616E+04  0.7818609E-02  0.8341649E-01
        2   -1    0    0  501    0  0.00000000000E+00  0.00000000000E+00  0.13310739720E+04  0.13310739720E+04  0.25500000920E-02 0. -1.
       -2   -1    0    0    0  501  0.00000000000E+00  0.00000000000E+00 -0.13485993817E+04  0.13485993817E+04  0.25500000920E-02 0.  1.
    10030    2    1    2    0    0  0.00000000000E+00  0.00000000000E+00 -0.17525409720E+02  0.26796733536E+04  0.26796160438E+04 0.  0.
        1    1    3    3  502    0  0.10363564743E+02  0.70705465775E+03 -0.11467904897E+04  0.13472795255E+04  0.50400001928E-02 0.  1.
       -1    1    3    3    0  502 -0.10363564743E+02 -0.70705465775E+03  0.11292650800E+04  0.13323938282E+04  0.50400001928E-02 0. -1.
</event>
<event>
 5   0  0.4826140E-06  0.2703837E+04  0.7818609E-02  0.8333761E-01
       -1   -1    0    0    0  501  0.00000000000E+00  0.00000000000E+00  0.27417854477E+04  0.27417854477E+04  0.50400001928E-02 0. -1.
        1   -1    0    0  501    0  0.00000000000E+00  0.00000000000E+00 -0.66660368905E+03  0.66660368906E+03  0.50400001928E-02 0.  1.
    10030    2    1    2    0    0  0.00000000000E+00  0.00000000000E+00  0.20751817587E+04  0.34083891368E+04  0.27038374907E+04 0.  0.
        1    1    3    3  502    0  0.44244096652E+03 -0.11518951475E+04  0.34133831032E+03  0.12802844535E+04  0.50400001928E-02 0.  1.
       -1    1    3    3    0  502 -0.44244096652E+03  0.11518951475E+04  0.17338434484E+04  0.21281046833E+04  0.50400001928E-02 0. -1.
</event>
<event>
 5   0  0.1276517E-05  0.2720358E+04  0.7818609E-02  0.8328430E-01
        2   -1    0    0  501    0  0.00000000000E+00  0.00000000000E+00  0.15165902895E+04  0.15165902895E+04  0.25500000920E-02 0. -1.
       -2   -1    0    0    0  501  0.00000000000E+00  0.00000000000E+00 -0.12198987793E+04  0.12198987793E+04  0.25500000920E-02 0.  1.
    10030    2    1    2    0    0  0.00000000000E+00  0.00000000000E+00  0.29669151019E+03  0.27364890688E+04  0.27203578021E+04 0.  0.
        1    1    3    3  502    0  0.30239953700E+03  0.73056559029E+03 -0.96497595752E+03  0.12475376388E+04  0.50400001928E-02 0.  1.
       -1    1    3    3    0  502 -0.30239953700E+03 -0.73056559029E+03  0.12616674677E+04  0.14889514300E+04  0.50400001928E-02 0. -1.
</event>
<event>
 5   0  0.1220908E-05  0.2519528E+04  0.7818609E-02  0.8396062E-01
        2   -1    0    0  501    0  0.00000000000E+00  0.00000000000E+00  0.16245518081E+04  0.16245518081E+04  0.25500000920E-02 0. -1.
       -2   -1    0    0    0  501  0.00000000000E+00  0.00000000000E+00 -0.97688774712E+03  0.97688774712E+03  0.25500000920E-02 0.  1.
    10030    2    1    2    0    0  0.00000000000E+00  0.00000000000E+00  0.64766406095E+03  0.26014395552E+04  0.25195275397E+04 0.  0.
        2    1    3    3  502    0 -0.11511832663E+04 -0.41378640370E+03  0.63455202725E+03  0.13780777829E+04  0.25500000920E-02 0. -1.
       -2    1    3    3    0  502  0.11511832663E+04  0.41378640370E+03  0.13112033704E+02  0.12233617723E+04  0.25500000920E-02 0.  1.
</event>
<event>
 5   0  0.1286641E-05  0.2707313E+04  0.7818609E-02  0.8332636E-01
        2   -1    0    0  501    0  0.00000000000E+00  0.00000000000E+00  0.16932100718E+04  0.16932100718E+04  0.25500000920E-02 0.  1.
       -2   -1    0    0    0  501  0.00000000000E+00  0.00000000000E+00 -0.10821965968E+04  0.10821965968E+04  0.25500000920E-02 0. -1.
    10030    2    1    2    0    0  0.00000000000E+00  0.00000000000E+00  0.61101347500E+03  0.27754066687E+04  0.27073131902E+04 0.  0.
        4    1    3    3  502    0 -0.66269623057E+03  0.10090786414E+04  0.93326342838E+03  0.15259057108E+04  0.12699999809E+01 0.  1.
       -4    1    3    3    0  502  0.66269623057E+03 -0.10090786414E+04 -0.32224995338E+03  0.12495009579E+04  0.12699999809E+01 0. -1.
</event>
<event>
 5   0  0.4756800E-06  0.2666697E+04  0.7818609E-02  0.8345892E-01
        1   -1    0    0  501    0  0.00000000000E+00  0.00000000000E+00  0.14260460986E+04  0.14260460986E+04  0.50400001928E-02 0.  1.
       -1   -1    0    0    0  501  0.00000000000E+00  0.00000000000E+00 -0.12466760874E+04  0.12466760874E+04  0.50400001928E-02 0. -1.
    10030    2    1    2    0    0  0.00000000000E+00  0.00000000000E+00  0.17937001122E+03  0.26727221860E+04  0.26666965112E+04 0.  0.
        4    1    3    3  502    0  0.13133962389E+04 -0.94723703255E+02 -0.12015306231E+03  0.13222785756E+04  0.12699999809E+01 0. -1.
       -4    1    3    3    0  502 -0.13133962389E+04  0.94723703255E+02  0.29952307353E+03  0.13504436104E+04  0.12699999809E+01 0.  1.
</event>
<event>
 5   0  0.4826140E-06  0.2694180E+04  0.7818609E-02  0.8336896E-01
       -1   -1    0    0    0  501  0.00000000000E+00  0.00000000000E+00  0.11643131641E+04  0.11643131641E+04  0.50400001928E-02 0.  1.
        1   -1    0    0  501    0  0.00000000000E+00  0.00000000000E+00 -0.15585599606E+04  0.15585599606E+04  0.50400001928E-02 0. -1.
    10030    2    1    2    0    0  0.00000000000E+00  0.00000000000E+00 -0.39424679650E+03  0.27228731247E+04  0.26941803052E+04 0.  0.
        1    1    3    3  502    0  0.49599769471E+03 -0.10386588787E+04  0.51020585669E+03  0.12590218408E+04  0.50400001928E-02 0.  1.
       -1    1    3    3    0  502 -0.49599769471E+03  0.10386588787E+04 -0.90445265318E+03  0.14638512839E+04  0.50400001928E-02 0. -1.
</event>
<event>
 5   0  0.1286641E-05  0.2697524E+04  0.7818609E-02  0.8335809E-01
        2   -1    0    0  501    0  0.00000000000E+00  0.00000000000E+00  0.10983262058E+04  0.10983262058E+04  0.25500000920E-02 0.  1.
       -2   -1    0    0    0  501  0.00000000000E+00  0.00000000000E+00 -0.16563006642E+04  0.16563006642E+04  0.25500000920E-02 0. -1.
    10030    2    1    2    0    0  0.00000000000E+00  0.00000000000E+00 -0.55797445845E+03  0.27546268700E+04  0.26975236230E+04 0.  0.
        4    1    3    3  502    0  0.75437138002E+03 -0.98997322055E+03 -0.80963515396E+03  0.14848009469E+04  0.12699999809E+01 0. -1.
       -4    1    3    3    0  502 -0.75437138002E+03  0.98997322055E+03  0.25166069551E+03  0.12698259231E+04  0.12699999809E+01 0.  1.
</event>
<event>
 5   0  0.1261364E-05  0.2725553E+04  0.7818609E-02  0.8326761E-01
        2   -1    0    0  501    0  0.00000000000E+00  0.00000000000E+00  0.17451325314E+04  0.17451325314E+04  0.25500000920E-02 0.  1.
       -2   -1    0    0    0  501  0.00000000000E+00  0.00000000000E+00 -0.10641944937E+04  0.10641944937E+04  0.25500000920E-02 0. -1.
    10030    2    1    2    0    0  0.00000000000E+00  0.00000000000E+00  0.68093803769E+03  0.28093270252E+04  0.27255534710E+04 0.  0.
        5    1    3    3  502    0  0.29880857752E+03  0.11918830079E+04 -0.26693707110E+03  0.12574375374E+04  0.46999998093E+01 0. -1.
       -5    1    3    3    0  502 -0.29880857752E+03 -0.11918830079E+04  0.94787510879E+03  0.15518894878E+04  0.46999998093E+01 0.  1.
</event>
<event>
 5   0  0.4846214E-06  0.2710602E+04  0.7818609E-02  0.8331573E-01
        1   -1    0    0  501    0  0.00000000000E+00  0.00000000000E+00  0.15014255145E+04  0.15014255145E+04  0.50400001928E-02 0. -1.
       -1   -1    0    0    0  501  0.00000000000E+00  0.00000000000E+00 -0.12233975212E+04  0.12233975212E+04  0.50400001928E-02 0.  1.
    10030    2    1    2    0    0  0.00000000000E+00  0.00000000000E+00  0.27802799326E+03  0.27248230357E+04  0.27106015957E+04 0.  0.
        2    1    3    3  502    0  0.85540370263E+03  0.19885421035E+03  0.11767001023E+04  0.14682920766E+04  0.25500000920E-02 0. -1.
       -2    1    3    3    0  502 -0.85540370263E+03 -0.19885421035E+03 -0.89867210909E+03  0.12565309591E+04  0.25500000920E-02 0.  1.
</event>
<event>
 5   0  0.5152288E-06  0.2703177E+04  0.7818609E-02  0.8333975E-01
        1   -1    0    0  501    0  0.00000000000E+00  0.00000000000E+00  0.28976435695E+04  0.28976435695E+04  0.50400001928E-02 0. -1.
       -1   -1    0    0    0  501  0.00000000000E+00  0.00000000000E+00 -0.63044031820E+03  0.63044031822E+03  0.50400001928E-02 0.  1.
    10030    2    1    2    0    0  0.00000000000E+00  0.00000000000E+00  0.22672032513E+04  0.35280838877E+04  0.27031768969E+04 0.  0.
        3    1    3    3  502    0  0.88505332253E+03  0.19306836906E+03  0.24428011737E+04  0.26053545561E+04  0.10100000352E+00 0. -1.
       -3    1    3    3    0  502 -0.88505332253E+03 -0.19306836906E+03 -0.17559792237E+03  0.92272933160E+03  0.10100000352E+00 0.  1.
</event>
<event>
 5   0  0.1220908E-05  0.2631534E+04  0.7818609E-02  0.8357568E-01
        2   -1    0    0  501    0  0.00000000000E+00  0.00000000000E+00  0.56725385905E+03  0.56725385906E+03  0.25500000920E-02 0.  1.
       -2   -1    0    0    0  501  0.00000000000E+00  0.00000000000E+00 -0.30519706846E+04  0.30519706846E+04  0.25500000920E-02 0. -1.
    10030    2    1    2    0    0  0.00000000000E+00  0.00000000000E+00 -0.24847168255E+04  0.36192245437E+04  0.26315335062E+04 0.  0.
        2    1    3    3  502    0 -0.10483161326E+04  0.28090262343E+03 -0.21926780785E+03  0.11072268825E+04  0.25500000920E-02 0.  1.
       -2    1    3    3    0  502  0.10483161326E+04 -0.28090262343E+03 -0.22654490177E+04  0.25119976611E+04  0.25500000920E-02 0. -1.
</event>
<event>
 5   0  0.1286641E-05  0.2694399E+04  0.7818609E-02  0.8336824E-01
        2   -1    0    0  501    0  0.00000000000E+00  0.00000000000E+00  0.17013562077E+04  0.17013562077E+04  0.25500000920E-02 0. -1.
       -2   -1    0    0    0  501  0.00000000000E+00  0.00000000000E+00 -0.10667647812E+04  0.10667647812E+04  0.25500000920E-02 0.  1.
    10030    2    1    2    0    0  0.00000000000E+00  0.00000000000E+00  0.63459142651E+03  0.27681209889E+04  0.26943992894E+04 0.  0.
        4    1    3    3  502    0 -0.35589038715E+01  0.13346083783E+04  0.12854881603E+03  0.13407902894E+04  0.12699999809E+01 0.  1.
       -4    1    3    3    0  502  0.35589038715E+01 -0.13346083783E+04  0.50604261049E+03  0.14273306995E+04  0.12699999809E+01 0. -1.
</event>
<event>
 5   0  0.4826140E-06  0.2707967E+04  0.7818609E-02  0.8332425E-01
       -1   -1    0    0    0  501  0.00000000000E+00  0.00000000000E+00  0.76154266609E+03  0.76154266611E+03  0.50400001928E-02 0. -1.
        1   -1    0    0  501    0  0.00000000000E+00  0.00000000000E+00 -0.24073128218E+04  0.24073128218E+04  0.50400001928E-02 0.  1.
    10030    2    1    2    0    0  0.00000000000E+00  0.00000000000E+00 -0.16457701557E+04  0.31688554879E+04  0.27079670784E+04 0.  0.
        1    1    3    3  502    0 -0.11951315276E+03 -0.46280407145E+03 -0.23052992863E+04  0.23543312854E+04  0.50400001928E-02 0.  1.
       -1    1    3    3    0  502  0.11951315276E+03  0.46280407145E+03  0.65952913060E+03  0.81452420245E+03  0.50400001928E-02 0. -1.
</event>
<event>
 5   0  0.4826140E-06  0.2679841E+04  0.7818609E-02  0.8341576E-01
        1   -1    0    0  501    0  0.00000000000E+00  0.00000000000E+00  0.18240100526E+04  0.18240100526E+04  0.50400001928E-02 0. -1.
       -1   -1    0    0    0  501  0.00000000000E+00  0.00000000000E+00 -0.98430766796E+03  0.98430766797E+03  0.50400001928E-02 0.  1.
    10030    2    1    2    0    0  0.00000000000E+00  0.00000000000E+00  0.83970238461E+03  0.28083177206E+04  0.26798411007E+04 0.  0.
        1    1    3    3  502    0  0.45455184868E+03  0.10376438527E+04  0.11697449088E+04  0.16283811900E+04  0.50400001928E-02 0. -1.
       -1    1    3    3    0  502 -0.45455184868E+03 -0.10376438527E+04 -0.33004252421E+03  0.11799365305E+04  0.50400001928E-02 0.  1.
</event>
<event>
 5   0  0.1232559E-05  0.2729402E+04  0.7818609E-02  0.8325528E-01
        2   -1    0    0  501    0  0.00000000000E+00  0.00000000000E+00  0.99251291249E+03  0.99251291249E+03  0.25500000920E-02 0. -1.
       -2   -1    0    0    0  501  0.00000000000E+00  0.00000000000E+00 -0.18764582193E+04  0.18764582193E+04  0.25500000920E-02 0.  1.
    10030    2    1    2    0    0  0.00000000000E+00  0.00000000000E+00 -0.88394530678E+03  0.28689711318E+04  0.27294021414E+04 0.  0.
        3    1    3    3  502    0 -0.96450413835E+02 -0.28772413218E+03  0.95659886125E+03  0.10035782232E+04  0.10100000352E+00 0. -1.
       -3    1    3    3    0  502  0.96450413835E+02  0.28772413218E+03 -0.18405441680E+04  0.18653929085E+04  0.10100000352E+00 0.  1.
</event>
<event>
 5   0  0.4756800E-06  0.2701862E+04  0.7818609E-02  0.8334401E-01
        1   -1    0    0  501    0  0.00000000000E+00  0.00000000000E+00  0.12634928357E+04  0.12634928357E+04  0.50400001928E-02 0. -1.
       -1   -1    0    0    0  501  0.00000000000E+00  0.00000000000E+00 -0.14444205046E+04  0.14444205046E+04  0.50400001928E-02 0.  1.
    10030    2    1    2    0    0  0.00000000000E+00  0.00000000000E+00 -0.18092766885E+03  0.27079133403E+04  0.27018622906E+04 0.  0.
        4    1    3    3  502    0 -0.67171683215E+03  0.11604560498E+04  0.74682624757E+02  0.13429225047E+04  0.12699999809E+01 0. -1.
       -4    1    3    3    0  502  0.67171683215E+03 -0.11604560498E+04 -0.25561029360E+03  0.13649908356E+04  0.12699999809E+01 0.  1.
</event>
<event>
 5   0  0.4826140E-06  0.3020564E+04  0.7818609E-02  0.8237883E-01
        1   -1    0    0  501    0  0.00000000000E+00  0.00000000000E+00  0.17806331890E+04  0.17806331890E+04  0.50400001928E-02 0. -1.
       -1   -1    0    0    0  501  0.00000000000E+00  0.00000000000E+00 -0.12809778793E+04  0.12809778793E+04  0.50400001928E-02 0.  1.
    10030    2    1    2    0    0  0.00000000000E+00  0.00000000000E+00  0.49965530965E+03  0.30616110683E+04  0.30205640045E+04 0.  0.
        1    1    3    3  502    0  0.62919912636E+02  0.15038788935E+04  0.37536993327E+03  0.15512940497E+04  0.50400001928E-02 0.  1.
       -1    1    3    3    0  502 -0.62919912636E+02 -0.15038788935E+04  0.12428537638E+03  0.15103170186E+04  0.50400001928E-02 0. -1.
</event>
<event>
 5   0  0.4826140E-06  0.2657390E+04  0.7818609E-02  0.8348964E-01
        1   -1    0    0  501    0  0.00000000000E+00  0.00000000000E+00  0.11486370061E+04  0.11486370061E+04  0.50400001928E-02 0. -1.
       -1   -1    0    0    0  501  0.00000000000E+00  0.00000000000E+00 -0.15369786569E+04  0.15369786569E+04  0.50400001928E-02 0.  1.
    10030    2    1    2    0    0  0.00000000000E+00  0.00000000000E+00 -0.38834165084E+03  0.26856156630E+04  0.26573901203E+04 0.  0.
        1    1    3    3  502    0  0.18371335709E+03 -0.94494951956E+03  0.73138987842E+03  0.12089711934E+04  0.50400001928E-02 0. -1.
       -1    1    3    3    0  502 -0.18371335709E+03  0.94494951956E+03 -0.11197315293E+04  0.14766444696E+04  0.50400001928E-02 0.  1.
</event>
<event>
 5   0  0.5152288E-06  0.2739159E+04  0.7818609E-02  0.8322410E-01
       -1   -1    0    0    0  501  0.00000000000E+00  0.00000000000E+00  0.12347913612E+04  0.12347913612E+04  0.50400001928E-02 0.  1.
        1   -1    0    0  501    0  0.00000000000E+00  0.00000000000E+00 -0.15190813071E+04  0.15190813071E+04  0.50400001928E-02 0. -1.
    10030    2    1    2    0    0  0.00000000000E+00  0.00000000000E+00 -0.28428994597E+03  0.27538726683E+04  0.27391593418E+04 0.  0.
        3    1    3    3  502    0 -0.10374298971E+04  0.40525052740E+03  0.65916805928E+03  0.12942145579E+04  0.10100000352E+00 0.  1.
       -3    1    3    3    0  502  0.10374298971E+04 -0.40525052740E+03 -0.94345800524E+03  0.14596581104E+04  0.10100000352E+00 0. -1.
</event>
<event>
 5   0  0.1261364E-05  0.2307539E+04  0.7818609E-02  0.8474955E-01
       -2   -1    0    0    0  501  0.00000000000E+00  0.00000000000E+00  0.91793068123E+03  0.91793068124E+03  0.25500000920E-02 0.  1.
        2   -1    0    0  501    0  0.00000000000E+00  0.00000000000E+00 -0.14502005485E+04  0.14502005485E+04  0.25500000920E-02 0. -1.
    10030    2    1    2    0    0  0.00000000000E+00  0.00000000000E+00 -0.53226986724E+03  0.23681312297E+04  0.23075385825E+04 0.  0.
        5    1    3    3  502    0 -0.55646134202E+03  0.55277785896E+02 -0.13018208329E+04  0.14168501790E+04  0.46999998093E+01 0. -1.
       -5    1    3    3    0  502  0.55646134202E+03 -0.55277785896E+02  0.76955096563E+03  0.95128105073E+03  0.46999998093E+01 0.  1.
</event>
<event>
 5   0  0.4756800E-06  0.2703702E+04  0.7818609E-02  0.8333805E-01
        1   -1    0    0  501    0  0.00000000000E+00  0.00000000000E+00  0.64535342716E+03  0.64535342718E+03  0.50400001928E-02 0. -1.
       -1   -1    0    0    0  501  0.00000000000E+00  0.00000000000E+00 -0.28317838911E+04  0.28317838911E+04  0.50400001928E-02 0.  1.
    10030    2    1    2    0    0  0.00000000000E+00  0.00000000000E+00 -0.21864304640E+04  0.34771373183E+04  0.27037022315E+04 0.  0.
        4    1    3    3  502    0 -0.48035594618E+03  0.57577739671E+03  0.35338710187E+03  0.82894239984E+03  0.12699999809E+01 0. -1.
       -4    1    3    3    0  502  0.48035594618E+03 -0.57577739671E+03 -0.25398175658E+04  0.26481949185E+04  0.12699999809E+01 0.  1.
</event>
<event>
 5   0  0.4826140E-06  0.2688413E+04  0.7818609E-02  0.8338774E-01
        1   -1    0    0  501    0  0.00000000000E+00  0.00000000000E+00  0.12466129523E+04  0.12466129523E+04  0.50400001928E-02 0. -1.
       -1   -1    0    0    0  501  0.00000000000E+00  0.00000000000E+00 -0.14494403113E+04  0.14494403113E+04  0.50400001928E-02 0.  1.
    10030    2    1    2    0    0  0.00000000000E+00  0.00000000000E+00 -0.20282735901E+03  0.26960532635E+04  0.26884129635E+04 0.  0.
        1    1    3    3  502    0  0.54542789023E+03  0.64555869677E+03  0.94685765008E+03  0.12691639074E+04  0.50400001928E-02 0. -1.
       -1    1    3    3    0  502 -0.54542789023E+03 -0.64555869677E+03 -0.11496850091E+04  0.14268893561E+04  0.50400001928E-02 0.  1.
</event>
<event>
 5   0  0.4826140E-06  0.2666075E+04  0.7818609E-02  0.8346097E-01
       -1   -1    0    0    0  501  0.00000000000E+00  0.00000000000E+00  0.10645076217E+04  0.10645076217E+04  0.50400001928E-02 0. -1.
        1   -1    0    0  501    0  0.00000000000E+00  0.00000000000E+00 -0.16693062174E+04  0.16693062174E+04  0.50400001928E-02 0.  1.
    10030    2    1    2    0    0  0.00000000000E+00  0.00000000000E+00 -0.60479859577E+03  0.27338138391E+04  0.26660751612E+04 0.  0.
        1    1    3    3  502    0 -0.28092562218E+03 -0.54371596727E+03  0.91193747904E+03  0.10982605447E+04  0.50400001928E-02 0. -1.
       -1    1    3    3    0  502  0.28092562218E+03  0.54371596727E+03 -0.15167360748E+04  0.16355532944E+04  0.50400001928E-02 0.  1.
</event>
<event>
 5   0  0.1261364E-05  0.2722973E+04  0.7818609E-02  0.8327589E-01
        2   -1    0    0  501    0  0.00000000000E+00  0.00000000000E+00  0.14180758763E+04  0.14180758763E+04  0.25500000920E-02 0.  1.
       -2   -1    0    0    0  501  0.00000000000E+00  0.00000000000E+00 -0.13071557714E+04  0.13071557714E+04  0.25500000920E-02 0. -1.
    10030    2    1    2    0    0  0.00000000000E+00  0.00000000000E+00  0.11092010485E+03  0.27252316477E+04  0.27229734233E+04 0.  0.
        5    1    3    3  502    0  0.10418023767E+04  0.60741663333E+03  0.68789931210E+03  0.13883568389E+04  0.46999998093E+01 0.  1.
       -5    1    3    3    0  502 -0.10418023767E+04 -0.60741663333E+03 -0.57697920725E+03  0.13368748087E+04  0.46999998093E+01 0. -1.
</event>
<event>
 5   0  0.1286641E-05  0.2706389E+04  0.7818609E-02  0.8332935E-01
       -2   -1    0    0    0  501  0.00000000000E+00  0.00000000000E+00  0.20157152270E+04  0.20157152270E+04  0.25500000920E-02 0. -1.
        2   -1    0    0  501    0  0.00000000000E+00  0.00000000000E+00 -0.90842966091E+03  0.90842966091E+03  0.25500000920E-02 0.  1.
    10030    2    1    2    0    0  0.00000000000E+00  0.00000000000E+00  0.11072855661E+04  0.29241448879E+04  0.27063891074E+04 0.  0.
        4    1    3    3  502    0  0.12971633449E+04 -0.13294647985E+03  0.94444436127E+03  0.16100572270E+04  0.12699999809E+01 0.  1.
       -4    1    3    3    0  502 -0.12971633449E+04  0.13294647985E+03  0.16284120485E+03  0.13140876609E+04  0.12699999809E+01 0. -1.
</event>
<event>
 5   0  0.4824715E-06  0.2640817E+04  0.7818609E-02  0.8354467E-01
        1   -1    0    0  501    0  0.00000000000E+00  0.00000000000E+00  0.11647629599E+04  0.11647629599E+04  0.50400001928E-02 0. -1.
       -1   -1    0    0    0  501  0.00000000000E+00  0.00000000000E+00 -0.14968527312E+04  0.14968527312E+04  0.50400001928E-02 0.  1.
    10030    2    1    2    0    0  0.00000000000E+00  0.00000000000E+00 -0.33208977130E+03  0.26616156912E+04  0.26408170083E+04 0.  0.
        5    1    3    3  502    0  0.81903799150E+02  0.63490731301E+03 -0.13299739389E+04  0.14760312655E+04  0.46999998093E+01 0.  1.
       -5    1    3    3    0  502 -0.81903799150E+02 -0.63490731301E+03  0.99788416762E+03  0.11855844257E+04  0.46999998093E+01 0. -1.
</event>
<event>
 5   0  0.1286641E-05  0.2541654E+04  0.7818609E-02  0.8388295E-01
       -2   -1    0    0    0  501  0.00000000000E+00  0.00000000000E+00  0.95285352201E+03  0.95285352201E+03  0.25500000920E-02 0. -1.
        2   -1    0    0  501    0  0.00000000000E+00  0.00000000000E+00 -0.16949097948E+04  0.16949097948E+04  0.25500000920E-02 0.  1.
    10030    2    1    2    0    0  0.00000000000E+00  0.00000000000E+00 -0.74205627281E+03  0.26477633168E+04  0.25416536094E+04 0.  0.
        4    1    3    3  502    0  0.10152286150E+04  0.75766100407E+03 -0.26550866626E+03  0.12943090058E+04  0.12699999809E+01 0. -1.
       -4    1    3    3    0  502 -0.10152286150E+04 -0.75766100407E+03 -0.47654760654E+03  0.13534543110E+04  0.12699999809E+01 0.  1.
</event>
<event>
 5   0  0.5152288E-06  0.2218266E+04  0.7818609E-02  0.8510864E-01
        1   -1    0    0  501    0  0.00000000000E+00  0.00000000000E+00  0.14476046000E+04  0.14476046000E+04  0.50400001928E-02 0.  1.
       -1   -1    0    0    0  501  0.00000000000E+00  0.00000000000E+00 -0.84980134864E+03  0.84980134866E+03  0.50400001928E-02 0. -1.
    10030    2    1    2    0    0  0.00000000000E+00  0.00000000000E+00  0.59780325139E+03  0.22974059487E+04  0.22182662973E+04 0.  0.
        3    1    3    3  502    0  0.63211809630E+03 -0.67858811512E+03 -0.33117888883E+03  0.98475102653E+03  0.10100000352E+00 0. -1.
       -3    1    3    3    0  502 -0.63211809630E+03  0.67858811512E+03  0.92898214022E+03  0.13126549222E+04  0.10100000352E+00 0.  1.
</event>
<event>
 5   0  0.1220908E-05  0.2707370E+04  0.7818609E-02  0.8332618E-01
       -2   -1    0    0    0  501  0.00000000000E+00  0.00000000000E+00  0.98653615435E+03  0.98653615435E+03  0.25500000920E-02 0. -1.
        2   -1    0    0  501    0  0.00000000000E+00  0.00000000000E+00 -0.18574713073E+04  0.18574713073E+04  0.25500000920E-02 0.  1.
    10030    2    1    2    0    0  0.00000000000E+00  0.00000000000E+00 -0.87093515297E+03  0.28440074617E+04  0.27073696462E+04 0.  0.
        2    1    3    3  502    0  0.61435908025E+03 -0.10486461739E+04 -0.10616798200E+04  0.16137719535E+04  0.25500000920E-02 0.  1.
       -2    1    3    3    0  502 -0.61435908025E+03  0.10486461739E+04  0.19074466706E+03  0.12302355082E+04  0.25500000920E-02 0. -1.
</event>
<event>
 5   0  0.1276517E-05  0.2731171E+04  0.7818609E-02  0.8324961E-01
        2   -1    0    0  501    0  0.00000000000E+00  0.00000000000E+00  0.65169864166E+03  0.65169864166E+03  0.25500000920E-02 0.  1.
       -2   -1    0    0    0  501  0.00000000000E+00  0.00000000000E+00 -0.28614823038E+04  0.28614823038E+04  0.25500000920E-02 0. -1.
    10030    2    1    2    0    0  0.00000000000E+00  0.00000000000E+00 -0.22097836621E+04  0.35131809454E+04  0.27311712729E+04 0.  0.
        1    1    3    3  502    0  0.80665819550E+03  0.50376140288E+03 -0.23654607936E+04  0.25494857837E+04  0.50400001928E-02 0. -1.
       -1    1    3    3    0  502 -0.80665819550E+03 -0.50376140288E+03  0.15567713148E+03  0.96369516170E+03  0.50400001928E-02 0.  1.
</event>
<event>
 5   0  0.4756800E-06  0.2689560E+04  0.7818609E-02  0.8338400E-01
       -1   -1    0    0    0  501  0.00000000000E+00  0.00000000000E+00  0.71919232516E+03  0.71919232518E+03  0.50400001928E-02 0.  1.
        1   -1    0    0  501    0  0.00000000000E+00  0.00000000000E+00 -0.25145342753E+04  0.25145342753E+04  0.50400001928E-02 0. -1.
    10030    2    1    2    0    0  0.00000000000E+00  0.00000000000E+00 -0.17953419501E+04  0.32337266005E+04  0.26895603746E+04 0.  0.
        4    1    3    3  502    0 -0.78472734454E+03  0.75397672007E+02  0.41222942064E+03  0.88961594093E+03  0.12699999809E+01 0.  1.
       -4    1    3    3    0  502  0.78472734454E+03 -0.75397672007E+02 -0.22075713708E+04  0.23441106595E+04  0.12699999809E+01 0. -1.
</event>
<event>
 5   0  0.1276517E-05  0.2651831E+04  0.7818609E-02  0.8350805E-01
        2   -1    0    0  501    0  0.00000000000E+00  0.00000000000E+00  0.17311084603E+04  0.17311084603E+04  0.25500000920E-02 0.  1.
       -2   -1    0    0    0  501  0.00000000000E+00  0.00000000000E+00 -0.10155646234E+04  0.10155646234E+04  0.25500000920E-02 0. -1.
    10030    2    1    2    0    0  0.00000000000E+00  0.00000000000E+00  0.71554383685E+03  0.27466730837E+04  0.26518314513E+04 0.  0.
        1    1    3    3  502    0 -0.60080286479E+02 -0.39850470082E+03  0.16661344139E+04  0.17141818815E+04  0.50400001928E-02 0.  1.
       -1    1    3    3    0  502  0.60080286479E+02  0.39850470082E+03 -0.95059057709E+03  0.10324912022E+04  0.50400001928E-02 0. -1.
</event>
<event>
 5   0  0.4846214E-06  0.2705741E+04  0.7818609E-02  0.8333145E-01
       -1   -1    0    0    0  501  0.00000000000E+00  0.00000000000E+00  0.13534393415E+04  0.13534393415E+04  0.50400001928E-02 0. -1.
        1   -1    0    0  501    0  0.00000000000E+00  0.00000000000E+00 -0.13523017325E+04  0.13523017325E+04  0.50400001928E-02 0.  1.
    10030    2    1    2    0    0  0.00000000000E+00  0.00000000000E+00  0.11376090541E+01  0.27057410740E+04  0.27057408349E+04 0.  0.
        2    1    3    3  502    0  0.11094171223E+04  0.66947190756E+03 -0.38835201893E+03  0.13527070181E+04  0.25500000920E-02 0.  1.
       -2    1    3    3    0  502 -0.11094171223E+04 -0.66947190756E+03  0.38948962799E+03  0.13530340559E+04  0.25500000920E-02 0. -1.
</event>
<event>
 5   0  0.1286641E-05  0.2675196E+04  0.7818609E-02  0.8343098E-01
        2   -1    0    0  501    0  0.00000000000E+00  0.00000000000E+00  0.17792830883E+04  0.17792830883E+04  0.25500000920E-02 0.  1.
       -2   -1    0    0    0  501  0.00000000000E+00  0.00000000000E+00 -0.10055560711E+04  0.10055560711E+04  0.25500000920E-02 0. -1.
    10030    2    1    2    0    0  0.00000000000E+00  0.00000000000E+00  0.77372701724E+03  0.27848391594E+04  0.26751963753E+04 0.  0.
        4    1    3    3  502    0 -0.45072641260E+03 -0.32405637668E+03 -0.87997730708E+03  0.10404463024E+04  0.12699999809E+01 0. -1.
       -4    1    3    3    0  502  0.45072641260E+03  0.32405637668E+03  0.16537043243E+04  0.17443928570E+04  0.12699999809E+01 0.  1.
</event>
<event>
 5   0  0.1232559E-05  0.2676220E+04  0.7818609E-02  0.8342762E-01
       -2   -1    0    0    0  501  0.00000000000E+00  0.00000000000E+00  0.75106758403E+03  0.75106758404E+03  0.25500000920E-02 0.  1.
        2   -1    0    0  501    0  0.00000000000E+00  0.00000000000E+00 -0.23839917363E+04  0.23839917363E+04  0.25500000920E-02 0. -1.
    10030    2    1    2    0    0  0.00000000000E+00  0.00000000000E+00 -0.16329241522E+04  0.31350593203E+04  0.26762204048E+04 0.  0.
        3    1    3    3  502    0 -0.10758163680E+04  0.80666660723E+02 -0.17437972467E+04  0.20505406155E+04  0.10100000352E+00 0. -1.
       -3    1    3    3    0  502  0.10758163680E+04 -0.80666660723E+02  0.11087309448E+03  0.10845187048E+04  0.10100000352E+00 0.  1.
</event>
<event>
 5   0  0.4846214E-06  0.2737757E+04  0.7818609E-02  0.8322857E-01
        1   -1    0    0  501    0  0.00000000000E+00  0.00000000000E+00  0.20755675534E+04  0.20755675534E+04  0.50400001928E-02 0. -1.
       -1   -1    0    0    0  501  0.00000000000E+00  0.00000000000E+00 -0.90280317386E+03  0.90280317388E+03  0.50400001928E-02 0.  1.
    10030    2    1    2    0    0  0.00000000000E+00  0.00000000000E+00  0.11727643795E+04  0.29783707273E+04  0.27377574581E+04 0.  0.
        2    1    3    3  502    0 -0.23883096308E+03  0.18998782687E+03  0.20380871312E+04  0.20608092482E+04  0.25500000920E-02 0. -1.
       -2    1    3    3    0  502  0.23883096308E+03 -0.18998782687E+03 -0.86532275165E+03  0.91756147904E+03  0.25500000920E-02 0.  1.
</event>
<event>
 5   0  0.4756800E-06  0.2804359E+04  0.7818609E-02  0.8301916E-01
        1   -1    0    0  501    0  0.00000000000E+00  0.00000000000E+00  0.18808064981E+04  0.18808064981E+04  0.50400001928E-02 0.  1.
       -1   -1    0    0    0  501  0.00000000000E+00  0.00000000000E+00 -0.10453531136E+04  0.10453531136E+04  0.50400001928E-02 0. -1.
    10030    2    1    2    0    0  0.00000000000E+00  0.00000000000E+00  0.83545338450E+03  0.29261596118E+04  0.28043586996E+04 0.  0.
        4    1    3    3  502    0  0.56070424021E+02  0.51534871327E+03  0.17771465887E+04  0.18512103607E+04  0.12699999809E+01 0.  1.
       -4    1    3    3    0  502 -0.56070424021E+02 -0.51534871327E+03 -0.94169320422E+03  0.10749492511E+04  0.12699999809E+01 0. -1.
</event>
<event>
 5   0  0.5152288E-06  0.2467202E+04  0.7818609E-02  0.8414764E-01
        1   -1    0    0  501    0  0.00000000000E+00  0.00000000000E+00  0.15760250673E+04  0.15760250673E+04  0.50400001928E-02 0. -1.
       -1   -1    0    0    0  501  0.00000000000E+00  0.00000000000E+00 -0.96557580854E+03  0.96557580855E+03  0.50400001928E-02 0.  1.
    10030    2    1    2    0    0  0.00000000000E+00  0.00000000000E+00  0.61044925874E+03  0.25416008758E+04  0.24672022038E+04 0.  0.
        3    1    3    3  502    0 -0.70478486583E+03 -0.67343883354E+03  0.10840178468E+04  0.14578533095E+04  0.10100000352E+00 0. -1.
       -3    1    3    3    0  502  0.70478486583E+03  0.67343883354E+03 -0.47356858811E+03  0.10837475663E+04  0.10100000352E+00 0.  1.
</event>
<event>
 5   0  0.5152288E-06  0.2694442E+04  0.7818609E-02  0.8336811E-01
       -1   -1    0    0    0  501  0.00000000000E+00  0.00000000000E+00  0.19925682682E+04  0.19925682682E+04  0.50400001928E-02 0.  1.
        1   -1    0    0  501    0  0.00000000000E+00  0.00000000000E+00 -0.91088707344E+03  0.91088707345E+03  0.50400001928E-02 0. -1.
    10030    2    1    2    0    0  0.00000000000E+00  0.00000000000E+00  0.10816811948E+04  0.29034553417E+04  0.26944421898E+04 0.  0.
        3    1    3    3  502    0 -0.91739108808E+03  0.32681101465E+03 -0.46228156083E+03  0.10780148883E+04  0.10100000352E+00 0. -1.
       -3    1    3    3    0  502  0.91739108808E+03 -0.32681101465E+03  0.15439627556E+04  0.18254404533E+04  0.10100000352E+00 0.  1.
</event>
<event>
 5   0  0.1232559E-05  0.2702656E+04  0.7818609E-02  0.8334144E-01
       -2   -1    0    0    0  501  0.00000000000E+00  0.00000000000E+00  0.17903172354E+04  0.17903172354E+04  0.25500000920E-02 0.  1.
        2   -1    0    0  501    0  0.00000000000E+00  0.00000000000E+00 -0.10199798952E+04  0.10199798952E+04  0.25500000920E-02 0. -1.
    10030    2    1    2    0    0  0.00000000000E+00  0.00000000000E+00  0.77033734022E+03  0.28102971305E+04  0.27026561646E+04 0.  0.
        3    1    3    3  502    0 -0.87714716677E+03  0.14748998955E+02 -0.68362205496E+03  0.11121797559E+04  0.10100000352E+00 0. -1.
       -3    1    3    3    0  502  0.87714716677E+03 -0.14748998955E+02  0.14539593952E+04  0.16981173747E+04  0.10100000352E+00 0.  1.
</event>
<event>
 5   0  0.1261364E-05  0.2741541E+04  0.7818609E-02  0.8321651E-01
       -2   -1    0    0    0  501  0.00000000000E+00  0.00000000000E+00  0.79913430885E+03  0.79913430885E+03  0.25500000920E-02 0.  1.
        2   -1    0    0  501    0  0.00000000000E+00  0.00000000000E+00 -0.23513097031E+04  0.23513097031E+04  0.25500000920E-02 0. -1.
    10030    2    1    2    0    0  0.00000000000E+00  0.00000000000E+00 -0.15521753943E+04  0.31504440120E+04  0.27415413581E+04 0.  0.
        5    1    3    3  502    0  0.53569425532E+03  0.70032686594E+03 -0.19821836300E+04  0.21694469543E+04  0.46999998093E+01 0. -1.
       -5    1    3    3    0  502 -0.53569425532E+03 -0.70032686594E+03  0.43000823576E+03  0.98099705767E+03  0.46999998093E+01 0.  1.
</event>
<event>
 5   0  0.1220908E-05  0.2683839E+04  0.7818609E-02  0.8340268E-01
       -2   -1    0    0    0  501  0.00000000000E+00  0.00000000000E+00  0.10285038316E+04  0.10285038316E+04  0.25500000920E-02 0. -1.
        2   -1    0    0  501    0  0.00000000000E+00  0.00000000000E+00 -0.17508416127E+04  0.17508416127E+04  0.25500000920E-02 0.  1.
    10030    2    1    2    0    0  0.00000000000E+00  0.00000000000E+00 -0.72233778116E+03  0.27793454443E+04  0.26838385251E+04 0.  0.
        2    1    3    3  502    0  0.91675422339E+03 -0.27725986153E+03  0.61219153496E+03  0.11367012855E+04  0.25500000920E-02 0. -1.
       -2    1    3    3    0  502 -0.91675422339E+03  0.27725986153E+03 -0.13345293161E+04  0.16426441588E+04  0.25500000920E-02 0.  1.
</event>
<event>
 5   0  0.4826140E-06  0.2687404E+04  0.7818609E-02  0.8339103E-01
       -1   -1    0    0    0  501  0.00000000000E+00  0.00000000000E+00  0.79148211366E+03  0.79148211368E+03  0.50400001928E-02 0.  1.
        1   -1    0    0  501    0  0.00000000000E+00  0.00000000000E+00 -0.22812081018E+04  0.22812081018E+04  0.50400001928E-02 0. -1.
    10030    2    1    2    0    0  0.00000000000E+00  0.00000000000E+00 -0.14897259881E+04  0.30726902155E+04  0.26874042570E+04 0.  0.
        1    1    3    3  502    0  0.68908148323E+03  0.10397305255E+04 -0.13161607012E+04  0.18133261835E+04  0.50400001928E-02 0. -1.
       -1    1    3    3    0  502 -0.68908148323E+03 -0.10397305255E+04 -0.17356528695E+03  0.12593640320E+04  0.50400001928E-02 0.  1.
</event>
<event>
 5   0  0.1220908E-05  0.2703767E+04  0.7818609E-02  0.8333784E-01
       -2   -1    0    0    0  501  0.00000000000E+00  0.00000000000E+00  0.13382914802E+04  0.13382914802E+04  0.25500000920E-02 0. -1.
        2   -1    0    0  501    0  0.00000000000E+00  0.00000000000E+00 -0.13656133502E+04  0.13656133502E+04  0.25500000920E-02 0.  1.
    10030    2    1    2    0    0  0.00000000000E+00  0.00000000000E+00 -0.27321870022E+02  0.27039048304E+04  0.27037667886E+04 0.  0.
        2    1    3    3  502    0  0.99997579829E+03 -0.16721640747E+03 -0.90795252350E+03  0.13609888718E+04  0.25500000920E-02 0.  1.
       -2    1    3    3    0  502 -0.99997579829E+03  0.16721640747E+03  0.88063065347E+03  0.13429159586E+04  0.25500000920E-02 0. -1.
</event>
<event>
 5   0  0.4826140E-06  0.2780473E+04  0.7818609E-02  0.8309356E-01
        1   -1    0    0  501    0  0.00000000000E+00  0.00000000000E+00  0.19784612059E+04  0.19784612059E+04  0.50400001928E-02 0.  1.
       -1   -1    0    0    0  501  0.00000000000E+00  0.00000000000E+00 -0.97689952298E+03  0.97689952299E+03  0.50400001928E-02 0. -1.
    10030    2    1    2    0    0  0.00000000000E+00  0.00000000000E+00  0.10015616830E+04  0.29553607289E+04  0.27804732031E+04 0.  0.
        1    1    3    3  502    0 -0.65536473572E+03  0.39574383784E+03 -0.73265854213E+03  0.10596719593E+04  0.50400001928E-02 0. -1.
       -1    1    3    3    0  502  0.65536473572E+03 -0.39574383784E+03  0.17342202251E+04  0.18956887696E+04  0.50400001928E-02 0.  1.
</event>
<event>
 5   0  0.4824715E-06  0.2687074E+04  0.7818609E-02  0.8339211E-01
        1   -1    0    0  501    0  0.00000000000E+00  0.00000000000E+00  0.19162302443E+04  0.19162302443E+04  0.50400001928E-02 0.  1.
       -1   -1    0    0    0  501  0.00000000000E+00  0.00000000000E+00 -0.94200169910E+03  0.94200169911E+03  0.50400001928E-02 0. -1.
    10030    2    1    2    0    0  0.00000000000E+00  0.00000000000E+00  0.97422854517E+03  0.28582319434E+04  0.26870743540E+04 0.  0.
        5    1    3    3  502    0  0.95663816312E+03  0.19279587353E+03  0.14693753273E+04  0.17639197165E+04  0.46999998093E+01 0.  1.
       -5    1    3    3    0  502 -0.95663816312E+03 -0.19279587353E+03 -0.49514678210E+03  0.10943122268E+04  0.46999998093E+01 0. -1.
</event>
<event>
 5   0  0.1286641E-05  0.2691289E+04  0.7818609E-02  0.8337837E-01
       -2   -1    0    0    0  501  0.00000000000E+00  0.00000000000E+00  0.14295750639E+04  0.14295750639E+04  0.25500000920E-02 0.  1.
        2   -1    0    0  501    0  0.00000000000E+00  0.00000000000E+00 -0.12666417294E+04  0.12666417294E+04  0.25500000920E-02 0. -1.
    10030    2    1    2    0    0  0.00000000000E+00  0.00000000000E+00  0.16293333448E+03  0.26962167934E+04  0.26912892311E+04 0.  0.
        4    1    3    3  502    0 -0.11087086998E+04 -0.46654072149E+03  0.68578134215E+03  0.13846273462E+04  0.12699999809E+01 0. -1.
       -4    1    3    3    0  502  0.11087086998E+04  0.46654072149E+03 -0.52284800767E+03  0.13115894471E+04  0.12699999809E+01 0.  1.
</event>
<event>
 5   0  0.5152288E-06  0.2651819E+04  0.7818609E-02  0.8350810E-01
       -1   -1    0    0    0  501  0.00000000000E+00  0.00000000000E+00  0.96136900092E+03  0.96136900094E+03  0.50400001928E-02 0. -1.
        1   -1    0    0  501    0  0.00000000000E+00  0.00000000000E+00 -0.18286794560E+04  0.18286794560E+04  0.50400001928E-02 0.  1.
    10030    2    1    2    0    0  0.00000000000E+00  0.00000000000E+00 -0.86731045505E+03  0.27900484569E+04  0.26518188035E+04 0.  0.
        3    1    3    3  502    0  0.37803187661E+03 -0.29830077080E+03  0.86611234350E+03  0.99098034862E+03  0.10100000352E+00 0. -1.
       -3    1    3    3    0  502 -0.37803187661E+03  0.29830077080E+03 -0.17334227985E+04  0.17990681083E+04  0.10100000352E+00 0.  1.
</event>
<event>
 5   0  0.4188000E-06  0.2792874E+04  0.7818609E-02  0.8305484E-01
        3   -1    0    0  501    0  0.00000000000E+00  0.00000000000E+00  0.12194264407E+04  0.12194264448E+04  0.10100000352E+00 0. -1.
       -3   -1    0    0    0  501  0.00000000000E+00  0.00000000000E+00 -0.15991422972E+04  0.15991423004E+04  0.10100000352E+00 0.  1.
    10030    2    1    2    0    0  0.00000000000E+00  0.00000000000E+00 -0.37971585653E+03  0.28185687452E+04  0.27928740823E+04 0.  0.
        3    1    3    3  502    0 -0.13535203648E+04 -0.25705539928E+03  0.40145707890E+02  0.13782984235E+04  0.10100000352E+00 0.  1.
       -3    1    3    3    0  502  0.13535203648E+04  0.25705539928E+03 -0.41986156442E+03  0.14402703217E+04  0.10100000352E+00 0. -1.
</event>
<event>
 5   0  0.4826140E-06  0.2794192E+04  0.7818609E-02  0.8305074E-01
        1   -1    0    0  501    0  0.00000000000E+00  0.00000000000E+00  0.14342574708E+04  0.14342574708E+04  0.50400001928E-02 0.  1.
       -1   -1    0    0    0  501  0.00000000000E+00  0.00000000000E+00 -0.13608970597E+04  0.13608970597E+04  0.50400001928E-02 0. -1.
    10030    2    1    2    0    0  0.00000000000E+00  0.00000000000E+00  0.73360411152E+02  0.27951545305E+04  0.27941916720E+04 0.  0.
        1    1    3    3  502    0  0.12300563543E+04 -0.60057858549E+03  0.31631812762E+03  0.14049165206E+04  0.50400001928E-02 0.  1.
       -1    1    3    3    0  502 -0.12300563543E+04  0.60057858549E+03 -0.24295771646E+03  0.13902380099E+04  0.50400001928E-02 0. -1.
</event>
<event>
 5   0  0.4846214E-06  0.2769080E+04  0.7818609E-02  0.8312933E-01
       -1   -1    0    0    0  501  0.00000000000E+00  0.00000000000E+00  0.14353852269E+04  0.14353852269E+04  0.50400001928E-02 0. -1.
        1   -1    0    0  501    0  0.00000000000E+00  0.00000000000E+00 -0.13354958150E+04  0.13354958150E+04  0.50400001928E-02 0.  1.
    10030    2    1    2    0    0  0.00000000000E+00  0.00000000000E+00  0.99889411879E+02  0.27708810419E+04  0.27690799652E+04 0.  0.
        2    1    3    3  502    0  0.33473359126E+03  0.10175437850E+04  0.92773190801E+03  0.14170844804E+04  0.25500000920E-02 0. -1.
       -2    1    3    3    0  502 -0.33473359126E+03 -0.10175437850E+04 -0.82784249613E+03  0.13537965615E+04  0.25500000920E-02 0.  1.
</event>
<event>
 5   0  0.4756800E-06  0.2715831E+04  0.7818609E-02  0.8329887E-01
       -1   -1    0    0    0  501  0.00000000000E+00  0.00000000000E+00  0.13159503615E+04  0.13159503615E+04  0.50400001928E-02 0. -1.
        1   -1    0    0  501    0  0.00000000000E+00  0.00000000000E+00 -0.14012187430E+04  0.14012187430E+04  0.50400001928E-02 0.  1.
    10030    2    1    2    0    0  0.00000000000E+00  0.00000000000E+00 -0.85268381474E+02  0.27171691046E+04  0.27158308574E+04 0.  0.
        4    1    3    3  502    0  0.72215966074E+03  0.67393678375E+03 -0.97488050856E+03  0.13878396820E+04  0.12699999809E+01 0.  1.
       -4    1    3    3    0  502 -0.72215966074E+03 -0.67393678375E+03  0.88961212709E+03  0.13293294225E+04  0.12699999809E+01 0. -1.
</event>
<event>
 5   0  0.4188000E-06  0.2706415E+04  0.7818609E-02  0.8332927E-01
       -3   -1    0    0    0  501  0.00000000000E+00  0.00000000000E+00  0.13443267739E+04  0.13443267777E+04  0.10100000352E+00 0.  1.
        3   -1    0    0  501    0  0.00000000000E+00  0.00000000000E+00 -0.13621465852E+04  0.13621465889E+04  0.10100000352E+00 0. -1.
    10030    2    1    2    0    0  0.00000000000E+00  0.00000000000E+00 -0.17819811268E+02  0.27064733666E+04  0.27064147019E+04 0.  0.
        2    1    3    3  502    0  0.76629420905E+03 -0.50085172672E+02 -0.11231399608E+04  0.13605729348E+04  0.25500000920E-02 0. -1.
       -2    1    3    3    0  502 -0.76629420905E+03  0.50085172672E+02  0.11053201496E+04  0.13459004318E+04  0.25500000920E-02 0.  1.
</event>
<event>
 5   0  0.1276517E-05  0.2697913E+04  0.7818609E-02  0.8335682E-01
        2   -1    0    0  501    0  0.00000000000E+00  0.00000000000E+00  0.16967613267E+04  0.16967613267E+04  0.25500000920E-02 0.  1.
       -2   -1    0    0    0  501  0.00000000000E+00  0.00000000000E+00 -0.10724451554E+04  0.10724451554E+04  0.25500000920E-02 0. -1.
    10030    2    1    2    0    0  0.00000000000E+00  0.00000000000E+00  0.62431617128E+03  0.27692064820E+04  0.26979128708E+04 0.  0.
        1    1    3    3  502    0  0.19428514384E+03 -0.36977106075E+02 -0.10574833219E+04  0.10758182930E+04  0.50400001928E-02 0. -1.
       -1    1    3    3    0  502 -0.19428514384E+03  0.36977106075E+02  0.16817994932E+04  0.16933881890E+04  0.50400001928E-02 0.  1.
</event>
<event>
 5   0  0.4846214E-06  0.2671386E+04  0.7818609E-02  0.8344349E-01
       -1   -1    0    0    0  501  0.00000000000E+00  0.00000000000E+00  0.83440563257E+03  0.83440563259E+03  0.50400001928E-02 0.  1.
        1   -1    0    0  501    0  0.00000000000E+00  0.00000000000E+00 -0.21381392809E+04  0.21381392809E+04  0.50400001928E-02 0. -1.
    10030    2    1    2    0    0  0.00000000000E+00  0.00000000000E+00 -0.13037336483E+04  0.29725449135E+04  0.26713857522E+04 0.  0.
        2    1    3    3  502    0  0.15495057787E+03  0.12356115014E+04 -0.11436851055E+03  0.12505301357E+04  0.25500000920E-02 0. -1.
       -2    1    3    3    0  502 -0.15495057787E+03 -0.12356115014E+04 -0.11893651378E+04  0.17220147778E+04  0.25500000920E-02 0.  1.
</event>
<event>
 5   0  0.1232559E-05  0.2711787E+04  0.7818609E-02  0.8331191E-01
       -2   -1    0    0    0  501  0.00000000000E+00  0.00000000000E+00  0.91518570131E+03  0.91518570131E+03  0.25500000920E-02 0.  1.
        2   -1    0    0  501    0  0.00000000000E+00  0.00000000000E+00 -0.20088235779E+04  0.20088235779E+04  0.25500000920E-02 0. -1.
    10030    2    1    2    0    0  0.00000000000E+00  0.00000000000E+00 -0.10936378766E+04  0.29240092792E+04  0.27117865808E+04 0.  0.
        3    1    3    3  502    0 -0.41544891609E+02  0.66254521324E+03 -0.18216090429E+04  0.19388016023E+04  0.10100000352E+00 0. -1.
       -3    1    3    3    0  502  0.41544891609E+02 -0.66254521324E+03  0.72797116629E+03  0.98520767696E+03  0.10100000352E+00 0.  1.
</event>
<event>
 5   0  0.4756800E-06  0.2680561E+04  0.7818609E-02  0.8341340E-01
        1   -1    0    0  501    0  0.00000000000E+00  0.00000000000E+00  0.88342244118E+03  0.88342244120E+03  0.50400001928E-02 0.  1.
       -1   -1    0    0    0  501  0.00000000000E+00  0.00000000000E+00 -0.20334009377E+04  0.20334009377E+04  0.50400001928E-02 0. -1.
    10030    2    1    2    0    0  0.00000000000E+00  0.00000000000E+00 -0.11499784965E+04  0.29168233789E+04  0.26805611504E+04 0.  0.
        4    1    3    3  502    0  0.35767107438E+03 -0.12270273929E+04 -0.13590714138E+03  0.12853004257E+04  0.12699999809E+01 0.  1.
       -4    1    3    3    0  502 -0.35767107438E+03  0.12270273929E+04 -0.10140713551E+04  0.16315229531E+04  0.12699999809E+01 0. -1.
</event>
<event>
 5   0  0.1276517E-05  0.2719674E+04  0.7818609E-02  0.8328649E-01
       -2   -1    0    0    0  501  0.00000000000E+00  0.00000000000E+00  0.10890207939E+04  0.10890207939E+04  0.25500000920E-02 0. -1.
        2   -1    0    0  501    0  0.00000000000E+00  0.00000000000E+00 -0.16979999322E+04  0.16979999322E+04  0.25500000920E-02 0.  1.
    10030    2    1    2    0    0  0.00000000000E+00  0.00000000000E+00 -0.60897913833E+03  0.27870207261E+04  0.27196744174E+04 0.  0.
        1    1    3    3  502    0 -0.98209429101E+01  0.10112052995E+04 -0.12361361212E+04  0.15970801855E+04  0.50400001928E-02 0.  1.
       -1    1    3    3    0  502  0.98209429101E+01 -0.10112052995E+04  0.62715698291E+03  0.11899405405E+04  0.50400001928E-02 0. -1.
</event>
<event>
 5   0  0.5152288E-06  0.2708599E+04  0.7818609E-02  0.8332220E-01
       -1   -1    0    0    0  501  0.00000000000E+00  0.00000000000E+00  0.71575724645E+03  0.71575724647E+03  0.50400001928E-02 0. -1.
        1   -1    0    0  501    0  0.00000000000E+00  0.00000000000E+00 -0.25624982754E+04  0.25624982754E+04  0.50400001928E-02 0.  1.
    10030    2    1    2    0    0  0.00000000000E+00  0.00000000000E+00 -0.18467410289E+04  0.32782555218E+04  0.27085986854E+04 0.  0.
        3    1    3    3  502    0 -0.47503626631E+03  0.12660965698E+04 -0.83388317425E+03  0.15887168208E+04  0.10100000352E+00 0. -1.
       -3    1    3    3    0  502  0.47503626631E+03 -0.12660965698E+04 -0.10128578547E+04  0.16895387010E+04  0.10100000352E+00 0.  1.
</event>
<event>
 5   0  0.1286641E-05  0.2692130E+04  0.7818609E-02  0.8337563E-01
        2   -1    0    0  501    0  0.00000000000E+00  0.00000000000E+00  0.11293246086E+04  0.11293246086E+04  0.25500000920E-02 0.  1.
       -2   -1    0    0    0  501  0.00000000000E+00  0.00000000000E+00 -0.16044028711E+04  0.16044028711E+04  0.25500000920E-02 0. -1.
    10030    2    1    2    0    0  0.00000000000E+00  0.00000000000E+00 -0.47507826253E+03  0.27337274797E+04  0.26921304904E+04 0.  0.
        4    1    3    3  502    0  0.32655975821E+03  0.41604159300E+03 -0.14944686024E+04  0.15852980475E+04  0.12699999809E+01 0. -1.
       -4    1    3    3    0  502 -0.32655975821E+03 -0.41604159300E+03  0.10193903399E+04  0.11484294322E+04  0.12699999809E+01 0.  1.
</event>
<event>
 5   0  0.1286641E-05  0.2692031E+04  0.7818609E-02  0.8337595E-01
       -2   -1    0    0    0  501  0.00000000000E+00  0.00000000000E+00  0.16324844128E+04  0.16324844128E+04  0.25500000920E-02 0. -1.
        2   -1    0    0  501    0  0.00000000000E+00  0.00000000000E+00 -0.11098164679E+04  0.11098164679E+04  0.25500000920E-02 0.  1.
    10030    2    1    2    0    0  0.00000000000E+00  0.00000000000E+00  0.52266794495E+03  0.27423008807E+04  0.26920312665E+04 0.  0.
        4    1    3    3  502    0  0.28705900469E+03  0.11687657396E+04  0.87536703495E+03  0.14881818723E+04  0.12699999809E+01 0. -1.
       -4    1    3    3    0  502 -0.28705900469E+03 -0.11687657396E+04 -0.35269909000E+03  0.12541190084E+04  0.12699999809E+01 0.  1.
</event>
<event>
 5   0  0.1261364E-05  0.2702034E+04  0.7818609E-02  0.8334345E-01
       -2   -1    0    0    0  501  0.00000000000E+00  0.00000000000E+00  0.66350138182E+03  0.66350138183E+03  0.25500000920E-02 0.  1.
        2   -1    0    0  501    0  0.00000000000E+00  0.00000000000E+00 -0.27509323409E+04  0.27509323409E+04  0.25500000920E-02 0. -1.
    10030    2    1    2    0    0  0.00000000000E+00  0.00000000000E+00 -0.20874309590E+04  0.34144337227E+04  0.27020343517E+04 0.  0.
        5    1    3    3  502    0  0.11103878112E+04 -0.27978957310E+03 -0.19496603823E+04  0.22610707624E+04  0.46999998093E+01 0. -1.
       -5    1    3    3    0  502 -0.11103878112E+04  0.27978957310E+03 -0.13777057678E+03  0.11533629603E+04  0.46999998093E+01 0.  1.
</event>
<event>
 5   0  0.1220908E-05  0.2767981E+04  0.7818609E-02  0.8313278E-01
       -2   -1    0    0    0  501  0.00000000000E+00  0.00000000000E+00  0.13279427712E+04  0.13279427712E+04  0.25500000920E-02 0. -1.
        2   -1    0    0  501    0  0.00000000000E+00  0.00000000000E+00 -0.14424038253E+04  0.14424038253E+04  0.25500000920E-02 0.  1.
    10030    2    1    2    0    0  0.00000000000E+00  0.00000000000E+00 -0.11446105409E+03  0.27703465965E+04  0.27679810209E+04 0.  0.
        2    1    3    3  502    0  0.27034592492E+03  0.11024027919E+04 -0.84977272685E+03  0.14179183763E+04  0.25500000920E-02 0.  1.
       -2    1    3    3    0  502 -0.27034592492E+03 -0.11024027919E+04  0.73531167277E+03  0.13524282202E+04  0.25500000920E-02 0. -1.
</event>
<event>
 5   0  0.1232559E-05  0.2664338E+04  0.7818609E-02  0.8346670E-01
       -2   -1    0    0    0  501  0.00000000000E+00  0.00000000000E+00  0.12204163649E+04  0.12204163649E+04  0.25500000920E-02 0. -1.
        2   -1    0    0  501    0  0.00000000000E+00  0.00000000000E+00 -0.14541550880E+04  0.14541550880E+04  0.25500000920E-02 0.  1.
    10030    2    1    2    0    0  0.00000000000E+00  0.00000000000E+00 -0.23373872313E+03  0.26745714530E+04  0.26643383168E+04 0.  0.
        3    1    3    3  502    0 -0.59595230279E+03  0.18503944742E+03 -0.12983673201E+04  0.14405403335E+04  0.10100000352E+00 0.  1.
       -3    1    3    3    0  502  0.59595230279E+03 -0.18503944742E+03  0.10646285969E+04  0.12340311195E+04  0.10100000352E+00 0. -1.
</event>
<event>
 5   0  0.1232559E-05  0.2699281E+04  0.7818609E-02  0.8335238E-01
       -2   -1    0    0    0  501  0.00000000000E+00  0.00000000000E+00  0.53168532954E+03  0.53168532954E+03  0.25500000920E-02 0.  1.
        2   -1    0    0  501    0  0.00000000000E+00  0.00000000000E+00 -0.34259544535E+04  0.34259544535E+04  0.25500000920E-02 0. -1.
    10030    2    1    2    0    0  0.00000000000E+00  0.00000000000E+00 -0.28942691240E+04  0.39576397831E+04  0.26992811803E+04 0.  0.
        3    1    3    3  502    0 -0.77948017383E+03  0.60681182017E+03 -0.27954806574E+04  0.29648814551E+04  0.10100000352E+00 0. -1.
       -3    1    3    3    0  502  0.77948017383E+03 -0.60681182017E+03 -0.98788466591E+02  0.99275832801E+03  0.10100000352E+00 0.  1.
</event>
<event>
 5   0  0.1220908E-05  0.2700056E+04  0.7818609E-02  0.8334987E-01
        2   -1    0    0  501    0  0.00000000000E+00  0.00000000000E+00  0.12119510716E+04  0.12119510716E+04  0.25500000920E-02 0.  1.
       -2   -1    0    0    0  501  0.00000000000E+00  0.00000000000E+00 -0.15038357121E+04  0.15038357121E+04  0.25500000920E-02 0. -1.
    10030    2    1    2    0    0  0.00000000000E+00  0.00000000000E+00 -0.29188464056E+03  0.27157867837E+04  0.27000557793E+04 0.  0.
        2    1    3    3  502    0  0.67822051011E+03  0.85194602122E+03 -0.94857662290E+03  0.14441581260E+04  0.25500000920E-02 0.  1.
       -2    1    3    3    0  502 -0.67822051011E+03 -0.85194602122E+03  0.65669198234E+03  0.12716286577E+04  0.25500000920E-02 0. -1.
</event>
<event>
 5   0  0.4188000E-06  0.2687385E+04  0.7818609E-02  0.8339110E-01
        4   -1    0    0  501    0  0.00000000000E+00  0.00000000000E+00  0.10686077487E+04  0.10686085034E+04  0.12699999809E+01 0.  1.
       -4   -1    0    0    0  501  0.00000000000E+00  0.00000000000E+00 -0.16895894151E+04  0.16895898924E+04  0.12699999809E+01 0. -1.
    10030    2    1    2    0    0  0.00000000000E+00  0.00000000000E+00 -0.62098166639E+03  0.27581983958E+04  0.26873853763E+04 0.  0.
        5    1    3    3  502    0  0.23176473220E+03  0.13235365153E+04 -0.31553477889E+03  0.13802347934E+04  0.46999998093E+01 0. -1.
       -5    1    3    3    0  502 -0.23176473220E+03 -0.13235365153E+04 -0.30544688749E+03  0.13779636024E+04  0.46999998093E+01 0.  1.
</event>
<event>
 5   0  0.1232559E-05  0.2685223E+04  0.7818609E-02  0.8339815E-01
       -2   -1    0    0    0  501  0.00000000000E+00  0.00000000000E+00  0.11081956914E+04  0.11081956914E+04  0.25500000920E-02 0.  1.
        2   -1    0    0  501    0  0.00000000000E+00  0.00000000000E+00 -0.16266135907E+04  0.16266135907E+04  0.25500000920E-02 0. -1.
    10030    2    1    2    0    0  0.00000000000E+00  0.00000000000E+00 -0.51841789931E+03  0.27348092821E+04  0.26852233969E+04 0.  0.
        3    1    3    3  502    0 -0.70610510191E+03 -0.10055940371E+04 -0.81031340751E+03  0.14718735038E+04  0.10100000352E+00 0. -1.
       -3    1    3    3    0  502  0.70610510191E+03  0.10055940371E+04  0.29189550820E+03  0.12629357784E+04  0.10100000352E+00 0.  1.
</event>
<event>
 5   0  0.4756800E-06  0.2700879E+04  0.7818609E-02  0.8334720E-01
        1   -1    0    0  501    0  0.00000000000E+00  0.00000000000E+00  0.12597312249E+04  0.12597312249E+04  0.50400001928E-02 0.  1.
       -1   -1    0    0    0  501  0.00000000000E+00  0.00000000000E+00 -0.14476796275E+04  0.14476796275E+04  0.50400001928E-02 0. -1.
    10030    2    1    2    0    0  0.00000000000E+00  0.00000000000E+00 -0.18794840261E+03  0.27074108523E+04  0.27008792867E+04 0.  0.
        4    1    3    3  502    0  0.32925866108E+03 -0.86472342098E+02  0.12160131424E+04  0.12627661332E+04  0.12699999809E+01 0.  1.
       -4    1    3    3    0  502 -0.32925866108E+03  0.86472342098E+02 -0.14039615450E+04  0.14446447191E+04  0.12699999809E+01 0. -1.
</event>
<event>
 5   0  0.1276517E-05  0.2696342E+04  0.7818609E-02  0.8336193E-01
        2   -1    0    0  501    0  0.00000000000E+00  0.00000000000E+00  0.21353869931E+04  0.21353869931E+04  0.25500000920E-02 0. -1.
       -2   -1    0    0    0  501  0.00000000000E+00  0.00000000000E+00 -0.85116435174E+03  0.85116435174E+03  0.25500000920E-02 0.  1.
    10030    2    1    2    0    0  0.00000000000E+00  0.00000000000E+00  0.12842226414E+04  0.29865513448E+04  0.26963421784E+04 0.  0.
        1    1    3    3  502    0  0.99816973825E+03 -0.60749474945E+02 -0.35938036967E+03  0.10626323801E+04  0.50400001928E-02 0.  1.
       -1    1    3    3    0  502 -0.99816973825E+03  0.60749474945E+02  0.16436030110E+04  0.19239189648E+04  0.50400001928E-02 0. -1.
</event>
<event>
 5   0  0.1220908E-05  0.2701476E+04  0.7818609E-02  0.8334526E-01
       -2   -1    0    0    0  501  0.00000000000E+00  0.00000000000E+00  0.12035088140E+04  0.12035088140E+04  0.25500000920E-02 0. -1.
        2   -1    0    0  501    0  0.00000000000E+00  0.00000000000E+00 -0.15159777079E+04  0.15159777079E+04  0.25500000920E-02 0.  1.
    10030    2    1    2    0    0  0.00000000000E+00  0.00000000000E+00 -0.31246889398E+03  0.27194865219E+04  0.27014755474E+04 0.  0.
        2    1    3    3  502    0 -0.47328815376E+03 -0.28681651206E+03  0.10841440991E+04  0.12172238150E+04  0.25500000920E-02 0. -1.
       -2    1    3    3    0  502  0.47328815376E+03  0.28681651206E+03 -0.13966129931E+04  0.15022627069E+04  0.25500000920E-02 0.  1.
</event>
<event>
 5   0  0.4846214E-06  0.2702172E+04  0.7818609E-02  0.8334301E-01
        1   -1    0    0  501    0  0.00000000000E+00  0.00000000000E+00  0.20115963548E+04  0.20115963548E+04  0.50400001928E-02 0.  1.
       -1   -1    0    0    0  501  0.00000000000E+00  0.00000000000E+00 -0.90745518395E+03  0.90745518396E+03  0.50400001928E-02 0. -1.
    10030    2    1    2    0    0  0.00000000000E+00  0.00000000000E+00  0.11041411709E+04  0.29190515388E+04  0.27021721190E+04 0.  0.
        2    1    3    3  502    0  0.45587069246E+03  0.46503292712E+03 -0.72673223741E+03  0.97581425305E+03  0.25500000920E-02 0. -1.
       -2    1    3    3    0  502 -0.45587069246E+03 -0.46503292712E+03  0.18308734083E+04  0.19432372858E+04  0.25500000920E-02 0.  1.
</event>
<event>
 5   0  0.1261364E-05  0.2194403E+04  0.7818609E-02  0.8520761E-01
       -2   -1    0    0    0  501  0.00000000000E+00  0.00000000000E+00  0.75802365430E+03  0.75802365431E+03  0.25500000920E-02 0. -1.
        2   -1    0    0  501    0  0.00000000000E+00  0.00000000000E+00 -0.15881445849E+04  0.15881445849E+04  0.25500000920E-02 0.  1.
    10030    2    1    2    0    0  0.00000000000E+00  0.00000000000E+00 -0.83012093060E+03  0.23461682392E+04  0.21944030275E+04 0.  0.
        5    1    3    3  502    0 -0.90163327437E+03  0.23979595276E+03 -0.10323876500E+04  0.13915067410E+04  0.46999998093E+01 0.  1.
       -5    1    3    3    0  502  0.90163327437E+03 -0.23979595276E+03  0.20226671938E+03  0.95466149822E+03  0.46999998093E+01 0. -1.
</event>
<event>
 5   0  0.5152288E-06  0.2678933E+04  0.7818609E-02  0.8341873E-01
        1   -1    0    0  501    0  0.00000000000E+00  0.00000000000E+00  0.15437088058E+04  0.15437088058E+04  0.50400001928E-02 0. -1.
       -1   -1    0    0    0  501  0.00000000000E+00  0.00000000000E+00 -0.11622462954E+04  0.11622462954E+04  0.50400001928E-02 0.  1.
    10030    2    1    2    0    0  0.00000000000E+00  0.00000000000E+00  0.38146251033E+03  0.27059551012E+04  0.26789325044E+04 0.  0.
        3    1    3    3  502    0 -0.97488405213E+03  0.16912685873E+03 -0.72124202715E+03  0.12244153223E+04  0.10100000352E+00 0.  1.
       -3    1    3    3    0  502  0.97488405213E+03 -0.16912685873E+03  0.11027045375E+04  0.14815397790E+04  0.10100000352E+00 0. -1.
</event>
<event>
 5   0  0.5152288E-06  0.2717190E+04  0.7818609E-02  0.8329449E-01
       -1   -1    0    0    0  501  0.00000000000E+00  0.00000000000E+00  0.15394326628E+04  0.15394326628E+04  0.50400001928E-02 0.  1.
        1   -1    0    0  501    0  0.00000000000E+00  0.00000000000E+00 -0.11990002156E+04  0.11990002156E+04  0.50400001928E-02 0. -1.
    10030    2    1    2    0    0  0.00000000000E+00  0.00000000000E+00  0.34043244722E+03  0.27384328784E+04  0.27171897943E+04 0.  0.
        3    1    3    3  502    0 -0.67453895065E+01  0.58070202709E+03  0.14080365912E+04  0.15230979604E+04  0.10100000352E+00 0.  1.
       -3    1    3    3    0  502  0.67453895065E+01 -0.58070202709E+03 -0.10676041440E+04  0.12153349180E+04  0.10100000352E+00 0. -1.
</event>
<event>
 5   0  0.4756800E-06  0.2693940E+04  0.7818609E-02  0.8336974E-01
        1   -1    0    0  501    0  0.00000000000E+00  0.00000000000E+00  0.15586356561E+04  0.15586356561E+04  0.50400001928E-02 0. -1.
       -1   -1    0    0    0  501  0.00000000000E+00  0.00000000000E+00 -0.11640489153E+04  0.11640489153E+04  0.50400001928E-02 0.  1.
    10030    2    1    2    0    0  0.00000000000E+00  0.00000000000E+00  0.39458674075E+03  0.27226845714E+04  0.26939399732E+04 0.  0.
        4    1    3    3  502    0  0.27053545432E+03 -0.23423849000E+03 -0.11151268087E+04  0.11711389818E+04  0.12699999809E+01 0.  1.
       -4    1    3    3    0  502 -0.27053545432E+03  0.23423849000E+03  0.15097135495E+04  0.15515455896E+04  0.12699999809E+01 0. -1.
</event>
<event>
 5   0  0.1286641E-05  0.2627570E+04  0.7818609E-02  0.8358896E-01
       -2   -1    0    0    0  501  0.00000000000E+00  0.00000000000E+00  0.16707789428E+04  0.16707789428E+04  0.25500000920E-02 0. -1.
        2   -1    0    0  501    0  0.00000000000E+00  0.00000000000E+00 -0.10330695701E+04  0.10330695701E+04  0.25500000920E-02 0.  1.
    10030    2    1    2    0    0  0.00000000000E+00  0.00000000000E+00  0.63770937273E+03  0.27038485129E+04  0.26275698918E+04 0.  0.
        4    1    3    3  502    0  0.49275326237E+03 -0.99180068968E+02 -0.93021442187E+03  0.10573282117E+04  0.12699999809E+01 0.  1.
       -4    1    3    3    0  502 -0.49275326237E+03  0.99180068968E+02  0.15679237946E+04  0.16465203012E+04  0.12699999809E+01 0. -1.
</event>
<event>
 5   0  0.1220908E-05  0.2689432E+04  0.7818609E-02  0.8338442E-01
       -2   -1    0    0    0  501  0.00000000000E+00  0.00000000000E+00  0.84889399613E+03  0.84889399613E+03  0.25500000920E-02 0. -1.
        2   -1    0    0  501    0  0.00000000000E+00  0.00000000000E+00 -0.21301378486E+04  0.21301378486E+04  0.25500000920E-02 0.  1.
    10030    2    1    2    0    0  0.00000000000E+00  0.00000000000E+00 -0.12812438525E+04  0.29790318447E+04  0.26894320818E+04 0.  0.
        2    1    3    3  502    0 -0.56543619535E+03 -0.12147419466E+04 -0.76665019991E+03  0.15437190861E+04  0.25500000920E-02 0. -1.
       -2    1    3    3    0  502  0.56543619535E+03  0.12147419466E+04 -0.51459365255E+03  0.14353127586E+04  0.25500000920E-02 0.  1.
</event>
<event>
 5   0  0.1286641E-05  0.2694427E+04  0.7818609E-02  0.8336815E-01
        2   -1    0    0  501    0  0.00000000000E+00  0.00000000000E+00  0.17910987166E+04  0.17910987166E+04  0.25500000920E-02 0. -1.
       -2   -1    0    0    0  501  0.00000000000E+00  0.00000000000E+00 -0.10133359678E+04  0.10133359678E+04  0.25500000920E-02 0.  1.
    10030    2    1    2    0    0  0.00000000000E+00  0.00000000000E+00  0.77776274884E+03  0.28044346845E+04  0.26944273985E+04 0.  0.
        4    1    3    3  502    0 -0.12687633506E+04 -0.16090948046E+02  0.86009452789E+03  0.15329003778E+04  0.12699999809E+01 0. -1.
       -4    1    3    3    0  502  0.12687633506E+04  0.16090948046E+02 -0.82331779048E+02  0.12715343067E+04  0.12699999809E+01 0.  1.
</event>
<event>
 5   0  0.1276517E-05  0.2728978E+04  0.7818609E-02  0.8325663E-01
        2   -1    0    0  501    0  0.00000000000E+00  0.00000000000E+00  0.18043857314E+04  0.18043857314E+04  0.25500000920E-02 0.  1.
       -2   -1    0    0    0  501  0.00000000000E+00  0.00000000000E+00 -0.10318361328E+04  0.10318361328E+04  0.25500000920E-02 0. -1.
    10030    2    1    2    0    0  0.00000000000E+00  0.00000000000E+00  0.77254959865E+03  0.28362218642E+04  0.27289781202E+04 0.  0.
        1    1    3    3  502    0 -0.13824052914E+03 -0.52652357110E+03  0.16866410678E+04  0.17723136309E+04  0.50400001928E-02 0.  1.
       -1    1    3    3    0  502  0.13824052914E+03  0.52652357110E+03 -0.91409146915E+03  0.10639082333E+04  0.50400001928E-02 0. -1.
</event>
<event>
 5   0  0.1232559E-05  0.2696957E+04  0.7818609E-02  0.8335993E-01
       -2   -1    0    0    0  501  0.00000000000E+00  0.00000000000E+00  0.11623764721E+04  0.11623764721E+04  0.25500000920E-02 0.  1.
        2   -1    0    0  501    0  0.00000000000E+00  0.00000000000E+00 -0.15643768794E+04  0.15643768794E+04  0.25500000920E-02 0. -1.
    10030    2    1    2    0    0  0.00000000000E+00  0.00000000000E+00 -0.40200040729E+03  0.27267533516E+04  0.26969574548E+04 0.  0.
        3    1    3    3  502    0  0.11620384601E+04  0.24423390565E+03  0.44513086891E+03  0.12681187185E+04  0.10100000352E+00 0.  1.
       -3    1    3    3    0  502 -0.11620384601E+04 -0.24423390565E+03 -0.84713127619E+03  0.14586346331E+04  0.10100000352E+00 0. -1.
</event>
<event>
 5   0  0.4826140E-06  0.2740282E+04  0.7818609E-02  0.8322052E-01
        1   -1    0    0  501    0  0.00000000000E+00  0.00000000000E+00  0.15637241658E+04  0.15637241659E+04  0.50400001928E-02 0. -1.
       -1   -1    0    0    0  501  0.00000000000E+00  0.00000000000E+00 -0.12005230148E+04  0.12005230148E+04  0.50400001928E-02 0.  1.
    10030    2    1    2    0    0  0.00000000000E+00  0.00000000000E+00  0.36320115106E+03  0.27642471807E+04  0.27402823576E+04 0.  0.
        1    1    3    3  502    0 -0.43764598194E+02  0.38313167091E+03  0.15078539675E+04  0.15563832448E+04  0.50400001928E-02 0. -1.
       -1    1    3    3    0  502  0.43764598194E+02 -0.38313167091E+03 -0.11446528165E+04  0.12078639359E+04  0.50400001928E-02 0.  1.
</event>
<event>
 5   0  0.1220908E-05  0.2626532E+04  0.7818609E-02  0.8359244E-01
        2   -1    0    0  501    0  0.00000000000E+00  0.00000000000E+00  0.15182738509E+04  0.15182738509E+04  0.25500000920E-02 0. -1.
       -2   -1    0    0    0  501  0.00000000000E+00  0.00000000000E+00 -0.11359395571E+04  0.11359395571E+04  0.25500000920E-02 0.  1.
    10030    2    1    2    0    0  0.00000000000E+00  0.00000000000E+00  0.38233429375E+03  0.26542134080E+04  0.26265318012E+04 0.  0.
        2    1    3    3  502    0  0.18741813768E+03  0.43103327833E+03  0.14303668361E+04  0.15056110159E+04  0.25500000920E-02 0. -1.
       -2    1    3    3    0  502 -0.18741813768E+03 -0.43103327833E+03 -0.10480325423E+04  0.11486023921E+04  0.25500000920E-02 0.  1.
</event>
<event>
 5   0  0.4846214E-06  0.2551031E+04  0.7818609E-02  0.8385028E-01
        1   -1    0    0  501    0  0.00000000000E+00  0.00000000000E+00  0.81034778464E+03  0.81034778465E+03  0.50400001928E-02 0. -1.
       -1   -1    0    0    0  501  0.00000000000E+00  0.00000000000E+00 -0.20077055495E+04  0.20077055495E+04  0.50400001928E-02 0.  1.
    10030    2    1    2    0    0  0.00000000000E+00  0.00000000000E+00 -0.11973577649E+04  0.28180533342E+04  0.25510309636E+04 0.  0.
        2    1    3    3  502    0 -0.31354751615E+02 -0.12492553693E+04 -0.31635427002E+03  0.12890702551E+04  0.25500000920E-02 0. -1.
       -2    1    3    3    0  502  0.31354751615E+02  0.12492553693E+04 -0.88100349487E+03  0.15289830791E+04  0.25500000920E-02 0.  1.
</event>
<event>
 5   0  0.1220908E-05  0.2220834E+04  0.7818609E-02  0.8509806E-01
       -2   -1    0    0    0  501  0.00000000000E+00  0.00000000000E+00  0.92843962563E+03  0.92843962563E+03  0.25500000920E-02 0. -1.
        2   -1    0    0  501    0  0.00000000000E+00  0.00000000000E+00 -0.13280622383E+04  0.13280622383E+04  0.25500000920E-02 0.  1.
    10030    2    1    2    0    0  0.00000000000E+00  0.00000000000E+00 -0.39962261268E+03  0.22565018639E+04  0.22208337239E+04 0.  0.
        2    1    3    3  502    0  0.51045194480E+03  0.73507873789E+03 -0.86773012525E+03  0.12465382100E+04  0.25500000920E-02 0.  1.
       -2    1    3    3    0  502 -0.51045194480E+03 -0.73507873789E+03  0.46810751258E+03  0.10099636539E+04  0.25500000920E-02 0. -1.
</event>
<event>
 5   0  0.1286641E-05  0.2771849E+04  0.7818609E-02  0.8312062E-01
        2   -1    0    0  501    0  0.00000000000E+00  0.00000000000E+00  0.18637789362E+04  0.18637789362E+04  0.25500000920E-02 0.  1.
       -2   -1    0    0    0  501  0.00000000000E+00  0.00000000000E+00 -0.10305868836E+04  0.10305868836E+04  0.25500000920E-02 0. -1.
    10030    2    1    2    0    0  0.00000000000E+00  0.00000000000E+00  0.83319205264E+03  0.28943658199E+04  0.27718485714E+04 0.  0.
        4    1    3    3  502    0  0.13416267778E+02 -0.13604393184E+04  0.69248910301E+03  0.15266033886E+04  0.12699999809E+01 0.  1.
       -4    1    3    3    0  502 -0.13416267778E+02  0.13604393184E+04  0.14070294963E+03  0.13677624313E+04  0.12699999809E+01 0. -1.
</event>
<event>
 5   0  0.4826140E-06  0.2692235E+04  0.7818609E-02  0.8337529E-01
       -1   -1    0    0    0  501  0.00000000000E+00  0.00000000000E+00  0.77990053346E+03  0.77990053348E+03  0.50400001928E-02 0. -1.
        1   -1    0    0  501    0  0.00000000000E+00  0.00000000000E+00 -0.23234144878E+04  0.23234144878E+04  0.50400001928E-02 0.  1.
    10030    2    1    2    0    0  0.00000000000E+00  0.00000000000E+00 -0.15435139543E+04  0.31033150213E+04  0.26922349069E+04 0.  0.
        1    1    3    3  502    0 -0.84094843528E+03  0.56490252564E+03 -0.17935140754E+04  0.20598548184E+04  0.50400001928E-02 0.  1.
       -1    1    3    3    0  502  0.84094843528E+03 -0.56490252564E+03  0.25000012111E+03  0.10434602028E+04  0.50400001928E-02 0. -1.
</event>
<event>
 5   0  0.5152288E-06  0.2712323E+04  0.7818609E-02  0.8331018E-01
        1   -1    0    0  501    0  0.00000000000E+00  0.00000000000E+00  0.12197002300E+04  0.12197002300E+04  0.50400001928E-02 0.  1.
       -1   -1    0    0    0  501  0.00000000000E+00  0.00000000000E+00 -0.15078903167E+04  0.15078903167E+04  0.50400001928E-02 0. -1.
    10030    2    1    2    0    0  0.00000000000E+00  0.00000000000E+00 -0.28819008669E+03  0.27275905467E+04  0.27123231121E+04 0.  0.
        3    1    3    3  502    0  0.85600374770E+03 -0.20534514712E+03  0.89334418172E+03  0.12541821569E+04  0.10100000352E+00 0.  1.
       -3    1    3    3    0  502 -0.85600374770E+03  0.20534514712E+03 -0.11815342684E+04  0.14734083898E+04  0.10100000352E+00 0. -1.
</event>
<event>
 5   0  0.1232559E-05  0.2702927E+04  0.7818609E-02  0.8334056E-01
       -2   -1    0    0    0  501  0.00000000000E+00  0.00000000000E+00  0.79882919417E+03  0.79882919417E+03  0.25500000920E-02 0. -1.
        2   -1    0    0  501    0  0.00000000000E+00  0.00000000000E+00 -0.22864134235E+04  0.22864134235E+04  0.25500000920E-02 0.  1.
    10030    2    1    2    0    0  0.00000000000E+00  0.00000000000E+00 -0.14875842293E+04  0.30852426176E+04  0.27029271486E+04 0.  0.
        3    1    3    3  502    0 -0.31516846562E+03 -0.49193621265E+03 -0.21348203871E+04  0.22133211458E+04  0.10100000352E+00 0.  1.
       -3    1    3    3    0  502  0.31516846562E+03  0.49193621265E+03  0.64723615776E+03  0.87192147189E+03  0.10100000352E+00 0. -1.
</event>
<event>
 5   0  0.4824715E-06  0.2704486E+04  0.7818609E-02  0.8333551E-01
       -1   -1    0    0    0  501  0.00000000000E+00  0.00000000000E+00  0.11794339358E+04  0.11794339358E+04  0.50400001928E-02 0. -1.
        1   -1    0    0  501    0  0.00000000000E+00  0.00000000000E+00 -0.15503718431E+04  0.15503718431E+04  0.50400001928E-02 0.  1.
    10030    2    1    2    0    0  0.00000000000E+00  0.00000000000E+00 -0.37093790733E+03  0.27298057789E+04  0.27044860250E+04 0.  0.
        5    1    3    3  502    0 -0.30833001358E+02 -0.13491906728E+04 -0.27154884064E+03  0.13765997997E+04  0.46999998093E+01 0. -1.
       -5    1    3    3    0  502  0.30833001358E+02  0.13491906728E+04 -0.99389066687E+02  0.13532059792E+04  0.46999998093E+01 0.  1.
</event>
<event>
 5   0  0.4756800E-06  0.2678523E+04  0.7818609E-02  0.8342007E-01
        1   -1    0    0  501    0  0.00000000000E+00  0.00000000000E+00  0.19553384304E+04  0.19553384304E+04  0.50400001928E-02 0. -1.
       -1   -1    0    0    0  501  0.00000000000E+00  0.00000000000E+00 -0.91729490553E+03  0.91729490554E+03  0.50400001928E-02 0.  1.
    10030    2    1    2    0    0  0.00000000000E+00  0.00000000000E+00  0.10380435248E+04  0.28726333359E+04  0.26785234595E+04 0.  0.
        4    1    3    3  502    0 -0.95066021936E+03  0.90535202116E+03  0.80318199391E+03  0.15389996956E+04  0.12699999809E+01 0.  1.
       -4    1    3    3    0  502  0.95066021936E+03 -0.90535202116E+03  0.23486153092E+03  0.13336336403E+04  0.12699999809E+01 0. -1.
</event>
<event>
 5   0  0.1286641E-05  0.2710659E+04  0.7818609E-02  0.8331555E-01
       -2   -1    0    0    0  501  0.00000000000E+00  0.00000000000E+00  0.93178413885E+03  0.93178413885E+03  0.25500000920E-02 0.  1.
        2   -1    0    0  501    0  0.00000000000E+00  0.00000000000E+00 -0.19713986472E+04  0.19713986472E+04  0.25500000920E-02 0. -1.
    10030    2    1    2    0    0  0.00000000000E+00  0.00000000000E+00 -0.10396145084E+04  0.29031827861E+04  0.27106589537E+04 0.  0.
        4    1    3    3  502    0  0.31756581763E+02 -0.88446687468E+02  0.92828990918E+03  0.93303540415E+03  0.12699999809E+01 0.  1.
       -4    1    3    3    0  502 -0.31756581763E+02  0.88446687468E+02 -0.19679044176E+04  0.19701473819E+04  0.12699999809E+01 0. -1.
</event>
<event>
 5   0  0.1276517E-05  0.2703943E+04  0.7818609E-02  0.8333727E-01
       -2   -1    0    0    0  501  0.00000000000E+00  0.00000000000E+00  0.15466999302E+04  0.15466999302E+04  0.25500000920E-02 0.  1.
        2   -1    0    0  501    0  0.00000000000E+00  0.00000000000E+00 -0.11817596672E+04  0.11817596672E+04  0.25500000920E-02 0. -1.
    10030    2    1    2    0    0  0.00000000000E+00  0.00000000000E+00  0.36494026293E+03  0.27284595974E+04  0.27039434867E+04 0.  0.
        1    1    3    3  502    0 -0.22368364744E+03  0.43609228052E+03  0.14539010020E+04  0.15342877745E+04  0.50400001928E-02 0.  1.
       -1    1    3    3    0  502  0.22368364744E+03 -0.43609228052E+03 -0.10889607391E+04  0.11941718229E+04  0.50400001928E-02 0. -1.
</event>
<event>
 5   0  0.4846214E-06  0.2704156E+04  0.7818609E-02  0.8333658E-01
        1   -1    0    0  501    0  0.00000000000E+00  0.00000000000E+00  0.21244345529E+04  0.21244345529E+04  0.50400001928E-02 0. -1.
       -1   -1    0    0    0  501  0.00000000000E+00  0.00000000000E+00 -0.86051861473E+03  0.86051861475E+03  0.50400001928E-02 0.  1.
    10030    2    1    2    0    0  0.00000000000E+00  0.00000000000E+00  0.12639159382E+04  0.29849531677E+04  0.27041564146E+04 0.  0.
        2    1    3    3  502    0 -0.79946608557E+03 -0.10281283383E+04  0.23103251513E+03  0.13227130925E+04  0.25500000920E-02 0.  1.
       -2    1    3    3    0  502  0.79946608557E+03  0.10281283383E+04  0.10328834231E+04  0.16622400752E+04  0.25500000920E-02 0. -1.
</event>
<event>
 5   0  0.1220908E-05  0.2701775E+04  0.7818609E-02  0.8334429E-01
        2   -1    0    0  501    0  0.00000000000E+00  0.00000000000E+00  0.14150813636E+04  0.14150813636E+04  0.25500000920E-02 0. -1.
       -2   -1    0    0    0  501  0.00000000000E+00  0.00000000000E+00 -0.12896053308E+04  0.12896053308E+04  0.25500000920E-02 0.  1.
    10030    2    1    2    0    0  0.00000000000E+00  0.00000000000E+00  0.12547603272E+03  0.27046866944E+04  0.27017745798E+04 0.  0.
        2    1    3    3  502    0 -0.23837933610E+03 -0.33103399452E+03 -0.12264731358E+04  0.12925341645E+04  0.25500000920E-02 0.  1.
       -2    1    3    3    0  502  0.23837933610E+03  0.33103399452E+03  0.13519491685E+04  0.14121525299E+04  0.25500000920E-02 0. -1.
</event>
<event>
 5   0  0.1276517E-05  0.2702871E+04  0.7818609E-02  0.8334074E-01
       -2   -1    0    0    0  501  0.00000000000E+00  0.00000000000E+00  0.10712162274E+04  0.10712162274E+04  0.25500000920E-02 0. -1.
        2   -1    0    0  501    0  0.00000000000E+00  0.00000000000E+00 -0.17049569712E+04  0.17049569713E+04  0.25500000920E-02 0.  1.
    10030    2    1    2    0    0  0.00000000000E+00  0.00000000000E+00 -0.63374074388E+03  0.27761731986E+04  0.27028707513E+04 0.  0.
        1    1    3    3  502    0  0.11235773003E+04  0.74905278400E+03 -0.37191051974E+03  0.14006510835E+04  0.50400001928E-02 0.  1.
       -1    1    3    3    0  502 -0.11235773003E+04 -0.74905278400E+03 -0.26183022414E+03  0.13755221151E+04  0.50400001928E-02 0. -1.
</event>
<event>
 5   0  0.1232559E-05  0.2724011E+04  0.7818609E-02  0.8327256E-01
        2   -1    0    0  501    0  0.00000000000E+00  0.00000000000E+00  0.18364161931E+04  0.18364161931E+04  0.25500000920E-02 0. -1.
       -2   -1    0    0    0  501  0.00000000000E+00  0.00000000000E+00 -0.10101515286E+04  0.10101515286E+04  0.25500000920E-02 0.  1.
    10030    2    1    2    0    0  0.00000000000E+00  0.00000000000E+00  0.82626466451E+03  0.28465677217E+04  0.27240107376E+04 0.  0.
        3    1    3    3  502    0 -0.58577950272E+03  0.35890776462E+03  0.16421000360E+04  0.17800126257E+04  0.10100000352E+00 0. -1.
       -3    1    3    3    0  502  0.58577950272E+03 -0.35890776462E+03 -0.81583537144E+03  0.10665550960E+04  0.10100000352E+00 0.  1.
</event>
<event>
 5   0  0.1220908E-05  0.2675657E+04  0.7818609E-02  0.8342947E-01
        2   -1    0    0  501    0  0.00000000000E+00  0.00000000000E+00  0.16685650200E+04  0.16685650200E+04  0.25500000920E-02 0.  1.
       -2   -1    0    0    0  501  0.00000000000E+00  0.00000000000E+00 -0.10726490733E+04  0.10726490733E+04  0.25500000920E-02 0. -1.
    10030    2    1    2    0    0  0.00000000000E+00  0.00000000000E+00  0.59591594674E+03  0.27412140933E+04  0.26756567212E+04 0.  0.
        2    1    3    3  502    0  0.99146948442E+03 -0.60375498175E+03  0.97927290904E+03  0.15187189493E+04  0.25500000920E-02 0.  1.
       -2    1    3    3    0  502 -0.99146948442E+03  0.60375498175E+03 -0.38335696230E+03  0.12224951440E+04  0.25500000920E-02 0. -1.
</event>
<event>
 5   0  0.4824715E-06  0.2725934E+04  0.7818609E-02  0.8326639E-01
       -1   -1    0    0    0  501  0.00000000000E+00  0.00000000000E+00  0.12118424148E+04  0.12118424148E+04  0.50400001928E-02 0.  1.
        1   -1    0    0  501    0  0.00000000000E+00  0.00000000000E+00 -0.15329373758E+04  0.15329373758E+04  0.50400001928E-02 0. -1.
    10030    2    1    2    0    0  0.00000000000E+00  0.00000000000E+00 -0.32109496100E+03  0.27447797907E+04  0.27259336245E+04 0.  0.
        5    1    3    3  502    0 -0.99062246185E+03  0.54321216692E+03  0.60711712538E+03  0.12825855192E+04  0.46999998093E+01 0.  1.
       -5    1    3    3    0  502  0.99062246185E+03 -0.54321216692E+03 -0.92821208638E+03  0.14621942715E+04  0.46999998093E+01 0. -1.
</event>
<event>
 5   0  0.1286641E-05  0.2401466E+04  0.7818609E-02  0.8438955E-01
       -2   -1    0    0    0  501  0.00000000000E+00  0.00000000000E+00  0.78751342851E+03  0.78751342852E+03  0.25500000920E-02 0.  1.
        2   -1    0    0  501    0  0.00000000000E+00  0.00000000000E+00 -0.18307743794E+04  0.18307743794E+04  0.25500000920E-02 0. -1.
    10030    2    1    2    0    0  0.00000000000E+00  0.00000000000E+00 -0.10432609509E+04  0.26182878079E+04  0.24014657261E+04 0.  0.
        4    1    3    3  502    0  0.73911682581E+01 -0.73806227378E+03  0.51096277743E+03  0.89770547629E+03  0.12699999809E+01 0.  1.
       -4    1    3    3    0  502 -0.73911682581E+01  0.73806227378E+03 -0.15542237283E+04  0.17205823316E+04  0.12699999809E+01 0. -1.
</event>
<event>
 5   0  0.5152288E-06  0.2700586E+04  0.7818609E-02  0.8334815E-01
       -1   -1    0    0    0  501  0.00000000000E+00  0.00000000000E+00  0.11456699826E+04  0.11456699826E+04  0.50400001928E-02 0.  1.
        1   -1    0    0  501    0  0.00000000000E+00  0.00000000000E+00 -0.15914627259E+04  0.15914627259E+04  0.50400001928E-02 0. -1.
    10030    2    1    2    0    0  0.00000000000E+00  0.00000000000E+00 -0.44579274329E+03  0.27371327084E+04  0.27005859167E+04 0.  0.
        3    1    3    3  502    0  0.11471605607E+04  0.17060186505E+03  0.47798835983E+03  0.12544142979E+04  0.10100000352E+00 0.  1.
       -3    1    3    3    0  502 -0.11471605607E+04 -0.17060186505E+03 -0.92378110313E+03  0.14827184106E+04  0.10100000352E+00 0. -1.
</event>
<event>
 5   0  0.4826140E-06  0.2711591E+04  0.7818609E-02  0.8331254E-01
       -1   -1    0    0    0  501  0.00000000000E+00  0.00000000000E+00  0.94610018432E+03  0.94610018434E+03  0.50400001928E-02 0.  1.
        1   -1    0    0  501    0  0.00000000000E+00  0.00000000000E+00 -0.19429030117E+04  0.19429030117E+04  0.50400001928E-02 0. -1.
    10030    2    1    2    0    0  0.00000000000E+00  0.00000000000E+00 -0.99680282742E+03  0.28890031961E+04  0.27115906015E+04 0.  0.
        1    1    3    3  502    0  0.32232565428E+03 -0.24446019407E+03 -0.18771017664E+04  0.19201993791E+04  0.50400001928E-02 0. -1.
       -1    1    3    3    0  502 -0.32232565428E+03  0.24446019407E+03  0.88029893898E+03  0.96880381703E+03  0.50400001928E-02 0.  1.
</event>
<event>
 5   0  0.1232559E-05  0.2691714E+04  0.7818609E-02  0.8337698E-01
        2   -1    0    0  501    0  0.00000000000E+00  0.00000000000E+00  0.22488535547E+04  0.22488535547E+04  0.25500000920E-02 0. -1.
       -2   -1    0    0    0  501  0.00000000000E+00  0.00000000000E+00 -0.80544670512E+03  0.80544670513E+03  0.25500000920E-02 0.  1.
    10030    2    1    2    0    0  0.00000000000E+00  0.00000000000E+00  0.14434068496E+04  0.30543002598E+04  0.26917144618E+04 0.  0.
        3    1    3    3  502    0 -0.11965042961E+03 -0.36014497246E+03 -0.74347682337E+03  0.83473254614E+03  0.10100000352E+00 0.  1.
       -3    1    3    3    0  502  0.11965042961E+03  0.36014497246E+03  0.21868836729E+04  0.22195677137E+04  0.10100000352E+00 0. -1.
</event>
<event>
 5   0  0.4188000E-06  0.2628071E+04  0.7818609E-02  0.8358728E-01
       -3   -1    0    0    0  501  0.00000000000E+00  0.00000000000E+00  0.85466159097E+03  0.85466159693E+03  0.10100000352E+00 0.  1.
        3   -1    0    0  501    0  0.00000000000E+00  0.00000000000E+00 -0.20203192427E+04  0.20203192453E+04  0.10100000352E+00 0. -1.
    10030    2    1    2    0    0  0.00000000000E+00  0.00000000000E+00 -0.11656576518E+04  0.28749808422E+04  0.26280709811E+04 0.  0.
        3    1    3    3  502    0  0.25452194019E+03  0.78037727651E+03  0.53969450471E+03  0.98236463717E+03  0.10100000352E+00 0.  1.
       -3    1    3    3    0  502 -0.25452194019E+03 -0.78037727651E+03 -0.17053521565E+04  0.18926162050E+04  0.10100000352E+00 0. -1.
</event>
<event>
 5   0  0.5152288E-06  0.2722626E+04  0.7818609E-02  0.8327701E-01
        1   -1    0    0  501    0  0.00000000000E+00  0.00000000000E+00  0.80345817048E+03  0.80345817050E+03  0.50400001928E-02 0.  1.
       -1   -1    0    0    0  501  0.00000000000E+00  0.00000000000E+00 -0.23064958171E+04  0.23064958171E+04  0.50400001928E-02 0. -1.
    10030    2    1    2    0    0  0.00000000000E+00  0.00000000000E+00 -0.15030376466E+04  0.31099539876E+04  0.27226258718E+04 0.  0.
        3    1    3    3  502    0  0.10382015121E+03 -0.53365519562E+03 -0.21771095414E+04  0.22439635597E+04  0.10100000352E+00 0. -1.
       -3    1    3    3    0  502 -0.10382015121E+03  0.53365519562E+03  0.67407189483E+03  0.86599042790E+03  0.10100000352E+00 0.  1.
</event>
<event>
 5   0  0.4756800E-06  0.2688234E+04  0.7818609E-02  0.8338833E-01
        1   -1    0    0  501    0  0.00000000000E+00  0.00000000000E+00  0.15078135947E+04  0.15078135947E+04  0.50400001928E-02 0.  1.
       -1   -1    0    0    0  501  0.00000000000E+00  0.00000000000E+00 -0.11981922775E+04  0.11981922775E+04  0.50400001928E-02 0. -1.
    10030    2    1    2    0    0  0.00000000000E+00  0.00000000000E+00  0.30962131722E+03  0.27060058722E+04  0.26882340709E+04 0.  0.
        4    1    3    3  502    0  0.13295954189E+02  0.31471480083E+03 -0.11605132098E+04  0.12025035182E+04  0.12699999809E+01 0. -1.
       -4    1    3    3    0  502 -0.13295954189E+02 -0.31471480083E+03  0.14701345270E+04  0.15035023540E+04  0.12699999809E+01 0.  1.
</event>
<event>
 5   0  0.4824715E-06  0.2701327E+04  0.7818609E-02  0.8334574E-01
       -1   -1    0    0    0  501  0.00000000000E+00  0.00000000000E+00  0.10108732762E+04  0.10108732763E+04  0.50400001928E-02 0. -1.
        1   -1    0    0  501    0  0.00000000000E+00  0.00000000000E+00 -0.18046695541E+04  0.18046695541E+04  0.50400001928E-02 0.  1.
    10030    2    1    2    0    0  0.00000000000E+00  0.00000000000E+00 -0.79379627788E+03  0.28155428304E+04  0.27013272477E+04 0.  0.
        5    1    3    3  502    0  0.83918914251E+03  0.50173101227E+03  0.57432554996E+03  0.11339507718E+04  0.46999998093E+01 0.  1.
       -5    1    3    3    0  502 -0.83918914251E+03 -0.50173101227E+03 -0.13681218278E+04  0.16815920586E+04  0.46999998093E+01 0. -1.
</event>
<event>
 5   0  0.4756800E-06  0.2749829E+04  0.7818609E-02  0.8319016E-01
       -1   -1    0    0    0  501  0.00000000000E+00  0.00000000000E+00  0.10994272623E+04  0.10994272623E+04  0.50400001928E-02 0. -1.
        1   -1    0    0  501    0  0.00000000000E+00  0.00000000000E+00 -0.17194317085E+04  0.17194317085E+04  0.50400001928E-02 0.  1.
    10030    2    1    2    0    0  0.00000000000E+00  0.00000000000E+00 -0.62000444625E+03  0.28188589708E+04  0.27498291554E+04 0.  0.
        4    1    3    3  502    0 -0.30988142845E+03  0.77561707367E+03  0.80955896802E+03  0.11631834250E+04  0.12699999809E+01 0. -1.
       -4    1    3    3    0  502  0.30988142845E+03 -0.77561707367E+03 -0.14295634143E+04  0.16556755458E+04  0.12699999809E+01 0.  1.
</event>
<event>
 5   0  0.1232559E-05  0.2515382E+04  0.7818609E-02  0.8397526E-01
       -2   -1    0    0    0  501  0.00000000000E+00  0.00000000000E+00  0.10056312346E+04  0.10056312346E+04  0.25500000920E-02 0.  1.
        2   -1    0    0  501    0  0.00000000000E+00  0.00000000000E+00 -0.15729287375E+04  0.15729287375E+04  0.25500000920E-02 0. -1.
    10030    2    1    2    0    0  0.00000000000E+00  0.00000000000E+00 -0.56729750290E+03  0.25785599720E+04  0.25153816952E+04 0.  0.
        3    1    3    3  502    0  0.70837120652E+03  0.17743254704E+02 -0.13488243389E+04  0.15236245262E+04  0.10100000352E+00 0. -1.
       -3    1    3    3    0  502 -0.70837120652E+03 -0.17743254704E+02  0.78152683602E+03  0.10549354459E+04  0.10100000352E+00 0.  1.
</event>
<event>
 5   0  0.4826140E-06  0.2756310E+04  0.7818609E-02  0.8316962E-01
       -1   -1    0    0    0  501  0.00000000000E+00  0.00000000000E+00  0.14305281748E+04  0.14305281748E+04  0.50400001928E-02 0.  1.
        1   -1    0    0  501    0  0.00000000000E+00  0.00000000000E+00 -0.13276996461E+04  0.13276996461E+04  0.50400001928E-02 0. -1.
    10030    2    1    2    0    0  0.00000000000E+00  0.00000000000E+00  0.10282852872E+03  0.27582278209E+04  0.27563103972E+04 0.  0.
        1    1    3    3  502    0  0.20674145976E+02  0.21557606063E+02  0.14302042359E+04  0.14305160981E+04  0.50400001928E-02 0.  1.
       -1    1    3    3    0  502 -0.20674145976E+02 -0.21557606063E+02 -0.13273757072E+04  0.13277117227E+04  0.50400001928E-02 0. -1.
</event>
<event>
 5   0  0.1232559E-05  0.2663095E+04  0.7818609E-02  0.8347080E-01
        2   -1    0    0  501    0  0.00000000000E+00  0.00000000000E+00  0.13523167960E+04  0.13523167960E+04  0.25500000920E-02 0.  1.
       -2   -1    0    0    0  501  0.00000000000E+00  0.00000000000E+00 -0.13110968588E+04  0.13110968588E+04  0.25500000920E-02 0. -1.
    10030    2    1    2    0    0  0.00000000000E+00  0.00000000000E+00  0.41219937161E+02  0.26634136548E+04  0.26630946685E+04 0.  0.
        3    1    3    3  502    0 -0.12600672150E+04 -0.40938624033E+03  0.15348600857E+03  0.13337632643E+04  0.10100000352E+00 0.  1.
       -3    1    3    3    0  502  0.12600672150E+04  0.40938624033E+03 -0.11226607141E+03  0.13296503906E+04  0.10100000352E+00 0. -1.
</event>
<event>
 5   0  0.1286641E-05  0.2684466E+04  0.7818609E-02  0.8340063E-01
        2   -1    0    0  501    0  0.00000000000E+00  0.00000000000E+00  0.19503405809E+04  0.19503405809E+04  0.25500000920E-02 0.  1.
       -2   -1    0    0    0  501  0.00000000000E+00  0.00000000000E+00 -0.92373076142E+03  0.92373076142E+03  0.25500000920E-02 0. -1.
    10030    2    1    2    0    0  0.00000000000E+00  0.00000000000E+00  0.10266098195E+04  0.28740713423E+04  0.26844661218E+04 0.  0.
        4    1    3    3  502    0 -0.11327079691E+04 -0.93325449219E+02  0.12777763266E+04  0.17101026099E+04  0.12699999809E+01 0. -1.
       -4    1    3    3    0  502  0.11327079691E+04  0.93325449219E+02 -0.25116650708E+03  0.11639687324E+04  0.12699999809E+01 0.  1.
</event>
<event>
 5   0  0.4756800E-06  0.2688623E+04  0.7818609E-02  0.8338706E-01
        1   -1    0    0  501    0  0.00000000000E+00  0.00000000000E+00  0.20361380071E+04  0.20361380071E+04  0.50400001928E-02 0.  1.
       -1   -1    0    0    0  501  0.00000000000E+00  0.00000000000E+00 -0.88754976709E+03  0.88754976711E+03  0.50400001928E-02 0. -1.
    10030    2    1    2    0    0  0.00000000000E+00  0.00000000000E+00  0.11485882400E+04  0.29236877742E+04  0.26886233013E+04 0.  0.
        4    1    3    3  502    0  0.37297013406E+03 -0.34896886026E+02 -0.82964731579E+03  0.91029709164E+03  0.12699999809E+01 0. -1.
       -4    1    3    3    0  502 -0.37297013406E+03  0.34896886026E+02  0.19782355558E+04  0.20133906826E+04  0.12699999809E+01 0.  1.
</event>
<event>
 5   0  0.4826140E-06  0.2716182E+04  0.7818609E-02  0.8329773E-01
       -1   -1    0    0    0  501  0.00000000000E+00  0.00000000000E+00  0.90720481426E+03  0.90720481428E+03  0.50400001928E-02 0.  1.
        1   -1    0    0  501    0  0.00000000000E+00  0.00000000000E+00 -0.20330709113E+04  0.20330709114E+04  0.50400001928E-02 0. -1.
    10030    2    1    2    0    0  0.00000000000E+00  0.00000000000E+00 -0.11258660971E+04  0.29402757256E+04  0.27161824081E+04 0.  0.
        1    1    3    3  502    0  0.10826644648E+04 -0.33180382160E+03 -0.13745617504E+04  0.17809200221E+04  0.50400001928E-02 0. -1.
       -1    1    3    3    0  502 -0.10826644648E+04  0.33180382160E+03  0.24869565328E+03  0.11593557036E+04  0.50400001928E-02 0.  1.
</event>
<event>
 5   0  0.1220908E-05  0.2567761E+04  0.7818609E-02  0.8379235E-01
        2   -1    0    0  501    0  0.00000000000E+00  0.00000000000E+00  0.35949161256E+04  0.35949161256E+04  0.25500000920E-02 0. -1.
       -2   -1    0    0    0  501  0.00000000000E+00  0.00000000000E+00 -0.45852232201E+03  0.45852232201E+03  0.25500000920E-02 0.  1.
    10030    2    1    2    0    0  0.00000000000E+00  0.00000000000E+00  0.31363938036E+04  0.40534384477E+04  0.25677611177E+04 0.  0.
        2    1    3    3  502    0  0.43611940648E+03 -0.15978541017E+03  0.34576413687E+04  0.34886982312E+04  0.25500000920E-02 0. -1.
       -2    1    3    3    0  502 -0.43611940648E+03  0.15978541017E+03 -0.32124756505E+03  0.56474021644E+03  0.25500000920E-02 0.  1.
</event>
<event>
 5   0  0.1232559E-05  0.2682639E+04  0.7818609E-02  0.8340660E-01
       -2   -1    0    0    0  501  0.00000000000E+00  0.00000000000E+00  0.10769952149E+04  0.10769952149E+04  0.25500000920E-02 0.  1.
        2   -1    0    0  501    0  0.00000000000E+00  0.00000000000E+00 -0.16705158093E+04  0.16705158093E+04  0.25500000920E-02 0. -1.
    10030    2    1    2    0    0  0.00000000000E+00  0.00000000000E+00 -0.59352059448E+03  0.27475110242E+04  0.26826386510E+04 0.  0.
        3    1    3    3  502    0 -0.46899015679E+03  0.71977664870E+03  0.75825054720E+03  0.11458508165E+04  0.10100000352E+00 0.  1.
       -3    1    3    3    0  502  0.46899015679E+03 -0.71977664870E+03 -0.13517711417E+04  0.16016602077E+04  0.10100000352E+00 0. -1.
</event>
<event>
 5   0  0.4756800E-06  0.2189408E+04  0.7818609E-02  0.8522850E-01
       -1   -1    0    0    0  501  0.00000000000E+00  0.00000000000E+00  0.68853045717E+03  0.68853045719E+03  0.50400001928E-02 0.  1.
        1   -1    0    0  501    0  0.00000000000E+00  0.00000000000E+00 -0.17404841517E+04  0.17404841517E+04  0.50400001928E-02 0. -1.
    10030    2    1    2    0    0  0.00000000000E+00  0.00000000000E+00 -0.10519536945E+04  0.24290146089E+04  0.21894075442E+04 0.  0.
        4    1    3    3  502    0 -0.54850444453E+03 -0.27452371803E+03 -0.15319356446E+04  0.16501663036E+04  0.12699999809E+01 0. -1.
       -4    1    3    3    0  502  0.54850444453E+03  0.27452371803E+03  0.47998195005E+03  0.77884830532E+03  0.12699999809E+01 0.  1.
</event>
<event>
 5   0  0.4846214E-06  0.2621862E+04  0.7818609E-02  0.8360813E-01
       -1   -1    0    0    0  501  0.00000000000E+00  0.00000000000E+00  0.12760442085E+04  0.12760442085E+04  0.50400001928E-02 0.  1.
        1   -1    0    0  501    0  0.00000000000E+00  0.00000000000E+00 -0.13467718974E+04  0.13467718974E+04  0.50400001928E-02 0. -1.
    10030    2    1    2    0    0  0.00000000000E+00  0.00000000000E+00 -0.70727688899E+02  0.26228161059E+04  0.26218622998E+04 0.  0.
        2    1    3    3  502    0 -0.34912292225E+03 -0.93810094490E+03  0.81147839286E+03  0.12885718372E+04  0.25500000920E-02 0.  1.
       -2    1    3    3    0  502  0.34912292225E+03  0.93810094490E+03 -0.88220608175E+03  0.13342442686E+04  0.25500000920E-02 0. -1.
</event>
<event>
 5   0  0.4826140E-06  0.2722999E+04  0.7818609E-02  0.8327581E-01
        1   -1    0    0  501    0  0.00000000000E+00  0.00000000000E+00  0.14679197901E+04  0.14679197901E+04  0.50400001928E-02 0. -1.
       -1   -1    0    0    0  501  0.00000000000E+00  0.00000000000E+00 -0.12627947106E+04  0.12627947106E+04  0.50400001928E-02 0.  1.
    10030    2    1    2    0    0  0.00000000000E+00  0.00000000000E+00  0.20512507951E+03  0.27307145007E+04  0.27229993364E+04 0.  0.
        1    1    3    3  502    0  0.88327176224E+03 -0.68215764605E+03 -0.67950170556E+03  0.13066103581E+04  0.50400001928E-02 0.  1.
       -1    1    3    3    0  502 -0.88327176224E+03  0.68215764605E+03  0.88462678506E+03  0.14241041426E+04  0.50400001928E-02 0. -1.
</event>
<event>
 5   0  0.1220908E-05  0.2700477E+04  0.7818609E-02  0.8334850E-01
        2   -1    0    0  501    0  0.00000000000E+00  0.00000000000E+00  0.20291785465E+04  0.20291785465E+04  0.25500000920E-02 0. -1.
       -2   -1    0    0    0  501  0.00000000000E+00  0.00000000000E+00 -0.89846433538E+03  0.89846433538E+03  0.25500000920E-02 0.  1.
    10030    2    1    2    0    0  0.00000000000E+00  0.00000000000E+00  0.11307142111E+04  0.29276428818E+04  0.27004774053E+04 0.  0.
        2    1    3    3  502    0  0.24483892986E+02 -0.97384435753E+03  0.15789791857E+04  0.18553025528E+04  0.25500000920E-02 0. -1.
       -2    1    3    3    0  502 -0.24483892986E+02  0.97384435753E+03 -0.44826497462E+03  0.10723403290E+04  0.25500000920E-02 0.  1.
</event>
<event>
 5   0  0.4824715E-06  0.2589049E+04  0.7818609E-02  0.8371930E-01
       -1   -1    0    0    0  501  0.00000000000E+00  0.00000000000E+00  0.10822545690E+04  0.10822545690E+04  0.50400001928E-02 0. -1.
        1   -1    0    0  501    0  0.00000000000E+00  0.00000000000E+00 -0.15484289235E+04  0.15484289235E+04  0.50400001928E-02 0.  1.
    10030    2    1    2    0    0  0.00000000000E+00  0.00000000000E+00 -0.46617435452E+03  0.26306834925E+04  0.25890494605E+04 0.  0.
        5    1    3    3  502    0 -0.67044256205E+03  0.12711776530E+03 -0.13508315125E+04  0.15134133674E+04  0.46999998093E+01 0.  1.
       -5    1    3    3    0  502  0.67044256205E+03 -0.12711776530E+03  0.88465715801E+03  0.11172701251E+04  0.46999998093E+01 0. -1.
</event>
<event>
 5   0  0.5152288E-06  0.2774584E+04  0.7818609E-02  0.8311203E-01
        1   -1    0    0  501    0  0.00000000000E+00  0.00000000000E+00  0.21314383896E+04  0.21314383896E+04  0.50400001928E-02 0. -1.
       -1   -1    0    0    0  501  0.00000000000E+00  0.00000000000E+00 -0.90294878785E+03  0.90294878786E+03  0.50400001928E-02 0.  1.
    10030    2    1    2    0    0  0.00000000000E+00  0.00000000000E+00  0.12284896018E+04  0.30343871775E+04  0.27745844448E+04 0.  0.
        3    1    3    3  502    0 -0.31507906979E+03 -0.46121251232E+03  0.20030289323E+04  0.20794510611E+04  0.10100000352E+00 0. -1.
       -3    1    3    3    0  502  0.31507906979E+03  0.46121251232E+03 -0.77453933049E+03  0.95493611641E+03  0.10100000352E+00 0.  1.
</event>
<event>
 5   0  0.1232559E-05  0.2755392E+04  0.7818609E-02  0.8317253E-01
       -2   -1    0    0    0  501  0.00000000000E+00  0.00000000000E+00  0.90583292707E+03  0.90583292708E+03  0.25500000920E-02 0. -1.
        2   -1    0    0  501    0  0.00000000000E+00  0.00000000000E+00 -0.20953609045E+04  0.20953609045E+04  0.25500000920E-02 0.  1.
    10030    2    1    2    0    0  0.00000000000E+00  0.00000000000E+00 -0.11895279775E+04  0.30011938316E+04  0.27553924595E+04 0.  0.
        3    1    3    3  502    0 -0.13482483106E+03 -0.53868682606E+03 -0.19680664799E+04  0.20449075556E+04  0.10100000352E+00 0.  1.
       -3    1    3    3    0  502  0.13482483106E+03  0.53868682606E+03  0.77853850243E+03  0.95628627597E+03  0.10100000352E+00 0. -1.
</event>
<event>
 5   0  0.1232559E-05  0.2683100E+04  0.7818609E-02  0.8340509E-01
        2   -1    0    0  501    0  0.00000000000E+00  0.00000000000E+00  0.19004860198E+04  0.19004860198E+04  0.25500000920E-02 0. -1.
       -2   -1    0    0    0  501  0.00000000000E+00  0.00000000000E+00 -0.94699783519E+03  0.94699783520E+03  0.25500000920E-02 0.  1.
    10030    2    1    2    0    0  0.00000000000E+00  0.00000000000E+00  0.95348818461E+03  0.28474838550E+04  0.26830998092E+04 0.  0.
        3    1    3    3  502    0 -0.61547476338E+03  0.38367901423E+03  0.16744891476E+04  0.18248103151E+04  0.10100000352E+00 0. -1.
       -3    1    3    3    0  502  0.61547476338E+03 -0.38367901423E+03 -0.72100096304E+03  0.10226735399E+04  0.10100000352E+00 0.  1.
</event>
<event>
 5   0  0.4826140E-06  0.2722742E+04  0.7818609E-02  0.8327664E-01
       -1   -1    0    0    0  501  0.00000000000E+00  0.00000000000E+00  0.11083775032E+04  0.11083775032E+04  0.50400001928E-02 0.  1.
        1   -1    0    0  501    0  0.00000000000E+00  0.00000000000E+00 -0.16721115406E+04  0.16721115407E+04  0.50400001928E-02 0. -1.
    10030    2    1    2    0    0  0.00000000000E+00  0.00000000000E+00 -0.56373403749E+03  0.27804890438E+04  0.27227418640E+04 0.  0.
        1    1    3    3  502    0  0.22182693620E+03  0.12719860467E+04 -0.72249852044E+03  0.14795809557E+04  0.50400001928E-02 0.  1.
       -1    1    3    3    0  502 -0.22182693620E+03 -0.12719860467E+04  0.15876448295E+03  0.13009080881E+04  0.50400001928E-02 0. -1.
</event>
<event>
 5   0  0.1276517E-05  0.2847768E+04  0.7818609E-02  0.8288590E-01
        2   -1    0    0  501    0  0.00000000000E+00  0.00000000000E+00  0.17381835820E+04  0.17381835820E+04  0.25500000920E-02 0.  1.
       -2   -1    0    0    0  501  0.00000000000E+00  0.00000000000E+00 -0.11664162665E+04  0.11664162665E+04  0.25500000920E-02 0. -1.
    10030    2    1    2    0    0  0.00000000000E+00  0.00000000000E+00  0.57176731550E+03  0.29045998484E+04  0.28477679710E+04 0.  0.
        1    1    3    3  502    0 -0.35156513760E+03 -0.12950067114E+04 -0.19986117512E+03  0.13566815831E+04  0.50400001928E-02 0. -1.
       -1    1    3    3    0  502  0.35156513760E+03  0.12950067114E+04  0.77162849061E+03  0.15479182653E+04  0.50400001928E-02 0.  1.
</event>
<event>
 5   0  0.4846214E-06  0.2712984E+04  0.7818609E-02  0.8330804E-01
       -1   -1    0    0    0  501  0.00000000000E+00  0.00000000000E+00  0.13798548953E+04  0.13798548953E+04  0.50400001928E-02 0. -1.
        1   -1    0    0  501    0  0.00000000000E+00  0.00000000000E+00 -0.13335246719E+04  0.13335246719E+04  0.50400001928E-02 0.  1.
    10030    2    1    2    0    0  0.00000000000E+00  0.00000000000E+00  0.46330223460E+02  0.27133795672E+04  0.27129840004E+04 0.  0.
        2    1    3    3  502    0 -0.83411839551E+02 -0.11535072572E+04  0.73216481125E+03  0.13687957620E+04  0.25500000920E-02 0. -1.
       -2    1    3    3    0  502  0.83411839551E+02  0.11535072572E+04 -0.68583458779E+03  0.13445838052E+04  0.25500000920E-02 0.  1.
</event>
<event>
 5   0  0.4826140E-06  0.2789698E+04  0.7818609E-02  0.8306474E-01
        1   -1    0    0  501    0  0.00000000000E+00  0.00000000000E+00  0.11406374674E+04  0.11406374674E+04  0.50400001928E-02 0.  1.
       -1   -1    0    0    0  501  0.00000000000E+00  0.00000000000E+00 -0.17057158101E+04  0.17057158101E+04  0.50400001928E-02 0. -1.
    10030    2    1    2    0    0  0.00000000000E+00  0.00000000000E+00 -0.56507834269E+03  0.28463532775E+04  0.27896977340E+04 0.  0.
        1    1    3    3  502    0  0.61839139479E+03  0.11106868575E+04 -0.86828012027E+03  0.15394621073E+04  0.50400001928E-02 0. -1.
       -1    1    3    3    0  502 -0.61839139479E+03 -0.11106868575E+04  0.30320177758E+03  0.13068911701E+04  0.50400001928E-02 0.  1.
</event>
<event>
 5   0  0.4846214E-06  0.2615210E+04  0.7818609E-02  0.8363053E-01
        1   -1    0    0  501    0  0.00000000000E+00  0.00000000000E+00  0.15272417514E+04  0.15272417514E+04  0.50400001928E-02 0.  1.
       -1   -1    0    0    0  501  0.00000000000E+00  0.00000000000E+00 -0.11195545478E+04  0.11195545479E+04  0.50400001928E-02 0. -1.
    10030    2    1    2    0    0  0.00000000000E+00  0.00000000000E+00  0.40768720352E+03  0.26467962992E+04  0.26152097036E+04 0.  0.
        2    1    3    3  502    0 -0.31382783282E+03  0.68742657202E+02  0.14866767602E+04  0.15209935079E+04  0.25500000920E-02 0.  1.
       -2    1    3    3    0  502  0.31382783282E+03 -0.68742657202E+02 -0.10789895567E+04  0.11258027914E+04  0.25500000920E-02 0. -1.
</event>
<event>
 5   0  0.1276517E-05  0.2690260E+04  0.7818609E-02  0.8338172E-01
        2   -1    0    0  501    0  0.00000000000E+00  0.00000000000E+00  0.20211532865E+04  0.20211532865E+04  0.25500000920E-02 0.  1.
       -2   -1    0    0    0  501  0.00000000000E+00  0.00000000000E+00 -0.89521875889E+03  0.89521875889E+03  0.25500000920E-02 0. -1.
    10030    2    1    2    0    0  0.00000000000E+00  0.00000000000E+00  0.11259345276E+04  0.29163720453E+04  0.26902597173E+04 0.  0.
        1    1    3    3  502    0  0.59868676334E+03  0.67499253335E+03 -0.51854897627E+03  0.10406410531E+04  0.50400001928E-02 0. -1.
       -1    1    3    3    0  502 -0.59868676334E+03 -0.67499253335E+03  0.16444835038E+04  0.18757309922E+04  0.50400001928E-02 0.  1.
</event>
<event>
 5   0  0.4756800E-06  0.2652575E+04  0.7818609E-02  0.8350559E-01
        1   -1    0    0  501    0  0.00000000000E+00  0.00000000000E+00  0.21438077272E+04  0.21438077272E+04  0.50400001928E-02 0.  1.
       -1   -1    0    0    0  501  0.00000000000E+00  0.00000000000E+00 -0.82052090409E+03  0.82052090411E+03  0.50400001928E-02 0. -1.
    10030    2    1    2    0    0  0.00000000000E+00  0.00000000000E+00  0.13232868231E+04  0.29643286314E+04  0.26525753935E+04 0.  0.
        4    1    3    3  502    0 -0.84107245788E+03  0.10032159999E+04  0.42407403964E+03  0.13761125048E+04  0.12699999809E+01 0. -1.
       -4    1    3    3    0  502  0.84107245788E+03 -0.10032159999E+04  0.89921278351E+03  0.15882161266E+04  0.12699999809E+01 0.  1.
</event>
<event>
 5   0  0.4846214E-06  0.2737462E+04  0.7818609E-02  0.8322951E-01
        1   -1    0    0  501    0  0.00000000000E+00  0.00000000000E+00  0.20028032381E+04  0.20028032381E+04  0.50400001928E-02 0. -1.
       -1   -1    0    0    0  501  0.00000000000E+00  0.00000000000E+00 -0.93540126016E+03  0.93540126017E+03  0.50400001928E-02 0.  1.
    10030    2    1    2    0    0  0.00000000000E+00  0.00000000000E+00  0.10674019780E+04  0.29382044983E+04  0.27374620895E+04 0.  0.
        2    1    3    3  502    0  0.42554846441E+03  0.91387690656E+03 -0.46002215659E+03  0.11080987684E+04  0.25500000920E-02 0.  1.
       -2    1    3    3    0  502 -0.42554846441E+03 -0.91387690656E+03  0.15274241345E+04  0.18301057299E+04  0.25500000920E-02 0. -1.
</event>
<event>
 5   0  0.1220908E-05  0.2711544E+04  0.7818609E-02  0.8331269E-01
       -2   -1    0    0    0  501  0.00000000000E+00  0.00000000000E+00  0.16204925097E+04  0.16204925097E+04  0.25500000920E-02 0. -1.
        2   -1    0    0  501    0  0.00000000000E+00  0.00000000000E+00 -0.11342959138E+04  0.11342959138E+04  0.25500000920E-02 0.  1.
    10030    2    1    2    0    0  0.00000000000E+00  0.00000000000E+00  0.48619659592E+03  0.27547884235E+04  0.27115442332E+04 0.  0.
        2    1    3    3  502    0 -0.12162676636E+04 -0.12053641360E+03 -0.35301484755E+03  0.12721853399E+04  0.25500000920E-02 0.  1.
       -2    1    3    3    0  502  0.12162676636E+04  0.12053641360E+03  0.83921144347E+03  0.14826030836E+04  0.25500000920E-02 0. -1.
</event>
<event>
 5   0  0.5152288E-06  0.2699306E+04  0.7818609E-02  0.8335230E-01
       -1   -1    0    0    0  501  0.00000000000E+00  0.00000000000E+00  0.16501548551E+04  0.16501548551E+04  0.50400001928E-02 0.  1.
        1   -1    0    0  501    0  0.00000000000E+00  0.00000000000E+00 -0.11038740605E+04  0.11038740605E+04  0.50400001928E-02 0. -1.
    10030    2    1    2    0    0  0.00000000000E+00  0.00000000000E+00  0.54628079465E+03  0.27540289156E+04  0.26993059407E+04 0.  0.
        3    1    3    3  502    0 -0.45762451593E+03  0.46265673082E+03 -0.93323983208E+03  0.11377205468E+04  0.10100000352E+00 0. -1.
       -3    1    3    3    0  502  0.45762451593E+03 -0.46265673082E+03  0.14795206267E+04  0.16163083689E+04  0.10100000352E+00 0.  1.
</event>
<event>
 5   0  0.1261364E-05  0.2733030E+04  0.7818609E-02  0.8324367E-01
       -2   -1    0    0    0  501  0.00000000000E+00  0.00000000000E+00  0.64134208514E+03  0.64134208514E+03  0.25500000920E-02 0.  1.
        2   -1    0    0  501    0  0.00000000000E+00  0.00000000000E+00 -0.29116487974E+04  0.29116487974E+04  0.25500000920E-02 0. -1.
    10030    2    1    2    0    0  0.00000000000E+00  0.00000000000E+00 -0.22703067122E+04  0.35529908825E+04  0.27330297553E+04 0.  0.
        5    1    3    3  502    0 -0.75502224359E+03  0.96314671696E+03 -0.34477741538E+03  0.12714573303E+04  0.46999998093E+01 0.  1.
       -5    1    3    3    0  502  0.75502224359E+03 -0.96314671696E+03 -0.19255292969E+04  0.22815335522E+04  0.46999998093E+01 0. -1.
</event>
<event>
 5   0  0.5152288E-06  0.2686260E+04  0.7818609E-02  0.8339477E-01
        1   -1    0    0  501    0  0.00000000000E+00  0.00000000000E+00  0.23376841558E+04  0.23376841558E+04  0.50400001928E-02 0. -1.
       -1   -1    0    0    0  501  0.00000000000E+00  0.00000000000E+00 -0.77170287801E+03  0.77170287803E+03  0.50400001928E-02 0.  1.
    10030    2    1    2    0    0  0.00000000000E+00  0.00000000000E+00  0.15659812778E+04  0.31093870338E+04  0.26862595488E+04 0.  0.
        3    1    3    3  502    0 -0.48696766860E+02 -0.45869720916E+03 -0.67714212125E+03  0.81932653281E+03  0.10100000352E+00 0.  1.
       -3    1    3    3    0  502  0.48696766860E+02  0.45869720916E+03  0.22431233990E+04  0.22900605010E+04  0.10100000352E+00 0. -1.
</event>
<event>
 5   0  0.1220908E-05  0.2718870E+04  0.7818609E-02  0.8328908E-01
       -2   -1    0    0    0  501  0.00000000000E+00  0.00000000000E+00  0.18364406411E+04  0.18364406411E+04  0.25500000920E-02 0.  1.
        2   -1    0    0  501    0  0.00000000000E+00  0.00000000000E+00 -0.10063292950E+04  0.10063292950E+04  0.25500000920E-02 0. -1.
    10030    2    1    2    0    0  0.00000000000E+00  0.00000000000E+00  0.83011134614E+03  0.28427699361E+04  0.27188703652E+04 0.  0.
        2    1    3    3  502    0  0.77673871184E+03 -0.10599369266E+04  0.77917046210E+03  0.15277093715E+04  0.25500000920E-02 0. -1.
       -2    1    3    3    0  502 -0.77673871184E+03  0.10599369266E+04  0.50940884044E+02  0.13150605646E+04  0.25500000920E-02 0.  1.
</event>
<event>
 5   0  0.1220908E-05  0.2782186E+04  0.7818609E-02  0.8308820E-01
       -2   -1    0    0    0  501  0.00000000000E+00  0.00000000000E+00  0.15470937458E+04  0.15470937458E+04  0.25500000920E-02 0. -1.
        2   -1    0    0  501    0  0.00000000000E+00  0.00000000000E+00 -0.12508225405E+04  0.12508225405E+04  0.25500000920E-02 0.  1.
    10030    2    1    2    0    0  0.00000000000E+00  0.00000000000E+00  0.29627120524E+03  0.27979162863E+04  0.27821859964E+04 0.  0.
        2    1    3    3  502    0  0.29641885131E+03  0.13554701338E+04  0.24858180769E+03  0.14095943864E+04  0.25500000920E-02 0. -1.
       -2    1    3    3    0  502 -0.29641885131E+03 -0.13554701338E+04  0.47689397551E+02  0.13883218999E+04  0.25500000920E-02 0.  1.
</event>
<event>
 5   0  0.4826140E-06  0.2751221E+04  0.7818609E-02  0.8318574E-01
        1   -1    0    0  501    0  0.00000000000E+00  0.00000000000E+00  0.18713707740E+04  0.18713707740E+04  0.50400001928E-02 0. -1.
       -1   -1    0    0    0  501  0.00000000000E+00  0.00000000000E+00 -0.10111864272E+04  0.10111864272E+04  0.50400001928E-02 0.  1.
    10030    2    1    2    0    0  0.00000000000E+00  0.00000000000E+00  0.86018434680E+03  0.28825572012E+04  0.27512213483E+04 0.  0.
        1    1    3    3  502    0  0.10283826471E+04  0.73907488397E+03  0.99285700074E+03  0.16092133410E+04  0.50400001928E-02 0. -1.
       -1    1    3    3    0  502 -0.10283826471E+04 -0.73907488397E+03 -0.13267265394E+03  0.12733438601E+04  0.50400001928E-02 0.  1.
</event>
<event>
 5   0  0.1232559E-05  0.2699094E+04  0.7818609E-02  0.8335299E-01
        2   -1    0    0  501    0  0.00000000000E+00  0.00000000000E+00  0.19734396751E+04  0.19734396751E+04  0.25500000920E-02 0.  1.
       -2   -1    0    0    0  501  0.00000000000E+00  0.00000000000E+00 -0.92289451691E+03  0.92289451692E+03  0.25500000920E-02 0. -1.
    10030    2    1    2    0    0  0.00000000000E+00  0.00000000000E+00  0.10505451582E+04  0.28963341920E+04  0.26990936669E+04 0.  0.
        3    1    3    3  502    0  0.36731840051E+03 -0.72421471084E+03 -0.63139590658E+03  0.10286255664E+04  0.10100000352E+00 0. -1.
       -3    1    3    3    0  502 -0.36731840051E+03  0.72421471084E+03  0.16819410648E+04  0.18677086257E+04  0.10100000352E+00 0.  1.
</event>
<event>
 5   0  0.1220908E-05  0.2674888E+04  0.7818609E-02  0.8343199E-01
       -2   -1    0    0    0  501  0.00000000000E+00  0.00000000000E+00  0.12092690454E+04  0.12092690454E+04  0.25500000920E-02 0. -1.
        2   -1    0    0  501    0  0.00000000000E+00  0.00000000000E+00 -0.14792047731E+04  0.14792047731E+04  0.25500000920E-02 0.  1.
    10030    2    1    2    0    0  0.00000000000E+00  0.00000000000E+00 -0.26993572775E+03  0.26884738185E+04  0.26748880679E+04 0.  0.
        2    1    3    3  502    0  0.25915888944E+02  0.28790643532E+03 -0.14474312515E+04  0.14760145584E+04  0.25500000920E-02 0.  1.
       -2    1    3    3    0  502 -0.25915888944E+02 -0.28790643532E+03  0.11774955238E+04  0.12124592601E+04  0.25500000920E-02 0. -1.
</event>
<event>
 5   0  0.5152288E-06  0.2698376E+04  0.7818609E-02  0.8335532E-01
        1   -1    0    0  501    0  0.00000000000E+00  0.00000000000E+00  0.11600420088E+04  0.11600420089E+04  0.50400001928E-02 0. -1.
       -1   -1    0    0    0  501  0.00000000000E+00  0.00000000000E+00 -0.15691745623E+04  0.15691745623E+04  0.50400001928E-02 0.  1.
    10030    2    1    2    0    0  0.00000000000E+00  0.00000000000E+00 -0.40913255341E+03  0.27292165711E+04  0.26983761127E+04 0.  0.
        3    1    3    3  502    0 -0.73812044430E+03 -0.95952691972E+02 -0.13427184627E+04  0.15352268854E+04  0.10100000352E+00 0.  1.
       -3    1    3    3    0  502  0.73812044430E+03  0.95952691972E+02  0.93358590928E+03  0.11939896857E+04  0.10100000352E+00 0. -1.
</event>
<event>
 5   0  0.5152288E-06  0.2691194E+04  0.7818609E-02  0.8337868E-01
        1   -1    0    0  501    0  0.00000000000E+00  0.00000000000E+00  0.90128945049E+03  0.90128945050E+03  0.50400001928E-02 0.  1.
       -1   -1    0    0    0  501  0.00000000000E+00  0.00000000000E+00 -0.20089336329E+04  0.20089336329E+04  0.50400001928E-02 0. -1.
    10030    2    1    2    0    0  0.00000000000E+00  0.00000000000E+00 -0.11076441824E+04  0.29102230834E+04  0.26911935568E+04 0.  0.
        3    1    3    3  502    0 -0.88331814426E+03 -0.75380788347E+03  0.18132531296E+03  0.11753110858E+04  0.10100000352E+00 0.  1.
       -3    1    3    3    0  502  0.88331814426E+03  0.75380788347E+03 -0.12889694954E+04  0.17349119976E+04  0.10100000352E+00 0. -1.
</event>
<event>
 5   0  0.4756800E-06  0.2719819E+04  0.7818609E-02  0.8328603E-01
        1   -1    0    0  501    0  0.00000000000E+00  0.00000000000E+00  0.19427306528E+04  0.19427306528E+04  0.50400001928E-02 0. -1.
       -1   -1    0    0    0  501  0.00000000000E+00  0.00000000000E+00 -0.95193496287E+03  0.95193496288E+03  0.50400001928E-02 0.  1.
    10030    2    1    2    0    0  0.00000000000E+00  0.00000000000E+00  0.99079568988E+03  0.28946656156E+04  0.27198185468E+04 0.  0.
        4    1    3    3  502    0  0.67782498089E+03  0.47547209922E+03 -0.65276494677E+03  0.10543358623E+04  0.12699999809E+01 0.  1.
       -4    1    3    3    0  502 -0.67782498089E+03 -0.47547209922E+03  0.16435606367E+04  0.18403297534E+04  0.12699999809E+01 0. -1.
</event>
<event>
 5   0  0.1232559E-05  0.2225093E+04  0.7818609E-02  0.8508056E-01
       -2   -1    0    0    0  501  0.00000000000E+00  0.00000000000E+00  0.55305014384E+03  0.55305014384E+03  0.25500000920E-02 0. -1.
        2   -1    0    0  501    0  0.00000000000E+00  0.00000000000E+00 -0.22380613915E+04  0.22380613915E+04  0.25500000920E-02 0.  1.
    10030    2    1    2    0    0  0.00000000000E+00  0.00000000000E+00 -0.16850112476E+04  0.27911115353E+04  0.22250934133E+04 0.  0.
        3    1    3    3  502    0  0.13024597713E+03  0.84369472289E+03 -0.17374114271E+04  0.19358159203E+04  0.10100000352E+00 0.  1.
       -3    1    3    3    0  502 -0.13024597713E+03 -0.84369472289E+03  0.52400179520E+02  0.85529561498E+03  0.10100000352E+00 0. -1.
</event>
<event>
 5   0  0.1220908E-05  0.2701241E+04  0.7818609E-02  0.8334603E-01
       -2   -1    0    0    0  501  0.00000000000E+00  0.00000000000E+00  0.17793729145E+04  0.17793729145E+04  0.25500000920E-02 0. -1.
        2   -1    0    0  501    0  0.00000000000E+00  0.00000000000E+00 -0.10251786438E+04  0.10251786438E+04  0.25500000920E-02 0.  1.
    10030    2    1    2    0    0  0.00000000000E+00  0.00000000000E+00  0.75419427069E+03  0.28045515583E+04  0.27012405382E+04 0.  0.
        2    1    3    3  502    0  0.25292046204E+03  0.43244189802E+03  0.16793406035E+04  0.17524724299E+04  0.25500000920E-02 0. -1.
       -2    1    3    3    0  502 -0.25292046204E+03 -0.43244189802E+03 -0.92514633276E+03  0.10520791283E+04  0.25500000920E-02 0.  1.
</event>
<event>
 5   0  0.1286641E-05  0.2689826E+04  0.7818609E-02  0.8338314E-01
       -2   -1    0    0    0  501  0.00000000000E+00  0.00000000000E+00  0.12564580161E+04  0.12564580161E+04  0.25500000920E-02 0. -1.
        2   -1    0    0  501    0  0.00000000000E+00  0.00000000000E+00 -0.14395953567E+04  0.14395953567E+04  0.25500000920E-02 0.  1.
    10030    2    1    2    0    0  0.00000000000E+00  0.00000000000E+00 -0.18313734061E+03  0.26960533729E+04  0.26898261103E+04 0.  0.
        4    1    3    3  502    0  0.48650900755E+02 -0.10635638434E+04  0.73207248934E+03  0.12920784426E+04  0.12699999809E+01 0. -1.
       -4    1    3    3    0  502 -0.48650900755E+02  0.10635638434E+04 -0.91520982995E+03  0.14039749303E+04  0.12699999809E+01 0.  1.
</event>
<event>
 5   0  0.4846214E-06  0.2701482E+04  0.7818609E-02  0.8334524E-01
        1   -1    0    0  501    0  0.00000000000E+00  0.00000000000E+00  0.10224510078E+04  0.10224510079E+04  0.50400001928E-02 0.  1.
       -1   -1    0    0    0  501  0.00000000000E+00  0.00000000000E+00 -0.17844385164E+04  0.17844385164E+04  0.50400001928E-02 0. -1.
    10030    2    1    2    0    0  0.00000000000E+00  0.00000000000E+00 -0.76198750859E+03  0.28068895243E+04  0.27014817857E+04 0.  0.
        2    1    3    3  502    0 -0.58831081006E+03  0.10709278831E+04  0.21723626108E+03  0.12410430021E+04  0.25500000920E-02 0.  1.
       -2    1    3    3    0  502  0.58831081006E+03 -0.10709278831E+04 -0.97922376966E+03  0.15658465222E+04  0.25500000920E-02 0. -1.
</event>
<event>
 5   0  0.4188000E-06  0.2647508E+04  0.7818609E-02  0.8352240E-01
       -3   -1    0    0    0  501  0.00000000000E+00  0.00000000000E+00  0.18012881124E+04  0.18012881152E+04  0.10100000352E+00 0.  1.
        3   -1    0    0  501    0  0.00000000000E+00  0.00000000000E+00 -0.97281786204E+03  0.97281786729E+03  0.10100000352E+00 0. -1.
    10030    2    1    2    0    0  0.00000000000E+00  0.00000000000E+00  0.82847025036E+03  0.27741059825E+04  0.26475084601E+04 0.  0.
        5    1    3    3  502    0 -0.12586638187E+04  0.10458166712E+03  0.82958774929E+03  0.15110955818E+04  0.46999998093E+01 0. -1.
       -5    1    3    3    0  502  0.12586638187E+04 -0.10458166712E+03 -0.11174989307E+01  0.12630104007E+04  0.46999998093E+01 0.  1.
</event>
<event>
 5   0  0.1232559E-05  0.2715530E+04  0.7818609E-02  0.8329984E-01
       -2   -1    0    0    0  501  0.00000000000E+00  0.00000000000E+00  0.98271443700E+03  0.98271443700E+03  0.25500000920E-02 0.  1.
        2   -1    0    0  501    0  0.00000000000E+00  0.00000000000E+00 -0.18759520157E+04  0.18759520157E+04  0.25500000920E-02 0. -1.
    10030    2    1    2    0    0  0.00000000000E+00  0.00000000000E+00 -0.89323757866E+03  0.28586664527E+04  0.27155295093E+04 0.  0.
        3    1    3    3  502    0  0.87034021702E+03 -0.10357472002E+04 -0.32539350559E+03  0.13914543829E+04  0.10100000352E+00 0.  1.
       -3    1    3    3    0  502 -0.87034021702E+03  0.10357472002E+04 -0.56784407306E+03  0.14672120697E+04  0.10100000352E+00 0. -1.
</event>
<event>
 5   0  0.1220908E-05  0.2668307E+04  0.7818609E-02  0.8345362E-01
       -2   -1    0    0    0  501  0.00000000000E+00  0.00000000000E+00  0.93306902490E+03  0.93306902490E+03  0.25500000920E-02 0. -1.
        2   -1    0    0  501    0  0.00000000000E+00  0.00000000000E+00 -0.19076467235E+04  0.19076467235E+04  0.25500000920E-02 0.  1.
    10030    2    1    2    0    0  0.00000000000E+00  0.00000000000E+00 -0.97457769857E+03  0.28407157484E+04  0.26683073797E+04 0.  0.
        2    1    3    3  502    0 -0.12241930739E+04 -0.44610058238E+03 -0.79272651521E+03  0.15251458093E+04  0.25500000920E-02 0.  1.
       -2    1    3    3    0  502  0.12241930739E+04  0.44610058238E+03 -0.18185118336E+03  0.13155699391E+04  0.25500000920E-02 0. -1.
</event>
<event>
 5   0  0.4826140E-06  0.2723795E+04  0.7818609E-02  0.8327325E-01
        1   -1    0    0  501    0  0.00000000000E+00  0.00000000000E+00  0.12292547866E+04  0.12292547866E+04  0.50400001928E-02 0. -1.
       -1   -1    0    0    0  501  0.00000000000E+00  0.00000000000E+00 -0.15088528431E+04  0.15088528431E+04  0.50400001928E-02 0.  1.
    10030    2    1    2    0    0  0.00000000000E+00  0.00000000000E+00 -0.27959805648E+03  0.27381076297E+04  0.27237948379E+04 0.  0.
        1    1    3    3  502    0 -0.12719895577E+03 -0.39911957210E+02  0.12226797932E+04  0.12299261829E+04  0.50400001928E-02 0. -1.
       -1    1    3    3    0  502  0.12719895577E+03  0.39911957210E+02 -0.15022778497E+04  0.15081814468E+04  0.50400001928E-02 0.  1.
</event>
<event>
 5   0  0.5152288E-06  0.2690741E+04  0.7818609E-02  0.8338016E-01
       -1   -1    0    0    0  501  0.00000000000E+00  0.00000000000E+00  0.12320315927E+04  0.12320315927E+04  0.50400001928E-02 0.  1.
        1   -1    0    0  501    0  0.00000000000E+00  0.00000000000E+00 -0.14691354869E+04  0.14691354869E+04  0.50400001928E-02 0. -1.
    10030    2    1    2    0    0  0.00000000000E+00  0.00000000000E+00 -0.23710389418E+03  0.27011670796E+04  0.26907406666E+04 0.  0.
        3    1    3    3  502    0 -0.13405396243E+04  0.26736669062E+01 -0.42349186377E+01  0.13405489837E+04  0.10100000352E+00 0. -1.
       -3    1    3    3    0  502  0.13405396243E+04 -0.26736669062E+01 -0.23286897555E+03  0.13606180959E+04  0.10100000352E+00 0.  1.
</event>
<event>
 5   0  0.4756800E-06  0.2684003E+04  0.7818609E-02  0.8340214E-01
        1   -1    0    0  501    0  0.00000000000E+00  0.00000000000E+00  0.18227235466E+04  0.18227235466E+04  0.50400001928E-02 0.  1.
       -1   -1    0    0    0  501  0.00000000000E+00  0.00000000000E+00 -0.98806424626E+03  0.98806424627E+03  0.50400001928E-02 0. -1.
    10030    2    1    2    0    0  0.00000000000E+00  0.00000000000E+00  0.83465930036E+03  0.28107877929E+04  0.26840029562E+04 0.  0.
        4    1    3    3  502    0 -0.27412208310E+03 -0.12639454898E+04  0.79238861664E+03  0.15167671048E+04  0.12699999809E+01 0.  1.
       -4    1    3    3    0  502  0.27412208310E+03  0.12639454898E+04  0.42270683716E+02  0.12940206881E+04  0.12699999809E+01 0. -1.
</event>
<event>
 5   0  0.5152288E-06  0.2703171E+04  0.7818609E-02  0.8333977E-01
       -1   -1    0    0    0  501  0.00000000000E+00  0.00000000000E+00  0.77053376528E+03  0.77053376530E+03  0.50400001928E-02 0. -1.
        1   -1    0    0  501    0  0.00000000000E+00  0.00000000000E+00 -0.23708031538E+04  0.23708031538E+04  0.50400001928E-02 0.  1.
    10030    2    1    2    0    0  0.00000000000E+00  0.00000000000E+00 -0.16002693885E+04  0.31413369191E+04  0.27031713826E+04 0.  0.
        3    1    3    3  502    0 -0.81803071908E+02  0.79286875482E+03 -0.20686014186E+04  0.22168546285E+04  0.10100000352E+00 0.  1.
       -3    1    3    3    0  502  0.81803071908E+02 -0.79286875482E+03  0.46833203007E+03  0.92448229055E+03  0.10100000352E+00 0. -1.
</event>
<event>
 5   0  0.1232559E-05  0.2715307E+04  0.7818609E-02  0.8330055E-01
        2   -1    0    0  501    0  0.00000000000E+00  0.00000000000E+00  0.92698001174E+03  0.92698001174E+03  0.25500000920E-02 0.  1.
       -2   -1    0    0    0  501  0.00000000000E+00  0.00000000000E+00 -0.19884169998E+04  0.19884169998E+04  0.25500000920E-02 0. -1.
    10030    2    1    2    0    0  0.00000000000E+00  0.00000000000E+00 -0.10614369881E+04  0.29153970115E+04  0.27153068437E+04 0.  0.
        3    1    3    3  502    0 -0.38588265402E+03  0.82230579729E+03  0.55266078776E+03  0.10632620578E+04  0.10100000352E+00 0. -1.
       -3    1    3    3    0  502  0.38588265402E+03 -0.82230579729E+03 -0.16140977758E+04  0.18521349538E+04  0.10100000352E+00 0.  1.
</event>
<event>
 5   0  0.4846214E-06  0.2725352E+04  0.7818609E-02  0.8326826E-01
       -1   -1    0    0    0  501  0.00000000000E+00  0.00000000000E+00  0.12508029167E+04  0.12508029167E+04  0.50400001928E-02 0. -1.
        1   -1    0    0  501    0  0.00000000000E+00  0.00000000000E+00 -0.14845547869E+04  0.14845547869E+04  0.50400001928E-02 0.  1.
    10030    2    1    2    0    0  0.00000000000E+00  0.00000000000E+00 -0.23375187013E+03  0.27353577036E+04  0.27253516892E+04 0.  0.
        2    1    3    3  502    0 -0.10645448639E+04 -0.75082780784E+03  0.28445122243E+03  0.13333831641E+04  0.25500000920E-02 0. -1.
       -2    1    3    3    0  502  0.10645448639E+04  0.75082780784E+03 -0.51820309256E+03  0.14019745395E+04  0.25500000920E-02 0.  1.
</event>
<event>
 5   0  0.1276517E-05  0.2621320E+04  0.7818609E-02  0.8360995E-01
       -2   -1    0    0    0  501  0.00000000000E+00  0.00000000000E+00  0.21303926505E+04  0.21303926505E+04  0.25500000920E-02 0.  1.
        2   -1    0    0  501    0  0.00000000000E+00  0.00000000000E+00 -0.80634419323E+03  0.80634419323E+03  0.25500000920E-02 0. -1.
    10030    2    1    2    0    0  0.00000000000E+00  0.00000000000E+00  0.13240484573E+04  0.29367368437E+04  0.26213200820E+04 0.  0.
        1    1    3    3  502    0  0.22458774825E+03  0.82583666349E+03 -0.45008567019E+03  0.96696585357E+03  0.50400001928E-02 0. -1.
       -1    1    3    3    0  502 -0.22458774825E+03 -0.82583666349E+03  0.17741341275E+04  0.19697709902E+04  0.50400001928E-02 0.  1.
</event>
<event>
 5   0  0.4846214E-06  0.2698135E+04  0.7818609E-02  0.8335610E-01
       -1   -1    0    0    0  501  0.00000000000E+00  0.00000000000E+00  0.16464972437E+04  0.16464972437E+04  0.50400001928E-02 0.  1.
        1   -1    0    0  501    0  0.00000000000E+00  0.00000000000E+00 -0.11053666148E+04  0.11053666148E+04  0.50400001928E-02 0. -1.
    10030    2    1    2    0    0  0.00000000000E+00  0.00000000000E+00  0.54113062889E+03  0.27518638585E+04  0.26981349740E+04 0.  0.
        2    1    3    3  502    0 -0.44210835105E+03 -0.10377078544E+04  0.10253602432E+04  0.15243559340E+04  0.25500000920E-02 0.  1.
       -2    1    3    3    0  502  0.44210835105E+03  0.10377078544E+04 -0.48422961430E+03  0.12275079245E+04  0.25500000920E-02 0. -1.
</event>
<event>
 5   0  0.5152288E-06  0.2374439E+04  0.7818609E-02  0.8449136E-01
        1   -1    0    0  501    0  0.00000000000E+00  0.00000000000E+00  0.12919139855E+04  0.12919139855E+04  0.50400001928E-02 0.  1.
       -1   -1    0    0    0  501  0.00000000000E+00  0.00000000000E+00 -0.10910088717E+04  0.10910088717E+04  0.50400001928E-02 0. -1.
    10030    2    1    2    0    0  0.00000000000E+00  0.00000000000E+00  0.20090511381E+03  0.23829228571E+04  0.23744385607E+04 0.  0.
        3    1    3    3  502    0 -0.31580173918E+03 -0.74119073178E+03  0.97557479760E+03  0.12652433107E+04  0.10100000352E+00 0.  1.
       -3    1    3    3    0  502  0.31580173918E+03  0.74119073178E+03 -0.77466968379E+03  0.11176795464E+04  0.10100000352E+00 0. -1.
</event>
<event>
 5   0  0.1276517E-05  0.2704795E+04  0.7818609E-02  0.8333451E-01
        2   -1    0    0  501    0  0.00000000000E+00  0.00000000000E+00  0.11802476499E+04  0.11802476499E+04  0.25500000920E-02 0. -1.
       -2   -1    0    0    0  501  0.00000000000E+00  0.00000000000E+00 -0.15496574470E+04  0.15496574470E+04  0.25500000920E-02 0.  1.
    10030    2    1    2    0    0  0.00000000000E+00  0.00000000000E+00 -0.36940979708E+03  0.27299050969E+04  0.27047954156E+04 0.  0.
        1    1    3    3  502    0 -0.10073417342E+04  0.46415009424E+03 -0.96571476200E+03  0.14706385284E+04  0.50400001928E-02 0.  1.
       -1    1    3    3    0  502  0.10073417342E+04 -0.46415009424E+03  0.59630496491E+03  0.12592665686E+04  0.50400001928E-02 0. -1.
</event>
<event>
 5   0  0.4756800E-06  0.2688589E+04  0.7818609E-02  0.8338717E-01
       -1   -1    0    0    0  501  0.00000000000E+00  0.00000000000E+00  0.13768837156E+04  0.13768837157E+04  0.50400001928E-02 0. -1.
        1   -1    0    0  501    0  0.00000000000E+00  0.00000000000E+00 -0.13124764029E+04  0.13124764029E+04  0.50400001928E-02 0.  1.
    10030    2    1    2    0    0  0.00000000000E+00  0.00000000000E+00  0.64407312732E+02  0.26893601186E+04  0.26885887647E+04 0.  0.
        4    1    3    3  502    0 -0.45606591487E+03 -0.88365775731E+03 -0.87264341193E+03  0.13230099350E+04  0.12699999809E+01 0.  1.
       -4    1    3    3    0  502  0.45606591487E+03  0.88365775731E+03  0.93705072466E+03  0.13663501836E+04  0.12699999809E+01 0. -1.
</event>
<event>
 5   0  0.1220908E-05  0.2680970E+04  0.7818609E-02  0.8341206E-01
       -2   -1    0    0    0  501  0.00000000000E+00  0.00000000000E+00  0.14247840912E+04  0.14247840912E+04  0.25500000920E-02 0. -1.
        2   -1    0    0  501    0  0.00000000000E+00  0.00000000000E+00 -0.12611738516E+04  0.12611738516E+04  0.25500000920E-02 0.  1.
    10030    2    1    2    0    0  0.00000000000E+00  0.00000000000E+00  0.16361023955E+03  0.26859579428E+04  0.26809703020E+04 0.  0.
        2    1    3    3  502    0 -0.62863503455E+03  0.17995051972E+03  0.12541685328E+04  0.14143913550E+04  0.25500000920E-02 0. -1.
       -2    1    3    3    0  502  0.62863503455E+03 -0.17995051972E+03 -0.10905582933E+04  0.12715665878E+04  0.25500000920E-02 0.  1.
</event>
<event>
 5   0  0.4824715E-06  0.2691845E+04  0.7818609E-02  0.8337656E-01
       -1   -1    0    0    0  501  0.00000000000E+00  0.00000000000E+00  0.11621890654E+04  0.11621890654E+04  0.50400001928E-02 0. -1.
        1   -1    0    0  501    0  0.00000000000E+00  0.00000000000E+00 -0.15587026055E+04  0.15587026055E+04  0.50400001928E-02 0.  1.
    10030    2    1    2    0    0  0.00000000000E+00  0.00000000000E+00 -0.39651354011E+03  0.27208916710E+04  0.26918448131E+04 0.  0.
        5    1    3    3  502    0  0.12921239624E+04 -0.30423247806E+02  0.18126131716E+03  0.13051389440E+04  0.46999998093E+01 0.  1.
       -5    1    3    3    0  502 -0.12921239624E+04  0.30423247806E+02 -0.57777485726E+03  0.14157527269E+04  0.46999998093E+01 0. -1.
</event>
<event>
 5   0  0.1232559E-05  0.2687546E+04  0.7818609E-02  0.8339057E-01
        2   -1    0    0  501    0  0.00000000000E+00  0.00000000000E+00  0.10890082444E+04  0.10890082444E+04  0.25500000920E-02 0.  1.
       -2   -1    0    0    0  501  0.00000000000E+00  0.00000000000E+00 -0.16581382784E+04  0.16581382784E+04  0.25500000920E-02 0. -1.
    10030    2    1    2    0    0  0.00000000000E+00  0.00000000000E+00 -0.56913003401E+03  0.27471465227E+04  0.26875462827E+04 0.  0.
        3    1    3    3  502    0  0.79987443240E+03  0.88977904358E+03  0.34073666356E+03  0.12440286725E+04  0.10100000352E+00 0.  1.
       -3    1    3    3    0  502 -0.79987443240E+03 -0.88977904358E+03 -0.90986669757E+03  0.15031178502E+04  0.10100000352E+00 0. -1.
</event>
<event>
 5   0  0.4846214E-06  0.2709496E+04  0.7818609E-02  0.8331931E-01
        1   -1    0    0  501    0  0.00000000000E+00  0.00000000000E+00  0.14694012751E+04  0.14694012751E+04  0.50400001928E-02 0.  1.
       -1   -1    0    0    0  501  0.00000000000E+00  0.00000000000E+00 -0.12490405082E+04  0.12490405083E+04  0.50400001928E-02 0. -1.
    10030    2    1    2    0    0  0.00000000000E+00  0.00000000000E+00  0.22036076683E+03  0.27184417833E+04  0.27094956840E+04 0.  0.
        2    1    3    3  502    0 -0.11389044054E+04  0.36472801864E+03  0.74884475877E+03  0.14109919365E+04  0.25500000920E-02 0.  1.
       -2    1    3    3    0  502  0.11389044054E+04 -0.36472801864E+03 -0.52848399195E+03  0.13074498468E+04  0.25500000920E-02 0. -1.
</event>
<event>
 5   0  0.1220908E-05  0.2699860E+04  0.7818609E-02  0.8335051E-01
        2   -1    0    0  501    0  0.00000000000E+00  0.00000000000E+00  0.19506619005E+04  0.19506619005E+04  0.25500000920E-02 0.  1.
       -2   -1    0    0    0  501  0.00000000000E+00  0.00000000000E+00 -0.93420106038E+03  0.93420106038E+03  0.25500000920E-02 0. -1.
    10030    2    1    2    0    0  0.00000000000E+00  0.00000000000E+00  0.10164608401E+04  0.28848629609E+04  0.26998595637E+04 0.  0.
        2    1    3    3  502    0 -0.89896734538E+03 -0.15856007556E+03 -0.55441420531E+03  0.10680162436E+04  0.25500000920E-02 0. -1.
       -2    1    3    3    0  502  0.89896734538E+03  0.15856007556E+03  0.15708750454E+04  0.18168467172E+04  0.25500000920E-02 0.  1.
</event>
<event>
 5   0  0.1276517E-05  0.2726149E+04  0.7818609E-02  0.8326570E-01
        2   -1    0    0  501    0  0.00000000000E+00  0.00000000000E+00  0.18712414064E+04  0.18712414064E+04  0.25500000920E-02 0.  1.
       -2   -1    0    0    0  501  0.00000000000E+00  0.00000000000E+00 -0.99290855366E+03  0.99290855366E+03  0.25500000920E-02 0. -1.
    10030    2    1    2    0    0  0.00000000000E+00  0.00000000000E+00  0.87833285273E+03  0.28641499600E+04  0.27261486374E+04 0.  0.
        1    1    3    3  502    0 -0.11765086165E+04  0.66831441554E+03  0.26603717536E+03  0.13789824007E+04  0.50400001928E-02 0. -1.
       -1    1    3    3    0  502  0.11765086165E+04 -0.66831441554E+03  0.61229567737E+03  0.14851675593E+04  0.50400001928E-02 0.  1.
</event>
<event>
 5   0  0.5152288E-06  0.2646394E+04  0.7818609E-02  0.8352611E-01
        1   -1    0    0  501    0  0.00000000000E+00  0.00000000000E+00  0.22301152187E+04  0.22301152187E+04  0.50400001928E-02 0.  1.
       -1   -1    0    0    0  501  0.00000000000E+00  0.00000000000E+00 -0.78509421587E+03  0.78509421589E+03  0.50400001928E-02 0. -1.
    10030    2    1    2    0    0  0.00000000000E+00  0.00000000000E+00  0.14450210029E+04  0.30152094346E+04  0.26463941951E+04 0.  0.
        3    1    3    3  502    0  0.68655087178E+03  0.88748593446E+03 -0.76563248753E+02  0.11246534242E+04  0.10100000352E+00 0. -1.
       -3    1    3    3    0  502 -0.68655087178E+03 -0.88748593446E+03  0.15215842516E+04  0.18905560104E+04  0.10100000352E+00 0.  1.
</event>
<event>
 5   0  0.4756800E-06  0.2544296E+04  0.7818609E-02  0.8387373E-01
        1   -1    0    0  501    0  0.00000000000E+00  0.00000000000E+00  0.20201831349E+04  0.20201831349E+04  0.50400001928E-02 0.  1.
       -1   -1    0    0    0  501  0.00000000000E+00  0.00000000000E+00 -0.80109616974E+03  0.80109616976E+03  0.50400001928E-02 0. -1.
    10030    2    1    2    0    0  0.00000000000E+00  0.00000000000E+00  0.12190869651E+04  0.28212793046E+04  0.25442963440E+04 0.  0.
        4    1    3    3  502    0 -0.68630199554E+02  0.69234603039E+03 -0.57143924981E+03  0.90033191614E+03  0.12699999809E+01 0. -1.
       -4    1    3    3    0  502  0.68630199554E+02 -0.69234603039E+03  0.17905262149E+04  0.19209473885E+04  0.12699999809E+01 0.  1.
</event>
<event>
 5   0  0.1220908E-05  0.2711599E+04  0.7818609E-02  0.8331251E-01
        2   -1    0    0  501    0  0.00000000000E+00  0.00000000000E+00  0.11689628825E+04  0.11689628825E+04  0.25500000920E-02 0.  1.
       -2   -1    0    0    0  501  0.00000000000E+00  0.00000000000E+00 -0.15724982981E+04  0.15724982981E+04  0.25500000920E-02 0. -1.
    10030    2    1    2    0    0  0.00000000000E+00  0.00000000000E+00 -0.40353541564E+03  0.27414611806E+04  0.27115988961E+04 0.  0.
        2    1    3    3  502    0 -0.34223293609E+03 -0.13101655545E+04 -0.13368381675E+03  0.13607088320E+04  0.25500000920E-02 0.  1.
       -2    1    3    3    0  502  0.34223293609E+03  0.13101655545E+04 -0.26985159889E+03  0.13807523486E+04  0.25500000920E-02 0. -1.
</event>
<event>
 5   0  0.1286641E-05  0.2607811E+04  0.7818609E-02  0.8365553E-01
       -2   -1    0    0    0  501  0.00000000000E+00  0.00000000000E+00  0.13007137803E+04  0.13007137803E+04  0.25500000920E-02 0. -1.
        2   -1    0    0  501    0  0.00000000000E+00  0.00000000000E+00 -0.13071048919E+04  0.13071048919E+04  0.25500000920E-02 0.  1.
    10030    2    1    2    0    0  0.00000000000E+00  0.00000000000E+00 -0.63911115595E+01  0.26078186722E+04  0.26078108407E+04 0.  0.
        4    1    3    3  502    0 -0.11922273092E+04 -0.42335593216E+03  0.31229157252E+03  0.13031361560E+04  0.12699999809E+01 0. -1.
       -4    1    3    3    0  502  0.11922273092E+04  0.42335593216E+03 -0.31868268408E+03  0.13046825162E+04  0.12699999809E+01 0.  1.
</event>
<event>
 5   0  0.1232559E-05  0.2682528E+04  0.7818609E-02  0.8340696E-01
        2   -1    0    0  501    0  0.00000000000E+00  0.00000000000E+00  0.13460829284E+04  0.13460829284E+04  0.25500000920E-02 0. -1.
       -2   -1    0    0    0  501  0.00000000000E+00  0.00000000000E+00 -0.13364624300E+04  0.13364624300E+04  0.25500000920E-02 0.  1.
    10030    2    1    2    0    0  0.00000000000E+00  0.00000000000E+00  0.96204983115E+01  0.26825453584E+04  0.26825281072E+04 0.  0.
        3    1    3    3  502    0  0.16221253395E+03  0.11189739504E+04  0.72632278476E+03  0.13438602627E+04  0.10100000352E+00 0. -1.
       -3    1    3    3    0  502 -0.16221253395E+03 -0.11189739504E+04 -0.71670228645E+03  0.13386850957E+04  0.10100000352E+00 0.  1.
</event>
<event>
 5   0  0.1261364E-05  0.2698644E+04  0.7818609E-02  0.8335445E-01
        2   -1    0    0  501    0  0.00000000000E+00  0.00000000000E+00  0.13898239605E+04  0.13898239605E+04  0.25500000920E-02 0. -1.
       -2   -1    0    0    0  501  0.00000000000E+00  0.00000000000E+00 -0.13100007114E+04  0.13100007114E+04  0.25500000920E-02 0.  1.
    10030    2    1    2    0    0  0.00000000000E+00  0.00000000000E+00  0.79823249097E+02  0.26998246719E+04  0.26986443833E+04 0.  0.
        5    1    3    3  502    0  0.11773886309E+04 -0.65909038140E+03  0.37869196234E+02  0.13498519493E+04  0.46999998093E+01 0.  1.
       -5    1    3    3    0  502 -0.11773886309E+04  0.65909038140E+03  0.41954052863E+02  0.13499727225E+04  0.46999998093E+01 0. -1.
</event>
<event>
 5   0  0.4756800E-06  0.2708492E+04  0.7818609E-02  0.8332255E-01
       -1   -1    0    0    0  501  0.00000000000E+00  0.00000000000E+00  0.30224324551E+04  0.30224324551E+04  0.50400001928E-02 0. -1.
        1   -1    0    0  501    0  0.00000000000E+00  0.00000000000E+00 -0.60679031358E+03  0.60679031360E+03  0.50400001928E-02 0.  1.
    10030    2    1    2    0    0  0.00000000000E+00  0.00000000000E+00  0.24156421415E+04  0.36292227687E+04  0.27084923757E+04 0.  0.
        4    1    3    3  502    0 -0.42032462195E+03  0.83720232077E+03 -0.10258510690E+03  0.94239367081E+03  0.12699999809E+01 0.  1.
       -4    1    3    3    0  502  0.42032462195E+03 -0.83720232077E+03  0.25182272484E+04  0.26868290979E+04  0.12699999809E+01 0. -1.
</event>
<event>
 5   0  0.4824715E-06  0.2713622E+04  0.7818609E-02  0.8330599E-01
        1   -1    0    0  501    0  0.00000000000E+00  0.00000000000E+00  0.15621977041E+04  0.15621977041E+04  0.50400001928E-02 0. -1.
       -1   -1    0    0    0  501  0.00000000000E+00  0.00000000000E+00 -0.11784272041E+04  0.11784272041E+04  0.50400001928E-02 0.  1.
    10030    2    1    2    0    0  0.00000000000E+00  0.00000000000E+00  0.38377050001E+03  0.27406249083E+04  0.27136221349E+04 0.  0.
        5    1    3    3  502    0 -0.22799379588E+03 -0.79046036524E+02  0.15403434865E+04  0.15591374517E+04  0.46999998093E+01 0. -1.
       -5    1    3    3    0  502  0.22799379588E+03  0.79046036524E+02 -0.11565729865E+04  0.11814874565E+04  0.46999998093E+01 0.  1.
</event>
<event>
 5   0  0.4826140E-06  0.2698603E+04  0.7818609E-02  0.8335458E-01
       -1   -1    0    0    0  501  0.00000000000E+00  0.00000000000E+00  0.12128261049E+04  0.12128261049E+04  0.50400001928E-02 0.  1.
        1   -1    0    0  501    0  0.00000000000E+00  0.00000000000E+00 -0.15011338693E+04  0.15011338693E+04  0.50400001928E-02 0. -1.
    10030    2    1    2    0    0  0.00000000000E+00  0.00000000000E+00 -0.28830776445E+03  0.27139599742E+04  0.26986028560E+04 0.  0.
        1    1    3    3  502    0  0.56672683335E+02  0.42284878384E+03  0.11432094380E+04  0.12202215808E+04  0.50400001928E-02 0.  1.
       -1    1    3    3    0  502 -0.56672683335E+02 -0.42284878384E+03 -0.14315172024E+04  0.14937383934E+04  0.50400001928E-02 0. -1.
</event>
<event>
 5   0  0.1286641E-05  0.2693073E+04  0.7818609E-02  0.8337256E-01
       -2   -1    0    0    0  501  0.00000000000E+00  0.00000000000E+00  0.11125804793E+04  0.11125804793E+04  0.25500000920E-02 0.  1.
        2   -1    0    0  501    0  0.00000000000E+00  0.00000000000E+00 -0.16296887790E+04  0.16296887790E+04  0.25500000920E-02 0. -1.
    10030    2    1    2    0    0  0.00000000000E+00  0.00000000000E+00 -0.51710829976E+03  0.27422692583E+04  0.26930725373E+04 0.  0.
        4    1    3    3  502    0  0.89786476372E+03  0.63122010054E+03  0.53579815605E+03  0.12213440245E+04  0.12699999809E+01 0. -1.
       -4    1    3    3    0  502 -0.89786476372E+03 -0.63122010054E+03 -0.10529064558E+04  0.15209252338E+04  0.12699999809E+01 0.  1.
</event>
<event>
 5   0  0.1286641E-05  0.2723443E+04  0.7818609E-02  0.8327438E-01
       -2   -1    0    0    0  501  0.00000000000E+00  0.00000000000E+00  0.11683127764E+04  0.11683127764E+04  0.25500000920E-02 0.  1.
        2   -1    0    0  501    0  0.00000000000E+00  0.00000000000E+00 -0.15871480847E+04  0.15871480847E+04  0.25500000920E-02 0. -1.
    10030    2    1    2    0    0  0.00000000000E+00  0.00000000000E+00 -0.41883530825E+03  0.27554608611E+04  0.27234429573E+04 0.  0.
        4    1    3    3  502    0  0.44902491818E+03 -0.27501211206E+02 -0.15097919490E+04  0.15753898045E+04  0.12699999809E+01 0. -1.
       -4    1    3    3    0  502 -0.44902491818E+03  0.27501211206E+02  0.10909566408E+04  0.11800710566E+04  0.12699999809E+01 0.  1.
</event>
<event>
 5   0  0.4188000E-06  0.2607164E+04  0.7818609E-02  0.8365772E-01
        3   -1    0    0  501    0  0.00000000000E+00  0.00000000000E+00  0.16454751745E+04  0.16454751776E+04  0.10100000352E+00 0. -1.
       -3   -1    0    0    0  501  0.00000000000E+00  0.00000000000E+00 -0.10327264834E+04  0.10327264884E+04  0.10100000352E+00 0.  1.
    10030    2    1    2    0    0  0.00000000000E+00  0.00000000000E+00  0.61274869112E+03  0.26782016660E+04  0.26071638240E+04 0.  0.
        4    1    3    3  502    0 -0.45538191963E+02  0.21720836446E+03  0.16259256146E+04  0.16410024124E+04  0.12699999809E+01 0. -1.
       -4    1    3    3    0  502  0.45538191963E+02 -0.21720836446E+03 -0.10131769235E+04  0.10371992536E+04  0.12699999809E+01 0.  1.
</event>
<event>
 5   0  0.1220908E-05  0.2702196E+04  0.7818609E-02  0.8334293E-01
       -2   -1    0    0    0  501  0.00000000000E+00  0.00000000000E+00  0.10616158274E+04  0.10616158274E+04  0.25500000920E-02 0.  1.
        2   -1    0    0  501    0  0.00000000000E+00  0.00000000000E+00 -0.17195161639E+04  0.17195161639E+04  0.25500000920E-02 0. -1.
    10030    2    1    2    0    0  0.00000000000E+00  0.00000000000E+00 -0.65790033648E+03  0.27811319913E+04  0.27021958294E+04 0.  0.
        2    1    3    3  502    0  0.52851473101E+03  0.62582352127E+03  0.77690560945E+03  0.11289664418E+04  0.25500000920E-02 0.  1.
       -2    1    3    3    0  502 -0.52851473101E+03 -0.62582352127E+03 -0.14348059459E+04  0.16521655496E+04  0.25500000920E-02 0. -1.
</event>
<event>
 5   0  0.4846214E-06  0.2699760E+04  0.7818609E-02  0.8335083E-01
       -1   -1    0    0    0  501  0.00000000000E+00  0.00000000000E+00  0.11373319263E+04  0.11373319263E+04  0.50400001928E-02 0.  1.
        1   -1    0    0  501    0  0.00000000000E+00  0.00000000000E+00 -0.16021501523E+04  0.16021501523E+04  0.50400001928E-02 0. -1.
    10030    2    1    2    0    0  0.00000000000E+00  0.00000000000E+00 -0.46481822604E+03  0.27394820786E+04  0.26997603738E+04 0.  0.
        2    1    3    3  502    0 -0.51401933067E+01  0.84745631676E+03  0.83374863068E+03  0.11888420457E+04  0.25500000920E-02 0.  1.
       -2    1    3    3    0  502  0.51401933067E+01 -0.84745631676E+03 -0.12985668567E+04  0.15506400330E+04  0.25500000920E-02 0. -1.
</event>
<event>
 5   0  0.5152288E-06  0.2592503E+04  0.7818609E-02  0.8370752E-01
        1   -1    0    0  501    0  0.00000000000E+00  0.00000000000E+00  0.13868228900E+04  0.13868228900E+04  0.50400001928E-02 0. -1.
       -1   -1    0    0    0  501  0.00000000000E+00  0.00000000000E+00 -0.12115953709E+04  0.12115953709E+04  0.50400001928E-02 0.  1.
    10030    2    1    2    0    0  0.00000000000E+00  0.00000000000E+00  0.17522751911E+03  0.25984182610E+04  0.25925031872E+04 0.  0.
        3    1    3    3  502    0  0.51108935792E+03 -0.28006041077E+03 -0.10728803346E+04  0.12209497894E+04  0.10100000352E+00 0.  1.
       -3    1    3    3    0  502 -0.51108935792E+03  0.28006041077E+03  0.12481078538E+04  0.13774684716E+04  0.10100000352E+00 0. -1.
</event>
<event>
 5   0  0.1261364E-05  0.2694528E+04  0.7818609E-02  0.8336782E-01
        2   -1    0    0  501    0  0.00000000000E+00  0.00000000000E+00  0.15114100997E+04  0.15114100997E+04  0.25500000920E-02 0. -1.
       -2   -1    0    0    0  501  0.00000000000E+00  0.00000000000E+00 -0.12009452650E+04  0.12009452650E+04  0.25500000920E-02 0.  1.
    10030    2    1    2    0    0  0.00000000000E+00  0.00000000000E+00  0.31046483475E+03  0.27123553647E+04  0.26945283837E+04 0.  0.
        5    1    3    3  502    0  0.10223264402E+04 -0.81611653009E+03 -0.16923720905E+03  0.13190378554E+04  0.46999998093E+01 0.  1.
       -5    1    3    3    0  502 -0.10223264402E+04  0.81611653009E+03  0.47970204380E+03  0.13933175093E+04  0.46999998093E+01 0. -1.
</event>
<event>
 5   0  0.1276517E-05  0.2703254E+04  0.7818609E-02  0.8333950E-01
        2   -1    0    0  501    0  0.00000000000E+00  0.00000000000E+00  0.21101815392E+04  0.21101815392E+04  0.25500000920E-02 0.  1.
       -2   -1    0    0    0  501  0.00000000000E+00  0.00000000000E+00 -0.86575256954E+03  0.86575256955E+03  0.25500000920E-02 0. -1.
    10030    2    1    2    0    0  0.00000000000E+00  0.00000000000E+00  0.12444289697E+04  0.29759341088E+04  0.27032536616E+04 0.  0.
        1    1    3    3  502    0  0.46486573421E+03  0.12685103171E+04  0.66728994404E+03  0.15068159957E+04  0.50400001928E-02 0. -1.
       -1    1    3    3    0  502 -0.46486573421E+03 -0.12685103171E+04  0.57713902565E+03  0.14691181131E+04  0.50400001928E-02 0.  1.
</event>
<event>
 5   0  0.4756800E-06  0.2643104E+04  0.7818609E-02  0.8353705E-01
       -1   -1    0    0    0  501  0.00000000000E+00  0.00000000000E+00  0.11342530550E+04  0.11342530550E+04  0.50400001928E-02 0.  1.
        1   -1    0    0  501    0  0.00000000000E+00  0.00000000000E+00 -0.15397795735E+04  0.15397795735E+04  0.50400001928E-02 0. -1.
    10030    2    1    2    0    0  0.00000000000E+00  0.00000000000E+00 -0.40552651848E+03  0.26740326285E+04  0.26431039974E+04 0.  0.
        4    1    3    3  502    0  0.62770857010E+03 -0.90984728954E+03 -0.93557188500E+03  0.14481493377E+04  0.12699999809E+01 0. -1.
       -4    1    3    3    0  502 -0.62770857010E+03  0.90984728954E+03  0.53004536652E+03  0.12258832908E+04  0.12699999809E+01 0.  1.
</event>
<event>
 5   0  0.4756800E-06  0.2686663E+04  0.7818609E-02  0.8339345E-01
        1   -1    0    0  501    0  0.00000000000E+00  0.00000000000E+00  0.14083518878E+04  0.14083518878E+04  0.50400001928E-02 0.  1.
       -1   -1    0    0    0  501  0.00000000000E+00  0.00000000000E+00 -0.12813125145E+04  0.12813125145E+04  0.50400001928E-02 0. -1.
    10030    2    1    2    0    0  0.00000000000E+00  0.00000000000E+00  0.12703937327E+03  0.26896644023E+04  0.26866625383E+04 0.  0.
        4    1    3    3  502    0  0.28988741184E+03 -0.12766335808E+04 -0.23799663220E+03  0.13305908541E+04  0.12699999809E+01 0. -1.
       -4    1    3    3    0  502 -0.28988741184E+03  0.12766335808E+04  0.36503600548E+03  0.13590735482E+04  0.12699999809E+01 0.  1.
</event>
<event>
 5   0  0.4824715E-06  0.2695282E+04  0.7818609E-02  0.8336537E-01
        1   -1    0    0  501    0  0.00000000000E+00  0.00000000000E+00  0.15882302939E+04  0.15882302939E+04  0.50400001928E-02 0.  1.
       -1   -1    0    0    0  501  0.00000000000E+00  0.00000000000E+00 -0.11434969114E+04  0.11434969114E+04  0.50400001928E-02 0. -1.
    10030    2    1    2    0    0  0.00000000000E+00  0.00000000000E+00  0.44473338250E+03  0.27317272052E+04  0.26952821267E+04 0.  0.
        5    1    3    3  502    0 -0.55087217913E+03  0.42880200790E+03 -0.94594879212E+03  0.11756583377E+04  0.46999998093E+01 0. -1.
       -5    1    3    3    0  502  0.55087217913E+03 -0.42880200790E+03  0.13906821746E+04  0.15560688675E+04  0.46999998093E+01 0.  1.
</event>
<event>
 5   0  0.1286641E-05  0.2703905E+04  0.7818609E-02  0.8333739E-01
       -2   -1    0    0    0  501  0.00000000000E+00  0.00000000000E+00  0.19986846427E+04  0.19986846427E+04  0.25500000920E-02 0.  1.
        2   -1    0    0  501    0  0.00000000000E+00  0.00000000000E+00 -0.91448937785E+03  0.91448937786E+03  0.25500000920E-02 0. -1.
    10030    2    1    2    0    0  0.00000000000E+00  0.00000000000E+00  0.10841952648E+04  0.29131740205E+04  0.27039052316E+04 0.  0.
        4    1    3    3  502    0  0.12831945898E+03  0.68153939453E+03  0.17924387712E+04  0.19219261670E+04  0.12699999809E+01 0.  1.
       -4    1    3    3    0  502 -0.12831945898E+03 -0.68153939453E+03 -0.70824350642E+03  0.99124785353E+03  0.12699999809E+01 0. -1.
</event>
<event>
 5   0  0.4824715E-06  0.2573376E+04  0.7818609E-02  0.8377301E-01
       -1   -1    0    0    0  501  0.00000000000E+00  0.00000000000E+00  0.95853749335E+03  0.95853749336E+03  0.50400001928E-02 0. -1.
        1   -1    0    0  501    0  0.00000000000E+00  0.00000000000E+00 -0.17271795246E+04  0.17271795247E+04  0.50400001928E-02 0.  1.
    10030    2    1    2    0    0  0.00000000000E+00  0.00000000000E+00 -0.76864203129E+03  0.26857170180E+04  0.25733762509E+04 0.  0.
        5    1    3    3  502    0 -0.26173175384E+03 -0.23885218517E+03 -0.16752469043E+04  0.17123166055E+04  0.46999998093E+01 0.  1.
       -5    1    3    3    0  502  0.26173175384E+03  0.23885218517E+03  0.90660487297E+03  0.97340041248E+03  0.46999998093E+01 0. -1.
</event>
<event>
 5   0  0.1232559E-05  0.2683193E+04  0.7818609E-02  0.8340479E-01
       -2   -1    0    0    0  501  0.00000000000E+00  0.00000000000E+00  0.95076803979E+03  0.95076803979E+03  0.25500000920E-02 0.  1.
        2   -1    0    0  501    0  0.00000000000E+00  0.00000000000E+00 -0.18930814697E+04  0.18930814697E+04  0.25500000920E-02 0. -1.
    10030    2    1    2    0    0  0.00000000000E+00  0.00000000000E+00 -0.94231342996E+03  0.28438495095E+04  0.26831931411E+04 0.  0.
        3    1    3    3  502    0  0.66447680404E+03 -0.39543845909E+02  0.76339903346E+03  0.10128530167E+04  0.10100000352E+00 0.  1.
       -3    1    3    3    0  502 -0.66447680404E+03  0.39543845909E+02 -0.17057124634E+04  0.18309964929E+04  0.10100000352E+00 0. -1.
</event>
<event>
 5   0  0.1232559E-05  0.2717259E+04  0.7818609E-02  0.8329427E-01
       -2   -1    0    0    0  501  0.00000000000E+00  0.00000000000E+00  0.10726988247E+04  0.10726988247E+04  0.25500000920E-02 0. -1.
        2   -1    0    0  501    0  0.00000000000E+00  0.00000000000E+00 -0.17207758860E+04  0.17207758860E+04  0.25500000920E-02 0.  1.
    10030    2    1    2    0    0  0.00000000000E+00  0.00000000000E+00 -0.64807706135E+03  0.27934747107E+04  0.27172591121E+04 0.  0.
        3    1    3    3  502    0 -0.85952381933E+03  0.78367287902E+03 -0.10458355332E+04  0.15641919160E+04  0.10100000352E+00 0.  1.
       -3    1    3    3    0  502  0.85952381933E+03 -0.78367287902E+03  0.39775847188E+03  0.12292827947E+04  0.10100000352E+00 0. -1.
</event>
<event>
 5   0  0.4188000E-06  0.2910767E+04  0.7818609E-02  0.8269681E-01
        3   -1    0    0  501    0  0.00000000000E+00  0.00000000000E+00  0.88225527659E+03  0.88225528237E+03  0.10100000352E+00 0. -1.
       -3   -1    0    0    0  501  0.00000000000E+00  0.00000000000E+00 -0.24008251107E+04  0.24008251128E+04  0.10100000352E+00 0.  1.
    10030    2    1    2    0    0  0.00000000000E+00  0.00000000000E+00 -0.15185698341E+04  0.32830803952E+04  0.29107666585E+04 0.  0.
        3    1    3    3  502    0  0.93774389511E+03 -0.49959586287E+03  0.36250622392E+03  0.11226621983E+04  0.10100000352E+00 0. -1.
       -3    1    3    3    0  502 -0.93774389511E+03  0.49959586287E+03 -0.18810760580E+04  0.21604181968E+04  0.10100000352E+00 0.  1.
</event>
<event>
 5   0  0.4824715E-06  0.2571320E+04  0.7818609E-02  0.8378009E-01
        1   -1    0    0  501    0  0.00000000000E+00  0.00000000000E+00  0.15381614222E+04  0.15381614222E+04  0.50400001928E-02 0.  1.
       -1   -1    0    0    0  501  0.00000000000E+00  0.00000000000E+00 -0.10746090143E+04  0.10746090143E+04  0.50400001928E-02 0. -1.
    10030    2    1    2    0    0  0.00000000000E+00  0.00000000000E+00  0.46355240787E+03  0.26127704365E+04  0.25713203843E+04 0.  0.
        5    1    3    3  502    0  0.20757831744E+03 -0.12128821905E+04 -0.14669011747E+03  0.12392384945E+04  0.46999998093E+01 0. -1.
       -5    1    3    3    0  502 -0.20757831744E+03  0.12128821905E+04  0.61024252534E+03  0.13735319419E+04  0.46999998093E+01 0.  1.
</event>
<event>
 5   0  0.1232559E-05  0.2906376E+04  0.7818609E-02  0.8270983E-01
        2   -1    0    0  501    0  0.00000000000E+00  0.00000000000E+00  0.15413492196E+04  0.15413492197E+04  0.25500000920E-02 0. -1.
       -2   -1    0    0    0  501  0.00000000000E+00  0.00000000000E+00 -0.13700689325E+04  0.13700689325E+04  0.25500000920E-02 0.  1.
    10030    2    1    2    0    0  0.00000000000E+00  0.00000000000E+00  0.17128028716E+03  0.29114181521E+04  0.29063755297E+04 0.  0.
        3    1    3    3  502    0 -0.76707280785E+03 -0.57894474358E+03  0.11775666803E+04  0.15199476983E+04  0.10100000352E+00 0. -1.
       -3    1    3    3    0  502  0.76707280785E+03  0.57894474358E+03 -0.10062863932E+04  0.13914704539E+04  0.10100000352E+00 0.  1.
</event>
<event>
 5   0  0.1220908E-05  0.2684407E+04  0.7818609E-02  0.8340082E-01
       -2   -1    0    0    0  501  0.00000000000E+00  0.00000000000E+00  0.24555651784E+04  0.24555651784E+04  0.25500000920E-02 0. -1.
        2   -1    0    0  501    0  0.00000000000E+00  0.00000000000E+00 -0.73364404601E+03  0.73364404602E+03  0.25500000920E-02 0.  1.
    10030    2    1    2    0    0  0.00000000000E+00  0.00000000000E+00  0.17219211323E+04  0.31892092244E+04  0.26844074003E+04 0.  0.
        2    1    3    3  502    0  0.88223007879E+03  0.99015493324E+03  0.11066717174E+04  0.17272692303E+04  0.25500000920E-02 0. -1.
       -2    1    3    3    0  502 -0.88223007879E+03 -0.99015493324E+03  0.61524941490E+03  0.14619399941E+04  0.25500000920E-02 0.  1.
</event>
<event>
 5   0  0.1276517E-05  0.2705310E+04  0.7818609E-02  0.8333284E-01
        2   -1    0    0  501    0  0.00000000000E+00  0.00000000000E+00  0.97183600660E+03  0.97183600661E+03  0.25500000920E-02 0.  1.
       -2   -1    0    0    0  501  0.00000000000E+00  0.00000000000E+00 -0.18826993380E+04  0.18826993380E+04  0.25500000920E-02 0. -1.
    10030    2    1    2    0    0  0.00000000000E+00  0.00000000000E+00 -0.91086333140E+03  0.28545353446E+04  0.27053095988E+04 0.  0.
        1    1    3    3  502    0 -0.91169221298E+03  0.38679244186E+03 -0.14276025392E+04  0.17374809622E+04  0.50400001928E-02 0. -1.
       -1    1    3    3    0  502  0.91169221298E+03 -0.38679244186E+03  0.51673920777E+03  0.11170543824E+04  0.50400001928E-02 0.  1.
</event>
<event>
 5   0  0.4826140E-06  0.2690636E+04  0.7818609E-02  0.8338050E-01
       -1   -1    0    0    0  501  0.00000000000E+00  0.00000000000E+00  0.91990629489E+03  0.91990629490E+03  0.50400001928E-02 0.  1.
        1   -1    0    0  501    0  0.00000000000E+00  0.00000000000E+00 -0.19674615295E+04  0.19674615295E+04  0.50400001928E-02 0. -1.
    10030    2    1    2    0    0  0.00000000000E+00  0.00000000000E+00 -0.10475552346E+04  0.28873678244E+04  0.26906357955E+04 0.  0.
        1    1    3    3  502    0  0.77644146235E+03 -0.10943210567E+04 -0.41929143930E+03  0.14057756687E+04  0.50400001928E-02 0. -1.
       -1    1    3    3    0  502 -0.77644146235E+03  0.10943210567E+04 -0.62826379532E+03  0.14815921558E+04  0.50400001928E-02 0.  1.
</event>
<event>
 5   0  0.1286641E-05  0.2687785E+04  0.7818609E-02  0.8338979E-01
        2   -1    0    0  501    0  0.00000000000E+00  0.00000000000E+00  0.15561094637E+04  0.15561094637E+04  0.25500000920E-02 0.  1.
       -2   -1    0    0    0  501  0.00000000000E+00  0.00000000000E+00 -0.11606172019E+04  0.11606172019E+04  0.25500000920E-02 0. -1.
    10030    2    1    2    0    0  0.00000000000E+00  0.00000000000E+00  0.39549226182E+03  0.27167266656E+04  0.26877852679E+04 0.  0.
        4    1    3    3  502    0  0.61161032693E+03  0.95655321894E+03  0.92450469288E+03  0.14641624885E+04  0.12699999809E+01 0.  1.
       -4    1    3    3    0  502 -0.61161032693E+03 -0.95655321894E+03 -0.52901243106E+03  0.12525641771E+04  0.12699999809E+01 0. -1.
</event>
<event>
 5   0  0.1286641E-05  0.2530723E+04  0.7818609E-02  0.8392122E-01
        2   -1    0    0  501    0  0.00000000000E+00  0.00000000000E+00  0.86461937587E+03  0.86461937588E+03  0.25500000920E-02 0.  1.
       -2   -1    0    0    0  501  0.00000000000E+00  0.00000000000E+00 -0.18518427670E+04  0.18518427670E+04  0.25500000920E-02 0. -1.
    10030    2    1    2    0    0  0.00000000000E+00  0.00000000000E+00 -0.98722339111E+03  0.27164621429E+04  0.25307225351E+04 0.  0.
        4    1    3    3  502    0  0.11849634208E+04  0.25493739521E+03 -0.88360413811E+03  0.14999630895E+04  0.12699999809E+01 0. -1.
       -4    1    3    3    0  502 -0.11849634208E+04 -0.25493739521E+03 -0.10361925300E+03  0.12164990533E+04  0.12699999809E+01 0.  1.
</event>
<event>
 5   0  0.1261364E-05  0.2618622E+04  0.7818609E-02  0.8361903E-01
        2   -1    0    0  501    0  0.00000000000E+00  0.00000000000E+00  0.12431934587E+04  0.12431934587E+04  0.25500000920E-02 0.  1.
       -2   -1    0    0    0  501  0.00000000000E+00  0.00000000000E+00 -0.13789446024E+04  0.13789446024E+04  0.25500000920E-02 0. -1.
    10030    2    1    2    0    0  0.00000000000E+00  0.00000000000E+00 -0.13575114371E+03  0.26221380610E+04  0.26186217058E+04 0.  0.
        5    1    3    3  502    0  0.77625810228E+03 -0.31276503903E+03  0.94038974617E+03  0.12588699598E+04  0.46999998093E+01 0.  1.
       -5    1    3    3    0  502 -0.77625810228E+03  0.31276503903E+03 -0.10761408899E+04  0.13632681012E+04  0.46999998093E+01 0. -1.
</event>
<event>
 5   0  0.4756800E-06  0.2698989E+04  0.7818609E-02  0.8335333E-01
        1   -1    0    0  501    0  0.00000000000E+00  0.00000000000E+00  0.19481674475E+04  0.19481674475E+04  0.50400001928E-02 0.  1.
       -1   -1    0    0    0  501  0.00000000000E+00  0.00000000000E+00 -0.93479421208E+03  0.93479421209E+03  0.50400001928E-02 0. -1.
    10030    2    1    2    0    0  0.00000000000E+00  0.00000000000E+00  0.10133732354E+04  0.28829616596E+04  0.26989891842E+04 0.  0.
        4    1    3    3  502    0 -0.79744459342E+02 -0.64542652208E+03  0.17697416941E+04  0.18854500394E+04  0.12699999809E+01 0.  1.
       -4    1    3    3    0  502  0.79744459342E+02  0.64542652208E+03 -0.75636845872E+03  0.99751162020E+03  0.12699999809E+01 0. -1.
</event>
<event>
 5   0  0.4846214E-06  0.2691173E+04  0.7818609E-02  0.8337875E-01
       -1   -1    0    0    0  501  0.00000000000E+00  0.00000000000E+00  0.19455483066E+04  0.19455483066E+04  0.50400001928E-02 0.  1.
        1   -1    0    0  501    0  0.00000000000E+00  0.00000000000E+00 -0.93063895631E+03  0.93063895632E+03  0.50400001928E-02 0. -1.
    10030    2    1    2    0    0  0.00000000000E+00  0.00000000000E+00  0.10149093502E+04  0.28761872629E+04  0.26911730123E+04 0.  0.
        2    1    3    3  502    0 -0.88394121555E+03  0.89590510540E+03  0.10162115586E+04  0.16176167539E+04  0.25500000920E-02 0.  1.
       -2    1    3    3    0  502  0.88394121555E+03 -0.89590510540E+03 -0.13022084053E+01  0.12585705090E+04  0.25500000920E-02 0. -1.
</event>
<event>
 5   0  0.1232559E-05  0.2683083E+04  0.7818609E-02  0.8340515E-01
       -2   -1    0    0    0  501  0.00000000000E+00  0.00000000000E+00  0.87236921997E+03  0.87236921997E+03  0.25500000920E-02 0.  1.
        2   -1    0    0  501    0  0.00000000000E+00  0.00000000000E+00 -0.20630417030E+04  0.20630417030E+04  0.25500000920E-02 0. -1.
    10030    2    1    2    0    0  0.00000000000E+00  0.00000000000E+00 -0.11906724830E+04  0.29354109229E+04  0.26830833615E+04 0.  0.
        3    1    3    3  502    0  0.38639723792E+03 -0.88016724836E+03 -0.16191513986E+04  0.18829892385E+04  0.10100000352E+00 0. -1.
       -3    1    3    3    0  502 -0.38639723792E+03  0.88016724836E+03  0.42847891559E+03  0.10524216844E+04  0.10100000352E+00 0.  1.
</event>
<event>
 5   0  0.1286641E-05  0.2647039E+04  0.7818609E-02  0.8352396E-01
       -2   -1    0    0    0  501  0.00000000000E+00  0.00000000000E+00  0.13156888403E+04  0.13156888403E+04  0.25500000920E-02 0. -1.
        2   -1    0    0  501    0  0.00000000000E+00  0.00000000000E+00 -0.13313971309E+04  0.13313971309E+04  0.25500000920E-02 0.  1.
    10030    2    1    2    0    0  0.00000000000E+00  0.00000000000E+00 -0.15708290633E+02  0.26470859712E+04  0.26470393628E+04 0.  0.
        4    1    3    3  502    0  0.31586289183E+03 -0.20681017440E+03  0.12606960458E+04  0.13160151775E+04  0.12699999809E+01 0. -1.
       -4    1    3    3    0  502 -0.31586289183E+03  0.20681017440E+03 -0.12764043365E+04  0.13310707936E+04  0.12699999809E+01 0.  1.
</event>
<event>
 5   0  0.1286641E-05  0.2676946E+04  0.7818609E-02  0.8342524E-01
        2   -1    0    0  501    0  0.00000000000E+00  0.00000000000E+00  0.65465766573E+03  0.65465766574E+03  0.25500000920E-02 0. -1.
       -2   -1    0    0    0  501  0.00000000000E+00  0.00000000000E+00 -0.27365597554E+04  0.27365597554E+04  0.25500000920E-02 0.  1.
    10030    2    1    2    0    0  0.00000000000E+00  0.00000000000E+00 -0.20819020896E+04  0.33912174211E+04  0.26769458878E+04 0.  0.
        4    1    3    3  502    0 -0.44444516696E+03 -0.83751722555E+03  0.15587291656E+03  0.96086658208E+03  0.12699999809E+01 0. -1.
       -4    1    3    3    0  502  0.44444516696E+03  0.83751722555E+03 -0.22377750062E+04  0.24303508390E+04  0.12699999809E+01 0.  1.
</event>
<event>
 5   0  0.5152288E-06  0.2694118E+04  0.7818609E-02  0.8336916E-01
        1   -1    0    0  501    0  0.00000000000E+00  0.00000000000E+00  0.14338109102E+04  0.14338109103E+04  0.50400001928E-02 0.  1.
       -1   -1    0    0    0  501  0.00000000000E+00  0.00000000000E+00 -0.12655556025E+04  0.12655556025E+04  0.50400001928E-02 0. -1.
    10030    2    1    2    0    0  0.00000000000E+00  0.00000000000E+00  0.16825530776E+03  0.26993665128E+04  0.26941176147E+04 0.  0.
        3    1    3    3  502    0  0.11378623455E+04  0.55357752695E+02 -0.63614161425E+03  0.13047878608E+04  0.10100000352E+00 0. -1.
       -3    1    3    3    0  502 -0.11378623455E+04 -0.55357752695E+02  0.80439692201E+03  0.13945786519E+04  0.10100000352E+00 0.  1.
</event>
<event>
 5   0  0.4826140E-06  0.2697807E+04  0.7818609E-02  0.8335717E-01
        1   -1    0    0  501    0  0.00000000000E+00  0.00000000000E+00  0.12154959511E+04  0.12154959511E+04  0.50400001928E-02 0. -1.
       -1   -1    0    0    0  501  0.00000000000E+00  0.00000000000E+00 -0.14969531026E+04  0.14969531026E+04  0.50400001928E-02 0.  1.
    10030    2    1    2    0    0  0.00000000000E+00  0.00000000000E+00 -0.28145715152E+03  0.27124490538E+04  0.26978068391E+04 0.  0.
        1    1    3    3  502    0 -0.88956724802E+03 -0.14981919504E+03  0.86759273235E+03  0.12515961126E+04  0.50400001928E-02 0. -1.
       -1    1    3    3    0  502  0.88956724802E+03  0.14981919504E+03 -0.11490498839E+04  0.14608529411E+04  0.50400001928E-02 0.  1.
</event>
<event>
 5   0  0.4756800E-06  0.2736538E+04  0.7818609E-02  0.8323246E-01
       -1   -1    0    0    0  501  0.00000000000E+00  0.00000000000E+00  0.18771305153E+04  0.18771305153E+04  0.50400001928E-02 0. -1.
        1   -1    0    0  501    0  0.00000000000E+00  0.00000000000E+00 -0.99735181420E+03  0.99735181421E+03  0.50400001928E-02 0.  1.
    10030    2    1    2    0    0  0.00000000000E+00  0.00000000000E+00  0.87977870110E+03  0.28744823295E+04  0.27365376116E+04 0.  0.
        4    1    3    3  502    0 -0.74470902122E+03  0.15290706337E+03  0.16348580769E+04  0.18029793790E+04  0.12699999809E+01 0. -1.
       -4    1    3    3    0  502  0.74470902122E+03 -0.15290706337E+03 -0.75507937584E+03  0.10715029505E+04  0.12699999809E+01 0.  1.
</event>
<event>
 5   0  0.1276517E-05  0.2756791E+04  0.7818609E-02  0.8316810E-01
       -2   -1    0    0    0  501  0.00000000000E+00  0.00000000000E+00  0.10336447861E+04  0.10336447861E+04  0.25500000920E-02 0.  1.
        2   -1    0    0  501    0  0.00000000000E+00  0.00000000000E+00 -0.18381303204E+04  0.18381303204E+04  0.25500000920E-02 0. -1.
    10030    2    1    2    0    0  0.00000000000E+00  0.00000000000E+00 -0.80448553429E+03  0.28717751065E+04  0.27567907587E+04 0.  0.
        1    1    3    3  502    0 -0.13647181294E+04 -0.18670621275E+03 -0.45595942669E+03  0.14509354849E+04  0.50400001928E-02 0.  1.
       -1    1    3    3    0  502  0.13647181294E+04  0.18670621275E+03 -0.34852610760E+03  0.14208396216E+04  0.50400001928E-02 0. -1.
</event>
<event>
 5   0  0.1286641E-05  0.2671948E+04  0.7818609E-02  0.8344165E-01
       -2   -1    0    0    0  501  0.00000000000E+00  0.00000000000E+00  0.13470246376E+04  0.13470246376E+04  0.25500000920E-02 0.  1.
        2   -1    0    0  501    0  0.00000000000E+00  0.00000000000E+00 -0.13250139390E+04  0.13250139390E+04  0.25500000920E-02 0. -1.
    10030    2    1    2    0    0  0.00000000000E+00  0.00000000000E+00  0.22010698549E+02  0.26720385766E+04  0.26719479194E+04 0.  0.
        4    1    3    3  502    0  0.12015779081E+04 -0.37887191070E+03  0.45542048829E+03  0.13396801215E+04  0.12699999809E+01 0.  1.
       -4    1    3    3    0  502 -0.12015779081E+04  0.37887191070E+03 -0.43340978975E+03  0.13323584550E+04  0.12699999809E+01 0. -1.
</event>
<event>
 5   0  0.4824715E-06  0.2730021E+04  0.7818609E-02  0.8325329E-01
       -1   -1    0    0    0  501  0.00000000000E+00  0.00000000000E+00  0.15909497423E+04  0.15909497423E+04  0.50400001928E-02 0.  1.
        1   -1    0    0  501    0  0.00000000000E+00  0.00000000000E+00 -0.11711583791E+04  0.11711583791E+04  0.50400001928E-02 0. -1.
    10030    2    1    2    0    0  0.00000000000E+00  0.00000000000E+00  0.41979136316E+03  0.27621081214E+04  0.27300213343E+04 0.  0.
        5    1    3    3  502    0  0.11098820189E+04  0.66090849407E+03 -0.23641701618E+03  0.13132224598E+04  0.46999998093E+01 0. -1.
       -5    1    3    3    0  502 -0.11098820189E+04 -0.66090849407E+03  0.65620837934E+03  0.14488856616E+04  0.46999998093E+01 0.  1.
</event>
<event>
 5   0  0.1276517E-05  0.2758230E+04  0.7818609E-02  0.8316355E-01
        2   -1    0    0  501    0  0.00000000000E+00  0.00000000000E+00  0.14274700615E+04  0.14274700615E+04  0.25500000920E-02 0.  1.
       -2   -1    0    0    0  501  0.00000000000E+00  0.00000000000E+00 -0.13323980915E+04  0.13323980915E+04  0.25500000920E-02 0. -1.
    10030    2    1    2    0    0  0.00000000000E+00  0.00000000000E+00  0.95071969937E+02  0.27598681530E+04  0.27582301468E+04 0.  0.
        1    1    3    3  502    0 -0.10815552589E+04 -0.71799640986E+03  0.51329900669E+03  0.13959786864E+04  0.50400001928E-02 0.  1.
       -1    1    3    3    0  502  0.10815552589E+04  0.71799640986E+03 -0.41822703675E+03  0.13638894666E+04  0.50400001928E-02 0. -1.
</event>
<event>
 5   0  0.5152288E-06  0.2576998E+04  0.7818609E-02  0.8376057E-01
       -1   -1    0    0    0  501  0.00000000000E+00  0.00000000000E+00  0.16449395666E+04  0.16449395666E+04  0.50400001928E-02 0. -1.
        1   -1    0    0  501    0  0.00000000000E+00  0.00000000000E+00 -0.10092949104E+04  0.10092949104E+04  0.50400001928E-02 0.  1.
    10030    2    1    2    0    0  0.00000000000E+00  0.00000000000E+00  0.63564465618E+03  0.26542344770E+04  0.25769975805E+04 0.  0.
        3    1    3    3  502    0 -0.59014469664E+03  0.57694515801E+03 -0.70132546679E+03  0.10830484287E+04  0.10100000352E+00 0.  1.
       -3    1    3    3    0  502  0.59014469664E+03 -0.57694515801E+03  0.13369701230E+04  0.15711860483E+04  0.10100000352E+00 0. -1.
</event>
<event>
 5   0  0.4188000E-06  0.2684171E+04  0.7818609E-02  0.8340159E-01
       -3   -1    0    0    0  501  0.00000000000E+00  0.00000000000E+00  0.96927646950E+03  0.96927647476E+03  0.10100000352E+00 0.  1.
        3   -1    0    0  501    0  0.00000000000E+00  0.00000000000E+00 -0.18582859858E+04  0.18582859885E+04  0.10100000352E+00 0. -1.
    10030    2    1    2    0    0  0.00000000000E+00  0.00000000000E+00 -0.88900951629E+03  0.28275624633E+04  0.26841705542E+04 0.  0.
        2    1    3    3  502    0 -0.51813826953E+03  0.11513423804E+04 -0.92394033395E+03  0.15645198254E+04  0.25500000920E-02 0. -1.
       -2    1    3    3    0  502  0.51813826953E+03 -0.11513423804E+04  0.34930817663E+02  0.12630426379E+04  0.25500000920E-02 0.  1.
</event>
<event>
 5   0  0.4824715E-06  0.2616985E+04  0.7818609E-02  0.8362455E-01
       -1   -1    0    0    0  501  0.00000000000E+00  0.00000000000E+00  0.85371933788E+03  0.85371933790E+03  0.50400001928E-02 0.  1.
        1   -1    0    0  501    0  0.00000000000E+00  0.00000000000E+00 -0.20055209529E+04  0.20055209529E+04  0.50400001928E-02 0. -1.
    10030    2    1    2    0    0  0.00000000000E+00  0.00000000000E+00 -0.11518016150E+04  0.28592402908E+04  0.26169845396E+04 0.  0.
        5    1    3    3  502    0 -0.35987627417E+03 -0.11397014086E+04 -0.11578417778E+04  0.16640462451E+04  0.46999998093E+01 0. -1.
       -5    1    3    3    0  502  0.35987627417E+03  0.11397014086E+04  0.60401627705E+01  0.11951940457E+04  0.46999998093E+01 0.  1.
</event>
<event>
 5   0  0.4188000E-06  0.2691558E+04  0.7818609E-02  0.8337749E-01
        4   -1    0    0  501    0  0.00000000000E+00  0.00000000000E+00  0.17241428782E+04  0.17241433459E+04  0.12699999809E+01 0.  1.
       -4   -1    0    0    0  501  0.00000000000E+00  0.00000000000E+00 -0.10504460005E+04  0.10504467682E+04  0.12699999809E+01 0. -1.
    10030    2    1    2    0    0  0.00000000000E+00  0.00000000000E+00  0.67369687774E+03  0.27745901141E+04  0.26915576937E+04 0.  0.
        3    1    3    3  502    0 -0.14763673408E+03 -0.11051126273E+04 -0.44009336277E+03  0.11986461956E+04  0.10100000352E+00 0. -1.
       -3    1    3    3    0  502  0.14763673408E+03  0.11051126273E+04  0.11137902405E+04  0.15759439185E+04  0.10100000352E+00 0.  1.
</event>
<event>
 5   0  0.1261364E-05  0.2678582E+04  0.7818609E-02  0.8341988E-01
       -2   -1    0    0    0  501  0.00000000000E+00  0.00000000000E+00  0.82813552480E+03  0.82813552480E+03  0.25500000920E-02 0.  1.
        2   -1    0    0  501    0  0.00000000000E+00  0.00000000000E+00 -0.21659498015E+04  0.21659498015E+04  0.25500000920E-02 0. -1.
    10030    2    1    2    0    0  0.00000000000E+00  0.00000000000E+00 -0.13378142767E+04  0.29940853263E+04  0.26785816960E+04 0.  0.
        5    1    3    3  502    0 -0.42792115602E+03 -0.88883706306E+03 -0.16814339220E+04  0.19494588902E+04  0.46999998093E+01 0. -1.
       -5    1    3    3    0  502  0.42792115602E+03  0.88883706306E+03  0.34361964528E+03  0.10446264361E+04  0.46999998093E+01 0.  1.
</event>
<event>
 5   0  0.1220908E-05  0.2682526E+04  0.7818609E-02  0.8340697E-01
        2   -1    0    0  501    0  0.00000000000E+00  0.00000000000E+00  0.14245655190E+04  0.14245655190E+04  0.25500000920E-02 0.  1.
       -2   -1    0    0    0  501  0.00000000000E+00  0.00000000000E+00 -0.12628312810E+04  0.12628312810E+04  0.25500000920E-02 0. -1.
    10030    2    1    2    0    0  0.00000000000E+00  0.00000000000E+00  0.16173423801E+03  0.26873968000E+04  0.26825256004E+04 0.  0.
        2    1    3    3  502    0  0.36479690307E+03  0.84422454737E+03 -0.89722233833E+03  0.12848345385E+04  0.25500000920E-02 0. -1.
       -2    1    3    3    0  502 -0.36479690307E+03 -0.84422454737E+03  0.10589565763E+04  0.14025622615E+04  0.25500000920E-02 0.  1.
</event>
<event>
 5   0  0.4826140E-06  0.2585571E+04  0.7818609E-02  0.8373119E-01
        1   -1    0    0  501    0  0.00000000000E+00  0.00000000000E+00  0.18212672496E+04  0.18212672496E+04  0.50400001928E-02 0.  1.
       -1   -1    0    0    0  501  0.00000000000E+00  0.00000000000E+00 -0.91765465164E+03  0.91765465165E+03  0.50400001928E-02 0. -1.
    10030    2    1    2    0    0  0.00000000000E+00  0.00000000000E+00  0.90361259793E+03  0.27389219012E+04  0.25855710112E+04 0.  0.
        1    1    3    3  502    0  0.74888222576E+03  0.55693262192E+03 -0.49584476787E+03  0.10568162410E+04  0.50400001928E-02 0. -1.
       -1    1    3    3    0  502 -0.74888222576E+03 -0.55693262192E+03  0.13994573658E+04  0.16821056602E+04  0.50400001928E-02 0.  1.
</event>
<event>
 5   0  0.1261364E-05  0.2700585E+04  0.7818609E-02  0.8334815E-01
        2   -1    0    0  501    0  0.00000000000E+00  0.00000000000E+00  0.17924436508E+04  0.17924436508E+04  0.25500000920E-02 0. -1.
       -2   -1    0    0    0  501  0.00000000000E+00  0.00000000000E+00 -0.10172087427E+04  0.10172087427E+04  0.25500000920E-02 0.  1.
    10030    2    1    2    0    0  0.00000000000E+00  0.00000000000E+00  0.77523490810E+03  0.28096523934E+04  0.27005846421E+04 0.  0.
        5    1    3    3  502    0  0.73554697376E+03  0.38828995625E+03 -0.71904734203E+03  0.10994769715E+04  0.46999998093E+01 0.  1.
       -5    1    3    3    0  502 -0.73554697376E+03 -0.38828995625E+03  0.14942822501E+04  0.17101754219E+04  0.46999998093E+01 0. -1.
</event>
<event>
 5   0  0.4824715E-06  0.2699817E+04  0.7818609E-02  0.8335064E-01
       -1   -1    0    0    0  501  0.00000000000E+00  0.00000000000E+00  0.10536677844E+04  0.10536677844E+04  0.50400001928E-02 0.  1.
        1   -1    0    0  501    0  0.00000000000E+00  0.00000000000E+00 -0.17294373836E+04  0.17294373836E+04  0.50400001928E-02 0. -1.
    10030    2    1    2    0    0  0.00000000000E+00  0.00000000000E+00 -0.67576959925E+03  0.27831051680E+04  0.26998166280E+04 0.  0.
        5    1    3    3  502    0  0.11712357913E+04  0.64393528425E+03 -0.14288128202E+03  0.13442035113E+04  0.46999998093E+01 0.  1.
       -5    1    3    3    0  502 -0.11712357913E+04 -0.64393528425E+03 -0.53288831723E+03  0.14389016567E+04  0.46999998093E+01 0. -1.
</event>
<event>
 5   0  0.1232559E-05  0.2631318E+04  0.7818609E-02  0.8357640E-01
       -2   -1    0    0    0  501  0.00000000000E+00  0.00000000000E+00  0.96618913153E+03  0.96618913154E+03  0.25500000920E-02 0.  1.
        2   -1    0    0  501    0  0.00000000000E+00  0.00000000000E+00 -0.17915320632E+04  0.17915320632E+04  0.25500000920E-02 0. -1.
    10030    2    1    2    0    0  0.00000000000E+00  0.00000000000E+00 -0.82534293163E+03  0.27577211947E+04  0.26313181550E+04 0.  0.
        3    1    3    3  502    0  0.51764519226E+03  0.21318734409E+03 -0.16604764331E+04  0.17523091576E+04  0.10100000352E+00 0. -1.
       -3    1    3    3    0  502 -0.51764519226E+03 -0.21318734409E+03  0.83513350150E+03  0.10054120371E+04  0.10100000352E+00 0.  1.
</event>
<event>
 5   0  0.1261364E-05  0.2721297E+04  0.7818609E-02  0.8328128E-01
       -2   -1    0    0    0  501  0.00000000000E+00  0.00000000000E+00  0.11561221566E+04  0.11561221566E+04  0.25500000920E-02 0. -1.
        2   -1    0    0  501    0  0.00000000000E+00  0.00000000000E+00 -0.16013574210E+04  0.16013574210E+04  0.25500000920E-02 0.  1.
    10030    2    1    2    0    0  0.00000000000E+00  0.00000000000E+00 -0.44523526439E+03  0.27574795776E+04  0.27212973341E+04 0.  0.
        5    1    3    3  502    0  0.63672844029E+03 -0.50787213963E+03  0.88182172938E+03  0.12004119582E+04  0.46999998093E+01 0. -1.
       -5    1    3    3    0  502 -0.63672844029E+03  0.50787213963E+03 -0.13270569938E+04  0.15570676195E+04  0.46999998093E+01 0.  1.
</event>
<event>
 5   0  0.4756800E-06  0.2700379E+04  0.7818609E-02  0.8334882E-01
       -1   -1    0    0    0  501  0.00000000000E+00  0.00000000000E+00  0.17843779012E+04  0.17843779012E+04  0.50400001928E-02 0.  1.
        1   -1    0    0  501    0  0.00000000000E+00  0.00000000000E+00 -0.10216510476E+04  0.10216510476E+04  0.50400001928E-02 0. -1.
    10030    2    1    2    0    0  0.00000000000E+00  0.00000000000E+00  0.76272685364E+03  0.28060289489E+04  0.27003789009E+04 0.  0.
        4    1    3    3  502    0 -0.50790757554E+03 -0.49963562112E+02  0.16802866938E+04  0.17560841236E+04  0.12699999809E+01 0.  1.
       -4    1    3    3    0  502  0.50790757554E+03  0.49963562112E+02 -0.91755984019E+03  0.10499448252E+04  0.12699999809E+01 0. -1.
</event>
<event>
 5   0  0.1232559E-05  0.2732345E+04  0.7818609E-02  0.8324586E-01
        2   -1    0    0  501    0  0.00000000000E+00  0.00000000000E+00  0.14993971182E+04  0.14993971182E+04  0.25500000920E-02 0.  1.
       -2   -1    0    0    0  501  0.00000000000E+00  0.00000000000E+00 -0.12447851777E+04  0.12447851777E+04  0.25500000920E-02 0. -1.
    10030    2    1    2    0    0  0.00000000000E+00  0.00000000000E+00  0.25461194046E+03  0.27441822959E+04  0.27323450062E+04 0.  0.
        3    1    3    3  502    0 -0.55332832338E+03  0.57510034998E+03  0.12409445729E+04  0.14754172593E+04  0.10100000352E+00 0.  1.
       -3    1    3    3    0  502  0.55332832338E+03 -0.57510034998E+03 -0.98633263240E+03  0.12687650365E+04  0.10100000352E+00 0. -1.
</event>
<event>
 5   0  0.1220908E-05  0.2701724E+04  0.7818609E-02  0.8334446E-01
        2   -1    0    0  501    0  0.00000000000E+00  0.00000000000E+00  0.19665349329E+04  0.19665349329E+04  0.25500000920E-02 0. -1.
       -2   -1    0    0    0  501  0.00000000000E+00  0.00000000000E+00 -0.92794073004E+03  0.92794073004E+03  0.25500000920E-02 0.  1.
    10030    2    1    2    0    0  0.00000000000E+00  0.00000000000E+00  0.10385942028E+04  0.28944756629E+04  0.27017237914E+04 0.  0.
        2    1    3    3  502    0 -0.85138102532E+03  0.39067917894E+03  0.15620555666E+04  0.18213998639E+04  0.25500000920E-02 0. -1.
       -2    1    3    3    0  502  0.85138102532E+03 -0.39067917894E+03 -0.52346136374E+03  0.10730757990E+04  0.25500000920E-02 0.  1.
</event>
<event>
 5   0  0.1286641E-05  0.2697709E+04  0.7818609E-02  0.8335749E-01
       -2   -1    0    0    0  501  0.00000000000E+00  0.00000000000E+00  0.11754791989E+04  0.11754791989E+04  0.25500000920E-02 0. -1.
        2   -1    0    0  501    0  0.00000000000E+00  0.00000000000E+00 -0.15478011671E+04  0.15478011671E+04  0.25500000920E-02 0.  1.
    10030    2    1    2    0    0  0.00000000000E+00  0.00000000000E+00 -0.37232196816E+03  0.27232803660E+04  0.26977087137E+04 0.  0.
        4    1    3    3  502    0  0.82441991881E+03 -0.13871083538E+03  0.88240847823E+03  0.12155472980E+04  0.12699999809E+01 0. -1.
       -4    1    3    3    0  502 -0.82441991881E+03  0.13871083538E+03 -0.12547304464E+04  0.15077330680E+04  0.12699999809E+01 0.  1.
</event>
<event>
 5   0  0.1261364E-05  0.2632475E+04  0.7818609E-02  0.8357253E-01
       -2   -1    0    0    0  501  0.00000000000E+00  0.00000000000E+00  0.10644033892E+04  0.10644033892E+04  0.25500000920E-02 0.  1.
        2   -1    0    0  501    0  0.00000000000E+00  0.00000000000E+00 -0.16276544168E+04  0.16276544168E+04  0.25500000920E-02 0. -1.
    10030    2    1    2    0    0  0.00000000000E+00  0.00000000000E+00 -0.56325102763E+03  0.26920578060E+04  0.26324747883E+04 0.  0.
        5    1    3    3  502    0 -0.10459634831E+04 -0.55158924195E+03  0.30953158272E+03  0.12223429103E+04  0.46999998093E+01 0. -1.
       -5    1    3    3    0  502  0.10459634831E+04  0.55158924195E+03 -0.87278261036E+03  0.14697148957E+04  0.46999998093E+01 0.  1.
</event>
<event>
 5   0  0.1276517E-05  0.2675674E+04  0.7818609E-02  0.8342941E-01
        2   -1    0    0  501    0  0.00000000000E+00  0.00000000000E+00  0.15298351873E+04  0.15298351873E+04  0.25500000920E-02 0.  1.
       -2   -1    0    0    0  501  0.00000000000E+00  0.00000000000E+00 -0.11699353622E+04  0.11699353622E+04  0.25500000920E-02 0. -1.
    10030    2    1    2    0    0  0.00000000000E+00  0.00000000000E+00  0.35989982512E+03  0.26997705495E+04  0.26756743329E+04 0.  0.
        1    1    3    3  502    0  0.12825234512E+04  0.36027536862E+03  0.30411723208E+03  0.13664377172E+04  0.50400001928E-02 0.  1.
       -1    1    3    3    0  502 -0.12825234512E+04 -0.36027536862E+03  0.55782593040E+02  0.13333328323E+04  0.50400001928E-02 0. -1.
</event>
<event>
 5   0  0.1276517E-05  0.2688110E+04  0.7818609E-02  0.8338873E-01
       -2   -1    0    0    0  501  0.00000000000E+00  0.00000000000E+00  0.14764588359E+04  0.14764588359E+04  0.25500000920E-02 0. -1.
        2   -1    0    0  501    0  0.00000000000E+00  0.00000000000E+00 -0.12235246556E+04  0.12235246556E+04  0.25500000920E-02 0.  1.
    10030    2    1    2    0    0  0.00000000000E+00  0.00000000000E+00  0.25293418029E+03  0.26999834915E+04  0.26881099596E+04 0.  0.
        1    1    3    3  502    0 -0.68010542167E+03 -0.61213665265E+03 -0.86237582507E+03  0.12573570415E+04  0.50400001928E-02 0.  1.
       -1    1    3    3    0  502  0.68010542167E+03  0.61213665265E+03  0.11153100054E+04  0.14426264500E+04  0.50400001928E-02 0. -1.
</event>
<event>
 5   0  0.4826140E-06  0.2684779E+04  0.7818609E-02  0.8339961E-01
       -1   -1    0    0    0  501  0.00000000000E+00  0.00000000000E+00  0.17368245160E+04  0.17368245160E+04  0.50400001928E-02 0. -1.
        1   -1    0    0  501    0  0.00000000000E+00  0.00000000000E+00 -0.10375308091E+04  0.10375308091E+04  0.50400001928E-02 0.  1.
    10030    2    1    2    0    0  0.00000000000E+00  0.00000000000E+00  0.69929370682E+03  0.27743553251E+04  0.26847785349E+04 0.  0.
        1    1    3    3  502    0  0.26167070521E+03 -0.12404170379E+04 -0.10656107899E+03  0.12721875842E+04  0.50400001928E-02 0.  1.
       -1    1    3    3    0  502 -0.26167070521E+03  0.12404170379E+04  0.80585478581E+03  0.15021677409E+04  0.50400001928E-02 0. -1.
</event>
<event>
 5   0  0.4846214E-06  0.2613006E+04  0.7818609E-02  0.8363797E-01
        1   -1    0    0  501    0  0.00000000000E+00  0.00000000000E+00  0.10723959607E+04  0.10723959607E+04  0.50400001928E-02 0.  1.
       -1   -1    0    0    0  501  0.00000000000E+00  0.00000000000E+00 -0.15917156630E+04  0.15917156630E+04  0.50400001928E-02 0. -1.
    10030    2    1    2    0    0  0.00000000000E+00  0.00000000000E+00 -0.51931970236E+03  0.26641116237E+04  0.26130055091E+04 0.  0.
        2    1    3    3  502    0 -0.97384058311E+03 -0.39359424263E+03  0.53249667306E+03  0.11776394253E+04  0.25500000920E-02 0.  1.
       -2    1    3    3    0  502  0.97384058311E+03  0.39359424263E+03 -0.10518163754E+04  0.14864721984E+04  0.25500000920E-02 0. -1.
</event>
<event>
 5   0  0.1276517E-05  0.2565028E+04  0.7818609E-02  0.8380178E-01
        2   -1    0    0  501    0  0.00000000000E+00  0.00000000000E+00  0.24514638121E+04  0.24514638121E+04  0.25500000920E-02 0.  1.
       -2   -1    0    0    0  501  0.00000000000E+00  0.00000000000E+00 -0.67096340042E+03  0.67096340043E+03  0.25500000920E-02 0. -1.
    10030    2    1    2    0    0  0.00000000000E+00  0.00000000000E+00  0.17805004117E+04  0.31224272125E+04  0.25650282614E+04 0.  0.
        1    1    3    3  502    0 -0.23330242308E+03  0.32671283123E+03 -0.59250344526E+03  0.71570358905E+03  0.50400001928E-02 0. -1.
       -1    1    3    3    0  502  0.23330242308E+03 -0.32671283123E+03  0.23730038570E+04  0.24067236235E+04  0.50400001928E-02 0.  1.
</event>
<event>
 5   0  0.4824715E-06  0.2701366E+04  0.7818609E-02  0.8334562E-01
        1   -1    0    0  501    0  0.00000000000E+00  0.00000000000E+00  0.13893909290E+04  0.13893909290E+04  0.50400001928E-02 0.  1.
       -1   -1    0    0    0  501  0.00000000000E+00  0.00000000000E+00 -0.13130537334E+04  0.13130537334E+04  0.50400001928E-02 0. -1.
    10030    2    1    2    0    0  0.00000000000E+00  0.00000000000E+00  0.76337195606E+02  0.27024446624E+04  0.27013662814E+04 0.  0.
        5    1    3    3  502    0 -0.99604501175E+03 -0.44380842669E+03 -0.75917609260E+03  0.13286993695E+04  0.46999998093E+01 0. -1.
       -5    1    3    3    0  502  0.99604501175E+03  0.44380842669E+03  0.83551328820E+03  0.13737452929E+04  0.46999998093E+01 0.  1.
</event>
<event>
 5   0  0.1261364E-05  0.2694228E+04  0.7818609E-02  0.8336880E-01
       -2   -1    0    0    0  501  0.00000000000E+00  0.00000000000E+00  0.84306152675E+03  0.84306152676E+03  0.25500000920E-02 0.  1.
        2   -1    0    0  501    0  0.00000000000E+00  0.00000000000E+00 -0.21525311061E+04  0.21525311061E+04  0.25500000920E-02 0. -1.
    10030    2    1    2    0    0  0.00000000000E+00  0.00000000000E+00 -0.13094695793E+04  0.29955926328E+04  0.26942280235E+04 0.  0.
        5    1    3    3  502    0 -0.86306807868E+03 -0.71937354972E+03  0.17156866104E+03  0.11365925866E+04  0.46999998093E+01 0.  1.
       -5    1    3    3    0  502  0.86306807868E+03  0.71937354972E+03 -0.14810382404E+04  0.18590000462E+04  0.46999998093E+01 0. -1.
</event>
<event>
 5   0  0.5152288E-06  0.2649081E+04  0.7818609E-02  0.8351718E-01
       -1   -1    0    0    0  501  0.00000000000E+00  0.00000000000E+00  0.14230400341E+04  0.14230400341E+04  0.50400001928E-02 0.  1.
        1   -1    0    0  501    0  0.00000000000E+00  0.00000000000E+00 -0.12328589282E+04  0.12328589283E+04  0.50400001928E-02 0. -1.
    10030    2    1    2    0    0  0.00000000000E+00  0.00000000000E+00  0.19018110589E+03  0.26558989624E+04  0.26490810568E+04 0.  0.
        3    1    3    3  502    0 -0.10481879795E+04 -0.74513348219E+03  0.41290112145E+03  0.13507069604E+04  0.10100000352E+00 0.  1.
       -3    1    3    3    0  502  0.10481879795E+04  0.74513348219E+03 -0.22272001556E+03  0.13051920020E+04  0.10100000352E+00 0. -1.
</event>
<event>
 5   0  0.1220908E-05  0.2709358E+04  0.7818609E-02  0.8331975E-01
        2   -1    0    0  501    0  0.00000000000E+00  0.00000000000E+00  0.17556907655E+04  0.17556907655E+04  0.25500000920E-02 0.  1.
       -2   -1    0    0    0  501  0.00000000000E+00  0.00000000000E+00 -0.10452607135E+04  0.10452607135E+04  0.25500000920E-02 0. -1.
    10030    2    1    2    0    0  0.00000000000E+00  0.00000000000E+00  0.71043005198E+03  0.28009514790E+04  0.27093575492E+04 0.  0.
        2    1    3    3  502    0  0.12495643929E+04 -0.49107132965E+03  0.54185177690E+03  0.14478140664E+04  0.25500000920E-02 0.  1.
       -2    1    3    3    0  502 -0.12495643929E+04  0.49107132965E+03  0.16857827508E+03  0.13531374127E+04  0.25500000920E-02 0. -1.
</event>
<event>
 5   0  0.4756800E-06  0.2712828E+04  0.7818609E-02  0.8330855E-01
       -1   -1    0    0    0  501  0.00000000000E+00  0.00000000000E+00  0.12445077064E+04  0.12445077064E+04  0.50400001928E-02 0. -1.
        1   -1    0    0  501    0  0.00000000000E+00  0.00000000000E+00 -0.14783826267E+04  0.14783826267E+04  0.50400001928E-02 0.  1.
    10030    2    1    2    0    0  0.00000000000E+00  0.00000000000E+00 -0.23387492031E+03  0.27228903331E+04  0.27128277291E+04 0.  0.
        4    1    3    3  502    0 -0.52787413436E+03  0.62567892740E+03  0.96861563720E+03  0.12682046710E+04  0.12699999809E+01 0. -1.
       -4    1    3    3    0  502  0.52787413436E+03 -0.62567892740E+03 -0.12024905575E+04  0.14546856622E+04  0.12699999809E+01 0.  1.
</event>
<event>
 5   0  0.4824715E-06  0.2954317E+04  0.7818609E-02  0.8256897E-01
        1   -1    0    0  501    0  0.00000000000E+00  0.00000000000E+00  0.14989810528E+04  0.14989810528E+04  0.50400001928E-02 0. -1.
       -1   -1    0    0    0  501  0.00000000000E+00  0.00000000000E+00 -0.14556541306E+04  0.14556541306E+04  0.50400001928E-02 0.  1.
    10030    2    1    2    0    0  0.00000000000E+00  0.00000000000E+00  0.43326922213E+02  0.29546351834E+04  0.29543174922E+04 0.  0.
        5    1    3    3  502    0 -0.13995422590E+04  0.26766005592E+03  0.41108359486E+03  0.14830280685E+04  0.46999998093E+01 0. -1.
       -5    1    3    3    0  502  0.13995422590E+04 -0.26766005592E+03 -0.36775667264E+03  0.14716071148E+04  0.46999998093E+01 0.  1.
</event>
<event>
 5   0  0.4826140E-06  0.2714414E+04  0.7818609E-02  0.8330343E-01
       -1   -1    0    0    0  501  0.00000000000E+00  0.00000000000E+00  0.14684086605E+04  0.14684086605E+04  0.50400001928E-02 0.  1.
        1   -1    0    0  501    0  0.00000000000E+00  0.00000000000E+00 -0.12544266968E+04  0.12544266969E+04  0.50400001928E-02 0. -1.
    10030    2    1    2    0    0  0.00000000000E+00  0.00000000000E+00  0.21398196367E+03  0.27228353574E+04  0.27144141362E+04 0.  0.
        1    1    3    3  502    0 -0.27957503747E+03 -0.11867030721E+04 -0.49116819663E+03  0.13144095938E+04  0.50400001928E-02 0. -1.
       -1    1    3    3    0  502  0.27957503747E+03  0.11867030721E+04  0.70515016030E+03  0.14084257636E+04  0.50400001928E-02 0.  1.
</event>
<event>
 5   0  0.4846214E-06  0.2269340E+04  0.7818609E-02  0.8490109E-01
        1   -1    0    0  501    0  0.00000000000E+00  0.00000000000E+00  0.17568459224E+04  0.17568459224E+04  0.50400001928E-02 0. -1.
       -1   -1    0    0    0  501  0.00000000000E+00  0.00000000000E+00 -0.73283387025E+03  0.73283387027E+03  0.50400001928E-02 0.  1.
    10030    2    1    2    0    0  0.00000000000E+00  0.00000000000E+00  0.10240120521E+04  0.24896797927E+04  0.22693401656E+04 0.  0.
        2    1    3    3  502    0  0.52441204547E+03  0.32783081389E+03  0.15556852134E+04  0.16741079771E+04  0.25500000920E-02 0. -1.
       -2    1    3    3    0  502 -0.52441204547E+03 -0.32783081389E+03 -0.53167316121E+03  0.81557181556E+03  0.25500000920E-02 0.  1.
</event>
<event>
 5   0  0.1232559E-05  0.2670047E+04  0.7818609E-02  0.8344789E-01
       -2   -1    0    0    0  501  0.00000000000E+00  0.00000000000E+00  0.11447144897E+04  0.11447144897E+04  0.25500000920E-02 0. -1.
        2   -1    0    0  501    0  0.00000000000E+00  0.00000000000E+00 -0.15569719243E+04  0.15569719243E+04  0.25500000920E-02 0.  1.
    10030    2    1    2    0    0  0.00000000000E+00  0.00000000000E+00 -0.41225743459E+03  0.27016864141E+04  0.26700474317E+04 0.  0.
        3    1    3    3  502    0 -0.44671648110E+03 -0.96352461206E+03 -0.10246350008E+04  0.14757412333E+04  0.10100000352E+00 0.  1.
       -3    1    3    3    0  502  0.44671648110E+03  0.96352461206E+03  0.61237756621E+03  0.12259451808E+04  0.10100000352E+00 0. -1.
</event>
<event>
 5   0  0.1276517E-05  0.2659715E+04  0.7818609E-02  0.8348196E-01
       -2   -1    0    0    0  501  0.00000000000E+00  0.00000000000E+00  0.85761329151E+03  0.85761329151E+03  0.25500000920E-02 0. -1.
        2   -1    0    0  501    0  0.00000000000E+00  0.00000000000E+00 -0.20621420250E+04  0.20621420250E+04  0.25500000920E-02 0.  1.
    10030    2    1    2    0    0  0.00000000000E+00  0.00000000000E+00 -0.12045287335E+04  0.29197553165E+04  0.26597145784E+04 0.  0.
        1    1    3    3  502    0  0.51416022971E+03  0.11216108463E+04 -0.11469052840E+04  0.16845662240E+04  0.50400001928E-02 0. -1.
       -1    1    3    3    0  502 -0.51416022971E+03 -0.11216108463E+04 -0.57623449540E+02  0.12351890926E+04  0.50400001928E-02 0.  1.
</event>
<event>
 5   0  0.4846214E-06  0.2678386E+04  0.7818609E-02  0.8342052E-01
        1   -1    0    0  501    0  0.00000000000E+00  0.00000000000E+00  0.12014319004E+04  0.12014319004E+04  0.50400001928E-02 0. -1.
       -1   -1    0    0    0  501  0.00000000000E+00  0.00000000000E+00 -0.14927505812E+04  0.14927505812E+04  0.50400001928E-02 0.  1.
    10030    2    1    2    0    0  0.00000000000E+00  0.00000000000E+00 -0.29131868079E+03  0.26941824817E+04  0.26783862064E+04 0.  0.
        2    1    3    3  502    0  0.93252993585E+03 -0.88847385104E+03 -0.51448280960E+03  0.13869716748E+04  0.25500000920E-02 0. -1.
       -2    1    3    3    0  502 -0.93252993585E+03  0.88847385104E+03  0.22316412881E+03  0.13072108069E+04  0.25500000920E-02 0.  1.
</event>
<event>
 5   0  0.4756800E-06  0.2695734E+04  0.7818609E-02  0.8336390E-01
        1   -1    0    0  501    0  0.00000000000E+00  0.00000000000E+00  0.14260545950E+04  0.14260545950E+04  0.50400001928E-02 0.  1.
       -1   -1    0    0    0  501  0.00000000000E+00  0.00000000000E+00 -0.12739662450E+04  0.12739662451E+04  0.50400001928E-02 0. -1.
    10030    2    1    2    0    0  0.00000000000E+00  0.00000000000E+00  0.15208834995E+03  0.27000208401E+04  0.26957339762E+04 0.  0.
        4    1    3    3  502    0  0.42339543807E+02  0.98755662191E+03  0.99384361107E+03  0.14017087624E+04  0.12699999809E+01 0.  1.
       -4    1    3    3    0  502 -0.42339543807E+02 -0.98755662191E+03 -0.84175526112E+03  0.12983120776E+04  0.12699999809E+01 0. -1.
</event>
<event>
 5   0  0.5152288E-06  0.2689246E+04  0.7818609E-02  0.8338503E-01
       -1   -1    0    0    0  501  0.00000000000E+00  0.00000000000E+00  0.13304809059E+04  0.13304809059E+04  0.50400001928E-02 0. -1.
        1   -1    0    0  501    0  0.00000000000E+00  0.00000000000E+00 -0.13589152968E+04  0.13589152968E+04  0.50400001928E-02 0.  1.
    10030    2    1    2    0    0  0.00000000000E+00  0.00000000000E+00 -0.28434390931E+02  0.26893962027E+04  0.26892458832E+04 0.  0.
        3    1    3    3  502    0  0.62725053619E+03 -0.28370049637E+03 -0.11693062757E+04  0.13569106026E+04  0.10100000352E+00 0.  1.
       -3    1    3    3    0  502 -0.62725053619E+03  0.28370049637E+03  0.11408718848E+04  0.13324856001E+04  0.10100000352E+00 0. -1.
</event>
<event>
 5   0  0.4756800E-06  0.2698766E+04  0.7818609E-02  0.8335406E-01
        1   -1    0    0  501    0  0.00000000000E+00  0.00000000000E+00  0.31873615093E+04  0.31873615093E+04  0.50400001928E-02 0.  1.
       -1   -1    0    0    0  501  0.00000000000E+00  0.00000000000E+00 -0.57126688466E+03  0.57126688469E+03  0.50400001928E-02 0. -1.
    10030    2    1    2    0    0  0.00000000000E+00  0.00000000000E+00  0.26160946247E+04  0.37586283940E+04  0.26987657029E+04 0.  0.
        4    1    3    3  502    0  0.97215304413E+03  0.57680150588E+03  0.23343713394E+04  0.25936600937E+04  0.12699999809E+01 0.  1.
       -4    1    3    3    0  502 -0.97215304413E+03 -0.57680150588E+03  0.28172328523E+03  0.11649683003E+04  0.12699999809E+01 0. -1.
</event>
<event>
 5   0  0.1220908E-05  0.2655688E+04  0.7818609E-02  0.8349528E-01
       -2   -1    0    0    0  501  0.00000000000E+00  0.00000000000E+00  0.19001986070E+04  0.19001986070E+04  0.25500000920E-02 0. -1.
        2   -1    0    0  501    0  0.00000000000E+00  0.00000000000E+00 -0.92788706774E+03  0.92788706775E+03  0.25500000920E-02 0.  1.
    10030    2    1    2    0    0  0.00000000000E+00  0.00000000000E+00  0.97231153922E+03  0.28280856747E+04  0.26556880190E+04 0.  0.
        2    1    3    3  502    0 -0.38303397581E+03  0.13315002293E+02 -0.86770329637E+03  0.94857858212E+03  0.25500000920E-02 0.  1.
       -2    1    3    3    0  502  0.38303397581E+03 -0.13315002293E+02  0.18400148356E+04  0.18795070926E+04  0.25500000920E-02 0. -1.
</event>
<event>
 5   0  0.1276517E-05  0.2817071E+04  0.7818609E-02  0.8297988E-01
        2   -1    0    0  501    0  0.00000000000E+00  0.00000000000E+00  0.12525549480E+04  0.12525549480E+04  0.25500000920E-02 0.  1.
       -2   -1    0    0    0  501  0.00000000000E+00  0.00000000000E+00 -0.15839407966E+04  0.15839407966E+04  0.25500000920E-02 0. -1.
    10030    2    1    2    0    0  0.00000000000E+00  0.00000000000E+00 -0.33138584863E+03  0.28364957446E+04  0.28170714454E+04 0.  0.
        1    1    3    3  502    0 -0.14278585430E+03  0.80514172866E+03 -0.13204800881E+04  0.15531608631E+04  0.50400001928E-02 0. -1.
       -1    1    3    3    0  502  0.14278585430E+03 -0.80514172866E+03  0.98909423950E+03  0.12833348815E+04  0.50400001928E-02 0.  1.
</event>
<event>
 5   0  0.4826140E-06  0.2710612E+04  0.7818609E-02  0.8331570E-01
        1   -1    0    0  501    0  0.00000000000E+00  0.00000000000E+00  0.19309940488E+04  0.19309940488E+04  0.50400001928E-02 0. -1.
       -1   -1    0    0    0  501  0.00000000000E+00  0.00000000000E+00 -0.95124780982E+03  0.95124780983E+03  0.50400001928E-02 0.  1.
    10030    2    1    2    0    0  0.00000000000E+00  0.00000000000E+00  0.97974623899E+03  0.28822418586E+04  0.27106116356E+04 0.  0.
        1    1    3    3  502    0  0.10338068371E+03 -0.61229300617E+03  0.17708351872E+04  0.18765520381E+04  0.50400001928E-02 0. -1.
       -1    1    3    3    0  502 -0.10338068371E+03  0.61229300617E+03 -0.79108894824E+03  0.10056898206E+04  0.50400001928E-02 0.  1.
</event>
<event>
 5   0  0.1220908E-05  0.2736893E+04  0.7818609E-02  0.8323133E-01
       -2   -1    0    0    0  501  0.00000000000E+00  0.00000000000E+00  0.10191603129E+04  0.10191603129E+04  0.25500000920E-02 0.  1.
        2   -1    0    0  501    0  0.00000000000E+00  0.00000000000E+00 -0.18374405500E+04  0.18374405500E+04  0.25500000920E-02 0. -1.
    10030    2    1    2    0    0  0.00000000000E+00  0.00000000000E+00 -0.81828023707E+03  0.28566008629E+04  0.27368934841E+04 0.  0.
        2    1    3    3  502    0  0.86338611036E+03  0.10610109428E+04 -0.44911256774E+03  0.14397506363E+04  0.25500000920E-02 0. -1.
       -2    1    3    3    0  502 -0.86338611036E+03 -0.10610109428E+04 -0.36916766933E+03  0.14168502265E+04  0.25500000920E-02 0.  1.
</event>
<event>
 5   0  0.5152288E-06  0.2693397E+04  0.7818609E-02  0.8337150E-01
       -1   -1    0    0    0  501  0.00000000000E+00  0.00000000000E+00  0.70478125546E+03  0.70478125548E+03  0.50400001928E-02 0. -1.
        1   -1    0    0  501    0  0.00000000000E+00  0.00000000000E+00 -0.25732770186E+04  0.25732770186E+04  0.50400001928E-02 0.  1.
    10030    2    1    2    0    0  0.00000000000E+00  0.00000000000E+00 -0.18684957631E+04  0.32780582741E+04  0.26933974143E+04 0.  0.
        3    1    3    3  502    0 -0.17788431135E+03  0.11476170483E+04 -0.17641175023E+04  0.21120554656E+04  0.10100000352E+00 0.  1.
       -3    1    3    3    0  502  0.17788431135E+03 -0.11476170483E+04 -0.10437826082E+03  0.11660028084E+04  0.10100000352E+00 0. -1.
</event>
<event>
 5   0  0.1276517E-05  0.2665921E+04  0.7818609E-02  0.8346148E-01
       -2   -1    0    0    0  501  0.00000000000E+00  0.00000000000E+00  0.99973402438E+03  0.99973402438E+03  0.25500000920E-02 0.  1.
        2   -1    0    0  501    0  0.00000000000E+00  0.00000000000E+00 -0.17772559664E+04  0.17772559664E+04  0.25500000920E-02 0. -1.
    10030    2    1    2    0    0  0.00000000000E+00  0.00000000000E+00 -0.77752194198E+03  0.27769899907E+04  0.26659206737E+04 0.  0.
        1    1    3    3  502    0 -0.18597233558E+03  0.11070110847E+04 -0.11375447231E+04  0.15981449397E+04  0.50400001928E-02 0. -1.
       -1    1    3    3    0  502  0.18597233558E+03 -0.11070110847E+04  0.36002278111E+03  0.11788450510E+04  0.50400001928E-02 0.  1.
</event>
<event>
 5   0  0.5152288E-06  0.2690724E+04  0.7818609E-02  0.8338021E-01
        1   -1    0    0  501    0  0.00000000000E+00  0.00000000000E+00  0.15115016054E+04  0.15115016054E+04  0.50400001928E-02 0. -1.
       -1   -1    0    0    0  501  0.00000000000E+00  0.00000000000E+00 -0.11974842500E+04  0.11974842500E+04  0.50400001928E-02 0.  1.
    10030    2    1    2    0    0  0.00000000000E+00  0.00000000000E+00  0.31401735541E+03  0.27089858554E+04  0.26907243384E+04 0.  0.
        3    1    3    3  502    0  0.86958523538E+03 -0.68502911646E+03  0.92676025188E+03  0.14437201760E+04  0.10100000352E+00 0. -1.
       -3    1    3    3    0  502 -0.86958523538E+03  0.68502911646E+03 -0.61274289648E+03  0.12652656794E+04  0.10100000352E+00 0.  1.
</event>
<event>
 5   0  0.1261364E-05  0.2699299E+04  0.7818609E-02  0.8335232E-01
        2   -1    0    0  501    0  0.00000000000E+00  0.00000000000E+00  0.22484863615E+04  0.22484863615E+04  0.25500000920E-02 0. -1.
       -2   -1    0    0    0  501  0.00000000000E+00  0.00000000000E+00 -0.81012459454E+03  0.81012459455E+03  0.25500000920E-02 0.  1.
    10030    2    1    2    0    0  0.00000000000E+00  0.00000000000E+00  0.14383617670E+04  0.30586109561E+04  0.26992992439E+04 0.  0.
        5    1    3    3  502    0 -0.14448102804E+03  0.33899791687E+03 -0.75200720858E+03  0.83745524469E+03  0.46999998093E+01 0.  1.
       -5    1    3    3    0  502  0.14448102804E+03 -0.33899791687E+03  0.21903689756E+04  0.22211557114E+04  0.46999998093E+01 0. -1.
</event>
<event>
 5   0  0.1276517E-05  0.2770456E+04  0.7818609E-02  0.8312500E-01
        2   -1    0    0  501    0  0.00000000000E+00  0.00000000000E+00  0.86785828706E+03  0.86785828706E+03  0.25500000920E-02 0.  1.
       -2   -1    0    0    0  501  0.00000000000E+00  0.00000000000E+00 -0.22110257798E+04  0.22110257798E+04  0.25500000920E-02 0. -1.
    10030    2    1    2    0    0  0.00000000000E+00  0.00000000000E+00 -0.13431674927E+04  0.30788840669E+04  0.27704563133E+04 0.  0.
        1    1    3    3  502    0 -0.12183797655E+04  0.11763231440E+03  0.49127664041E+02  0.12250306697E+04  0.50400001928E-02 0.  1.
       -1    1    3    3    0  502  0.12183797655E+04 -0.11763231440E+03 -0.13922951568E+04  0.18538533971E+04  0.50400001928E-02 0. -1.
</event>
<event>
 5   0  0.4846214E-06  0.2741290E+04  0.7818609E-02  0.8321731E-01
        1   -1    0    0  501    0  0.00000000000E+00  0.00000000000E+00  0.13842747972E+04  0.13842747972E+04  0.50400001928E-02 0.  1.
       -1   -1    0    0    0  501  0.00000000000E+00  0.00000000000E+00 -0.13571491211E+04  0.13571491211E+04  0.50400001928E-02 0. -1.
    10030    2    1    2    0    0  0.00000000000E+00  0.00000000000E+00  0.27125676141E+02  0.27414239183E+04  0.27412897143E+04 0.  0.
        2    1    3    3  502    0  0.12337006536E+04  0.43635113961E+03  0.42131764525E+03  0.13747465868E+04  0.25500000920E-02 0.  1.
       -2    1    3    3    0  502 -0.12337006536E+04 -0.43635113961E+03 -0.39419196911E+03  0.13666773315E+04  0.25500000920E-02 0. -1.
</event>
<event>
 5   0  0.1220908E-05  0.2706461E+04  0.7818609E-02  0.8332912E-01
       -2   -1    0    0    0  501  0.00000000000E+00  0.00000000000E+00  0.11440551516E+04  0.11440551516E+04  0.25500000920E-02 0. -1.
        2   -1    0    0  501    0  0.00000000000E+00  0.00000000000E+00 -0.16006508581E+04  0.16006508581E+04  0.25500000920E-02 0.  1.
    10030    2    1    2    0    0  0.00000000000E+00  0.00000000000E+00 -0.45659570657E+03  0.27447060097E+04  0.27064610547E+04 0.  0.
        2    1    3    3  502    0  0.18033154233E+03 -0.12294962666E+04  0.31504578412E+03  0.12819650467E+04  0.25500000920E-02 0. -1.
       -2    1    3    3    0  502 -0.18033154233E+03  0.12294962666E+04 -0.77164149069E+03  0.14627409630E+04  0.25500000920E-02 0.  1.
</event>
<event>
 5   0  0.1276517E-05  0.2732634E+04  0.7818609E-02  0.8324493E-01
       -2   -1    0    0    0  501  0.00000000000E+00  0.00000000000E+00  0.94476717957E+03  0.94476717957E+03  0.25500000920E-02 0.  1.
        2   -1    0    0  501    0  0.00000000000E+00  0.00000000000E+00 -0.19759596000E+04  0.19759596000E+04  0.25500000920E-02 0. -1.
    10030    2    1    2    0    0  0.00000000000E+00  0.00000000000E+00 -0.10311924205E+04  0.29207267796E+04  0.27326337320E+04 0.  0.
        1    1    3    3  502    0  0.11732641525E+04  0.68086629821E+03 -0.69022549446E+03  0.15220180422E+04  0.50400001928E-02 0.  1.
       -1    1    3    3    0  502 -0.11732641525E+04 -0.68086629821E+03 -0.34096692600E+03  0.13987087374E+04  0.50400001928E-02 0. -1.
</event>
<event>
 5   0  0.4846214E-06  0.2681776E+04  0.7818609E-02  0.8340942E-01
        1   -1    0    0  501    0  0.00000000000E+00  0.00000000000E+00  0.21065421600E+04  0.21065421600E+04  0.50400001928E-02 0. -1.
       -1   -1    0    0    0  501  0.00000000000E+00  0.00000000000E+00 -0.85352208744E+03  0.85352208746E+03  0.50400001928E-02 0.  1.
    10030    2    1    2    0    0  0.00000000000E+00  0.00000000000E+00  0.12530200726E+04  0.29600642475E+04  0.26817757264E+04 0.  0.
        2    1    3    3  502    0 -0.29116311398E+03 -0.13025941994E+04  0.48493174412E+03  0.14201008428E+04  0.25500000920E-02 0.  1.
       -2    1    3    3    0  502  0.29116311398E+03  0.13025941994E+04  0.76808832844E+03  0.15399634046E+04  0.25500000920E-02 0. -1.
</event>
<event>
 5   0  0.4756800E-06  0.2664350E+04  0.7818609E-02  0.8346666E-01
        1   -1    0    0  501    0  0.00000000000E+00  0.00000000000E+00  0.13264618764E+04  0.13264618764E+04  0.50400001928E-02 0.  1.
       -1   -1    0    0    0  501  0.00000000000E+00  0.00000000000E+00 -0.13379126887E+04  0.13379126887E+04  0.50400001928E-02 0. -1.
    10030    2    1    2    0    0  0.00000000000E+00  0.00000000000E+00 -0.11450812363E+02  0.26643745651E+04  0.26643499586E+04 0.  0.
        4    1    3    3  502    0  0.63827445154E+03 -0.84929781135E+03  0.79801550157E+03  0.13287330061E+04  0.12699999809E+01 0.  1.
       -4    1    3    3    0  502 -0.63827445154E+03  0.84929781135E+03 -0.80946631393E+03  0.13356415590E+04  0.12699999809E+01 0. -1.
</event>
<event>
 5   0  0.1261364E-05  0.2877359E+04  0.7818609E-02  0.8279646E-01
       -2   -1    0    0    0  501  0.00000000000E+00  0.00000000000E+00  0.93022391163E+03  0.93022391164E+03  0.25500000920E-02 0. -1.
        2   -1    0    0  501    0  0.00000000000E+00  0.00000000000E+00 -0.22250539013E+04  0.22250539013E+04  0.25500000920E-02 0.  1.
    10030    2    1    2    0    0  0.00000000000E+00  0.00000000000E+00 -0.12948299897E+04  0.31552778129E+04  0.28773587497E+04 0.  0.
        5    1    3    3  502    0  0.60743082645E+02 -0.11759969826E+04  0.25892540056E+03  0.12057043909E+04  0.46999998093E+01 0. -1.
       -5    1    3    3    0  502 -0.60743082645E+02  0.11759969826E+04 -0.15537553902E+04  0.19495734220E+04  0.46999998093E+01 0.  1.
</event>
<event>
 5   0  0.4824715E-06  0.2719514E+04  0.7818609E-02  0.8328701E-01
        1   -1    0    0  501    0  0.00000000000E+00  0.00000000000E+00  0.31710200342E+04  0.31710200342E+04  0.50400001928E-02 0. -1.
       -1   -1    0    0    0  501  0.00000000000E+00  0.00000000000E+00 -0.58307407259E+03  0.58307407261E+03  0.50400001928E-02 0.  1.
    10030    2    1    2    0    0  0.00000000000E+00  0.00000000000E+00  0.25879459616E+04  0.37540941069E+04  0.27195143432E+04 0.  0.
        5    1    3    3  502    0  0.15878119268E+03  0.41132391382E+02 -0.56935657380E+03  0.59253045399E+03  0.46999998093E+01 0.  1.
       -5    1    3    3    0  502 -0.15878119268E+03 -0.41132391382E+02  0.31573025355E+04  0.31615636529E+04  0.46999998093E+01 0. -1.
</event>
<event>
 5   0  0.5152288E-06  0.2676720E+04  0.7818609E-02  0.8342598E-01
       -1   -1    0    0    0  501  0.00000000000E+00  0.00000000000E+00  0.11949766295E+04  0.11949766295E+04  0.50400001928E-02 0.  1.
        1   -1    0    0  501    0  0.00000000000E+00  0.00000000000E+00 -0.14989479361E+04  0.14989479361E+04  0.50400001928E-02 0. -1.
    10030    2    1    2    0    0  0.00000000000E+00  0.00000000000E+00 -0.30397130665E+03  0.26939245656E+04  0.26767201964E+04 0.  0.
        3    1    3    3  502    0 -0.74638582111E+03 -0.10427246478E+04  0.23367603838E+03  0.13034458125E+04  0.10100000352E+00 0.  1.
       -3    1    3    3    0  502  0.74638582111E+03  0.10427246478E+04 -0.53764734503E+03  0.13904787531E+04  0.10100000352E+00 0. -1.
</event>
<event>
 5   0  0.1232559E-05  0.2696614E+04  0.7818609E-02  0.8336105E-01
       -2   -1    0    0    0  501  0.00000000000E+00  0.00000000000E+00  0.10478439062E+04  0.10478439062E+04  0.25500000920E-02 0.  1.
        2   -1    0    0  501    0  0.00000000000E+00  0.00000000000E+00 -0.17349256686E+04  0.17349256686E+04  0.25500000920E-02 0. -1.
    10030    2    1    2    0    0  0.00000000000E+00  0.00000000000E+00 -0.68708176240E+03  0.27827695748E+04  0.26966136465E+04 0.  0.
        3    1    3    3  502    0  0.37904337738E+03 -0.91740160689E+03 -0.12851810711E+04  0.16238811490E+04  0.10100000352E+00 0. -1.
       -3    1    3    3    0  502 -0.37904337738E+03  0.91740160689E+03  0.59809930871E+03  0.11588884258E+04  0.10100000352E+00 0.  1.
</event>
<event>
 5   0  0.1261364E-05  0.2743055E+04  0.7818609E-02  0.8321169E-01
       -2   -1    0    0    0  501  0.00000000000E+00  0.00000000000E+00  0.77161839369E+03  0.77161839370E+03  0.25500000920E-02 0.  1.
        2   -1    0    0  501    0  0.00000000000E+00  0.00000000000E+00 -0.24378468332E+04  0.24378468332E+04  0.25500000920E-02 0. -1.
    10030    2    1    2    0    0  0.00000000000E+00  0.00000000000E+00 -0.16662284395E+04  0.32094652269E+04  0.27430548354E+04 0.  0.
        5    1    3    3  502    0 -0.10606448154E+04  0.86087449579E+03 -0.97638021284E+03  0.16791106968E+04  0.46999998093E+01 0. -1.
       -5    1    3    3    0  502  0.10606448154E+04 -0.86087449579E+03 -0.68984822671E+03  0.15303545301E+04  0.46999998093E+01 0.  1.
</event>
<event>
 5   0  0.4824715E-06  0.2378373E+04  0.7818609E-02  0.8447645E-01
       -1   -1    0    0    0  501  0.00000000000E+00  0.00000000000E+00  0.78766889858E+03  0.78766889860E+03  0.50400001928E-02 0. -1.
        1   -1    0    0  501    0  0.00000000000E+00  0.00000000000E+00 -0.17953795390E+04  0.17953795390E+04  0.50400001928E-02 0.  1.
    10030    2    1    2    0    0  0.00000000000E+00  0.00000000000E+00 -0.10077106404E+04  0.25830484376E+04  0.23783730776E+04 0.  0.
        5    1    3    3  502    0 -0.72815747565E+03 -0.81225912119E+02 -0.15211211347E+04  0.16883845991E+04  0.46999998093E+01 0.  1.
       -5    1    3    3    0  502  0.72815747565E+03  0.81225912119E+02  0.51341049432E+03  0.89466383844E+03  0.46999998093E+01 0. -1.
</event>
<event>
 5   0  0.4846214E-06  0.2724875E+04  0.7818609E-02  0.8326979E-01
        1   -1    0    0  501    0  0.00000000000E+00  0.00000000000E+00  0.13172241560E+04  0.13172241560E+04  0.50400001928E-02 0.  1.
       -1   -1    0    0    0  501  0.00000000000E+00  0.00000000000E+00 -0.14092031032E+04  0.14092031032E+04  0.50400001928E-02 0. -1.
    10030    2    1    2    0    0  0.00000000000E+00  0.00000000000E+00 -0.91978947128E+02  0.27264272592E+04  0.27248753133E+04 0.  0.
        2    1    3    3  502    0  0.13762479876E+02 -0.23910773265E+03 -0.13879746177E+04  0.14084869374E+04  0.25500000920E-02 0. -1.
       -2    1    3    3    0  502 -0.13762479876E+02  0.23910773265E+03  0.12959956705E+04  0.13179403218E+04  0.25500000920E-02 0.  1.
</event>
<event>
 5   0  0.1286641E-05  0.2686507E+04  0.7818609E-02  0.8339396E-01
       -2   -1    0    0    0  501  0.00000000000E+00  0.00000000000E+00  0.99702261951E+03  0.99702261952E+03  0.25500000920E-02 0.  1.
        2   -1    0    0  501    0  0.00000000000E+00  0.00000000000E+00 -0.18097184521E+04  0.18097184521E+04  0.25500000920E-02 0. -1.
    10030    2    1    2    0    0  0.00000000000E+00  0.00000000000E+00 -0.81269583263E+03  0.28067410717E+04  0.26865071984E+04 0.  0.
        4    1    3    3  502    0 -0.68293710331E+03 -0.10920754610E+04 -0.81103315375E+01  0.12880602820E+04  0.12699999809E+01 0. -1.
       -4    1    3    3    0  502  0.68293710331E+03  0.10920754610E+04 -0.80458550109E+03  0.15186807897E+04  0.12699999809E+01 0.  1.
</event>
<event>
 5   0  0.1261364E-05  0.2663343E+04  0.7818609E-02  0.8346998E-01
        2   -1    0    0  501    0  0.00000000000E+00  0.00000000000E+00  0.32983046764E+04  0.32983046764E+04  0.25500000920E-02 0.  1.
       -2   -1    0    0    0  501  0.00000000000E+00  0.00000000000E+00 -0.53765452341E+03  0.53765452341E+03  0.25500000920E-02 0. -1.
    10030    2    1    2    0    0  0.00000000000E+00  0.00000000000E+00  0.27606501530E+04  0.38359591998E+04  0.26633425832E+04 0.  0.
        5    1    3    3  502    0 -0.43244364068E+02 -0.85032767429E+03  0.28550474468E+04  0.29793028114E+04  0.46999998093E+01 0.  1.
       -5    1    3    3    0  502  0.43244364068E+02  0.85032767429E+03 -0.94397293809E+02  0.85665638839E+03  0.46999998093E+01 0. -1.
</event>
<event>
 5   0  0.4826140E-06  0.2709037E+04  0.7818609E-02  0.8332079E-01
        1   -1    0    0  501    0  0.00000000000E+00  0.00000000000E+00  0.11324750944E+04  0.11324750945E+04  0.50400001928E-02 0. -1.
       -1   -1    0    0    0  501  0.00000000000E+00  0.00000000000E+00 -0.16200977000E+04  0.16200977000E+04  0.50400001928E-02 0.  1.
    10030    2    1    2    0    0  0.00000000000E+00  0.00000000000E+00 -0.48762260554E+03  0.27525727945E+04  0.27090369476E+04 0.  0.
        1    1    3    3  502    0  0.24056878181E+03  0.13265330190E+04 -0.37690145054E+03  0.13998635265E+04  0.50400001928E-02 0.  1.
       -1    1    3    3    0  502 -0.24056878181E+03 -0.13265330190E+04 -0.11072115500E+03  0.13527092679E+04  0.50400001928E-02 0. -1.
</event>
<event>
 5   0  0.1220908E-05  0.2722653E+04  0.7818609E-02  0.8327692E-01
       -2   -1    0    0    0  501  0.00000000000E+00  0.00000000000E+00  0.83601488742E+03  0.83601488742E+03  0.25500000920E-02 0. -1.
        2   -1    0    0  501    0  0.00000000000E+00  0.00000000000E+00 -0.22167187975E+04  0.22167187975E+04  0.25500000920E-02 0.  1.
    10030    2    1    2    0    0  0.00000000000E+00  0.00000000000E+00 -0.13807039100E+04  0.30527336849E+04  0.27226530561E+04 0.  0.
        2    1    3    3  502    0  0.31331061018E+03  0.33487845526E+03  0.74679953711E+03  0.87636560115E+03  0.25500000920E-02 0. -1.
       -2    1    3    3    0  502 -0.31331061018E+03 -0.33487845526E+03 -0.21275034472E+04  0.21763680837E+04  0.25500000920E-02 0.  1.
</event>
<event>
 5   0  0.4846214E-06  0.2710604E+04  0.7818609E-02  0.8331572E-01
       -1   -1    0    0    0  501  0.00000000000E+00  0.00000000000E+00  0.10014527734E+04  0.10014527734E+04  0.50400001928E-02 0. -1.
        1   -1    0    0  501    0  0.00000000000E+00  0.00000000000E+00 -0.18341795386E+04  0.18341795386E+04  0.50400001928E-02 0.  1.
    10030    2    1    2    0    0  0.00000000000E+00  0.00000000000E+00 -0.83272676525E+03  0.28356323120E+04  0.27106044978E+04 0.  0.
        2    1    3    3  502    0 -0.78036964957E+03  0.13330349326E+03 -0.15671477591E+04  0.17557615755E+04  0.25500000920E-02 0.  1.
       -2    1    3    3    0  502  0.78036964957E+03 -0.13330349326E+03  0.73442099383E+03  0.10798707365E+04  0.25500000920E-02 0. -1.
</event>
<event>
 5   0  0.1276517E-05  0.2660424E+04  0.7818609E-02  0.8347961E-01
        2   -1    0    0  501    0  0.00000000000E+00  0.00000000000E+00  0.24066694612E+04  0.24066694612E+04  0.25500000920E-02 0. -1.
       -2   -1    0    0    0  501  0.00000000000E+00  0.00000000000E+00 -0.73523354367E+03  0.73523354367E+03  0.25500000920E-02 0.  1.
    10030    2    1    2    0    0  0.00000000000E+00  0.00000000000E+00  0.16714359175E+04  0.31419030049E+04  0.26604241139E+04 0.  0.
        1    1    3    3  502    0  0.79853483757E+03 -0.92022734339E+03  0.14661743950E+04  0.19063429930E+04  0.50400001928E-02 0.  1.
       -1    1    3    3    0  502 -0.79853483757E+03  0.92022734339E+03  0.20526152255E+03  0.12355600119E+04  0.50400001928E-02 0. -1.
</event>
<event>
 5   0  0.5152288E-06  0.2712382E+04  0.7818609E-02  0.8330998E-01
       -1   -1    0    0    0  501  0.00000000000E+00  0.00000000000E+00  0.10012178568E+04  0.10012178568E+04  0.50400001928E-02 0. -1.
        1   -1    0    0  501    0  0.00000000000E+00  0.00000000000E+00 -0.18370174149E+04  0.18370174149E+04  0.50400001928E-02 0.  1.
    10030    2    1    2    0    0  0.00000000000E+00  0.00000000000E+00 -0.83579955810E+03  0.28382352718E+04  0.27123824503E+04 0.  0.
        3    1    3    3  502    0  0.10061342615E+03  0.44110763480E+03 -0.17557186539E+04  0.18130766694E+04  0.10100000352E+00 0.  1.
       -3    1    3    3    0  502 -0.10061342615E+03 -0.44110763480E+03  0.91991909583E+03  0.10251586024E+04  0.10100000352E+00 0. -1.
</event>
<event>
 5   0  0.5152288E-06  0.2627390E+04  0.7818609E-02  0.8358956E-01
        1   -1    0    0  501    0  0.00000000000E+00  0.00000000000E+00  0.18569565232E+04  0.18569565232E+04  0.50400001928E-02 0. -1.
       -1   -1    0    0    0  501  0.00000000000E+00  0.00000000000E+00 -0.92936758843E+03  0.92936758844E+03  0.50400001928E-02 0.  1.
    10030    2    1    2    0    0  0.00000000000E+00  0.00000000000E+00  0.92758893475E+03  0.27863241116E+04  0.26273904969E+04 0.  0.
        3    1    3    3  502    0 -0.35802526542E+03  0.11334780048E+04  0.10569500812E+04  0.15906281660E+04  0.10100000352E+00 0. -1.
       -3    1    3    3    0  502  0.35802526542E+03 -0.11334780048E+04 -0.12936114643E+03  0.11956959457E+04  0.10100000352E+00 0.  1.
</event>
<event>
 5   0  0.1286641E-05  0.2683625E+04  0.7818609E-02  0.8340338E-01
        2   -1    0    0  501    0  0.00000000000E+00  0.00000000000E+00  0.18104414383E+04  0.18104414383E+04  0.25500000920E-02 0.  1.
       -2   -1    0    0    0  501  0.00000000000E+00  0.00000000000E+00 -0.99448747454E+03  0.99448747454E+03  0.25500000920E-02 0. -1.
    10030    2    1    2    0    0  0.00000000000E+00  0.00000000000E+00  0.81595396379E+03  0.28049289129E+04  0.26836254089E+04 0.  0.
        4    1    3    3  502    0 -0.20438943643E+03  0.13177962330E+04  0.56334948502E+03  0.14476623255E+04  0.12699999809E+01 0. -1.
       -4    1    3    3    0  502  0.20438943643E+03 -0.13177962330E+04  0.25260447878E+03  0.13572665874E+04  0.12699999809E+01 0.  1.
</event>
<event>
 5   0  0.1276517E-05  0.2712619E+04  0.7818609E-02  0.8330922E-01
        2   -1    0    0  501    0  0.00000000000E+00  0.00000000000E+00  0.14094704894E+04  0.14094704894E+04  0.25500000920E-02 0. -1.
       -2   -1    0    0    0  501  0.00000000000E+00  0.00000000000E+00 -0.13051536085E+04  0.13051536085E+04  0.25500000920E-02 0.  1.
    10030    2    1    2    0    0  0.00000000000E+00  0.00000000000E+00  0.10431688089E+03  0.27146240978E+04  0.27126190261E+04 0.  0.
        1    1    3    3  502    0  0.65618654117E+03 -0.44937555658E+02 -0.11348782379E+04  0.13116969069E+04  0.50400001928E-02 0.  1.
       -1    1    3    3    0  502 -0.65618654117E+03  0.44937555658E+02  0.12391951188E+04  0.14029271909E+04  0.50400001928E-02 0. -1.
</event>
<event>
 5   0  0.4846214E-06  0.2685099E+04  0.7818609E-02  0.8339856E-01
       -1   -1    0    0    0  501  0.00000000000E+00  0.00000000000E+00  0.25219780377E+04  0.25219780377E+04  0.50400001928E-02 0. -1.
        1   -1    0    0  501    0  0.00000000000E+00  0.00000000000E+00 -0.71469272528E+03  0.71469272530E+03  0.50400001928E-02 0.  1.
    10030    2    1    2    0    0  0.00000000000E+00  0.00000000000E+00  0.18072853125E+04  0.32366707630E+04  0.26850991467E+04 0.  0.
        2    1    3    3  502    0 -0.96421134792E+03 -0.17320008172E+03 -0.20294131402E+03  0.10004433861E+04  0.25500000920E-02 0.  1.
       -2    1    3    3    0  502  0.96421134792E+03  0.17320008172E+03  0.20102266265E+04  0.22362273770E+04  0.25500000920E-02 0. -1.
</event>
<event>
 5   0  0.4756800E-06  0.2707811E+04  0.7818609E-02  0.8332475E-01
       -1   -1    0    0    0  501  0.00000000000E+00  0.00000000000E+00  0.13521660518E+04  0.13521660518E+04  0.50400001928E-02 0.  1.
        1   -1    0    0  501    0  0.00000000000E+00  0.00000000000E+00 -0.13556473336E+04  0.13556473336E+04  0.50400001928E-02 0. -1.
    10030    2    1    2    0    0  0.00000000000E+00  0.00000000000E+00 -0.34812817694E+01  0.27078133854E+04  0.27078111475E+04 0.  0.
        4    1    3    3  502    0  0.99914725000E+03 -0.53920362042E+03  0.73583906158E+03  0.13529584284E+04  0.12699999809E+01 0.  1.
       -4    1    3    3    0  502 -0.99914725000E+03  0.53920362042E+03 -0.73932034335E+03  0.13548549570E+04  0.12699999809E+01 0. -1.
</event>
<event>
 5   0  0.4824715E-06  0.2705654E+04  0.7818609E-02  0.8333173E-01
       -1   -1    0    0    0  501  0.00000000000E+00  0.00000000000E+00  0.12506072349E+04  0.12506072349E+04  0.50400001928E-02 0. -1.
        1   -1    0    0  501    0  0.00000000000E+00  0.00000000000E+00 -0.14634019725E+04  0.14634019725E+04  0.50400001928E-02 0.  1.
    10030    2    1    2    0    0  0.00000000000E+00  0.00000000000E+00 -0.21279473754E+03  0.27140092074E+04  0.27056541496E+04 0.  0.
        5    1    3    3  502    0  0.16514743106E+03 -0.68524790574E+03  0.10518459955E+04  0.12661913183E+04  0.46999998093E+01 0. -1.
       -5    1    3    3    0  502 -0.16514743106E+03  0.68524790574E+03 -0.12646407330E+04  0.14478178891E+04  0.46999998093E+01 0.  1.
</event>
<event>
 5   0  0.1220908E-05  0.2701847E+04  0.7818609E-02  0.8334406E-01
        2   -1    0    0  501    0  0.00000000000E+00  0.00000000000E+00  0.14615464262E+04  0.14615464262E+04  0.25500000920E-02 0.  1.
       -2   -1    0    0    0  501  0.00000000000E+00  0.00000000000E+00 -0.12486730901E+04  0.12486730901E+04  0.25500000920E-02 0. -1.
    10030    2    1    2    0    0  0.00000000000E+00  0.00000000000E+00  0.21287333609E+03  0.27102195164E+04  0.27018465481E+04 0.  0.
        2    1    3    3  502    0  0.54146633227E+03  0.53921577678E+03  0.12239151567E+04  0.14428817532E+04  0.25500000920E-02 0.  1.
       -2    1    3    3    0  502 -0.54146633227E+03 -0.53921577678E+03 -0.10110418206E+04  0.12673377632E+04  0.25500000920E-02 0. -1.
</event>
<event>
 5   0  0.4756800E-06  0.2643411E+04  0.7818609E-02  0.8353603E-01
        1   -1    0    0  501    0  0.00000000000E+00  0.00000000000E+00  0.18392849635E+04  0.18392849635E+04  0.50400001928E-02 0. -1.
       -1   -1    0    0    0  501  0.00000000000E+00  0.00000000000E+00 -0.94977401865E+03  0.94977401866E+03  0.50400001928E-02 0.  1.
    10030    2    1    2    0    0  0.00000000000E+00  0.00000000000E+00  0.88951094485E+03  0.27890589822E+04  0.26434107295E+04 0.  0.
        4    1    3    3  502    0  0.99352802557E+03  0.24567685328E+03  0.13271664294E+04  0.16759556671E+04  0.12699999809E+01 0. -1.
       -4    1    3    3    0  502 -0.99352802557E+03 -0.24567685328E+03 -0.43765548460E+03  0.11131033150E+04  0.12699999809E+01 0.  1.
</event>
<event>
 5   0  0.1261364E-05  0.2680753E+04  0.7818609E-02  0.8341277E-01
       -2   -1    0    0    0  501  0.00000000000E+00  0.00000000000E+00  0.80824460495E+03  0.80824460495E+03  0.25500000920E-02 0.  1.
        2   -1    0    0  501    0  0.00000000000E+00  0.00000000000E+00 -0.22228528887E+04  0.22228528887E+04  0.25500000920E-02 0. -1.
    10030    2    1    2    0    0  0.00000000000E+00  0.00000000000E+00 -0.14146082837E+04  0.30310974936E+04  0.26807527711E+04 0.  0.
        5    1    3    3  502    0  0.10440771226E+04 -0.42660729221E+03  0.11156444153E+03  0.11333841072E+04  0.46999998093E+01 0.  1.
       -5    1    3    3    0  502 -0.10440771226E+04  0.42660729221E+03 -0.15261727253E+04  0.18977133865E+04  0.46999998093E+01 0. -1.
</event>
<event>
 5   0  0.4824715E-06  0.2651400E+04  0.7818609E-02  0.8350948E-01
        1   -1    0    0  501    0  0.00000000000E+00  0.00000000000E+00  0.17198795003E+04  0.17198795003E+04  0.50400001928E-02 0.  1.
       -1   -1    0    0    0  501  0.00000000000E+00  0.00000000000E+00 -0.10218627438E+04  0.10218627438E+04  0.50400001928E-02 0. -1.
    10030    2    1    2    0    0  0.00000000000E+00  0.00000000000E+00  0.69801675651E+03  0.27417422441E+04  0.26514002227E+04 0.  0.
        5    1    3    3  502    0 -0.95843762708E+03  0.26414991036E+03 -0.55784553161E+03  0.11399963102E+04  0.46999998093E+01 0. -1.
       -5    1    3    3    0  502  0.95843762708E+03 -0.26414991036E+03  0.12558622881E+04  0.16017459339E+04  0.46999998093E+01 0.  1.
</event>
<event>
 5   0  0.4826140E-06  0.2713179E+04  0.7818609E-02  0.8330742E-01
       -1   -1    0    0    0  501  0.00000000000E+00  0.00000000000E+00  0.23743017563E+04  0.23743017563E+04  0.50400001928E-02 0.  1.
        1   -1    0    0  501    0  0.00000000000E+00  0.00000000000E+00 -0.77510551862E+03  0.77510551863E+03  0.50400001928E-02 0. -1.
    10030    2    1    2    0    0  0.00000000000E+00  0.00000000000E+00  0.15991962377E+04  0.31494072750E+04  0.27131785007E+04 0.  0.
        1    1    3    3  502    0 -0.73879208955E+02  0.88625685755E+03  0.19887194516E+04  0.21785119720E+04  0.50400001928E-02 0.  1.
       -1    1    3    3    0  502  0.73879208955E+02 -0.88625685755E+03 -0.38952321389E+03  0.97089530293E+03  0.50400001928E-02 0. -1.
</event>
<event>
 5   0  0.1220908E-05  0.2700178E+04  0.7818609E-02  0.8334947E-01
        2   -1    0    0  501    0  0.00000000000E+00  0.00000000000E+00  0.20092562505E+04  0.20092562505E+04  0.25500000920E-02 0.  1.
       -2   -1    0    0    0  501  0.00000000000E+00  0.00000000000E+00 -0.90717131700E+03  0.90717131701E+03  0.25500000920E-02 0. -1.
    10030    2    1    2    0    0  0.00000000000E+00  0.00000000000E+00  0.11020849335E+04  0.29164275675E+04  0.27001775045E+04 0.  0.
        2    1    3    3  502    0  0.62467256685E+03 -0.31764419200E+03  0.17974211466E+04  0.19292061649E+04  0.25500000920E-02 0.  1.
       -2    1    3    3    0  502 -0.62467256685E+03  0.31764419200E+03 -0.69533621311E+03  0.98722140260E+03  0.25500000920E-02 0. -1.
</event>
<event>
 5   0  0.4824715E-06  0.2719710E+04  0.7818609E-02  0.8328638E-01
        1   -1    0    0  501    0  0.00000000000E+00  0.00000000000E+00  0.14396645467E+04  0.14396645467E+04  0.50400001928E-02 0.  1.
       -1   -1    0    0    0  501  0.00000000000E+00  0.00000000000E+00 -0.12844693593E+04  0.12844693593E+04  0.50400001928E-02 0. -1.
    10030    2    1    2    0    0  0.00000000000E+00  0.00000000000E+00  0.15519518739E+03  0.27241339061E+04  0.27197095418E+04 0.  0.
        5    1    3    3  502    0 -0.42329565502E+02 -0.10468160122E+01  0.14389959545E+04  0.14396264567E+04  0.46999998093E+01 0.  1.
       -5    1    3    3    0  502  0.42329565502E+02  0.10468160122E+01 -0.12838007671E+04  0.12845074494E+04  0.46999998093E+01 0. -1.
</event>
<event>
 5   0  0.1276517E-05  0.2659373E+04  0.7818609E-02  0.8348309E-01
       -2   -1    0    0    0  501  0.00000000000E+00  0.00000000000E+00  0.17269754761E+04  0.17269754761E+04  0.25500000920E-02 0.  1.
        2   -1    0    0  501    0  0.00000000000E+00  0.00000000000E+00 -0.10237932257E+04  0.10237932257E+04  0.25500000920E-02 0. -1.
    10030    2    1    2    0    0  0.00000000000E+00  0.00000000000E+00  0.70318225043E+03  0.27507687018E+04  0.26593727030E+04 0.  0.
        1    1    3    3  502    0 -0.25773147552E+03 -0.11635528578E+04  0.96159178955E+03  0.15313195408E+04  0.50400001928E-02 0.  1.
       -1    1    3    3    0  502  0.25773147552E+03  0.11635528578E+04 -0.25840953912E+03  0.12194491610E+04  0.50400001928E-02 0. -1.
</event>
<event>
 5   0  0.4826140E-06  0.2725230E+04  0.7818609E-02  0.8326865E-01
       -1   -1    0    0    0  501  0.00000000000E+00  0.00000000000E+00  0.89405312048E+03  0.89405312050E+03  0.50400001928E-02 0. -1.
        1   -1    0    0  501    0  0.00000000000E+00  0.00000000000E+00 -0.20767449367E+04  0.20767449367E+04  0.50400001928E-02 0.  1.
    10030    2    1    2    0    0  0.00000000000E+00  0.00000000000E+00 -0.11826918162E+04  0.29707980572E+04  0.27252304791E+04 0.  0.
        1    1    3    3  502    0  0.37803329445E+03 -0.34378480824E+03 -0.19683494415E+04  0.20335920658E+04  0.50400001928E-02 0.  1.
       -1    1    3    3    0  502 -0.37803329445E+03  0.34378480824E+03  0.78565762531E+03  0.93720599140E+03  0.50400001928E-02 0. -1.
</event>
<event>
 5   0  0.4846214E-06  0.2710840E+04  0.7818609E-02  0.8331496E-01
        1   -1    0    0  501    0  0.00000000000E+00  0.00000000000E+00  0.13076285493E+04  0.13076285493E+04  0.50400001928E-02 0. -1.
       -1   -1    0    0    0  501  0.00000000000E+00  0.00000000000E+00 -0.14049577540E+04  0.14049577540E+04  0.50400001928E-02 0.  1.
    10030    2    1    2    0    0  0.00000000000E+00  0.00000000000E+00 -0.97329204621E+02  0.27125863033E+04  0.27108396262E+04 0.  0.
        2    1    3    3  502    0 -0.46978394406E+03  0.12422251444E+04  0.22232829525E+03  0.13465697658E+04  0.25500000920E-02 0.  1.
       -2    1    3    3    0  502  0.46978394406E+03 -0.12422251444E+04 -0.31965749988E+03  0.13660165375E+04  0.25500000920E-02 0. -1.
</event>
<event>
 5   0  0.1286641E-05  0.2684607E+04  0.7818609E-02  0.8340017E-01
        2   -1    0    0  501    0  0.00000000000E+00  0.00000000000E+00  0.20831986220E+04  0.20831986220E+04  0.25500000920E-02 0. -1.
       -2   -1    0    0    0  501  0.00000000000E+00  0.00000000000E+00 -0.86490984485E+03  0.86490984486E+03  0.25500000920E-02 0.  1.
    10030    2    1    2    0    0  0.00000000000E+00  0.00000000000E+00  0.12182887772E+04  0.29481084669E+04  0.26846072316E+04 0.  0.
        4    1    3    3  502    0  0.31758089641E+03 -0.91623309464E+03  0.16283795114E+04  0.18952472545E+04  0.12699999809E+01 0.  1.
       -4    1    3    3    0  502 -0.31758089641E+03  0.91623309464E+03 -0.41009073422E+03  0.10528612124E+04  0.12699999809E+01 0. -1.
</event>
<event>
 5   0  0.1220908E-05  0.2687999E+04  0.7818609E-02  0.8338909E-01
        2   -1    0    0  501    0  0.00000000000E+00  0.00000000000E+00  0.17963787584E+04  0.17963787584E+04  0.25500000920E-02 0.  1.
       -2   -1    0    0    0  501  0.00000000000E+00  0.00000000000E+00 -0.10055421898E+04  0.10055421898E+04  0.25500000920E-02 0. -1.
    10030    2    1    2    0    0  0.00000000000E+00  0.00000000000E+00  0.79083656857E+03  0.28019209482E+04  0.26879989810E+04 0.  0.
        2    1    3    3  502    0 -0.87024975390E+03  0.10163209762E+04  0.26318909547E+03  0.13636390507E+04  0.25500000920E-02 0. -1.
       -2    1    3    3    0  502  0.87024975390E+03 -0.10163209762E+04  0.52764747310E+03  0.14382818975E+04  0.25500000920E-02 0.  1.
</event>
<event>
 5   0  0.1286641E-05  0.2690225E+04  0.7818609E-02  0.8338184E-01
       -2   -1    0    0    0  501  0.00000000000E+00  0.00000000000E+00  0.15500094148E+04  0.15500094148E+04  0.25500000920E-02 0.  1.
        2   -1    0    0  501    0  0.00000000000E+00  0.00000000000E+00 -0.11673007609E+04  0.11673007609E+04  0.25500000920E-02 0. -1.
    10030    2    1    2    0    0  0.00000000000E+00  0.00000000000E+00  0.38270865397E+03  0.27173101757E+04  0.26902246518E+04 0.  0.
        4    1    3    3  502    0  0.71310958621E+03  0.58801257127E+03 -0.79574711596E+03  0.12196307439E+04  0.12699999809E+01 0. -1.
       -4    1    3    3    0  502 -0.71310958621E+03 -0.58801257127E+03  0.11784557699E+04  0.14976794318E+04  0.12699999809E+01 0.  1.
</event>
<event>
 5   0  0.4846214E-06  0.2693229E+04  0.7818609E-02  0.8337205E-01
        1   -1    0    0  501    0  0.00000000000E+00  0.00000000000E+00  0.10249717149E+04  0.10249717149E+04  0.50400001928E-02 0. -1.
       -1   -1    0    0    0  501  0.00000000000E+00  0.00000000000E+00 -0.17691913372E+04  0.17691913372E+04  0.50400001928E-02 0.  1.
    10030    2    1    2    0    0  0.00000000000E+00  0.00000000000E+00 -0.74421962231E+03  0.27941630522E+04  0.26932293471E+04 0.  0.
        2    1    3    3  502    0  0.10810208134E+03 -0.12407043312E+04 -0.90349424503E+03  0.15386146848E+04  0.25500000920E-02 0. -1.
       -2    1    3    3    0  502 -0.10810208134E+03  0.12407043312E+04  0.15927462272E+03  0.12555483674E+04  0.25500000920E-02 0.  1.
</event>
<event>
 5   0  0.1276517E-05  0.2615398E+04  0.7818609E-02  0.8362990E-01
       -2   -1    0    0    0  501  0.00000000000E+00  0.00000000000E+00  0.12932046155E+04  0.12932046155E+04  0.25500000920E-02 0.  1.
        2   -1    0    0  501    0  0.00000000000E+00  0.00000000000E+00 -0.13223558878E+04  0.13223558878E+04  0.25500000920E-02 0. -1.
    10030    2    1    2    0    0  0.00000000000E+00  0.00000000000E+00 -0.29151272324E+02  0.26155605033E+04  0.26153980480E+04 0.  0.
        1    1    3    3  502    0  0.40402669651E+03 -0.28019103150E+03  0.11972471925E+04  0.12942740922E+04  0.50400001928E-02 0.  1.
       -1    1    3    3    0  502 -0.40402669651E+03  0.28019103150E+03 -0.12263984648E+04  0.13212864111E+04  0.50400001928E-02 0. -1.
</event>
<event>
 5   0  0.4756800E-06  0.2699054E+04  0.7818609E-02  0.8335312E-01
        1   -1    0    0  501    0  0.00000000000E+00  0.00000000000E+00  0.26439745405E+04  0.26439745405E+04  0.50400001928E-02 0. -1.
       -1   -1    0    0    0  501  0.00000000000E+00  0.00000000000E+00 -0.68882020677E+03  0.68882020679E+03  0.50400001928E-02 0.  1.
    10030    2    1    2    0    0  0.00000000000E+00  0.00000000000E+00  0.19551543337E+04  0.33327947473E+04  0.26990539748E+04 0.  0.
        4    1    3    3  502    0 -0.11798731555E+04 -0.61410180103E+03  0.69599976296E+03  0.15012124993E+04  0.12699999809E+01 0.  1.
       -4    1    3    3    0  502  0.11798731555E+04  0.61410180103E+03  0.12591545708E+04  0.18315822480E+04  0.12699999809E+01 0. -1.
</event>
<event>
 5   0  0.4846214E-06  0.2700202E+04  0.7818609E-02  0.8334939E-01
       -1   -1    0    0    0  501  0.00000000000E+00  0.00000000000E+00  0.81728482636E+03  0.81728482637E+03  0.50400001928E-02 0.  1.
        1   -1    0    0  501    0  0.00000000000E+00  0.00000000000E+00 -0.22302783458E+04  0.22302783458E+04  0.50400001928E-02 0. -1.
    10030    2    1    2    0    0  0.00000000000E+00  0.00000000000E+00 -0.14129935194E+04  0.30475631722E+04  0.27002019558E+04 0.  0.
        2    1    3    3  502    0 -0.18450964850E+03  0.81868953891E+03  0.48713360484E+03  0.97035844949E+03  0.25500000920E-02 0.  1.
       -2    1    3    3    0  502  0.18450964850E+03 -0.81868953891E+03 -0.19001271243E+04  0.20772047227E+04  0.25500000920E-02 0. -1.
</event>
<event>
 5   0  0.4826140E-06  0.2709572E+04  0.7818609E-02  0.8331906E-01
        1   -1    0    0  501    0  0.00000000000E+00  0.00000000000E+00  0.20704262075E+04  0.20704262075E+04  0.50400001928E-02 0.  1.
       -1   -1    0    0    0  501  0.00000000000E+00  0.00000000000E+00 -0.88650566156E+03  0.88650566158E+03  0.50400001928E-02 0. -1.
    10030    2    1    2    0    0  0.00000000000E+00  0.00000000000E+00  0.11839205459E+04  0.29569318690E+04  0.27095715933E+04 0.  0.
        1    1    3    3  502    0 -0.11602066989E+03 -0.33052194932E+03  0.20201512366E+04  0.20502967038E+04  0.50400001928E-02 0.  1.
       -1    1    3    3    0  502  0.11602066989E+03  0.33052194932E+03 -0.83623069069E+03  0.90663516527E+03  0.50400001928E-02 0. -1.
</event>
<event>
 5   0  0.1276517E-05  0.2665177E+04  0.7818609E-02  0.8346393E-01
       -2   -1    0    0    0  501  0.00000000000E+00  0.00000000000E+00  0.11264589507E+04  0.11264589507E+04  0.25500000920E-02 0. -1.
        2   -1    0    0  501    0  0.00000000000E+00  0.00000000000E+00 -0.15764377933E+04  0.15764377933E+04  0.25500000920E-02 0.  1.
    10030    2    1    2    0    0  0.00000000000E+00  0.00000000000E+00 -0.44997884265E+03  0.27028967440E+04  0.26651772642E+04 0.  0.
        1    1    3    3  502    0 -0.36416977809E+03 -0.12698892828E+04 -0.40226042759E+03  0.13809604880E+04  0.50400001928E-02 0.  1.
       -1    1    3    3    0  502  0.36416977809E+03  0.12698892828E+04 -0.47718415058E+02  0.13219362560E+04  0.50400001928E-02 0. -1.
</event>
<event>
 5   0  0.5152288E-06  0.2626264E+04  0.7818609E-02  0.8359334E-01
        1   -1    0    0  501    0  0.00000000000E+00  0.00000000000E+00  0.16049041932E+04  0.16049041932E+04  0.50400001928E-02 0. -1.
       -1   -1    0    0    0  501  0.00000000000E+00  0.00000000000E+00 -0.10744038617E+04  0.10744038618E+04  0.50400001928E-02 0.  1.
    10030    2    1    2    0    0  0.00000000000E+00  0.00000000000E+00  0.53050033148E+03  0.26793080550E+04  0.26262637057E+04 0.  0.
        3    1    3    3  502    0 -0.68707943039E+03  0.11091970613E+04  0.41629106784E+03  0.13695599760E+04  0.10100000352E+00 0. -1.
       -3    1    3    3    0  502  0.68707943039E+03 -0.11091970613E+04  0.11420926365E+03  0.13097480790E+04  0.10100000352E+00 0.  1.
</event>
<event>
 5   0  0.4824715E-06  0.2695101E+04  0.7818609E-02  0.8336596E-01
        1   -1    0    0  501    0  0.00000000000E+00  0.00000000000E+00  0.12645812712E+04  0.12645812712E+04  0.50400001928E-02 0.  1.
       -1   -1    0    0    0  501  0.00000000000E+00  0.00000000000E+00 -0.14359630065E+04  0.14359630065E+04  0.50400001928E-02 0. -1.
    10030    2    1    2    0    0  0.00000000000E+00  0.00000000000E+00 -0.17138173526E+03  0.27005442777E+04  0.26951006840E+04 0.  0.
        5    1    3    3  502    0  0.13030212010E+02 -0.13026370097E+04  0.25973265439E+03  0.13283508976E+04  0.46999998093E+01 0.  1.
       -5    1    3    3    0  502 -0.13030212010E+02  0.13026370097E+04 -0.43111438965E+03  0.13721933801E+04  0.46999998093E+01 0. -1.
</event>
<event>
 5   0  0.5152288E-06  0.2691001E+04  0.7818609E-02  0.8337931E-01
        1   -1    0    0  501    0  0.00000000000E+00  0.00000000000E+00  0.14129642786E+04  0.14129642786E+04  0.50400001928E-02 0.  1.
       -1   -1    0    0    0  501  0.00000000000E+00  0.00000000000E+00 -0.12812576873E+04  0.12812576873E+04  0.50400001928E-02 0. -1.
    10030    2    1    2    0    0  0.00000000000E+00  0.00000000000E+00  0.13170659131E+03  0.26942219660E+04  0.26910008130E+04 0.  0.
        3    1    3    3  502    0  0.99424026200E+03 -0.28322775656E+03 -0.79636259081E+03  0.13049617032E+04  0.10100000352E+00 0. -1.
       -3    1    3    3    0  502 -0.99424026200E+03  0.28322775656E+03  0.92806918212E+03  0.13892602628E+04  0.10100000352E+00 0.  1.
</event>
<event>
 5   0  0.1220908E-05  0.2703471E+04  0.7818609E-02  0.8333880E-01
       -2   -1    0    0    0  501  0.00000000000E+00  0.00000000000E+00  0.10747236405E+04  0.10747236405E+04  0.25500000920E-02 0. -1.
        2   -1    0    0  501    0  0.00000000000E+00  0.00000000000E+00 -0.17001481257E+04  0.17001481257E+04  0.25500000920E-02 0.  1.
    10030    2    1    2    0    0  0.00000000000E+00  0.00000000000E+00 -0.62542448517E+03  0.27748717662E+04  0.27034713855E+04 0.  0.
        2    1    3    3  502    0  0.45087683812E+03  0.89126397960E+03 -0.12475621633E+04  0.15981404056E+04  0.25500000920E-02 0. -1.
       -2    1    3    3    0  502 -0.45087683812E+03 -0.89126397960E+03  0.62213767816E+03  0.11767313606E+04  0.25500000920E-02 0.  1.
</event>
<event>
 5   0  0.1220908E-05  0.2751589E+04  0.7818609E-02  0.8318458E-01
        2   -1    0    0  501    0  0.00000000000E+00  0.00000000000E+00  0.13420916446E+04  0.13420916446E+04  0.25500000920E-02 0.  1.
       -2   -1    0    0    0  501  0.00000000000E+00  0.00000000000E+00 -0.14103438612E+04  0.14103438612E+04  0.25500000920E-02 0. -1.
    10030    2    1    2    0    0  0.00000000000E+00  0.00000000000E+00 -0.68252216550E+02  0.27524355058E+04  0.27515891497E+04 0.  0.
        2    1    3    3  502    0  0.60817476198E+03 -0.79160523833E+03 -0.98114605638E+03  0.13997010318E+04  0.25500000920E-02 0. -1.
       -2    1    3    3    0  502 -0.60817476198E+03  0.79160523833E+03  0.91289383983E+03  0.13527344740E+04  0.25500000920E-02 0.  1.
</event>
<event>
 5   0  0.1286641E-05  0.2715277E+04  0.7818609E-02  0.8330065E-01
        2   -1    0    0  501    0  0.00000000000E+00  0.00000000000E+00  0.16145053282E+04  0.16145053282E+04  0.25500000920E-02 0.  1.
       -2   -1    0    0    0  501  0.00000000000E+00  0.00000000000E+00 -0.11416390811E+04  0.11416390811E+04  0.25500000920E-02 0. -1.
    10030    2    1    2    0    0  0.00000000000E+00  0.00000000000E+00  0.47286624716E+03  0.27561444093E+04  0.27152770609E+04 0.  0.
        4    1    3    3  502    0 -0.29012910093E+03  0.11199499281E+04 -0.48469465905E+03  0.12543497367E+04  0.12699999809E+01 0. -1.
       -4    1    3    3    0  502  0.29012910093E+03 -0.11199499281E+04  0.95756090620E+03  0.15017946726E+04  0.12699999809E+01 0.  1.
</event>
<event>
 5   0  0.4188000E-06  0.2781959E+04  0.7818609E-02  0.8308891E-01
       -3   -1    0    0    0  501  0.00000000000E+00  0.00000000000E+00  0.72389327085E+03  0.72389327789E+03  0.10100000352E+00 0. -1.
        3   -1    0    0  501    0  0.00000000000E+00  0.00000000000E+00 -0.26728023772E+04  0.26728023791E+04  0.10100000352E+00 0.  1.
    10030    2    1    2    0    0  0.00000000000E+00  0.00000000000E+00 -0.19489091063E+04  0.33966956570E+04  0.27819587850E+04 0.  0.
        3    1    3    3  502    0 -0.37182212217E+03 -0.67592915303E+03  0.43876092631E+03  0.88749257524E+03  0.10100000352E+00 0. -1.
       -3    1    3    3    0  502  0.37182212217E+03  0.67592915303E+03 -0.23876700326E+04  0.25092030817E+04  0.10100000352E+00 0.  1.
</event>
<event>
 5   0  0.5152288E-06  0.2708508E+04  0.7818609E-02  0.8332250E-01
       -1   -1    0    0    0  501  0.00000000000E+00  0.00000000000E+00  0.10468436725E+04  0.10468436725E+04  0.50400001928E-02 0. -1.
        1   -1    0    0  501    0  0.00000000000E+00  0.00000000000E+00 -0.17519366272E+04  0.17519366272E+04  0.50400001928E-02 0.  1.
    10030    2    1    2    0    0  0.00000000000E+00  0.00000000000E+00 -0.70509295474E+03  0.27987802997E+04  0.27085079086E+04 0.  0.
        3    1    3    3  502    0  0.22451756881E+01  0.64080377619E+03 -0.15853602816E+04  0.17099712726E+04  0.10100000352E+00 0.  1.
       -3    1    3    3    0  502 -0.22451756881E+01 -0.64080377619E+03  0.88026732689E+03  0.10888090270E+04  0.10100000352E+00 0. -1.
</event>
<event>
 5   0  0.4756800E-06  0.2678322E+04  0.7818609E-02  0.8342073E-01
        1   -1    0    0  501    0  0.00000000000E+00  0.00000000000E+00  0.18874576308E+04  0.18874576308E+04  0.50400001928E-02 0.  1.
       -1   -1    0    0    0  501  0.00000000000E+00  0.00000000000E+00 -0.95014158906E+03  0.95014158908E+03  0.50400001928E-02 0. -1.
    10030    2    1    2    0    0  0.00000000000E+00  0.00000000000E+00  0.93731604176E+03  0.28375992199E+04  0.26783218572E+04 0.  0.
        4    1    3    3  502    0 -0.44336967730E+03 -0.91806341493E+03 -0.45127190367E+03  0.11149282706E+04  0.12699999809E+01 0. -1.
       -4    1    3    3    0  502  0.44336967730E+03  0.91806341493E+03  0.13885879454E+04  0.17226709493E+04  0.12699999809E+01 0.  1.
</event>
<event>
 5   0  0.1261364E-05  0.2663340E+04  0.7818609E-02  0.8346999E-01
       -2   -1    0    0    0  501  0.00000000000E+00  0.00000000000E+00  0.11571671754E+04  0.11571671754E+04  0.25500000920E-02 0.  1.
        2   -1    0    0  501    0  0.00000000000E+00  0.00000000000E+00 -0.15324882317E+04  0.15324882317E+04  0.25500000920E-02 0. -1.
    10030    2    1    2    0    0  0.00000000000E+00  0.00000000000E+00 -0.37532105630E+03  0.26896554072E+04  0.26633400673E+04 0.  0.
        5    1    3    3  502    0  0.73797757486E+03  0.10523063132E+04  0.16415425596E+03  0.12957346131E+04  0.46999998093E+01 0. -1.
       -5    1    3    3    0  502 -0.73797757486E+03 -0.10523063132E+04 -0.53947531226E+03  0.13939207941E+04  0.46999998093E+01 0.  1.
</event>
<event>
 5   0  0.4824715E-06  0.2689840E+04  0.7818609E-02  0.8338309E-01
        1   -1    0    0  501    0  0.00000000000E+00  0.00000000000E+00  0.17815963652E+04  0.17815963652E+04  0.50400001928E-02 0.  1.
       -1   -1    0    0    0  501  0.00000000000E+00  0.00000000000E+00 -0.10152744140E+04  0.10152744141E+04  0.50400001928E-02 0. -1.
    10030    2    1    2    0    0  0.00000000000E+00  0.00000000000E+00  0.76632195120E+03  0.27968707793E+04  0.26898395534E+04 0.  0.
        5    1    3    3  502    0  0.94354165020E+02 -0.12858570089E+04 -0.14762762274E+02  0.12894072224E+04  0.46999998093E+01 0. -1.
       -5    1    3    3    0  502 -0.94354165020E+02  0.12858570089E+04  0.78108471347E+03  0.15074635569E+04  0.46999998093E+01 0.  1.
</event>
<event>
 5   0  0.4846214E-06  0.2774855E+04  0.7818609E-02  0.8311118E-01
       -1   -1    0    0    0  501  0.00000000000E+00  0.00000000000E+00  0.16973016991E+04  0.16973016991E+04  0.50400001928E-02 0.  1.
        1   -1    0    0  501    0  0.00000000000E+00  0.00000000000E+00 -0.11341269849E+04  0.11341269849E+04  0.50400001928E-02 0. -1.
    10030    2    1    2    0    0  0.00000000000E+00  0.00000000000E+00  0.56317471425E+03  0.28314286840E+04  0.27748554258E+04 0.  0.
        2    1    3    3  502    0  0.59944964912E+03  0.11140435491E+04  0.86287064739E+03  0.15313323170E+04  0.25500000920E-02 0.  1.
       -2    1    3    3    0  502 -0.59944964912E+03 -0.11140435491E+04 -0.29969593313E+03  0.13000963670E+04  0.25500000920E-02 0. -1.
</event>
<event>
 5   0  0.1232559E-05  0.2693520E+04  0.7818609E-02  0.8337110E-01
       -2   -1    0    0    0  501  0.00000000000E+00  0.00000000000E+00  0.15216600350E+04  0.15216600350E+04  0.25500000920E-02 0. -1.
        2   -1    0    0  501    0  0.00000000000E+00  0.00000000000E+00 -0.11919633179E+04  0.11919633179E+04  0.25500000920E-02 0.  1.
    10030    2    1    2    0    0  0.00000000000E+00  0.00000000000E+00  0.32969671707E+03  0.27136233529E+04  0.26935203315E+04 0.  0.
        3    1    3    3  502    0  0.11540466218E+04 -0.62927241680E+03 -0.13052157284E+03  0.13209251572E+04  0.10100000352E+00 0.  1.
       -3    1    3    3    0  502 -0.11540466218E+04  0.62927241680E+03  0.46021828991E+03  0.13926981957E+04  0.10100000352E+00 0. -1.
</event>
<event>
 5   0  0.5152288E-06  0.2686408E+04  0.7818609E-02  0.8339429E-01
        1   -1    0    0  501    0  0.00000000000E+00  0.00000000000E+00  0.13888009782E+04  0.13888009782E+04  0.50400001928E-02 0. -1.
       -1   -1    0    0    0  501  0.00000000000E+00  0.00000000000E+00 -0.12991041595E+04  0.12991041595E+04  0.50400001928E-02 0.  1.
    10030    2    1    2    0    0  0.00000000000E+00  0.00000000000E+00  0.89696818680E+02  0.26879051377E+04  0.26864081057E+04 0.  0.
        3    1    3    3  502    0 -0.16565324830E+03 -0.70317562513E+02  0.13766842980E+04  0.13883966382E+04  0.10100000352E+00 0. -1.
       -3    1    3    3    0  502  0.16565324830E+03  0.70317562513E+02 -0.12869874793E+04  0.12995084996E+04  0.10100000352E+00 0.  1.
</event>
<event>
 5   0  0.5152288E-06  0.2703170E+04  0.7818609E-02  0.8333977E-01
        1   -1    0    0  501    0  0.00000000000E+00  0.00000000000E+00  0.59355394168E+03  0.59355394170E+03  0.50400001928E-02 0. -1.
       -1   -1    0    0    0  501  0.00000000000E+00  0.00000000000E+00 -0.30777007429E+04  0.30777007429E+04  0.50400001928E-02 0.  1.
    10030    2    1    2    0    0  0.00000000000E+00  0.00000000000E+00 -0.24841468013E+04  0.36712546846E+04  0.27031695524E+04 0.  0.
        3    1    3    3  502    0 -0.12810023245E+04  0.42990614174E+03 -0.11992298211E+04  0.18066373239E+04  0.10100000352E+00 0.  1.
       -3    1    3    3    0  502  0.12810023245E+04 -0.42990614174E+03 -0.12849169801E+04  0.18646173607E+04  0.10100000352E+00 0. -1.
</event>
<event>
 5   0  0.5152288E-06  0.2682026E+04  0.7818609E-02  0.8340861E-01
        1   -1    0    0  501    0  0.00000000000E+00  0.00000000000E+00  0.15099302160E+04  0.15099302160E+04  0.50400001928E-02 0. -1.
       -1   -1    0    0    0  501  0.00000000000E+00  0.00000000000E+00 -0.11909925762E+04  0.11909925762E+04  0.50400001928E-02 0.  1.
    10030    2    1    2    0    0  0.00000000000E+00  0.00000000000E+00  0.31893763978E+03  0.27009227922E+04  0.26820258595E+04 0.  0.
        3    1    3    3  502    0 -0.39692518703E+03  0.58959215409E+03  0.13046473130E+04  0.14856894473E+04  0.10100000352E+00 0. -1.
       -3    1    3    3    0  502  0.39692518703E+03 -0.58959215409E+03 -0.98570967326E+03  0.12152333448E+04  0.10100000352E+00 0.  1.
</event>
<event>
 5   0  0.4846214E-06  0.2676794E+04  0.7818609E-02  0.8342574E-01
       -1   -1    0    0    0  501  0.00000000000E+00  0.00000000000E+00  0.11143105931E+04  0.11143105931E+04  0.50400001928E-02 0.  1.
        1   -1    0    0  501    0  0.00000000000E+00  0.00000000000E+00 -0.16075469018E+04  0.16075469018E+04  0.50400001928E-02 0. -1.
    10030    2    1    2    0    0  0.00000000000E+00  0.00000000000E+00 -0.49323630869E+03  0.27218574949E+04  0.26767940089E+04 0.  0.
        2    1    3    3  502    0 -0.86881633108E+03  0.13479977411E+03 -0.12727117338E+04  0.15468703739E+04  0.25500000920E-02 0. -1.
       -2    1    3    3    0  502  0.86881633108E+03 -0.13479977411E+03  0.77947542508E+03  0.11749871210E+04  0.25500000920E-02 0.  1.
</event>
<event>
 5   0  0.4756800E-06  0.2694063E+04  0.7818609E-02  0.8336934E-01
        1   -1    0    0  501    0  0.00000000000E+00  0.00000000000E+00  0.27678287010E+04  0.27678287010E+04  0.50400001928E-02 0.  1.
       -1   -1    0    0    0  501  0.00000000000E+00  0.00000000000E+00 -0.65556590617E+03  0.65556590619E+03  0.50400001928E-02 0. -1.
    10030    2    1    2    0    0  0.00000000000E+00  0.00000000000E+00  0.21122627948E+04  0.34233946072E+04  0.26940631994E+04 0.  0.
        4    1    3    3  502    0 -0.58014353930E+03  0.12155513915E+04  0.10802685527E+04  0.17265901281E+04  0.12699999809E+01 0. -1.
       -4    1    3    3    0  502  0.58014353930E+03 -0.12155513915E+04  0.10319942421E+04  0.16968044791E+04  0.12699999809E+01 0.  1.
</event>
<event>
 5   0  0.4756800E-06  0.2726411E+04  0.7818609E-02  0.8326486E-01
       -1   -1    0    0    0  501  0.00000000000E+00  0.00000000000E+00  0.76402372940E+03  0.76402372941E+03  0.50400001928E-02 0.  1.
        1   -1    0    0  501    0  0.00000000000E+00  0.00000000000E+00 -0.24322932391E+04  0.24322932391E+04  0.50400001928E-02 0. -1.
    10030    2    1    2    0    0  0.00000000000E+00  0.00000000000E+00 -0.16682695097E+04  0.31963169685E+04  0.27264113788E+04 0.  0.
        4    1    3    3  502    0  0.72941521268E+03  0.10545966275E+04 -0.29166636684E+03  0.13150252779E+04  0.12699999809E+01 0.  1.
       -4    1    3    3    0  502 -0.72941521268E+03 -0.10545966275E+04 -0.13766031429E+04  0.18812916906E+04  0.12699999809E+01 0. -1.
</event>
<event>
 5   0  0.1232559E-05  0.2687922E+04  0.7818609E-02  0.8338934E-01
        2   -1    0    0  501    0  0.00000000000E+00  0.00000000000E+00  0.18387662246E+04  0.18387662246E+04  0.25500000920E-02 0.  1.
       -2   -1    0    0    0  501  0.00000000000E+00  0.00000000000E+00 -0.98230630442E+03  0.98230630443E+03  0.25500000920E-02 0. -1.
    10030    2    1    2    0    0  0.00000000000E+00  0.00000000000E+00  0.85645992017E+03  0.28210725290E+04  0.26879223611E+04 0.  0.
        3    1    3    3  502    0  0.88163130021E+03  0.93688276933E+03  0.83634794820E+03  0.15344383251E+04  0.10100000352E+00 0.  1.
       -3    1    3    3    0  502 -0.88163130021E+03 -0.93688276933E+03  0.20111971967E+02  0.12866342039E+04  0.10100000352E+00 0. -1.
</event>
<event>
 5   0  0.1286641E-05  0.2395656E+04  0.7818609E-02  0.8441132E-01
        2   -1    0    0  501    0  0.00000000000E+00  0.00000000000E+00  0.19672508853E+04  0.19672508853E+04  0.25500000920E-02 0. -1.
       -2   -1    0    0    0  501  0.00000000000E+00  0.00000000000E+00 -0.72933829146E+03  0.72933829146E+03  0.25500000920E-02 0.  1.
    10030    2    1    2    0    0  0.00000000000E+00  0.00000000000E+00  0.12379125938E+04  0.26965891767E+04  0.23956555675E+04 0.  0.
        4    1    3    3  502    0  0.68995974410E+03  0.47432139853E+03 -0.34524735445E+03  0.90566140816E+03  0.12699999809E+01 0.  1.
       -4    1    3    3    0  502 -0.68995974410E+03 -0.47432139853E+03  0.15831599483E+04  0.17909277686E+04  0.12699999809E+01 0. -1.
</event>
<event>
 5   0  0.1286641E-05  0.2181855E+04  0.7818609E-02  0.8526019E-01
       -2   -1    0    0    0  501  0.00000000000E+00  0.00000000000E+00  0.11778657594E+04  0.11778657594E+04  0.25500000920E-02 0. -1.
        2   -1    0    0  501    0  0.00000000000E+00  0.00000000000E+00 -0.10104063064E+04  0.10104063064E+04  0.25500000920E-02 0.  1.
    10030    2    1    2    0    0  0.00000000000E+00  0.00000000000E+00  0.16745945308E+03  0.21882720658E+04  0.21818551660E+04 0.  0.
        4    1    3    3  502    0  0.46601836130E+02  0.74688219564E+03 -0.71240372102E+03  0.10332112175E+04  0.12699999809E+01 0.  1.
       -4    1    3    3    0  502 -0.46601836130E+02 -0.74688219564E+03  0.87986317410E+03  0.11550608483E+04  0.12699999809E+01 0. -1.
</event>
<event>
 5   0  0.4824715E-06  0.2674558E+04  0.7818609E-02  0.8343307E-01
        1   -1    0    0  501    0  0.00000000000E+00  0.00000000000E+00  0.16524248744E+04  0.16524248744E+04  0.50400001928E-02 0.  1.
       -1   -1    0    0    0  501  0.00000000000E+00  0.00000000000E+00 -0.10822369423E+04  0.10822369423E+04  0.50400001928E-02 0. -1.
    10030    2    1    2    0    0  0.00000000000E+00  0.00000000000E+00  0.57018793213E+03  0.27346618167E+04  0.26745580895E+04 0.  0.
        5    1    3    3  502    0 -0.39805142007E+02 -0.28247721356E+03 -0.10507556840E+04  0.10888009106E+04  0.46999998093E+01 0. -1.
       -5    1    3    3    0  502  0.39805142007E+02  0.28247721356E+03  0.16209436161E+04  0.16458609061E+04  0.46999998093E+01 0.  1.
</event>
<event>
 5   0  0.5152288E-06  0.2679354E+04  0.7818609E-02  0.8341735E-01
        1   -1    0    0  501    0  0.00000000000E+00  0.00000000000E+00  0.12954278606E+04  0.12954278606E+04  0.50400001928E-02 0. -1.
       -1   -1    0    0    0  501  0.00000000000E+00  0.00000000000E+00 -0.13854373572E+04  0.13854373572E+04  0.50400001928E-02 0.  1.
    10030    2    1    2    0    0  0.00000000000E+00  0.00000000000E+00 -0.90009496599E+02  0.26808652178E+04  0.26793537666E+04 0.  0.
        3    1    3    3  502    0 -0.86470579932E+03  0.57033380040E+03 -0.89503526949E+03  0.13689722083E+04  0.10100000352E+00 0.  1.
       -3    1    3    3    0  502  0.86470579932E+03 -0.57033380040E+03  0.80502577289E+03  0.13118930095E+04  0.10100000352E+00 0. -1.
</event>
<event>
 5   0  0.1286641E-05  0.2270918E+04  0.7818609E-02  0.8489477E-01
       -2   -1    0    0    0  501  0.00000000000E+00  0.00000000000E+00  0.16727454845E+04  0.16727454845E+04  0.25500000920E-02 0. -1.
        2   -1    0    0  501    0  0.00000000000E+00  0.00000000000E+00 -0.77074926354E+03  0.77074926354E+03  0.25500000920E-02 0.  1.
    10030    2    1    2    0    0  0.00000000000E+00  0.00000000000E+00  0.90199622094E+03  0.24434947480E+04  0.22709181846E+04 0.  0.
        4    1    3    3  502    0  0.50097712603E+03 -0.46487408547E+03 -0.52465022430E+03  0.86159472312E+03  0.12699999809E+01 0.  1.
       -4    1    3    3    0  502 -0.50097712603E+03  0.46487408547E+03  0.14266464452E+04  0.15819000249E+04  0.12699999809E+01 0. -1.
</event>
<event>
 5   0  0.1261364E-05  0.2697058E+04  0.7818609E-02  0.8335960E-01
        2   -1    0    0  501    0  0.00000000000E+00  0.00000000000E+00  0.11579112336E+04  0.11579112337E+04  0.25500000920E-02 0. -1.
       -2   -1    0    0    0  501  0.00000000000E+00  0.00000000000E+00 -0.15705263475E+04  0.15705263475E+04  0.25500000920E-02 0.  1.
    10030    2    1    2    0    0  0.00000000000E+00  0.00000000000E+00 -0.41261511385E+03  0.27284375811E+04  0.26970577306E+04 0.  0.
        5    1    3    3  502    0 -0.13805678910E+03 -0.87334176029E+03 -0.12363498166E+04  0.15199896270E+04  0.46999998093E+01 0.  1.
       -5    1    3    3    0  502  0.13805678910E+03  0.87334176029E+03  0.82373470275E+03  0.12084479541E+04  0.46999998093E+01 0. -1.
</event>
<event>
 5   0  0.4824715E-06  0.2700718E+04  0.7818609E-02  0.8334772E-01
        1   -1    0    0  501    0  0.00000000000E+00  0.00000000000E+00  0.15303144511E+04  0.15303144511E+04  0.50400001928E-02 0.  1.
       -1   -1    0    0    0  501  0.00000000000E+00  0.00000000000E+00 -0.11915651592E+04  0.11915651593E+04  0.50400001928E-02 0. -1.
    10030    2    1    2    0    0  0.00000000000E+00  0.00000000000E+00  0.33874929185E+03  0.27218796104E+04  0.27007179658E+04 0.  0.
        5    1    3    3  502    0  0.78402100990E+03 -0.92551523976E+03  0.76747210223E+03  0.14353755330E+04  0.46999998093E+01 0.  1.
       -5    1    3    3    0  502 -0.78402100990E+03  0.92551523976E+03 -0.42872281038E+03  0.12865040774E+04  0.46999998093E+01 0. -1.
</event>
<event>
 5   0  0.5152288E-06  0.2673842E+04  0.7818609E-02  0.8343543E-01
       -1   -1    0    0    0  501  0.00000000000E+00  0.00000000000E+00  0.71054364242E+03  0.71054364244E+03  0.50400001928E-02 0.  1.
        1   -1    0    0  501    0  0.00000000000E+00  0.00000000000E+00 -0.25154788104E+04  0.25154788104E+04  0.50400001928E-02 0. -1.
    10030    2    1    2    0    0  0.00000000000E+00  0.00000000000E+00 -0.18049351679E+04  0.32260224528E+04  0.26738417877E+04 0.  0.
        3    1    3    3  502    0 -0.22687080419E+03 -0.11906948534E+04 -0.22195532767E+03  0.12322697649E+04  0.10100000352E+00 0.  1.
       -3    1    3    3    0  502  0.22687080419E+03  0.11906948534E+04 -0.15829798403E+04  0.19937526879E+04  0.10100000352E+00 0. -1.
</event>
<event>
 5   0  0.1220908E-05  0.2690696E+04  0.7818609E-02  0.8338030E-01
        2   -1    0    0  501    0  0.00000000000E+00  0.00000000000E+00  0.90146337227E+03  0.90146337227E+03  0.25500000920E-02 0.  1.
       -2   -1    0    0    0  501  0.00000000000E+00  0.00000000000E+00 -0.20078041040E+04  0.20078041040E+04  0.25500000920E-02 0. -1.
    10030    2    1    2    0    0  0.00000000000E+00  0.00000000000E+00 -0.11063407317E+04  0.29092674763E+04  0.26906964589E+04 0.  0.
        2    1    3    3  502    0 -0.57301165902E+03 -0.98863403703E+03  0.21459751994E+03  0.11626657801E+04  0.25500000920E-02 0.  1.
       -2    1    3    3    0  502  0.57301165902E+03  0.98863403703E+03 -0.13209382517E+04  0.17466016962E+04  0.25500000920E-02 0. -1.
</event>
<event>
 5   0  0.1261364E-05  0.2692702E+04  0.7818609E-02  0.8337377E-01
       -2   -1    0    0    0  501  0.00000000000E+00  0.00000000000E+00  0.89182977527E+03  0.89182977528E+03  0.25500000920E-02 0.  1.
        2   -1    0    0  501    0  0.00000000000E+00  0.00000000000E+00 -0.20325192682E+04  0.20325192682E+04  0.25500000920E-02 0. -1.
    10030    2    1    2    0    0  0.00000000000E+00  0.00000000000E+00 -0.11406894929E+04  0.29243490434E+04  0.26927021389E+04 0.  0.
        5    1    3    3  502    0 -0.10688227294E+04 -0.75322779662E+03 -0.91872944447E+03  0.15980675901E+04  0.46999998093E+01 0.  1.
       -5    1    3    3    0  502  0.10688227294E+04  0.75322779662E+03 -0.22196004842E+03  0.13262814533E+04  0.46999998093E+01 0. -1.
</event>
<event>
 5   0  0.1276517E-05  0.2760739E+04  0.7818609E-02  0.8315562E-01
        2   -1    0    0  501    0  0.00000000000E+00  0.00000000000E+00  0.31055492046E+04  0.31055492046E+04  0.25500000920E-02 0.  1.
       -2   -1    0    0    0  501  0.00000000000E+00  0.00000000000E+00 -0.61355326962E+03  0.61355326963E+03  0.25500000920E-02 0. -1.
    10030    2    1    2    0    0  0.00000000000E+00  0.00000000000E+00  0.24919959350E+04  0.37191024743E+04  0.27607389362E+04 0.  0.
        1    1    3    3  502    0  0.10268207022E+03  0.12428982625E+04  0.44892779047E+03  0.13254719385E+04  0.50400001928E-02 0. -1.
       -1    1    3    3    0  502 -0.10268207022E+03 -0.12428982625E+04  0.20430681445E+04  0.23936305358E+04  0.50400001928E-02 0.  1.
</event>
<event>
 5   0  0.1286641E-05  0.2691587E+04  0.7818609E-02  0.8337740E-01
       -2   -1    0    0    0  501  0.00000000000E+00  0.00000000000E+00  0.19520775918E+04  0.19520775918E+04  0.25500000920E-02 0.  1.
        2   -1    0    0  501    0  0.00000000000E+00  0.00000000000E+00 -0.92781125206E+03  0.92781125206E+03  0.25500000920E-02 0. -1.
    10030    2    1    2    0    0  0.00000000000E+00  0.00000000000E+00  0.10242663397E+04  0.28798888439E+04  0.26915865615E+04 0.  0.
        4    1    3    3  502    0 -0.20366630341E+03  0.11536951728E+04 -0.19652056053E+03  0.11879033877E+04  0.12699999809E+01 0.  1.
       -4    1    3    3    0  502  0.20366630341E+03 -0.11536951728E+04  0.12207869003E+04  0.16919854561E+04  0.12699999809E+01 0. -1.
</event>
<event>
 5   0  0.1261364E-05  0.2649948E+04  0.7818609E-02  0.8351430E-01
        2   -1    0    0  501    0  0.00000000000E+00  0.00000000000E+00  0.14999830162E+04  0.14999830162E+04  0.25500000920E-02 0.  1.
       -2   -1    0    0    0  501  0.00000000000E+00  0.00000000000E+00 -0.11703843681E+04  0.11703843681E+04  0.25500000920E-02 0. -1.
    10030    2    1    2    0    0  0.00000000000E+00  0.00000000000E+00  0.32959864804E+03  0.26703673843E+04  0.26499484331E+04 0.  0.
        5    1    3    3  502    0  0.22033107347E+03 -0.11622873577E+04  0.76611910795E+03  0.14094035126E+04  0.46999998093E+01 0.  1.
       -5    1    3    3    0  502 -0.22033107347E+03  0.11622873577E+04 -0.43652045991E+03  0.12609638717E+04  0.46999998093E+01 0. -1.
</event>
<event>
 5   0  0.1232559E-05  0.2681030E+04  0.7818609E-02  0.8341186E-01
        2   -1    0    0  501    0  0.00000000000E+00  0.00000000000E+00  0.22489927294E+04  0.22489927294E+04  0.25500000920E-02 0. -1.
       -2   -1    0    0    0  501  0.00000000000E+00  0.00000000000E+00 -0.79901589087E+03  0.79901589088E+03  0.25500000920E-02 0.  1.
    10030    2    1    2    0    0  0.00000000000E+00  0.00000000000E+00  0.14499768386E+04  0.30480086203E+04  0.26810303462E+04 0.  0.
        3    1    3    3  502    0 -0.92380214826E+03 -0.42160054700E+03 -0.26991014119E+03  0.10507182900E+04  0.10100000352E+00 0.  1.
       -3    1    3    3    0  502  0.92380214826E+03  0.42160054700E+03  0.17198869798E+04  0.19972903303E+04  0.10100000352E+00 0. -1.
</event>
<event>
 5   0  0.4756800E-06  0.2702195E+04  0.7818609E-02  0.8334293E-01
        1   -1    0    0  501    0  0.00000000000E+00  0.00000000000E+00  0.23126773336E+04  0.23126773336E+04  0.50400001928E-02 0.  1.
       -1   -1    0    0    0  501  0.00000000000E+00  0.00000000000E+00 -0.78932944042E+03  0.78932944044E+03  0.50400001928E-02 0. -1.
    10030    2    1    2    0    0  0.00000000000E+00  0.00000000000E+00  0.15233478932E+04  0.31020067741E+04  0.27021948898E+04 0.  0.
        4    1    3    3  502    0  0.78541205987E+02 -0.12381172362E+04  0.14737183443E+03  0.12493290528E+04  0.12699999809E+01 0. -1.
       -4    1    3    3    0  502 -0.78541205987E+02  0.12381172362E+04  0.13759760588E+04  0.18526777213E+04  0.12699999809E+01 0.  1.
</event>
<event>
 5   0  0.1261364E-05  0.2666579E+04  0.7818609E-02  0.8345931E-01
        2   -1    0    0  501    0  0.00000000000E+00  0.00000000000E+00  0.19892816613E+04  0.19892816613E+04  0.25500000920E-02 0.  1.
       -2   -1    0    0    0  501  0.00000000000E+00  0.00000000000E+00 -0.89361920424E+03  0.89361920424E+03  0.25500000920E-02 0. -1.
    10030    2    1    2    0    0  0.00000000000E+00  0.00000000000E+00  0.10956624570E+04  0.28829008655E+04  0.26665785532E+04 0.  0.
        5    1    3    3  502    0  0.44294708636E+02  0.11813717423E+04 -0.11865052150E+03  0.11881503486E+04  0.46999998093E+01 0. -1.
       -5    1    3    3    0  502 -0.44294708636E+02 -0.11813717423E+04  0.12143129785E+04  0.16947505169E+04  0.46999998093E+01 0.  1.
</event>
<event>
 5   0  0.4824715E-06  0.2729209E+04  0.7818609E-02  0.8325590E-01
        1   -1    0    0  501    0  0.00000000000E+00  0.00000000000E+00  0.19214667222E+04  0.19214667222E+04  0.50400001928E-02 0.  1.
       -1   -1    0    0    0  501  0.00000000000E+00  0.00000000000E+00 -0.96912690823E+03  0.96912690824E+03  0.50400001928E-02 0. -1.
    10030    2    1    2    0    0  0.00000000000E+00  0.00000000000E+00  0.95233981396E+03  0.28905936304E+04  0.27292087526E+04 0.  0.
        5    1    3    3  502    0 -0.10928522201E+03 -0.83932708842E+03 -0.65750255815E+03  0.10717951880E+04  0.46999998093E+01 0. -1.
       -5    1    3    3    0  502  0.10928522201E+03  0.83932708842E+03  0.16098423721E+04  0.18187984424E+04  0.46999998093E+01 0.  1.
</event>
<event>
 5   0  0.4824715E-06  0.2381699E+04  0.7818609E-02  0.8446387E-01
       -1   -1    0    0    0  501  0.00000000000E+00  0.00000000000E+00  0.74063025354E+03  0.74063025356E+03  0.50400001928E-02 0.  1.
        1   -1    0    0  501    0  0.00000000000E+00  0.00000000000E+00 -0.19147509143E+04  0.19147509143E+04  0.50400001928E-02 0. -1.
    10030    2    1    2    0    0  0.00000000000E+00  0.00000000000E+00 -0.11741206608E+04  0.26553811679E+04  0.23816989358E+04 0.  0.
        5    1    3    3  502    0  0.10040250199E+04  0.44191001218E+03 -0.11037220161E+04  0.15561410856E+04  0.46999998093E+01 0. -1.
       -5    1    3    3    0  502 -0.10040250199E+04 -0.44191001218E+03 -0.70398644650E+02  0.10992400823E+04  0.46999998093E+01 0.  1.
</event>
<event>
 5   0  0.4824715E-06  0.2716002E+04  0.7818609E-02  0.8329831E-01
        1   -1    0    0  501    0  0.00000000000E+00  0.00000000000E+00  0.29705296559E+04  0.29705296559E+04  0.50400001928E-02 0. -1.
       -1   -1    0    0    0  501  0.00000000000E+00  0.00000000000E+00 -0.62082085673E+03  0.62082085675E+03  0.50400001928E-02 0.  1.
    10030    2    1    2    0    0  0.00000000000E+00  0.00000000000E+00  0.23497087992E+04  0.35913505126E+04  0.27160020368E+04 0.  0.
        5    1    3    3  502    0  0.25953516158E+03  0.13320587692E+04  0.12397089476E+04  0.18381075674E+04  0.46999998093E+01 0.  1.
       -5    1    3    3    0  502 -0.25953516158E+03 -0.13320587692E+04  0.11099998516E+04  0.17532429453E+04  0.46999998093E+01 0. -1.
</event>
<event>
 5   0  0.4826140E-06  0.2699992E+04  0.7818609E-02  0.8335008E-01
       -1   -1    0    0    0  501  0.00000000000E+00  0.00000000000E+00  0.81947254439E+03  0.81947254441E+03  0.50400001928E-02 0.  1.
        1   -1    0    0  501    0  0.00000000000E+00  0.00000000000E+00 -0.22239775933E+04  0.22239775933E+04  0.50400001928E-02 0. -1.
    10030    2    1    2    0    0  0.00000000000E+00  0.00000000000E+00 -0.14045050489E+04  0.30434501378E+04  0.26999915386E+04 0.  0.
        1    1    3    3  502    0  0.64691329142E+03 -0.20784985328E+03  0.61266761058E+03  0.91490981479E+03  0.50400001928E-02 0.  1.
       -1    1    3    3    0  502 -0.64691329142E+03  0.20784985328E+03 -0.20171726595E+04  0.21285403230E+04  0.50400001928E-02 0. -1.
</event>
<event>
 5   0  0.1232559E-05  0.2164030E+04  0.7818609E-02  0.8533550E-01
        2   -1    0    0  501    0  0.00000000000E+00  0.00000000000E+00  0.13361535259E+04  0.13361535259E+04  0.25500000920E-02 0. -1.
       -2   -1    0    0    0  501  0.00000000000E+00  0.00000000000E+00 -0.87621437217E+03  0.87621437217E+03  0.25500000920E-02 0.  1.
    10030    2    1    2    0    0  0.00000000000E+00  0.00000000000E+00  0.45993915369E+03  0.22123678980E+04  0.21640304275E+04 0.  0.
        3    1    3    3  502    0  0.72021584679E+03  0.65488913889E+03 -0.25298718967E+03  0.10057798857E+04  0.10100000352E+00 0.  1.
       -3    1    3    3    0  502 -0.72021584679E+03 -0.65488913889E+03  0.71292634337E+03  0.12065880123E+04  0.10100000352E+00 0. -1.
</event>
<event>
 5   0  0.4846214E-06  0.2725794E+04  0.7818609E-02  0.8326684E-01
       -1   -1    0    0    0  501  0.00000000000E+00  0.00000000000E+00  0.77791438448E+03  0.77791438450E+03  0.50400001928E-02 0.  1.
        1   -1    0    0  501    0  0.00000000000E+00  0.00000000000E+00 -0.23877801854E+04  0.23877801854E+04  0.50400001928E-02 0. -1.
    10030    2    1    2    0    0  0.00000000000E+00  0.00000000000E+00 -0.16098658009E+04  0.31656945699E+04  0.27257942352E+04 0.  0.
        2    1    3    3  502    0 -0.93872954386E+03 -0.31297825924E+03 -0.18933674780E+04  0.21363541266E+04  0.25500000920E-02 0. -1.
       -2    1    3    3    0  502  0.93872954386E+03  0.31297825924E+03  0.28350167714E+03  0.10293404433E+04  0.25500000920E-02 0.  1.
</event>
<event>
 5   0  0.4756800E-06  0.2694447E+04  0.7818609E-02  0.8336809E-01
       -1   -1    0    0    0  501  0.00000000000E+00  0.00000000000E+00  0.10844195902E+04  0.10844195902E+04  0.50400001928E-02 0. -1.
        1   -1    0    0  501    0  0.00000000000E+00  0.00000000000E+00 -0.16737161969E+04  0.16737161969E+04  0.50400001928E-02 0.  1.
    10030    2    1    2    0    0  0.00000000000E+00  0.00000000000E+00 -0.58929660672E+03  0.27581357872E+04  0.26944466092E+04 0.  0.
        4    1    3    3  502    0  0.12898169022E+04  0.20459933018E+01 -0.69291710163E+03  0.14641610396E+04  0.12699999809E+01 0.  1.
       -4    1    3    3    0  502 -0.12898169022E+04 -0.20459933018E+01  0.10362049491E+03  0.12939747475E+04  0.12699999809E+01 0. -1.
</event>
<event>
 5   0  0.1220908E-05  0.2675305E+04  0.7818609E-02  0.8343062E-01
        2   -1    0    0  501    0  0.00000000000E+00  0.00000000000E+00  0.13832874351E+04  0.13832874351E+04  0.25500000920E-02 0. -1.
       -2   -1    0    0    0  501  0.00000000000E+00  0.00000000000E+00 -0.12935229253E+04  0.12935229253E+04  0.25500000920E-02 0.  1.
    10030    2    1    2    0    0  0.00000000000E+00  0.00000000000E+00  0.89764509772E+02  0.26768103603E+04  0.26753048495E+04 0.  0.
        2    1    3    3  502    0  0.21850330034E+03 -0.79988623749E+03  0.10951168389E+04  0.13736238845E+04  0.25500000920E-02 0. -1.
       -2    1    3    3    0  502 -0.21850330034E+03  0.79988623749E+03 -0.10053523291E+04  0.13031864759E+04  0.25500000920E-02 0.  1.
</event>
<event>
 5   0  0.1220908E-05  0.2744326E+04  0.7818609E-02  0.8320764E-01
        2   -1    0    0  501    0  0.00000000000E+00  0.00000000000E+00  0.18780134002E+04  0.18780134002E+04  0.25500000920E-02 0. -1.
       -2   -1    0    0    0  501  0.00000000000E+00  0.00000000000E+00 -0.10025657529E+04  0.10025657529E+04  0.25500000920E-02 0.  1.
    10030    2    1    2    0    0  0.00000000000E+00  0.00000000000E+00  0.87544764736E+03  0.28805791531E+04  0.27443264518E+04 0.  0.
        2    1    3    3  502    0  0.60198464326E+03 -0.94285834020E+03  0.12718246122E+04  0.16937842851E+04  0.25500000920E-02 0. -1.
       -2    1    3    3    0  502 -0.60198464326E+03  0.94285834020E+03 -0.39637696479E+03  0.11867948680E+04  0.25500000920E-02 0.  1.
</event>
<event>
 5   0  0.4826140E-06  0.2704120E+04  0.7818609E-02  0.8333670E-01
       -1   -1    0    0    0  501  0.00000000000E+00  0.00000000000E+00  0.75439469481E+03  0.75439469482E+03  0.50400001928E-02 0. -1.
        1   -1    0    0  501    0  0.00000000000E+00  0.00000000000E+00 -0.24232217267E+04  0.24232217267E+04  0.50400001928E-02 0.  1.
    10030    2    1    2    0    0  0.00000000000E+00  0.00000000000E+00 -0.16688270319E+04  0.31776164215E+04  0.27041195351E+04 0.  0.
        1    1    3    3  502    0 -0.68992054138E+03  0.11608551424E+04 -0.91315938347E+03  0.16301641251E+04  0.50400001928E-02 0.  1.
       -1    1    3    3    0  502  0.68992054138E+03 -0.11608551424E+04 -0.75566764842E+03  0.15474522965E+04  0.50400001928E-02 0. -1.
</event>
<event>
 5   0  0.1261364E-05  0.2717755E+04  0.7818609E-02  0.8329267E-01
        2   -1    0    0  501    0  0.00000000000E+00  0.00000000000E+00  0.23998371637E+04  0.23998371637E+04  0.25500000920E-02 0.  1.
       -2   -1    0    0    0  501  0.00000000000E+00  0.00000000000E+00 -0.76944744926E+03  0.76944744926E+03  0.25500000920E-02 0. -1.
    10030    2    1    2    0    0  0.00000000000E+00  0.00000000000E+00  0.16303897144E+04  0.31692846129E+04  0.27177553858E+04 0.  0.
        5    1    3    3  502    0 -0.45985207337E+03  0.37963268281E+03  0.22391004374E+04  0.23171486276E+04  0.46999998093E+01 0.  1.
       -5    1    3    3    0  502  0.45985207337E+03 -0.37963268281E+03 -0.60871072303E+03  0.85213598537E+03  0.46999998093E+01 0. -1.
</event>
<event>
 5   0  0.5152288E-06  0.2762885E+04  0.7818609E-02  0.8314884E-01
        1   -1    0    0  501    0  0.00000000000E+00  0.00000000000E+00  0.19768137314E+04  0.19768137315E+04  0.50400001928E-02 0.  1.
       -1   -1    0    0    0  501  0.00000000000E+00  0.00000000000E+00 -0.96538371682E+03  0.96538371683E+03  0.50400001928E-02 0. -1.
    10030    2    1    2    0    0  0.00000000000E+00  0.00000000000E+00  0.10114300146E+04  0.29421974483E+04  0.27628852944E+04 0.  0.
        3    1    3    3  502    0  0.13487603171E+04 -0.10799094441E+03  0.80229947959E+03  0.15730546406E+04  0.10100000352E+00 0.  1.
       -3    1    3    3    0  502 -0.13487603171E+04  0.10799094441E+03  0.20913053503E+03  0.13691428077E+04  0.10100000352E+00 0. -1.
</event>
<event>
 5   0  0.1286641E-05  0.2679779E+04  0.7818609E-02  0.8341596E-01
       -2   -1    0    0    0  501  0.00000000000E+00  0.00000000000E+00  0.11522947715E+04  0.11522947715E+04  0.25500000920E-02 0.  1.
        2   -1    0    0  501    0  0.00000000000E+00  0.00000000000E+00 -0.15580250227E+04  0.15580250227E+04  0.25500000920E-02 0. -1.
    10030    2    1    2    0    0  0.00000000000E+00  0.00000000000E+00 -0.40573025120E+03  0.27103197942E+04  0.26797791607E+04 0.  0.
        4    1    3    3  502    0 -0.10039807440E+04  0.75598001901E+03  0.26699297922E+03  0.12848229401E+04  0.12699999809E+01 0.  1.
       -4    1    3    3    0  502  0.10039807440E+04 -0.75598001901E+03 -0.67272323042E+03  0.14254968541E+04  0.12699999809E+01 0. -1.
</event>
<event>
 5   0  0.4846214E-06  0.2708304E+04  0.7818609E-02  0.8332316E-01
       -1   -1    0    0    0  501  0.00000000000E+00  0.00000000000E+00  0.94653788867E+03  0.94653788868E+03  0.50400001928E-02 0. -1.
        1   -1    0    0  501    0  0.00000000000E+00  0.00000000000E+00 -0.19373003294E+04  0.19373003294E+04  0.50400001928E-02 0.  1.
    10030    2    1    2    0    0  0.00000000000E+00  0.00000000000E+00 -0.99076244074E+03  0.28838382181E+04  0.27083043873E+04 0.  0.
        2    1    3    3  502    0  0.10197231363E+04  0.45724378039E+03  0.31891966043E+03  0.11621604447E+04  0.25500000920E-02 0. -1.
       -2    1    3    3    0  502 -0.10197231363E+04 -0.45724378039E+03 -0.13096821012E+04  0.17216777734E+04  0.25500000920E-02 0.  1.
</event>
<event>
 5   0  0.4826140E-06  0.2446072E+04  0.7818609E-02  0.8422453E-01
       -1   -1    0    0    0  501  0.00000000000E+00  0.00000000000E+00  0.77060248709E+03  0.77060248711E+03  0.50400001928E-02 0.  1.
        1   -1    0    0  501    0  0.00000000000E+00  0.00000000000E+00 -0.19411011798E+04  0.19411011798E+04  0.50400001928E-02 0. -1.
    10030    2    1    2    0    0  0.00000000000E+00  0.00000000000E+00 -0.11704986927E+04  0.27117036669E+04  0.24460722776E+04 0.  0.
        1    1    3    3  502    0 -0.39699256682E+03  0.30292837537E+03  0.65243570879E+03  0.82160881984E+03  0.50400001928E-02 0.  1.
       -1    1    3    3    0  502  0.39699256682E+03 -0.30292837537E+03 -0.18229344015E+04  0.18900948470E+04  0.50400001928E-02 0. -1.
</event>
<event>
 5   0  0.4826140E-06  0.2695487E+04  0.7818609E-02  0.8336471E-01
       -1   -1    0    0    0  501  0.00000000000E+00  0.00000000000E+00  0.10831283388E+04  0.10831283388E+04  0.50400001928E-02 0. -1.
        1   -1    0    0  501    0  0.00000000000E+00  0.00000000000E+00 -0.16770060369E+04  0.16770060369E+04  0.50400001928E-02 0.  1.
    10030    2    1    2    0    0  0.00000000000E+00  0.00000000000E+00 -0.59387769812E+03  0.27601343757E+04  0.26954871641E+04 0.  0.
        1    1    3    3  502    0  0.10594524540E+04 -0.37485592616E+03 -0.10587277201E+04  0.15439756646E+04  0.50400001928E-02 0.  1.
       -1    1    3    3    0  502 -0.10594524540E+04  0.37485592616E+03  0.46485002203E+03  0.12161587111E+04  0.50400001928E-02 0. -1.
</event>
<event>
 5   0  0.5152288E-06  0.2697846E+04  0.7818609E-02  0.8335704E-01
       -1   -1    0    0    0  501  0.00000000000E+00  0.00000000000E+00  0.84578265784E+03  0.84578265786E+03  0.50400001928E-02 0. -1.
        1   -1    0    0  501    0  0.00000000000E+00  0.00000000000E+00 -0.21513724924E+04  0.21513724924E+04  0.50400001928E-02 0.  1.
    10030    2    1    2    0    0  0.00000000000E+00  0.00000000000E+00 -0.13055898346E+04  0.29971551503E+04  0.26978462111E+04 0.  0.
        3    1    3    3  502    0 -0.11661000099E+03  0.46974581286E+03 -0.20515848341E+04  0.21079040212E+04  0.10100000352E+00 0.  1.
       -3    1    3    3    0  502  0.11661000099E+03 -0.46974581286E+03  0.74599499952E+03  0.88925112906E+03  0.10100000352E+00 0. -1.
</event>
<event>
 5   0  0.1286641E-05  0.2747772E+04  0.7818609E-02  0.8319669E-01
       -2   -1    0    0    0  501  0.00000000000E+00  0.00000000000E+00  0.10200486687E+04  0.10200486687E+04  0.25500000920E-02 0.  1.
        2   -1    0    0  501    0  0.00000000000E+00  0.00000000000E+00 -0.18504630166E+04  0.18504630166E+04  0.25500000920E-02 0. -1.
    10030    2    1    2    0    0  0.00000000000E+00  0.00000000000E+00 -0.83041434786E+03  0.28705116853E+04  0.27477717057E+04 0.  0.
        4    1    3    3  502    0 -0.26429104045E+03  0.11518313411E+04 -0.11472178949E+04  0.16470202499E+04  0.12699999809E+01 0. -1.
       -4    1    3    3    0  502  0.26429104045E+03 -0.11518313411E+04  0.31680354701E+03  0.12234914354E+04  0.12699999809E+01 0.  1.
</event>
<event>
 5   0  0.1276517E-05  0.2619198E+04  0.7818609E-02  0.8361709E-01
        2   -1    0    0  501    0  0.00000000000E+00  0.00000000000E+00  0.20159375164E+04  0.20159375164E+04  0.25500000920E-02 0.  1.
       -2   -1    0    0    0  501  0.00000000000E+00  0.00000000000E+00 -0.85074565859E+03  0.85074565859E+03  0.25500000920E-02 0. -1.
    10030    2    1    2    0    0  0.00000000000E+00  0.00000000000E+00  0.11651918578E+04  0.28666831750E+04  0.26191984194E+04 0.  0.
        1    1    3    3  502    0  0.11634075829E+04  0.59056882661E+03  0.45895576828E+03  0.13830868158E+04  0.50400001928E-02 0.  1.
       -1    1    3    3    0  502 -0.11634075829E+04 -0.59056882661E+03  0.70623608954E+03  0.14835963592E+04  0.50400001928E-02 0. -1.
</event>
<event>
 5   0  0.4846214E-06  0.2694969E+04  0.7818609E-02  0.8336639E-01
        1   -1    0    0  501    0  0.00000000000E+00  0.00000000000E+00  0.91001332614E+03  0.91001332616E+03  0.50400001928E-02 0. -1.
       -1   -1    0    0    0  501  0.00000000000E+00  0.00000000000E+00 -0.19952620873E+04  0.19952620873E+04  0.50400001928E-02 0.  1.
    10030    2    1    2    0    0  0.00000000000E+00  0.00000000000E+00 -0.10852487611E+04  0.29052754134E+04  0.26949694533E+04 0.  0.
        2    1    3    3  502    0 -0.63401848515E+03  0.37761805602E+03  0.67280630785E+03  0.99862063049E+03  0.25500000920E-02 0. -1.
       -2    1    3    3    0  502  0.63401848515E+03 -0.37761805602E+03 -0.17580550690E+04  0.19066547829E+04  0.25500000920E-02 0.  1.
</event>
<event>
 5   0  0.4846214E-06  0.2688570E+04  0.7818609E-02  0.8338723E-01
        1   -1    0    0  501    0  0.00000000000E+00  0.00000000000E+00  0.14042479838E+04  0.14042479838E+04  0.50400001928E-02 0. -1.
       -1   -1    0    0    0  501  0.00000000000E+00  0.00000000000E+00 -0.12868822214E+04  0.12868822214E+04  0.50400001928E-02 0.  1.
    10030    2    1    2    0    0  0.00000000000E+00  0.00000000000E+00  0.11736576242E+03  0.26911302052E+04  0.26885697051E+04 0.  0.
        2    1    3    3  502    0  0.75951722212E+03  0.76841597863E+02 -0.10488656971E+04  0.12972626150E+04  0.25500000920E-02 0.  1.
       -2    1    3    3    0  502 -0.75951722212E+03 -0.76841597863E+02  0.11662314595E+04  0.13938675902E+04  0.25500000920E-02 0. -1.
</event>
<event>
 5   0  0.4188000E-06  0.2738307E+04  0.7818609E-02  0.8322682E-01
       -3   -1    0    0    0  501  0.00000000000E+00  0.00000000000E+00  0.32899691242E+04  0.32899691258E+04  0.10100000352E+00 0. -1.
        3   -1    0    0  501    0  0.00000000000E+00  0.00000000000E+00 -0.56978670331E+03  0.56978671227E+03  0.10100000352E+00 0.  1.
    10030    2    1    2    0    0  0.00000000000E+00  0.00000000000E+00  0.27201824209E+04  0.38597558380E+04  0.27383065435E+04 0.  0.
        2    1    3    3  502    0  0.38225710383E+03 -0.52928280597E+03  0.30564199398E+04  0.31253741585E+04  0.25500000920E-02 0. -1.
       -2    1    3    3    0  502 -0.38225710383E+03  0.52928280597E+03 -0.33623751890E+03  0.73438167954E+03  0.25500000920E-02 0.  1.
</event>
<event>
 5   0  0.1286641E-05  0.2694105E+04  0.7818609E-02  0.8336920E-01
       -2   -1    0    0    0  501  0.00000000000E+00  0.00000000000E+00  0.12596501652E+04  0.12596501652E+04  0.25500000920E-02 0. -1.
        2   -1    0    0  501    0  0.00000000000E+00  0.00000000000E+00 -0.14405194975E+04  0.14405194975E+04  0.25500000920E-02 0.  1.
    10030    2    1    2    0    0  0.00000000000E+00  0.00000000000E+00 -0.18086933229E+03  0.27001696626E+04  0.26941051374E+04 0.  0.
        4    1    3    3  502    0 -0.51411838124E+03 -0.33157163835E+03 -0.12932576542E+04  0.14306552465E+04  0.12699999809E+01 0.  1.
       -4    1    3    3    0  502  0.51411838124E+03  0.33157163835E+03  0.11123883219E+04  0.12695144162E+04  0.12699999809E+01 0. -1.
</event>
<event>
 5   0  0.5152288E-06  0.2583692E+04  0.7818609E-02  0.8373762E-01
       -1   -1    0    0    0  501  0.00000000000E+00  0.00000000000E+00  0.12451763439E+04  0.12451763439E+04  0.50400001928E-02 0.  1.
        1   -1    0    0  501    0  0.00000000000E+00  0.00000000000E+00 -0.13402648477E+04  0.13402648477E+04  0.50400001928E-02 0. -1.
    10030    2    1    2    0    0  0.00000000000E+00  0.00000000000E+00 -0.95088503754E+02  0.25854411916E+04  0.25836919963E+04 0.  0.
        3    1    3    3  502    0  0.49619374509E+03  0.10032145994E+04  0.59804235693E+03  0.12689769249E+04  0.10100000352E+00 0.  1.
       -3    1    3    3    0  502 -0.49619374509E+03 -0.10032145994E+04 -0.69313086069E+03  0.13164642666E+04  0.10100000352E+00 0. -1.
</event>
<event>
 5   0  0.1286641E-05  0.2659735E+04  0.7818609E-02  0.8348189E-01
       -2   -1    0    0    0  501  0.00000000000E+00  0.00000000000E+00  0.15362504382E+04  0.15362504382E+04  0.25500000920E-02 0. -1.
        2   -1    0    0  501    0  0.00000000000E+00  0.00000000000E+00 -0.11512107673E+04  0.11512107673E+04  0.25500000920E-02 0.  1.
    10030    2    1    2    0    0  0.00000000000E+00  0.00000000000E+00  0.38503967090E+03  0.26874612054E+04  0.26597353595E+04 0.  0.
        4    1    3    3  502    0  0.31792160170E+03  0.39551414289E+03 -0.10495381735E+04  0.11657776686E+04  0.12699999809E+01 0.  1.
       -4    1    3    3    0  502 -0.31792160170E+03 -0.39551414289E+03  0.14345778444E+04  0.15216835369E+04  0.12699999809E+01 0. -1.
</event>
<event>
 5   0  0.5152288E-06  0.2759062E+04  0.7818609E-02  0.8316092E-01
       -1   -1    0    0    0  501  0.00000000000E+00  0.00000000000E+00  0.89603722975E+03  0.89603722977E+03  0.50400001928E-02 0. -1.
        1   -1    0    0  501    0  0.00000000000E+00  0.00000000000E+00 -0.21239141872E+04  0.21239141872E+04  0.50400001928E-02 0.  1.
    10030    2    1    2    0    0  0.00000000000E+00  0.00000000000E+00 -0.12278769574E+04  0.30199514169E+04  0.27590622933E+04 0.  0.
        3    1    3    3  502    0  0.43002130175E+03  0.92871950245E+03  0.39855230933E+03  0.10983087852E+04  0.10100000352E+00 0. -1.
       -3    1    3    3    0  502 -0.43002130175E+03 -0.92871950245E+03 -0.16264292667E+04  0.19216426317E+04  0.10100000352E+00 0.  1.
</event>
<event>
 5   0  0.5152288E-06  0.2716453E+04  0.7818609E-02  0.8329686E-01
       -1   -1    0    0    0  501  0.00000000000E+00  0.00000000000E+00  0.10674660320E+04  0.10674660320E+04  0.50400001928E-02 0.  1.
        1   -1    0    0  501    0  0.00000000000E+00  0.00000000000E+00 -0.17281857738E+04  0.17281857738E+04  0.50400001928E-02 0. -1.
    10030    2    1    2    0    0  0.00000000000E+00  0.00000000000E+00 -0.66071974178E+03  0.27956518058E+04  0.27164532836E+04 0.  0.
        3    1    3    3  502    0  0.46381584696E+03 -0.10183206667E+04  0.46194085165E+03  0.12105748555E+04  0.10100000352E+00 0.  1.
       -3    1    3    3    0  502 -0.46381584696E+03  0.10183206667E+04 -0.11226605934E+04  0.15850769503E+04  0.10100000352E+00 0. -1.
</event>
<event>
 5   0  0.1286641E-05  0.2697418E+04  0.7818609E-02  0.8335843E-01
        2   -1    0    0  501    0  0.00000000000E+00  0.00000000000E+00  0.11512837990E+04  0.11512837990E+04  0.25500000920E-02 0.  1.
       -2   -1    0    0    0  501  0.00000000000E+00  0.00000000000E+00 -0.15799890510E+04  0.15799890510E+04  0.25500000920E-02 0. -1.
    10030    2    1    2    0    0  0.00000000000E+00  0.00000000000E+00 -0.42870525198E+03  0.27312728500E+04  0.26974178742E+04 0.  0.
        4    1    3    3  502    0  0.22477376501E+03  0.13295945033E+04 -0.24055002620E+03  0.13697484137E+04  0.12699999809E+01 0.  1.
       -4    1    3    3    0  502 -0.22477376501E+03 -0.13295945033E+04 -0.18815522577E+03  0.13615244363E+04  0.12699999809E+01 0. -1.
</event>
<event>
 5   0  0.1276517E-05  0.2688351E+04  0.7818609E-02  0.8338795E-01
       -2   -1    0    0    0  501  0.00000000000E+00  0.00000000000E+00  0.84897752282E+03  0.84897752282E+03  0.25500000920E-02 0. -1.
        2   -1    0    0  501    0  0.00000000000E+00  0.00000000000E+00 -0.21282157831E+04  0.21282157831E+04  0.25500000920E-02 0.  1.
    10030    2    1    2    0    0  0.00000000000E+00  0.00000000000E+00 -0.12792382602E+04  0.29771933059E+04  0.26883506940E+04 0.  0.
        1    1    3    3  502    0 -0.25509667985E+03 -0.11435294489E+04 -0.13692491970E+04  0.18021035708E+04  0.50400001928E-02 0.  1.
       -1    1    3    3    0  502  0.25509667985E+03  0.11435294489E+04  0.90010936710E+02  0.11750897350E+04  0.50400001928E-02 0. -1.
</event>
<event>
 5   0  0.1220908E-05  0.2713636E+04  0.7818609E-02  0.8330594E-01
        2   -1    0    0  501    0  0.00000000000E+00  0.00000000000E+00  0.15874607232E+04  0.15874607232E+04  0.25500000920E-02 0.  1.
       -2   -1    0    0    0  501  0.00000000000E+00  0.00000000000E+00 -0.11596852152E+04  0.11596852152E+04  0.25500000920E-02 0. -1.
    10030    2    1    2    0    0  0.00000000000E+00  0.00000000000E+00  0.42777550796E+03  0.27471459385E+04  0.27136357386E+04 0.  0.
        2    1    3    3  502    0 -0.49282340862E+03  0.98904605382E+02  0.14897275197E+04  0.15722420666E+04  0.25500000920E-02 0.  1.
       -2    1    3    3    0  502  0.49282340862E+03 -0.98904605382E+02 -0.10619520117E+04  0.11749038719E+04  0.25500000920E-02 0. -1.
</event>
<event>
 5   0  0.1286641E-05  0.2708391E+04  0.7818609E-02  0.8332287E-01
       -2   -1    0    0    0  501  0.00000000000E+00  0.00000000000E+00  0.10936963706E+04  0.10936963706E+04  0.25500000920E-02 0. -1.
        2   -1    0    0  501    0  0.00000000000E+00  0.00000000000E+00 -0.16767413883E+04  0.16767413883E+04  0.25500000920E-02 0.  1.
    10030    2    1    2    0    0  0.00000000000E+00  0.00000000000E+00 -0.58304501762E+03  0.27704377589E+04  0.27083913830E+04 0.  0.
        4    1    3    3  502    0  0.12707482484E+04  0.45170786001E+03 -0.41681635479E+03  0.14115872584E+04  0.12699999809E+01 0.  1.
       -4    1    3    3    0  502 -0.12707482484E+04 -0.45170786001E+03 -0.16622866283E+03  0.13588505005E+04  0.12699999809E+01 0. -1.
</event>
<event>
 5   0  0.4826140E-06  0.2660383E+04  0.7818609E-02  0.8347975E-01
       -1   -1    0    0    0  501  0.00000000000E+00  0.00000000000E+00  0.12822740186E+04  0.12822740186E+04  0.50400001928E-02 0.  1.
        1   -1    0    0  501    0  0.00000000000E+00  0.00000000000E+00 -0.13798991618E+04  0.13798991618E+04  0.50400001928E-02 0. -1.
    10030    2    1    2    0    0  0.00000000000E+00  0.00000000000E+00 -0.97625143273E+02  0.26621731804E+04  0.26603825616E+04 0.  0.
        1    1    3    3  502    0  0.17042497966E+03  0.11083205223E+04 -0.76482879319E+03  0.13573437799E+04  0.50400001928E-02 0. -1.
       -1    1    3    3    0  502 -0.17042497966E+03 -0.11083205223E+04  0.66720364992E+03  0.13048294005E+04  0.50400001928E-02 0.  1.
</event>
<event>
 5   0  0.5152288E-06  0.2700065E+04  0.7818609E-02  0.8334984E-01
        1   -1    0    0  501    0  0.00000000000E+00  0.00000000000E+00  0.22417539642E+04  0.22417539642E+04  0.50400001928E-02 0.  1.
       -1   -1    0    0    0  501  0.00000000000E+00  0.00000000000E+00 -0.81301871219E+03  0.81301871221E+03  0.50400001928E-02 0. -1.
    10030    2    1    2    0    0  0.00000000000E+00  0.00000000000E+00  0.14287352520E+04  0.30547726764E+04  0.27000651259E+04 0.  0.
        3    1    3    3  502    0  0.82512965019E+03 -0.10676928433E+04  0.76211309526E+03  0.15497171766E+04  0.10100000352E+00 0. -1.
       -3    1    3    3    0  502 -0.82512965019E+03  0.10676928433E+04  0.66662215670E+03  0.15050554998E+04  0.10100000352E+00 0.  1.
</event>
<event>
 5   0  0.1220908E-05  0.2674284E+04  0.7818609E-02  0.8343397E-01
       -2   -1    0    0    0  501  0.00000000000E+00  0.00000000000E+00  0.70412312955E+03  0.70412312955E+03  0.25500000920E-02 0. -1.
        2   -1    0    0  501    0  0.00000000000E+00  0.00000000000E+00 -0.25392555949E+04  0.25392555949E+04  0.25500000920E-02 0.  1.
    10030    2    1    2    0    0  0.00000000000E+00  0.00000000000E+00 -0.18351324653E+04  0.32433787244E+04  0.26742839013E+04 0.  0.
        2    1    3    3  502    0  0.57413810982E+03 -0.14002963809E+03  0.53714281459E+03  0.79860207360E+03  0.25500000920E-02 0. -1.
       -2    1    3    3    0  502 -0.57413810982E+03  0.14002963809E+03 -0.23722752799E+04  0.24447766508E+04  0.25500000920E-02 0.  1.
</event>
<event>
 5   0  0.4846214E-06  0.2689188E+04  0.7818609E-02  0.8338522E-01
        1   -1    0    0  501    0  0.00000000000E+00  0.00000000000E+00  0.15400667171E+04  0.15400667171E+04  0.50400001928E-02 0. -1.
       -1   -1    0    0    0  501  0.00000000000E+00  0.00000000000E+00 -0.11739317279E+04  0.11739317279E+04  0.50400001928E-02 0.  1.
    10030    2    1    2    0    0  0.00000000000E+00  0.00000000000E+00  0.36613498917E+03  0.27139984450E+04  0.26891881171E+04 0.  0.
        2    1    3    3  502    0 -0.29833897657E+03  0.10102670753E+03  0.15023078986E+04  0.15349728215E+04  0.25500000920E-02 0. -1.
       -2    1    3    3    0  502  0.29833897657E+03 -0.10102670753E+03 -0.11361729094E+04  0.11790256234E+04  0.25500000920E-02 0.  1.
</event>
<event>
 5   0  0.4756800E-06  0.2697159E+04  0.7818609E-02  0.8335927E-01
       -1   -1    0    0    0  501  0.00000000000E+00  0.00000000000E+00  0.10307590058E+04  0.10307590058E+04  0.50400001928E-02 0.  1.
        1   -1    0    0  501    0  0.00000000000E+00  0.00000000000E+00 -0.17643959575E+04  0.17643959575E+04  0.50400001928E-02 0. -1.
    10030    2    1    2    0    0  0.00000000000E+00  0.00000000000E+00 -0.73363695175E+03  0.27951549633E+04  0.26971592633E+04 0.  0.
        4    1    3    3  502    0  0.15966757769E+03 -0.11748178780E+04 -0.10327981643E+04  0.15723754141E+04  0.12699999809E+01 0.  1.
       -4    1    3    3    0  502 -0.15966757769E+03  0.11748178780E+04  0.29916121255E+03  0.12227795492E+04  0.12699999809E+01 0. -1.
</event>
<event>
 5   0  0.4756800E-06  0.2697627E+04  0.7818609E-02  0.8335775E-01
       -1   -1    0    0    0  501  0.00000000000E+00  0.00000000000E+00  0.13104178011E+04  0.13104178011E+04  0.50400001928E-02 0.  1.
        1   -1    0    0  501    0  0.00000000000E+00  0.00000000000E+00 -0.13883342545E+04  0.13883342545E+04  0.50400001928E-02 0. -1.
    10030    2    1    2    0    0  0.00000000000E+00  0.00000000000E+00 -0.77916453436E+02  0.26987520556E+04  0.26976270469E+04 0.  0.
        4    1    3    3  502    0 -0.66951507464E+02  0.11849620987E+04  0.60215115222E+03  0.13308663730E+04  0.12699999809E+01 0.  1.
       -4    1    3    3    0  502  0.66951507464E+02 -0.11849620987E+04 -0.68006760566E+03  0.13678856827E+04  0.12699999809E+01 0. -1.
</event>
<event>
 5   0  0.1220908E-05  0.2669677E+04  0.7818609E-02  0.8344911E-01
       -2   -1    0    0    0  501  0.00000000000E+00  0.00000000000E+00  0.92160960882E+03  0.92160960883E+03  0.25500000920E-02 0. -1.
        2   -1    0    0  501    0  0.00000000000E+00  0.00000000000E+00 -0.19333505487E+04  0.19333505487E+04  0.25500000920E-02 0.  1.
    10030    2    1    2    0    0  0.00000000000E+00  0.00000000000E+00 -0.10117409399E+04  0.28549601575E+04  0.26696774659E+04 0.  0.
        2    1    3    3  502    0  0.41128104358E+03 -0.52071949127E+03  0.73274229583E+03  0.98854041774E+03  0.25500000920E-02 0. -1.
       -2    1    3    3    0  502 -0.41128104358E+03  0.52071949127E+03 -0.17444832357E+04  0.18664197398E+04  0.25500000920E-02 0.  1.
</event>
<event>
 5   0  0.4826140E-06  0.2722287E+04  0.7818609E-02  0.8327810E-01
        1   -1    0    0  501    0  0.00000000000E+00  0.00000000000E+00  0.15707454862E+04  0.15707454862E+04  0.50400001928E-02 0.  1.
       -1   -1    0    0    0  501  0.00000000000E+00  0.00000000000E+00 -0.11795108681E+04  0.11795108681E+04  0.50400001928E-02 0. -1.
    10030    2    1    2    0    0  0.00000000000E+00  0.00000000000E+00  0.39123461805E+03  0.27502563543E+04  0.27222868122E+04 0.  0.
        1    1    3    3  502    0  0.86080008958E+03 -0.53088717704E+03  0.11159618664E+04  0.15060507549E+04  0.50400001928E-02 0.  1.
       -1    1    3    3    0  502 -0.86080008958E+03  0.53088717704E+03 -0.72472724839E+03  0.12442055994E+04  0.50400001928E-02 0. -1.
</event>
<event>
 5   0  0.1220908E-05  0.2646128E+04  0.7818609E-02  0.8352699E-01
        2   -1    0    0  501    0  0.00000000000E+00  0.00000000000E+00  0.10378920344E+04  0.10378920344E+04  0.25500000920E-02 0.  1.
       -2   -1    0    0    0  501  0.00000000000E+00  0.00000000000E+00 -0.16865899863E+04  0.16865899863E+04  0.25500000920E-02 0. -1.
    10030    2    1    2    0    0  0.00000000000E+00  0.00000000000E+00 -0.64869795188E+03  0.27244820207E+04  0.26461279728E+04 0.  0.
        2    1    3    3  502    0 -0.37363244492E+02  0.12010620120E+04 -0.89441534762E+03  0.14979735587E+04  0.25500000920E-02 0. -1.
       -2    1    3    3    0  502  0.37363244492E+02 -0.12010620120E+04  0.24571739573E+03  0.12265084619E+04  0.25500000920E-02 0.  1.
</event>
<event>
 5   0  0.1220908E-05  0.2549433E+04  0.7818609E-02  0.8385583E-01
       -2   -1    0    0    0  501  0.00000000000E+00  0.00000000000E+00  0.14448345915E+04  0.14448345915E+04  0.25500000920E-02 0. -1.
        2   -1    0    0  501    0  0.00000000000E+00  0.00000000000E+00 -0.11246284297E+04  0.11246284297E+04  0.25500000920E-02 0.  1.
    10030    2    1    2    0    0  0.00000000000E+00  0.00000000000E+00  0.32020616176E+03  0.25694630212E+04  0.25494329235E+04 0.  0.
        2    1    3    3  502    0  0.12673371485E+04 -0.11060762800E+03  0.78693695583E+02  0.12745862831E+04  0.25500000920E-02 0.  1.
       -2    1    3    3    0  502 -0.12673371485E+04  0.11060762800E+03  0.24151246618E+03  0.12948767381E+04  0.25500000920E-02 0. -1.
</event>
<event>
 5   0  0.1220908E-05  0.2689907E+04  0.7818609E-02  0.8338287E-01
        2   -1    0    0  501    0  0.00000000000E+00  0.00000000000E+00  0.14382522485E+04  0.14382522485E+04  0.25500000920E-02 0.  1.
       -2   -1    0    0    0  501  0.00000000000E+00  0.00000000000E+00 -0.12577070361E+04  0.12577070361E+04  0.25500000920E-02 0. -1.
    10030    2    1    2    0    0  0.00000000000E+00  0.00000000000E+00  0.18054521236E+03  0.26959592846E+04  0.26899070412E+04 0.  0.
        2    1    3    3  502    0 -0.91319825937E+03  0.12528794572E+03  0.10719005337E+04  0.14137181064E+04  0.25500000920E-02 0.  1.
       -2    1    3    3    0  502  0.91319825937E+03 -0.12528794572E+03 -0.89135532130E+03  0.12822411782E+04  0.25500000920E-02 0. -1.
</event>
<event>
 5   0  0.1276517E-05  0.2710989E+04  0.7818609E-02  0.8331448E-01
        2   -1    0    0  501    0  0.00000000000E+00  0.00000000000E+00  0.20632667455E+04  0.20632667455E+04  0.25500000920E-02 0. -1.
       -2   -1    0    0    0  501  0.00000000000E+00  0.00000000000E+00 -0.89051258906E+03  0.89051258906E+03  0.25500000920E-02 0.  1.
    10030    2    1    2    0    0  0.00000000000E+00  0.00000000000E+00  0.11727541564E+04  0.29537793345E+04  0.27109887580E+04 0.  0.
        1    1    3    3  502    0 -0.58367092305E+03 -0.89919012389E+03 -0.31746386381E+03  0.11180330631E+04  0.50400001928E-02 0.  1.
       -1    1    3    3    0  502  0.58367092305E+03  0.89919012389E+03  0.14902180202E+04  0.18357462715E+04  0.50400001928E-02 0. -1.
</event>
<event>
 5   0  0.4846214E-06  0.2677126E+04  0.7818609E-02  0.8342465E-01
       -1   -1    0    0    0  501  0.00000000000E+00  0.00000000000E+00  0.15268685158E+04  0.15268685158E+04  0.50400001928E-02 0.  1.
        1   -1    0    0  501    0  0.00000000000E+00  0.00000000000E+00 -0.11734810813E+04  0.11734810813E+04  0.50400001928E-02 0. -1.
    10030    2    1    2    0    0  0.00000000000E+00  0.00000000000E+00  0.35338743451E+03  0.27003495971E+04  0.26771263078E+04 0.  0.
        2    1    3    3  502    0 -0.62328340531E+03 -0.73480473933E+03  0.11139100026E+04  0.14728257542E+04  0.25500000920E-02 0.  1.
       -2    1    3    3    0  502  0.62328340531E+03  0.73480473933E+03 -0.76052256810E+03  0.12275238429E+04  0.25500000920E-02 0. -1.
</event>
<event>
 5   0  0.1286641E-05  0.2702165E+04  0.7818609E-02  0.8334303E-01
       -2   -1    0    0    0  501  0.00000000000E+00  0.00000000000E+00  0.15930726190E+04  0.15930726190E+04  0.25500000920E-02 0.  1.
        2   -1    0    0  501    0  0.00000000000E+00  0.00000000000E+00 -0.11458511072E+04  0.11458511072E+04  0.25500000920E-02 0. -1.
    10030    2    1    2    0    0  0.00000000000E+00  0.00000000000E+00  0.44722151180E+03  0.27389237261E+04  0.27021650758E+04 0.  0.
        4    1    3    3  502    0 -0.41446810693E+03 -0.10650880758E+04  0.95398638473E+03  0.14887202746E+04  0.12699999809E+01 0.  1.
       -4    1    3    3    0  502  0.41446810693E+03  0.10650880758E+04 -0.50676487293E+03  0.12502034515E+04  0.12699999809E+01 0. -1.
</event>
<event>
 5   0  0.1261364E-05  0.2711145E+04  0.7818609E-02  0.8331398E-01
       -2   -1    0    0    0  501  0.00000000000E+00  0.00000000000E+00  0.14457276820E+04  0.14457276821E+04  0.25500000920E-02 0. -1.
        2   -1    0    0  501    0  0.00000000000E+00  0.00000000000E+00 -0.12710391825E+04  0.12710391825E+04  0.25500000920E-02 0.  1.
    10030    2    1    2    0    0  0.00000000000E+00  0.00000000000E+00  0.17468849958E+03  0.27167668645E+04  0.27111447996E+04 0.  0.
        5    1    3    3  502    0 -0.69143982545E+03  0.82410694190E+03  0.91386563205E+03  0.14115288758E+04  0.46999998093E+01 0. -1.
       -5    1    3    3    0  502  0.69143982545E+03 -0.82410694190E+03 -0.73917713247E+03  0.13052379887E+04  0.46999998093E+01 0.  1.
</event>
<event>
 5   0  0.5152288E-06  0.2697245E+04  0.7818609E-02  0.8335900E-01
        1   -1    0    0  501    0  0.00000000000E+00  0.00000000000E+00  0.28145806064E+04  0.28145806064E+04  0.50400001928E-02 0. -1.
       -1   -1    0    0    0  501  0.00000000000E+00  0.00000000000E+00 -0.64620004905E+03  0.64620004907E+03  0.50400001928E-02 0.  1.
    10030    2    1    2    0    0  0.00000000000E+00  0.00000000000E+00  0.21683805573E+04  0.34607806554E+04  0.26972446133E+04 0.  0.
        3    1    3    3  502    0 -0.12685460367E+03 -0.70066092954E+03 -0.38535049899E+03  0.80963747809E+03  0.10100000352E+00 0.  1.
       -3    1    3    3    0  502  0.12685460367E+03  0.70066092954E+03  0.25537310563E+04  0.26511431773E+04  0.10100000352E+00 0. -1.
</event>
<event>
 5   0  0.1261364E-05  0.2668186E+04  0.7818609E-02  0.8345402E-01
        2   -1    0    0  501    0  0.00000000000E+00  0.00000000000E+00  0.12440664108E+04  0.12440664108E+04  0.25500000920E-02 0.  1.
       -2   -1    0    0    0  501  0.00000000000E+00  0.00000000000E+00 -0.14306347045E+04  0.14306347045E+04  0.25500000920E-02 0. -1.
    10030    2    1    2    0    0  0.00000000000E+00  0.00000000000E+00 -0.18656829369E+03  0.26747011153E+04  0.26681863368E+04 0.  0.
        5    1    3    3  502    0  0.48184970097E+03  0.69740015626E+03 -0.11259627237E+04  0.14093829350E+04  0.46999998093E+01 0. -1.
       -5    1    3    3    0  502 -0.48184970097E+03 -0.69740015626E+03  0.93939443002E+03  0.12653181803E+04  0.46999998093E+01 0.  1.
</event>
<event>
 5   0  0.4824715E-06  0.2703981E+04  0.7818609E-02  0.8333715E-01
       -1   -1    0    0    0  501  0.00000000000E+00  0.00000000000E+00  0.12771803067E+04  0.12771803067E+04  0.50400001928E-02 0.  1.
        1   -1    0    0  501    0  0.00000000000E+00  0.00000000000E+00 -0.14311823775E+04  0.14311823775E+04  0.50400001928E-02 0. -1.
    10030    2    1    2    0    0  0.00000000000E+00  0.00000000000E+00 -0.15400207085E+03  0.27083626842E+04  0.27039807306E+04 0.  0.
        5    1    3    3  502    0 -0.22571481550E+03  0.11875402631E+04  0.52950217358E+03  0.13196945466E+04  0.46999998093E+01 0.  1.
       -5    1    3    3    0  502  0.22571481550E+03 -0.11875402631E+04 -0.68350424442E+03  0.13886681377E+04  0.46999998093E+01 0. -1.
</event>
<event>
 5   0  0.1261364E-05  0.2713494E+04  0.7818609E-02  0.8330640E-01
       -2   -1    0    0    0  501  0.00000000000E+00  0.00000000000E+00  0.82093970087E+03  0.82093970087E+03  0.25500000920E-02 0.  1.
        2   -1    0    0  501    0  0.00000000000E+00  0.00000000000E+00 -0.22422634564E+04  0.22422634564E+04  0.25500000920E-02 0. -1.
    10030    2    1    2    0    0  0.00000000000E+00  0.00000000000E+00 -0.14213237556E+04  0.30632031573E+04  0.27134944932E+04 0.  0.
        5    1    3    3  502    0  0.48585352870E+03  0.78263877846E+03 -0.18351077779E+04  0.20533435552E+04  0.46999998093E+01 0. -1.
       -5    1    3    3    0  502 -0.48585352870E+03 -0.78263877846E+03  0.41378402236E+03  0.10098596021E+04  0.46999998093E+01 0.  1.
</event>
<event>
 5   0  0.1220908E-05  0.2707542E+04  0.7818609E-02  0.8332562E-01
        2   -1    0    0  501    0  0.00000000000E+00  0.00000000000E+00  0.17506783620E+04  0.17506783620E+04  0.25500000920E-02 0. -1.
       -2   -1    0    0    0  501  0.00000000000E+00  0.00000000000E+00 -0.10468488040E+04  0.10468488040E+04  0.25500000920E-02 0.  1.
    10030    2    1    2    0    0  0.00000000000E+00  0.00000000000E+00  0.70382955805E+03  0.27975271660E+04  0.27075417259E+04 0.  0.
        2    1    3    3  502    0  0.96762706753E+03  0.93852889185E+03  0.22304204050E+03  0.13663405046E+04  0.25500000920E-02 0. -1.
       -2    1    3    3    0  502 -0.96762706753E+03 -0.93852889185E+03  0.48078751755E+03  0.14311866614E+04  0.25500000920E-02 0.  1.
</event>
<event>
 5   0  0.4826140E-06  0.2671666E+04  0.7818609E-02  0.8344257E-01
        1   -1    0    0  501    0  0.00000000000E+00  0.00000000000E+00  0.14196127121E+04  0.14196127121E+04  0.50400001928E-02 0. -1.
       -1   -1    0    0    0  501  0.00000000000E+00  0.00000000000E+00 -0.12569978153E+04  0.12569978153E+04  0.50400001928E-02 0.  1.
    10030    2    1    2    0    0  0.00000000000E+00  0.00000000000E+00  0.16261489676E+03  0.26766105274E+04  0.26716662049E+04 0.  0.
        1    1    3    3  502    0  0.80246892027E+03 -0.10669374579E+04  0.34981517237E+02  0.13354907763E+04  0.50400001928E-02 0. -1.
       -1    1    3    3    0  502 -0.80246892027E+03  0.10669374579E+04  0.12763337953E+03  0.13411197510E+04  0.50400001928E-02 0.  1.
</event>
<event>
 5   0  0.5152288E-06  0.2692017E+04  0.7818609E-02  0.8337600E-01
        1   -1    0    0  501    0  0.00000000000E+00  0.00000000000E+00  0.99563549548E+03  0.99563549549E+03  0.50400001928E-02 0. -1.
       -1   -1    0    0    0  501  0.00000000000E+00  0.00000000000E+00 -0.18196811318E+04  0.18196811318E+04  0.50400001928E-02 0.  1.
    10030    2    1    2    0    0  0.00000000000E+00  0.00000000000E+00 -0.82404563628E+03  0.28153166273E+04  0.26920171807E+04 0.  0.
        3    1    3    3  502    0  0.38880130313E+03 -0.13337119774E+03 -0.17524392836E+04  0.17999993841E+04  0.10100000352E+00 0.  1.
       -3    1    3    3    0  502 -0.38880130313E+03  0.13337119774E+03  0.92839364734E+03  0.10153172432E+04  0.10100000352E+00 0. -1.
</event>
<event>
 5   0  0.1286641E-05  0.2687341E+04  0.7818609E-02  0.8339124E-01
       -2   -1    0    0    0  501  0.00000000000E+00  0.00000000000E+00  0.12579225339E+04  0.12579225339E+04  0.25500000920E-02 0.  1.
        2   -1    0    0  501    0  0.00000000000E+00  0.00000000000E+00 -0.14352630651E+04  0.14352630651E+04  0.25500000920E-02 0. -1.
    10030    2    1    2    0    0  0.00000000000E+00  0.00000000000E+00 -0.17734053117E+03  0.26931855991E+04  0.26873405082E+04 0.  0.
        4    1    3    3  502    0  0.10461331952E+04  0.78556149558E+03  0.21850351987E+03  0.13263660605E+04  0.12699999809E+01 0. -1.
       -4    1    3    3    0  502 -0.10461331952E+04 -0.78556149558E+03 -0.39584405104E+03  0.13668195386E+04  0.12699999809E+01 0.  1.
</event>
<event>
 5   0  0.1286641E-05  0.2684643E+04  0.7818609E-02  0.8340005E-01
       -2   -1    0    0    0  501  0.00000000000E+00  0.00000000000E+00  0.92472644149E+03  0.92472644149E+03  0.25500000920E-02 0.  1.
        2   -1    0    0  501    0  0.00000000000E+00  0.00000000000E+00 -0.19484974519E+04  0.19484974519E+04  0.25500000920E-02 0. -1.
    10030    2    1    2    0    0  0.00000000000E+00  0.00000000000E+00 -0.10237710104E+04  0.28732238934E+04  0.26846430787E+04 0.  0.
        4    1    3    3  502    0 -0.31155491528E+03 -0.23686577058E+03  0.86230716566E+03  0.94696732750E+03  0.12699999809E+01 0.  1.
       -4    1    3    3    0  502  0.31155491528E+03  0.23686577058E+03 -0.18860781761E+04  0.19262565659E+04  0.12699999809E+01 0. -1.
</event>
<event>
 5   0  0.1276517E-05  0.2689316E+04  0.7818609E-02  0.8338480E-01
        2   -1    0    0  501    0  0.00000000000E+00  0.00000000000E+00  0.19163509009E+04  0.19163509009E+04  0.25500000920E-02 0.  1.
       -2   -1    0    0    0  501  0.00000000000E+00  0.00000000000E+00 -0.94351437234E+03  0.94351437235E+03  0.25500000920E-02 0. -1.
    10030    2    1    2    0    0  0.00000000000E+00  0.00000000000E+00  0.97283652854E+03  0.28598652732E+04  0.26893156136E+04 0.  0.
        1    1    3    3  502    0  0.60874613459E+03  0.10593688955E+04 -0.11067934712E+03  0.12268187442E+04  0.50400001928E-02 0.  1.
       -1    1    3    3    0  502 -0.60874613459E+03 -0.10593688955E+04  0.10835158757E+04  0.16330465290E+04  0.50400001928E-02 0. -1.
</event>
<event>
 5   0  0.4188000E-06  0.2450576E+04  0.7818609E-02  0.8420808E-01
       -4   -1    0    0    0  501  0.00000000000E+00  0.00000000000E+00  0.12241377463E+04  0.12241384051E+04  0.12699999809E+01 0.  1.
        4   -1    0    0  501    0  0.00000000000E+00  0.00000000000E+00 -0.12264383425E+04  0.12264390001E+04  0.12699999809E+01 0. -1.
    10030    2    1    2    0    0  0.00000000000E+00  0.00000000000E+00 -0.23005962498E+01  0.24505774052E+04  0.24505763253E+04 0.  0.
        4    1    3    3  502    0 -0.20117676661E+03  0.42917182001E+03 -0.11310485463E+04  0.12263494484E+04  0.12699999809E+01 0. -1.
       -4    1    3    3    0  502  0.20117676661E+03 -0.42917182001E+03  0.11287479501E+04  0.12242279568E+04  0.12699999809E+01 0.  1.
</event>
<event>
 5   0  0.5152288E-06  0.2671335E+04  0.7818609E-02  0.8344366E-01
       -1   -1    0    0    0  501  0.00000000000E+00  0.00000000000E+00  0.95550043745E+03  0.95550043747E+03  0.50400001928E-02 0. -1.
        1   -1    0    0  501    0  0.00000000000E+00  0.00000000000E+00 -0.18670922392E+04  0.18670922392E+04  0.50400001928E-02 0.  1.
    10030    2    1    2    0    0  0.00000000000E+00  0.00000000000E+00 -0.91159180170E+03  0.28225926766E+04  0.26713348359E+04 0.  0.
        3    1    3    3  502    0 -0.90391269867E+03  0.86634850234E+03 -0.94731231020E+03  0.15700377440E+04  0.10100000352E+00 0.  1.
       -3    1    3    3    0  502  0.90391269867E+03 -0.86634850234E+03  0.35720508503E+02  0.12525549326E+04  0.10100000352E+00 0. -1.
</event>
<event>
 5   0  0.4826140E-06  0.2710394E+04  0.7818609E-02  0.8331640E-01
       -1   -1    0    0    0  501  0.00000000000E+00  0.00000000000E+00  0.14926132914E+04  0.14926132915E+04  0.50400001928E-02 0.  1.
        1   -1    0    0  501    0  0.00000000000E+00  0.00000000000E+00 -0.12304315312E+04  0.12304315312E+04  0.50400001928E-02 0. -1.
    10030    2    1    2    0    0  0.00000000000E+00  0.00000000000E+00  0.26218176025E+03  0.27230448227E+04  0.27103936671E+04 0.  0.
        1    1    3    3  502    0  0.43096014563E+03  0.99185470311E+03  0.95163810811E+03  0.14405268092E+04  0.50400001928E-02 0.  1.
       -1    1    3    3    0  502 -0.43096014563E+03 -0.99185470311E+03 -0.68945634786E+03  0.12825180135E+04  0.50400001928E-02 0. -1.
</event>
<event>
 5   0  0.1220908E-05  0.2346776E+04  0.7818609E-02  0.8459703E-01
       -2   -1    0    0    0  501  0.00000000000E+00  0.00000000000E+00  0.16192504588E+04  0.16192504588E+04  0.25500000920E-02 0. -1.
        2   -1    0    0  501    0  0.00000000000E+00  0.00000000000E+00 -0.85029419334E+03  0.85029419334E+03  0.25500000920E-02 0.  1.
    10030    2    1    2    0    0  0.00000000000E+00  0.00000000000E+00  0.76895626542E+03  0.24695446521E+04  0.23467758842E+04 0.  0.
        2    1    3    3  502    0 -0.71339261666E+03 -0.65900635283E+03  0.10774256636E+04  0.14505393684E+04  0.25500000920E-02 0. -1.
       -2    1    3    3    0  502  0.71339261666E+03  0.65900635283E+03 -0.30846939822E+03  0.10190052837E+04  0.25500000920E-02 0.  1.
</event>
<event>
 5   0  0.4824715E-06  0.2741013E+04  0.7818609E-02  0.8321819E-01
       -1   -1    0    0    0  501  0.00000000000E+00  0.00000000000E+00  0.18838103024E+04  0.18838103024E+04  0.50400001928E-02 0. -1.
        1   -1    0    0  501    0  0.00000000000E+00  0.00000000000E+00 -0.99706831548E+03  0.99706831549E+03  0.50400001928E-02 0.  1.
    10030    2    1    2    0    0  0.00000000000E+00  0.00000000000E+00  0.88674198695E+03  0.28808786179E+04  0.27410126340E+04 0.  0.
        5    1    3    3  502    0  0.83940202506E+03 -0.43357262334E+03 -0.60010601771E+03  0.11192543508E+04  0.46999998093E+01 0.  1.
       -5    1    3    3    0  502 -0.83940202506E+03  0.43357262334E+03  0.14868480047E+04  0.17616242671E+04  0.46999998093E+01 0. -1.
</event>
<event>
 5   0  0.5152288E-06  0.2803403E+04  0.7818609E-02  0.8302213E-01
       -1   -1    0    0    0  501  0.00000000000E+00  0.00000000000E+00  0.16549590757E+04  0.16549590757E+04  0.50400001928E-02 0. -1.
        1   -1    0    0  501    0  0.00000000000E+00  0.00000000000E+00 -0.11872001263E+04  0.11872001263E+04  0.50400001928E-02 0.  1.
    10030    2    1    2    0    0  0.00000000000E+00  0.00000000000E+00  0.46775894945E+03  0.28421592020E+04  0.28034033771E+04 0.  0.
        3    1    3    3  502    0  0.40306764751E+03 -0.22128448553E+03  0.15763215023E+04  0.16420170038E+04  0.10100000352E+00 0. -1.
       -3    1    3    3    0  502 -0.40306764751E+03  0.22128448553E+03 -0.11085625529E+04  0.12001421982E+04  0.10100000352E+00 0.  1.
</event>
<event>
 5   0  0.4846214E-06  0.2679722E+04  0.7818609E-02  0.8341614E-01
       -1   -1    0    0    0  501  0.00000000000E+00  0.00000000000E+00  0.13717388840E+04  0.13717388840E+04  0.50400001928E-02 0.  1.
        1   -1    0    0  501    0  0.00000000000E+00  0.00000000000E+00 -0.13087243039E+04  0.13087243039E+04  0.50400001928E-02 0. -1.
    10030    2    1    2    0    0  0.00000000000E+00  0.00000000000E+00  0.63014580100E+02  0.26804631880E+04  0.26797223858E+04 0.  0.
        2    1    3    3  502    0  0.62233767857E+03 -0.75216794908E+03  0.94945767029E+03  0.13618115426E+04  0.25500000920E-02 0.  1.
       -2    1    3    3    0  502 -0.62233767857E+03  0.75216794908E+03 -0.88644309019E+03  0.13186516454E+04  0.25500000920E-02 0. -1.
</event>
<event>
 5   0  0.1220908E-05  0.2719833E+04  0.7818609E-02  0.8328598E-01
        2   -1    0    0  501    0  0.00000000000E+00  0.00000000000E+00  0.11552607593E+04  0.11552607593E+04  0.25500000920E-02 0. -1.
       -2   -1    0    0    0  501  0.00000000000E+00  0.00000000000E+00 -0.16008271814E+04  0.16008271814E+04  0.25500000920E-02 0.  1.
    10030    2    1    2    0    0  0.00000000000E+00  0.00000000000E+00 -0.44556642206E+03  0.27560879407E+04  0.27198329545E+04 0.  0.
        2    1    3    3  502    0 -0.27014924430E+03 -0.11426488312E+03 -0.15683905441E+04  0.15955832716E+04  0.25500000920E-02 0.  1.
       -2    1    3    3    0  502  0.27014924430E+03  0.11426488312E+03  0.11228241221E+04  0.11605046690E+04  0.25500000920E-02 0. -1.
</event>
<event>
 5   0  0.1232559E-05  0.2670068E+04  0.7818609E-02  0.8344783E-01
        2   -1    0    0  501    0  0.00000000000E+00  0.00000000000E+00  0.12601751577E+04  0.12601751577E+04  0.25500000920E-02 0.  1.
       -2   -1    0    0    0  501  0.00000000000E+00  0.00000000000E+00 -0.14143393977E+04  0.14143393977E+04  0.25500000920E-02 0. -1.
    10030    2    1    2    0    0  0.00000000000E+00  0.00000000000E+00 -0.15416424000E+03  0.26745145554E+04  0.26700676947E+04 0.  0.
        3    1    3    3  502    0 -0.11957303021E+03  0.15364249626E+03  0.12458793049E+04  0.12609991986E+04  0.10100000352E+00 0.  1.
       -3    1    3    3    0  502  0.11957303021E+03 -0.15364249626E+03 -0.14000435449E+04  0.14135153568E+04  0.10100000352E+00 0. -1.
</event>
<event>
 5   0  0.4824715E-06  0.2692013E+04  0.7818609E-02  0.8337601E-01
        1   -1    0    0  501    0  0.00000000000E+00  0.00000000000E+00  0.21909424767E+04  0.21909424767E+04  0.50400001928E-02 0.  1.
       -1   -1    0    0    0  501  0.00000000000E+00  0.00000000000E+00 -0.82691973774E+03  0.82691973775E+03  0.50400001928E-02 0. -1.
    10030    2    1    2    0    0  0.00000000000E+00  0.00000000000E+00  0.13640227390E+04  0.30178622145E+04  0.26920130596E+04 0.  0.
        5    1    3    3  502    0  0.59834796272E+03 -0.72794973831E+03 -0.39546216758E+03  0.10219312707E+04  0.46999998093E+01 0. -1.
       -5    1    3    3    0  502 -0.59834796272E+03  0.72794973831E+03  0.17594849066E+04  0.19959309438E+04  0.46999998093E+01 0.  1.
</event>
<event>
 5   0  0.4826140E-06  0.2702898E+04  0.7818609E-02  0.8334065E-01
       -1   -1    0    0    0  501  0.00000000000E+00  0.00000000000E+00  0.10567760917E+04  0.10567760917E+04  0.50400001928E-02 0. -1.
        1   -1    0    0  501    0  0.00000000000E+00  0.00000000000E+00 -0.17282893781E+04  0.17282893781E+04  0.50400001928E-02 0.  1.
    10030    2    1    2    0    0  0.00000000000E+00  0.00000000000E+00 -0.67151328643E+03  0.27850654698E+04  0.27028983660E+04 0.  0.
        1    1    3    3  502    0 -0.72849154535E+03  0.10945817132E+04 -0.13839885208E+02  0.13149146744E+04  0.50400001928E-02 0. -1.
       -1    1    3    3    0  502  0.72849154535E+03 -0.10945817132E+04 -0.65767340122E+03  0.14701507954E+04  0.50400001928E-02 0.  1.
</event>
<event>
 5   0  0.4824715E-06  0.2707321E+04  0.7818609E-02  0.8332633E-01
       -1   -1    0    0    0  501  0.00000000000E+00  0.00000000000E+00  0.12213463194E+04  0.12213463194E+04  0.50400001928E-02 0.  1.
        1   -1    0    0  501    0  0.00000000000E+00  0.00000000000E+00 -0.15003088578E+04  0.15003088578E+04  0.50400001928E-02 0. -1.
    10030    2    1    2    0    0  0.00000000000E+00  0.00000000000E+00 -0.27896253844E+03  0.27216551772E+04  0.27073209647E+04 0.  0.
        5    1    3    3  502    0  0.62708358137E+03 -0.49778279508E+03  0.95778897223E+03  0.12483602583E+04  0.46999998093E+01 0.  1.
       -5    1    3    3    0  502 -0.62708358137E+03  0.49778279508E+03 -0.12367515107E+04  0.14732949190E+04  0.46999998093E+01 0. -1.
</event>
<event>
 5   0  0.1261364E-05  0.2755391E+04  0.7818609E-02  0.8317253E-01
        2   -1    0    0  501    0  0.00000000000E+00  0.00000000000E+00  0.29545417748E+04  0.29545417748E+04  0.25500000920E-02 0. -1.
       -2   -1    0    0    0  501  0.00000000000E+00  0.00000000000E+00 -0.64241595734E+03  0.64241595734E+03  0.25500000920E-02 0.  1.
    10030    2    1    2    0    0  0.00000000000E+00  0.00000000000E+00  0.23121258175E+04  0.35969577322E+04  0.27553909216E+04 0.  0.
        5    1    3    3  502    0 -0.93302029077E+03  0.44678733103E+03  0.23438401414E+04  0.25619825293E+04  0.46999998093E+01 0. -1.
       -5    1    3    3    0  502  0.93302029077E+03 -0.44678733103E+03 -0.31714323910E+02  0.10349752028E+04  0.46999998093E+01 0.  1.
</event>
<event>
 5   0  0.4188000E-06  0.2731064E+04  0.7818609E-02  0.8324996E-01
       -3   -1    0    0    0  501  0.00000000000E+00  0.00000000000E+00  0.22914963960E+04  0.22914963983E+04  0.10100000352E+00 0. -1.
        3   -1    0    0  501    0  0.00000000000E+00  0.00000000000E+00 -0.81373800280E+03  0.81373800907E+03  0.10100000352E+00 0.  1.
    10030    2    1    2    0    0  0.00000000000E+00  0.00000000000E+00  0.14777583932E+04  0.31052344073E+04  0.27310640519E+04 0.  0.
        3    1    3    3  502    0  0.37411009692E+03 -0.59678131760E+03  0.20690157657E+04  0.21856194899E+04  0.10100000352E+00 0. -1.
       -3    1    3    3    0  502 -0.37411009692E+03  0.59678131760E+03 -0.59125737248E+03  0.91961491743E+03  0.10100000352E+00 0.  1.
</event>
<event>
 5   0  0.1220908E-05  0.2611096E+04  0.7818609E-02  0.8364442E-01
        2   -1    0    0  501    0  0.00000000000E+00  0.00000000000E+00  0.25205767885E+04  0.25205767885E+04  0.25500000920E-02 0.  1.
       -2   -1    0    0    0  501  0.00000000000E+00  0.00000000000E+00 -0.67621634453E+03  0.67621634453E+03  0.25500000920E-02 0. -1.
    10030    2    1    2    0    0  0.00000000000E+00  0.00000000000E+00  0.18443604440E+04  0.31967931330E+04  0.26110957256E+04 0.  0.
        2    1    3    3  502    0 -0.12696369548E+04  0.29499642327E+03  0.83176060753E+03  0.15462298002E+04  0.25500000920E-02 0.  1.
       -2    1    3    3    0  502  0.12696369548E+04 -0.29499642327E+03  0.10125998365E+04  0.16505633328E+04  0.25500000920E-02 0. -1.
</event>
<event>
 5   0  0.1220908E-05  0.2304192E+04  0.7818609E-02  0.8476270E-01
        2   -1    0    0  501    0  0.00000000000E+00  0.00000000000E+00  0.23032670191E+04  0.23032670191E+04  0.25500000920E-02 0.  1.
       -2   -1    0    0    0  501  0.00000000000E+00  0.00000000000E+00 -0.57627910074E+03  0.57627910074E+03  0.25500000920E-02 0. -1.
    10030    2    1    2    0    0  0.00000000000E+00  0.00000000000E+00  0.17269879184E+04  0.28795461199E+04  0.23041915255E+04 0.  0.
        2    1    3    3  502    0  0.97629773370E+03  0.42682444382E+03  0.31591996012E+03  0.11113693319E+04  0.25500000920E-02 0. -1.
       -2    1    3    3    0  502 -0.97629773370E+03 -0.42682444382E+03  0.14110679583E+04  0.17681767880E+04  0.25500000920E-02 0.  1.
</event>
<event>
 5   0  0.1261364E-05  0.2693702E+04  0.7818609E-02  0.8337051E-01
       -2   -1    0    0    0  501  0.00000000000E+00  0.00000000000E+00  0.10884755403E+04  0.10884755403E+04  0.25500000920E-02 0. -1.
        2   -1    0    0  501    0  0.00000000000E+00  0.00000000000E+00 -0.16665584088E+04  0.16665584088E+04  0.25500000920E-02 0.  1.
    10030    2    1    2    0    0  0.00000000000E+00  0.00000000000E+00 -0.57808286852E+03  0.27550339491E+04  0.26937023328E+04 0.  0.
        5    1    3    3  502    0 -0.40113034160E+03 -0.12462847248E+04  0.34151489446E+02  0.13097020961E+04  0.46999998093E+01 0.  1.
       -5    1    3    3    0  502  0.40113034160E+03  0.12462847248E+04 -0.61223435797E+03  0.14453318530E+04  0.46999998093E+01 0. -1.
</event>
<event>
 5   0  0.1276517E-05  0.2943788E+04  0.7818609E-02  0.8259967E-01
       -2   -1    0    0    0  501  0.00000000000E+00  0.00000000000E+00  0.16989691232E+04  0.16989691232E+04  0.25500000920E-02 0.  1.
        2   -1    0    0  501    0  0.00000000000E+00  0.00000000000E+00 -0.12751688932E+04  0.12751688932E+04  0.25500000920E-02 0. -1.
    10030    2    1    2    0    0  0.00000000000E+00  0.00000000000E+00  0.42380023000E+03  0.29741380164E+04  0.29437884274E+04 0.  0.
        1    1    3    3  502    0 -0.68723150889E+03  0.43957138411E+02 -0.11023777590E+04  0.12997907910E+04  0.50400001928E-02 0. -1.
       -1    1    3    3    0  502  0.68723150889E+03 -0.43957138411E+02  0.15261779890E+04  0.16743472254E+04  0.50400001928E-02 0.  1.
</event>
<event>
 5   0  0.1220908E-05  0.2669202E+04  0.7818609E-02  0.8345067E-01
       -2   -1    0    0    0  501  0.00000000000E+00  0.00000000000E+00  0.91581772732E+03  0.91581772732E+03  0.25500000920E-02 0. -1.
        2   -1    0    0  501    0  0.00000000000E+00  0.00000000000E+00 -0.19448851298E+04  0.19448851298E+04  0.25500000920E-02 0.  1.
    10030    2    1    2    0    0  0.00000000000E+00  0.00000000000E+00 -0.10290674024E+04  0.28607028571E+04  0.26692023374E+04 0.  0.
        2    1    3    3  502    0 -0.10755113224E+04  0.40900712679E+03 -0.12391699694E+04  0.16910214804E+04  0.25500000920E-02 0.  1.
       -2    1    3    3    0  502  0.10755113224E+04 -0.40900712679E+03  0.21010256691E+03  0.11696813767E+04  0.25500000920E-02 0. -1.
</event>
<event>
 5   0  0.1276517E-05  0.2719680E+04  0.7818609E-02  0.8328648E-01
       -2   -1    0    0    0  501  0.00000000000E+00  0.00000000000E+00  0.84741944333E+03  0.84741944334E+03  0.25500000920E-02 0. -1.
        2   -1    0    0  501    0  0.00000000000E+00  0.00000000000E+00 -0.21821128229E+04  0.21821128229E+04  0.25500000920E-02 0.  1.
    10030    2    1    2    0    0  0.00000000000E+00  0.00000000000E+00 -0.13346933795E+04  0.30295322662E+04  0.27196800059E+04 0.  0.
        1    1    3    3  502    0  0.21733288309E+03  0.29262799962E+03  0.79198626014E+03  0.87184113491E+03  0.50400001928E-02 0. -1.
       -1    1    3    3    0  502 -0.21733288309E+03 -0.29262799962E+03 -0.21266796397E+04  0.21576911313E+04  0.50400001928E-02 0.  1.
</event>
<event>
 5   0  0.4756800E-06  0.2684582E+04  0.7818609E-02  0.8340025E-01
        1   -1    0    0  501    0  0.00000000000E+00  0.00000000000E+00  0.18852495564E+04  0.18852495564E+04  0.50400001928E-02 0. -1.
       -1   -1    0    0    0  501  0.00000000000E+00  0.00000000000E+00 -0.95570616677E+03  0.95570616679E+03  0.50400001928E-02 0.  1.
    10030    2    1    2    0    0  0.00000000000E+00  0.00000000000E+00  0.92954338960E+03  0.28409557232E+04  0.26845816262E+04 0.  0.
        4    1    3    3  502    0 -0.80489546190E+03 -0.36433373131E+03  0.15341516420E+04  0.17703724596E+04  0.12699999809E+01 0. -1.
       -4    1    3    3    0  502  0.80489546190E+03  0.36433373131E+03 -0.60460825239E+03  0.10705832635E+04  0.12699999809E+01 0.  1.
</event>
<event>
 5   0  0.4756800E-06  0.2721000E+04  0.7818609E-02  0.8328223E-01
        1   -1    0    0  501    0  0.00000000000E+00  0.00000000000E+00  0.18597964648E+04  0.18597964648E+04  0.50400001928E-02 0.  1.
       -1   -1    0    0    0  501  0.00000000000E+00  0.00000000000E+00 -0.99524856934E+03  0.99524856935E+03  0.50400001928E-02 0. -1.
    10030    2    1    2    0    0  0.00000000000E+00  0.00000000000E+00  0.86454789546E+03  0.28550450342E+04  0.27209996478E+04 0.  0.
        4    1    3    3  502    0 -0.79174574837E+03 -0.94208690455E+02 -0.72440334211E+03  0.10772643234E+04  0.12699999809E+01 0. -1.
       -4    1    3    3    0  502  0.79174574837E+03  0.94208690455E+02  0.15889512376E+04  0.17777807108E+04  0.12699999809E+01 0.  1.
</event>
<event>
 5   0  0.4756800E-06  0.2730102E+04  0.7818609E-02  0.8325304E-01
        1   -1    0    0  501    0  0.00000000000E+00  0.00000000000E+00  0.18393895136E+04  0.18393895136E+04  0.50400001928E-02 0.  1.
       -1   -1    0    0    0  501  0.00000000000E+00  0.00000000000E+00 -0.10130337929E+04  0.10130337929E+04  0.50400001928E-02 0. -1.
    10030    2    1    2    0    0  0.00000000000E+00  0.00000000000E+00  0.82635572072E+03  0.28524233065E+04  0.27301016359E+04 0.  0.
        4    1    3    3  502    0 -0.12744558170E+04  0.37619999686E+03  0.73958206431E+03  0.15207719454E+04  0.12699999809E+01 0.  1.
       -4    1    3    3    0  502  0.12744558170E+04 -0.37619999686E+03  0.86773656409E+02  0.13316513611E+04  0.12699999809E+01 0. -1.
</event>
<event>
 5   0  0.1286641E-05  0.2665834E+04  0.7818609E-02  0.8346176E-01
       -2   -1    0    0    0  501  0.00000000000E+00  0.00000000000E+00  0.10831318207E+04  0.10831318207E+04  0.25500000920E-02 0. -1.
        2   -1    0    0  501    0  0.00000000000E+00  0.00000000000E+00 -0.16403062141E+04  0.16403062141E+04  0.25500000920E-02 0.  1.
    10030    2    1    2    0    0  0.00000000000E+00  0.00000000000E+00 -0.55717439334E+03  0.27234380348E+04  0.26658340955E+04 0.  0.
        4    1    3    3  502    0 -0.74876664671E+03  0.67601430030E+03  0.61145546430E+03  0.11796296975E+04  0.12699999809E+01 0.  1.
       -4    1    3    3    0  502  0.74876664671E+03 -0.67601430030E+03 -0.11686298576E+04  0.15438083374E+04  0.12699999809E+01 0. -1.
</event>
<event>
 5   0  0.4824715E-06  0.2693504E+04  0.7818609E-02  0.8337116E-01
       -1   -1    0    0    0  501  0.00000000000E+00  0.00000000000E+00  0.92055840884E+03  0.92055840885E+03  0.50400001928E-02 0.  1.
        1   -1    0    0  501    0  0.00000000000E+00  0.00000000000E+00 -0.19702615639E+04  0.19702615639E+04  0.50400001928E-02 0. -1.
    10030    2    1    2    0    0  0.00000000000E+00  0.00000000000E+00 -0.10497031551E+04  0.28908199728E+04  0.26935039263E+04 0.  0.
        5    1    3    3  502    0  0.13215540267E+04  0.21620525893E+03 -0.37130089333E+03  0.13896532671E+04  0.46999998093E+01 0.  1.
       -5    1    3    3    0  502 -0.13215540267E+04 -0.21620525893E+03 -0.67840226172E+03  0.15011667056E+04  0.46999998093E+01 0. -1.
</event>
<event>
 5   0  0.4846214E-06  0.2778021E+04  0.7818609E-02  0.8310125E-01
        1   -1    0    0  501    0  0.00000000000E+00  0.00000000000E+00  0.30332903590E+04  0.30332903590E+04  0.50400001928E-02 0. -1.
       -1   -1    0    0    0  501  0.00000000000E+00  0.00000000000E+00 -0.63605849385E+03  0.63605849387E+03  0.50400001928E-02 0.  1.
    10030    2    1    2    0    0  0.00000000000E+00  0.00000000000E+00  0.23972318651E+04  0.36693488529E+04  0.27780209482E+04 0.  0.
        2    1    3    3  502    0 -0.72200157849E+03 -0.81053200300E+03  0.53886481488E+02  0.10868082444E+04  0.25500000920E-02 0.  1.
       -2    1    3    3    0  502  0.72200157849E+03  0.81053200300E+03  0.23433453836E+04  0.25825406085E+04  0.25500000920E-02 0. -1.
</event>
<event>
 5   0  0.4756800E-06  0.2696994E+04  0.7818609E-02  0.8335981E-01
        1   -1    0    0  501    0  0.00000000000E+00  0.00000000000E+00  0.10592428932E+04  0.10592428932E+04  0.50400001928E-02 0.  1.
       -1   -1    0    0    0  501  0.00000000000E+00  0.00000000000E+00 -0.17167398812E+04  0.17167398812E+04  0.50400001928E-02 0. -1.
    10030    2    1    2    0    0  0.00000000000E+00  0.00000000000E+00 -0.65749698798E+03  0.27759827744E+04  0.26969942667E+04 0.  0.
        4    1    3    3  502    0  0.11886062780E+04  0.45152572117E+03 -0.79110666919E+03  0.14975018317E+04  0.12699999809E+01 0. -1.
       -4    1    3    3    0  502 -0.11886062780E+04 -0.45152572117E+03  0.13360968121E+03  0.12784809427E+04  0.12699999809E+01 0.  1.
</event>
<event>
 5   0  0.4756800E-06  0.2528968E+04  0.7818609E-02  0.8392738E-01
        1   -1    0    0  501    0  0.00000000000E+00  0.00000000000E+00  0.20606114651E+04  0.20606114651E+04  0.50400001928E-02 0. -1.
       -1   -1    0    0    0  501  0.00000000000E+00  0.00000000000E+00 -0.77594429299E+03  0.77594429301E+03  0.50400001928E-02 0.  1.
    10030    2    1    2    0    0  0.00000000000E+00  0.00000000000E+00  0.12846671721E+04  0.28365557581E+04  0.25289679369E+04 0.  0.
        4    1    3    3  502    0 -0.10747165856E+04  0.27048396947E+03 -0.40607403016E+02  0.11089760553E+04  0.12699999809E+01 0.  1.
       -4    1    3    3    0  502  0.10747165856E+04 -0.27048396947E+03  0.13252745751E+04  0.17275797028E+04  0.12699999809E+01 0. -1.
</event>
<event>
 5   0  0.1232559E-05  0.2710640E+04  0.7818609E-02  0.8331561E-01
       -2   -1    0    0    0  501  0.00000000000E+00  0.00000000000E+00  0.11286223655E+04  0.11286223655E+04  0.25500000920E-02 0. -1.
        2   -1    0    0  501    0  0.00000000000E+00  0.00000000000E+00 -0.16275527260E+04  0.16275527260E+04  0.25500000920E-02 0.  1.
    10030    2    1    2    0    0  0.00000000000E+00  0.00000000000E+00 -0.49893036049E+03  0.27561750915E+04  0.27106400776E+04 0.  0.
        3    1    3    3  502    0 -0.99180592849E+03  0.91248378209E+03 -0.10357408301E+03  0.13516779399E+04  0.10100000352E+00 0.  1.
       -3    1    3    3    0  502  0.99180592849E+03 -0.91248378209E+03 -0.39535627748E+03  0.14044971515E+04  0.10100000352E+00 0. -1.
</event>
<event>
 5   0  0.4846214E-06  0.2703179E+04  0.7818609E-02  0.8333974E-01
       -1   -1    0    0    0  501  0.00000000000E+00  0.00000000000E+00  0.14528970066E+04  0.14528970066E+04  0.50400001928E-02 0.  1.
        1   -1    0    0  501    0  0.00000000000E+00  0.00000000000E+00 -0.12573456826E+04  0.12573456826E+04  0.50400001928E-02 0. -1.
    10030    2    1    2    0    0  0.00000000000E+00  0.00000000000E+00  0.19555132397E+03  0.27102426892E+04  0.27031787055E+04 0.  0.
        2    1    3    3  502    0 -0.41168513733E+03  0.75420896577E+03 -0.94825218005E+03  0.12796476129E+04  0.25500000920E-02 0. -1.
       -2    1    3    3    0  502  0.41168513733E+03 -0.75420896577E+03  0.11438035040E+04  0.14305950762E+04  0.25500000920E-02 0.  1.
</event>
<event>
 5   0  0.1232559E-05  0.2714388E+04  0.7818609E-02  0.8330352E-01
        2   -1    0    0  501    0  0.00000000000E+00  0.00000000000E+00  0.18740942686E+04  0.18740942687E+04  0.25500000920E-02 0.  1.
       -2   -1    0    0    0  501  0.00000000000E+00  0.00000000000E+00 -0.98286182562E+03  0.98286182562E+03  0.25500000920E-02 0. -1.
    10030    2    1    2    0    0  0.00000000000E+00  0.00000000000E+00  0.89123244303E+03  0.28569560943E+04  0.27143881184E+04 0.  0.
        3    1    3    3  502    0  0.12167048338E+04  0.59533276986E+03  0.53482613270E+03  0.14563072347E+04  0.10100000352E+00 0. -1.
       -3    1    3    3    0  502 -0.12167048338E+04 -0.59533276986E+03  0.35640631034E+03  0.14006488595E+04  0.10100000352E+00 0.  1.
</event>
<event>
 5   0  0.4824715E-06  0.2709949E+04  0.7818609E-02  0.8331784E-01
       -1   -1    0    0    0  501  0.00000000000E+00  0.00000000000E+00  0.10468538090E+04  0.10468538090E+04  0.50400001928E-02 0. -1.
        1   -1    0    0  501    0  0.00000000000E+00  0.00000000000E+00 -0.17537841607E+04  0.17537841607E+04  0.50400001928E-02 0.  1.
    10030    2    1    2    0    0  0.00000000000E+00  0.00000000000E+00 -0.70693035172E+03  0.28006379697E+04  0.27099488030E+04 0.  0.
        5    1    3    3  502    0  0.30553203737E+03 -0.65317498513E+03  0.83207136789E+03  0.11010686801E+04  0.46999998093E+01 0. -1.
       -5    1    3    3    0  502 -0.30553203737E+03  0.65317498513E+03 -0.15390017196E+04  0.16995692896E+04  0.46999998093E+01 0.  1.
</event>
<event>
 5   0  0.1232559E-05  0.2684774E+04  0.7818609E-02  0.8339962E-01
        2   -1    0    0  501    0  0.00000000000E+00  0.00000000000E+00  0.17903464940E+04  0.17903464940E+04  0.25500000920E-02 0. -1.
       -2   -1    0    0    0  501  0.00000000000E+00  0.00000000000E+00 -0.10065104343E+04  0.10065104343E+04  0.25500000920E-02 0.  1.
    10030    2    1    2    0    0  0.00000000000E+00  0.00000000000E+00  0.78383605968E+03  0.27968569284E+04  0.26847736793E+04 0.  0.
        3    1    3    3  502    0 -0.57415379477E+03 -0.27642982461E+03 -0.83890434798E+03  0.10534830531E+04  0.10100000352E+00 0.  1.
       -3    1    3    3    0  502  0.57415379477E+03  0.27642982461E+03  0.16227404077E+04  0.17433738752E+04  0.10100000352E+00 0. -1.
</event>
<event>
 5   0  0.5152288E-06  0.2691006E+04  0.7818609E-02  0.8337929E-01
        1   -1    0    0  501    0  0.00000000000E+00  0.00000000000E+00  0.26502394244E+04  0.26502394245E+04  0.50400001928E-02 0. -1.
       -1   -1    0    0    0  501  0.00000000000E+00  0.00000000000E+00 -0.68310014425E+03  0.68310014427E+03  0.50400001928E-02 0.  1.
    10030    2    1    2    0    0  0.00000000000E+00  0.00000000000E+00  0.19671392802E+04  0.33333395687E+04  0.26910064535E+04 0.  0.
        3    1    3    3  502    0  0.13084618979E+04  0.28005715560E+03  0.80894257622E+03  0.15636152501E+04  0.10100000352E+00 0.  1.
       -3    1    3    3    0  502 -0.13084618979E+04 -0.28005715560E+03  0.11581967040E+04  0.17697243186E+04  0.10100000352E+00 0. -1.
</event>
<event>
 5   0  0.4824715E-06  0.2705790E+04  0.7818609E-02  0.8333129E-01
       -1   -1    0    0    0  501  0.00000000000E+00  0.00000000000E+00  0.10626261599E+04  0.10626261599E+04  0.50400001928E-02 0.  1.
        1   -1    0    0  501    0  0.00000000000E+00  0.00000000000E+00 -0.17224539588E+04  0.17224539588E+04  0.50400001928E-02 0. -1.
    10030    2    1    2    0    0  0.00000000000E+00  0.00000000000E+00 -0.65982779892E+03  0.27850801187E+04  0.27057898187E+04 0.  0.
        5    1    3    3  502    0  0.13034097845E+04 -0.20083121850E+03 -0.19254519324E+02  0.13189401318E+04  0.46999998093E+01 0.  1.
       -5    1    3    3    0  502 -0.13034097845E+04  0.20083121850E+03 -0.64057327960E+03  0.14661399869E+04  0.46999998093E+01 0. -1.
</event>
<event>
 5   0  0.1261364E-05  0.2681714E+04  0.7818609E-02  0.8340963E-01
        2   -1    0    0  501    0  0.00000000000E+00  0.00000000000E+00  0.19259764380E+04  0.19259764380E+04  0.25500000920E-02 0. -1.
       -2   -1    0    0    0  501  0.00000000000E+00  0.00000000000E+00 -0.93349935245E+03  0.93349935245E+03  0.25500000920E-02 0.  1.
    10030    2    1    2    0    0  0.00000000000E+00  0.00000000000E+00  0.99247708557E+03  0.28594757905E+04  0.26817141963E+04 0.  0.
        5    1    3    3  502    0  0.56838711120E+03  0.96595798548E+03  0.12810550950E+04  0.17021348314E+04  0.46999998093E+01 0. -1.
       -5    1    3    3    0  502 -0.56838711120E+03 -0.96595798548E+03 -0.28857800948E+03  0.11573409590E+04  0.46999998093E+01 0.  1.
</event>
<event>
 5   0  0.5152288E-06  0.2678263E+04  0.7818609E-02  0.8342092E-01
       -1   -1    0    0    0  501  0.00000000000E+00  0.00000000000E+00  0.12475464901E+04  0.12475464901E+04  0.50400001928E-02 0. -1.
        1   -1    0    0  501    0  0.00000000000E+00  0.00000000000E+00 -0.14374399945E+04  0.14374399945E+04  0.50400001928E-02 0.  1.
    10030    2    1    2    0    0  0.00000000000E+00  0.00000000000E+00 -0.18989350444E+03  0.26849864846E+04  0.26782630341E+04 0.  0.
        3    1    3    3  502    0  0.48095545265E+03 -0.51099422157E+03  0.10484601586E+04  0.12616267104E+04  0.10100000352E+00 0. -1.
       -3    1    3    3    0  502 -0.48095545265E+03  0.51099422157E+03 -0.12383536631E+04  0.14233597742E+04  0.10100000352E+00 0.  1.
</event>
<event>
 5   0  0.4846214E-06  0.2678511E+04  0.7818609E-02  0.8342011E-01
        1   -1    0    0  501    0  0.00000000000E+00  0.00000000000E+00  0.10893234273E+04  0.10893234274E+04  0.50400001928E-02 0. -1.
       -1   -1    0    0    0  501  0.00000000000E+00  0.00000000000E+00 -0.16465311623E+04  0.16465311623E+04  0.50400001928E-02 0.  1.
    10030    2    1    2    0    0  0.00000000000E+00  0.00000000000E+00 -0.55720773498E+03  0.27358545897E+04  0.26785107571E+04 0.  0.
        2    1    3    3  502    0 -0.12075006229E+04  0.57244484488E+03 -0.36912463428E+03  0.13863635347E+04  0.25500000920E-02 0.  1.
       -2    1    3    3    0  502  0.12075006229E+04 -0.57244484488E+03 -0.18808310070E+03  0.13494910550E+04  0.25500000920E-02 0. -1.
</event>
<event>
 5   0  0.1220908E-05  0.2704727E+04  0.7818609E-02  0.8333473E-01
        2   -1    0    0  501    0  0.00000000000E+00  0.00000000000E+00  0.16336932820E+04  0.16336932820E+04  0.25500000920E-02 0.  1.
       -2   -1    0    0    0  501  0.00000000000E+00  0.00000000000E+00 -0.11194800154E+04  0.11194800154E+04  0.25500000920E-02 0. -1.
    10030    2    1    2    0    0  0.00000000000E+00  0.00000000000E+00  0.51421326654E+03  0.27531732974E+04  0.27047269589E+04 0.  0.
        2    1    3    3  502    0 -0.96318233747E+03  0.83395527408E+03  0.71875554485E+03  0.14628093340E+04  0.25500000920E-02 0.  1.
       -2    1    3    3    0  502  0.96318233747E+03 -0.83395527408E+03 -0.20454227831E+03  0.12903639634E+04  0.25500000920E-02 0. -1.
</event>
<event>
 5   0  0.1220908E-05  0.2669312E+04  0.7818609E-02  0.8345031E-01
       -2   -1    0    0    0  501  0.00000000000E+00  0.00000000000E+00  0.10568452875E+04  0.10568452875E+04  0.25500000920E-02 0. -1.
        2   -1    0    0  501    0  0.00000000000E+00  0.00000000000E+00 -0.16854943266E+04  0.16854943266E+04  0.25500000920E-02 0.  1.
    10030    2    1    2    0    0  0.00000000000E+00  0.00000000000E+00 -0.62864903914E+03  0.27423396140E+04  0.26693120732E+04 0.  0.
        2    1    3    3  502    0  0.12241411956E+04  0.40733481329E+03 -0.66552991626E+03  0.14516795054E+04  0.25500000920E-02 0.  1.
       -2    1    3    3    0  502 -0.12241411956E+04 -0.40733481329E+03  0.36880877118E+02  0.12906601086E+04  0.25500000920E-02 0. -1.
</event>
<event>
 5   0  0.1286641E-05  0.2729220E+04  0.7818609E-02  0.8325586E-01
        2   -1    0    0  501    0  0.00000000000E+00  0.00000000000E+00  0.29330570458E+04  0.29330570458E+04  0.25500000920E-02 0.  1.
       -2   -1    0    0    0  501  0.00000000000E+00  0.00000000000E+00 -0.63488739784E+03  0.63488739784E+03  0.25500000920E-02 0. -1.
    10030    2    1    2    0    0  0.00000000000E+00  0.00000000000E+00  0.22981696480E+04  0.35679444436E+04  0.27292203689E+04 0.  0.
        4    1    3    3  502    0  0.58461355939E+03  0.11378095850E+04  0.17702656705E+04  0.21840846647E+04  0.12699999809E+01 0.  1.
       -4    1    3    3    0  502 -0.58461355939E+03 -0.11378095850E+04  0.52790397748E+03  0.13838597790E+04  0.12699999809E+01 0. -1.
</event>
<event>
 5   0  0.1276517E-05  0.2687221E+04  0.7818609E-02  0.8339163E-01
        2   -1    0    0  501    0  0.00000000000E+00  0.00000000000E+00  0.25017822789E+04  0.25017822789E+04  0.25500000920E-02 0. -1.
       -2   -1    0    0    0  501  0.00000000000E+00  0.00000000000E+00 -0.72160102504E+03  0.72160102504E+03  0.25500000920E-02 0.  1.
    10030    2    1    2    0    0  0.00000000000E+00  0.00000000000E+00  0.17801812539E+04  0.32233833040E+04  0.26872206139E+04 0.  0.
        1    1    3    3  502    0  0.50366439358E+03  0.10366630349E+04  0.61689328460E+02  0.11541896042E+04  0.50400001928E-02 0. -1.
       -1    1    3    3    0  502 -0.50366439358E+03 -0.10366630349E+04  0.17184919254E+04  0.20691936997E+04  0.50400001928E-02 0.  1.
</event>
<event>
 5   0  0.4846214E-06  0.2487136E+04  0.7818609E-02  0.8407583E-01
        1   -1    0    0  501    0  0.00000000000E+00  0.00000000000E+00  0.10330793070E+04  0.10330793070E+04  0.50400001928E-02 0.  1.
       -1   -1    0    0    0  501  0.00000000000E+00  0.00000000000E+00 -0.14969434036E+04  0.14969434036E+04  0.50400001928E-02 0. -1.
    10030    2    1    2    0    0  0.00000000000E+00  0.00000000000E+00 -0.46386409653E+03  0.25300227106E+04  0.24871359062E+04 0.  0.
        2    1    3    3  502    0  0.62686228607E+03 -0.94155249482E+03 -0.75754659963E+03  0.13613795491E+04  0.25500000920E-02 0. -1.
       -2    1    3    3    0  502 -0.62686228607E+03  0.94155249482E+03  0.29368250310E+03  0.11686431615E+04  0.25500000920E-02 0.  1.
</event>
<event>
 5   0  0.1220908E-05  0.2698668E+04  0.7818609E-02  0.8335437E-01
       -2   -1    0    0    0  501  0.00000000000E+00  0.00000000000E+00  0.16548952886E+04  0.16548952886E+04  0.25500000920E-02 0. -1.
        2   -1    0    0  501    0  0.00000000000E+00  0.00000000000E+00 -0.11001920923E+04  0.11001920923E+04  0.25500000920E-02 0.  1.
    10030    2    1    2    0    0  0.00000000000E+00  0.00000000000E+00  0.55470319622E+03  0.27550873809E+04  0.26986683458E+04 0.  0.
        2    1    3    3  502    0  0.75137411120E+03 -0.10155754122E+04  0.76133679369E+03  0.14749881987E+04  0.25500000920E-02 0. -1.
       -2    1    3    3    0  502 -0.75137411120E+03  0.10155754122E+04 -0.20663359746E+03  0.12800991822E+04  0.25500000920E-02 0.  1.
</event>
<event>
 5   0  0.1232559E-05  0.2577782E+04  0.7818609E-02  0.8375788E-01
        2   -1    0    0  501    0  0.00000000000E+00  0.00000000000E+00  0.91107497325E+03  0.91107497326E+03  0.25500000920E-02 0. -1.
       -2   -1    0    0    0  501  0.00000000000E+00  0.00000000000E+00 -0.18233841639E+04  0.18233841639E+04  0.25500000920E-02 0.  1.
    10030    2    1    2    0    0  0.00000000000E+00  0.00000000000E+00 -0.91230919066E+03  0.27344591372E+04  0.25777817428E+04 0.  0.
        3    1    3    3  502    0 -0.52050338032E+03  0.93877195151E+03 -0.12129771209E+04  0.16197314752E+04  0.10100000352E+00 0.  1.
       -3    1    3    3    0  502  0.52050338032E+03 -0.93877195151E+03  0.30066793020E+03  0.11147276620E+04  0.10100000352E+00 0. -1.
</event>
<event>
 5   0  0.4188000E-06  0.2695508E+04  0.7818609E-02  0.8336464E-01
        3   -1    0    0  501    0  0.00000000000E+00  0.00000000000E+00  0.16069917808E+04  0.16069917840E+04  0.10100000352E+00 0. -1.
       -3   -1    0    0    0  501  0.00000000000E+00  0.00000000000E+00 -0.11303360616E+04  0.11303360661E+04  0.10100000352E+00 0.  1.
    10030    2    1    2    0    0  0.00000000000E+00  0.00000000000E+00  0.47665571922E+03  0.27373278501E+04  0.26955079455E+04 0.  0.
        5    1    3    3  502    0  0.22818896996E+03  0.63797671625E+03 -0.94479431232E+03  0.11626447777E+04  0.46999998093E+01 0.  1.
       -5    1    3    3    0  502 -0.22818896996E+03 -0.63797671625E+03  0.14214500315E+04  0.15746830724E+04  0.46999998093E+01 0. -1.
</event>
<event>
 5   0  0.5152288E-06  0.2726468E+04  0.7818609E-02  0.8326468E-01
        1   -1    0    0  501    0  0.00000000000E+00  0.00000000000E+00  0.13878949713E+04  0.13878949713E+04  0.50400001928E-02 0. -1.
       -1   -1    0    0    0  501  0.00000000000E+00  0.00000000000E+00 -0.13390109722E+04  0.13390109722E+04  0.50400001928E-02 0.  1.
    10030    2    1    2    0    0  0.00000000000E+00  0.00000000000E+00  0.48883999103E+02  0.27269059436E+04  0.27264677478E+04 0.  0.
        3    1    3    3  502    0 -0.59719792587E+03  0.48672418031E+03  0.11492830558E+04  0.13836174844E+04  0.10100000352E+00 0. -1.
       -3    1    3    3    0  502  0.59719792587E+03 -0.48672418031E+03 -0.11003990567E+04  0.13432884592E+04  0.10100000352E+00 0.  1.
</event>
<event>
 5   0  0.1261364E-05  0.2717527E+04  0.7818609E-02  0.8329340E-01
       -2   -1    0    0    0  501  0.00000000000E+00  0.00000000000E+00  0.11575128629E+04  0.11575128629E+04  0.25500000920E-02 0. -1.
        2   -1    0    0  501    0  0.00000000000E+00  0.00000000000E+00 -0.15950045348E+04  0.15950045348E+04  0.25500000920E-02 0.  1.
    10030    2    1    2    0    0  0.00000000000E+00  0.00000000000E+00 -0.43749167190E+03  0.27525173976E+04  0.27175270121E+04 0.  0.
        5    1    3    3  502    0 -0.69561703922E+03 -0.11129779182E+04 -0.57485958330E+03  0.14328602661E+04  0.46999998093E+01 0.  1.
       -5    1    3    3    0  502  0.69561703922E+03  0.11129779182E+04  0.13736791140E+03  0.13196571315E+04  0.46999998093E+01 0. -1.
</event>
<event>
 5   0  0.4756800E-06  0.2688257E+04  0.7818609E-02  0.8338825E-01
        1   -1    0    0  501    0  0.00000000000E+00  0.00000000000E+00  0.14530816922E+04  0.14530816922E+04  0.50400001928E-02 0. -1.
       -1   -1    0    0    0  501  0.00000000000E+00  0.00000000000E+00 -0.12433446602E+04  0.12433446602E+04  0.50400001928E-02 0.  1.
    10030    2    1    2    0    0  0.00000000000E+00  0.00000000000E+00  0.20973703195E+03  0.26964263524E+04  0.26882569541E+04 0.  0.
        4    1    3    3  502    0 -0.92080670795E+02 -0.79048738104E+03  0.11913641452E+04  0.14327244288E+04  0.12699999809E+01 0. -1.
       -4    1    3    3    0  502  0.92080670795E+02  0.79048738104E+03 -0.98162711320E+03  0.12637019236E+04  0.12699999809E+01 0.  1.
</event>
<event>
 5   0  0.1276517E-05  0.2656379E+04  0.7818609E-02  0.8349299E-01
        2   -1    0    0  501    0  0.00000000000E+00  0.00000000000E+00  0.15238974933E+04  0.15238974933E+04  0.25500000920E-02 0. -1.
       -2   -1    0    0    0  501  0.00000000000E+00  0.00000000000E+00 -0.11576156760E+04  0.11576156760E+04  0.25500000920E-02 0.  1.
    10030    2    1    2    0    0  0.00000000000E+00  0.00000000000E+00  0.36628181733E+03  0.26815131693E+04  0.26563792100E+04 0.  0.
        1    1    3    3  502    0 -0.60075829337E+03 -0.38400369139E+03 -0.94805015923E+03  0.11862413188E+04  0.50400001928E-02 0.  1.
       -1    1    3    3    0  502  0.60075829337E+03  0.38400369139E+03  0.13143319766E+04  0.14952718504E+04  0.50400001928E-02 0. -1.
</event>
<event>
 5   0  0.1220908E-05  0.2762174E+04  0.7818609E-02  0.8315109E-01
        2   -1    0    0  501    0  0.00000000000E+00  0.00000000000E+00  0.98030238695E+03  0.98030238696E+03  0.25500000920E-02 0. -1.
       -2   -1    0    0    0  501  0.00000000000E+00  0.00000000000E+00 -0.19457278219E+04  0.19457278219E+04  0.25500000920E-02 0.  1.
    10030    2    1    2    0    0  0.00000000000E+00  0.00000000000E+00 -0.96542543498E+03  0.29260302089E+04  0.27621742365E+04 0.  0.
        2    1    3    3  502    0 -0.39204682538E+02  0.57565177415E+03 -0.18119350865E+04  0.19015837426E+04  0.25500000920E-02 0.  1.
       -2    1    3    3    0  502  0.39204682538E+02 -0.57565177415E+03  0.84650965154E+03  0.10244464663E+04  0.25500000920E-02 0. -1.
</event>
<event>
 5   0  0.4824715E-06  0.2674392E+04  0.7818609E-02  0.8343362E-01
       -1   -1    0    0    0  501  0.00000000000E+00  0.00000000000E+00  0.87233307822E+03  0.87233307823E+03  0.50400001928E-02 0.  1.
        1   -1    0    0  501    0  0.00000000000E+00  0.00000000000E+00 -0.20497829656E+04  0.20497829657E+04  0.50400001928E-02 0. -1.
    10030    2    1    2    0    0  0.00000000000E+00  0.00000000000E+00 -0.11774498874E+04  0.29221160439E+04  0.26743922555E+04 0.  0.
        5    1    3    3  502    0  0.11148063246E+04 -0.55769469342E+03 -0.11175556664E+04  0.16741473263E+04  0.46999998093E+01 0. -1.
       -5    1    3    3    0  502 -0.11148063246E+04  0.55769469342E+03 -0.59894221021E+02  0.12479687176E+04  0.46999998093E+01 0.  1.
</event>
<event>
 5   0  0.1286641E-05  0.2727221E+04  0.7818609E-02  0.8326227E-01
        2   -1    0    0  501    0  0.00000000000E+00  0.00000000000E+00  0.11460819166E+04  0.11460819166E+04  0.25500000920E-02 0.  1.
       -2   -1    0    0    0  501  0.00000000000E+00  0.00000000000E+00 -0.16224259924E+04  0.16224259924E+04  0.25500000920E-02 0. -1.
    10030    2    1    2    0    0  0.00000000000E+00  0.00000000000E+00 -0.47634407585E+03  0.27685079090E+04  0.27272206298E+04 0.  0.
        4    1    3    3  502    0 -0.29224208596E+03  0.12951813721E+04  0.77226350581E+02  0.13299871224E+04  0.12699999809E+01 0. -1.
       -4    1    3    3    0  502  0.29224208596E+03 -0.12951813721E+04 -0.55357042643E+03  0.14385207866E+04  0.12699999809E+01 0.  1.
</event>
<event>
 5   0  0.1261364E-05  0.2886770E+04  0.7818609E-02  0.8276825E-01
       -2   -1    0    0    0  501  0.00000000000E+00  0.00000000000E+00  0.13113736125E+04  0.13113736125E+04  0.25500000920E-02 0. -1.
        2   -1    0    0  501    0  0.00000000000E+00  0.00000000000E+00 -0.15886854128E+04  0.15886854128E+04  0.25500000920E-02 0.  1.
    10030    2    1    2    0    0  0.00000000000E+00  0.00000000000E+00 -0.27731180035E+03  0.29000590253E+04  0.28867699104E+04 0.  0.
        5    1    3    3  502    0  0.27929185093E+03 -0.41486268995E+03 -0.14988544951E+04  0.15800955278E+04  0.46999998093E+01 0.  1.
       -5    1    3    3    0  502 -0.27929185093E+03  0.41486268995E+03  0.12215426948E+04  0.13199634975E+04  0.46999998093E+01 0. -1.
</event>
<event>
 5   0  0.4756800E-06  0.2705409E+04  0.7818609E-02  0.8333252E-01
        1   -1    0    0  501    0  0.00000000000E+00  0.00000000000E+00  0.26354631779E+04  0.26354631779E+04  0.50400001928E-02 0. -1.
       -1   -1    0    0    0  501  0.00000000000E+00  0.00000000000E+00 -0.69430285234E+03  0.69430285236E+03  0.50400001928E-02 0.  1.
    10030    2    1    2    0    0  0.00000000000E+00  0.00000000000E+00  0.19411603255E+04  0.33297660302E+04  0.27054091015E+04 0.  0.
        4    1    3    3  502    0  0.40279202781E+03 -0.60767093787E+03 -0.43180960851E+03  0.84732906081E+03  0.12699999809E+01 0.  1.
       -4    1    3    3    0  502 -0.40279202781E+03  0.60767093787E+03  0.23729699340E+04  0.24824369694E+04  0.12699999809E+01 0. -1.
</event>
<event>
 5   0  0.1232559E-05  0.2687799E+04  0.7818609E-02  0.8338975E-01
       -2   -1    0    0    0  501  0.00000000000E+00  0.00000000000E+00  0.10504019633E+04  0.10504019633E+04  0.25500000920E-02 0.  1.
        2   -1    0    0  501    0  0.00000000000E+00  0.00000000000E+00 -0.17194042285E+04  0.17194042285E+04  0.25500000920E-02 0. -1.
    10030    2    1    2    0    0  0.00000000000E+00  0.00000000000E+00 -0.66900226520E+03  0.27698061918E+04  0.26877987851E+04 0.  0.
        3    1    3    3  502    0 -0.11919726561E+03 -0.12927235970E+04 -0.69255481371E+03  0.14713852203E+04  0.10100000352E+00 0. -1.
       -3    1    3    3    0  502  0.11919726561E+03  0.12927235970E+04  0.23552548515E+02  0.12984209714E+04  0.10100000352E+00 0.  1.
</event>
<event>
 5   0  0.4824715E-06  0.2669360E+04  0.7818609E-02  0.8345016E-01
       -1   -1    0    0    0  501  0.00000000000E+00  0.00000000000E+00  0.81632131977E+03  0.81632131978E+03  0.50400001928E-02 0.  1.
        1   -1    0    0  501    0  0.00000000000E+00  0.00000000000E+00 -0.21821929644E+04  0.21821929644E+04  0.50400001928E-02 0. -1.
    10030    2    1    2    0    0  0.00000000000E+00  0.00000000000E+00 -0.13658716446E+04  0.29985142842E+04  0.26693599538E+04 0.  0.
        5    1    3    3  502    0 -0.90578632897E+03 -0.95944880785E+03 -0.90859966604E+03  0.16020506645E+04  0.46999998093E+01 0. -1.
       -5    1    3    3    0  502  0.90578632897E+03  0.95944880785E+03 -0.45727197860E+03  0.13964636197E+04  0.46999998093E+01 0.  1.
</event>
<event>
 5   0  0.5152288E-06  0.2227118E+04  0.7818609E-02  0.8507225E-01
       -1   -1    0    0    0  501  0.00000000000E+00  0.00000000000E+00  0.66662566370E+03  0.66662566372E+03  0.50400001928E-02 0.  1.
        1   -1    0    0  501    0  0.00000000000E+00  0.00000000000E+00 -0.18601341902E+04  0.18601341902E+04  0.50400001928E-02 0. -1.
    10030    2    1    2    0    0  0.00000000000E+00  0.00000000000E+00 -0.11935085265E+04  0.25267598540E+04  0.22271175893E+04 0.  0.
        3    1    3    3  502    0 -0.62759467769E+03 -0.21781773694E+03 -0.16106911063E+04  0.17423103903E+04  0.10100000352E+00 0. -1.
       -3    1    3    3    0  502  0.62759467769E+03  0.21781773694E+03  0.41718257977E+03  0.78444946367E+03  0.10100000352E+00 0.  1.
</event>
<event>
 5   0  0.5152288E-06  0.2675078E+04  0.7818609E-02  0.8343137E-01
        1   -1    0    0  501    0  0.00000000000E+00  0.00000000000E+00  0.26111819226E+04  0.26111819226E+04  0.50400001928E-02 0. -1.
       -1   -1    0    0    0  501  0.00000000000E+00  0.00000000000E+00 -0.68513465345E+03  0.68513465347E+03  0.50400001928E-02 0.  1.
    10030    2    1    2    0    0  0.00000000000E+00  0.00000000000E+00  0.19260472691E+04  0.32963165761E+04  0.26750784823E+04 0.  0.
        3    1    3    3  502    0  0.71616145970E+03  0.96503405886E+03  0.23942631746E+03  0.12253582916E+04  0.10100000352E+00 0.  1.
       -3    1    3    3    0  502 -0.71616145970E+03 -0.96503405886E+03  0.16866209517E+04  0.20709582844E+04  0.10100000352E+00 0. -1.
</event>
<event>
 5   0  0.4826140E-06  0.2662643E+04  0.7818609E-02  0.8347229E-01
       -1   -1    0    0    0  501  0.00000000000E+00  0.00000000000E+00  0.13711320181E+04  0.13711320181E+04  0.50400001928E-02 0. -1.
        1   -1    0    0  501    0  0.00000000000E+00  0.00000000000E+00 -0.12926665411E+04  0.12926665411E+04  0.50400001928E-02 0.  1.
    10030    2    1    2    0    0  0.00000000000E+00  0.00000000000E+00  0.78465476997E+02  0.26637985592E+04  0.26626426596E+04 0.  0.
        1    1    3    3  502    0  0.16907111372E+03 -0.92653689054E+03  0.98057736196E+03  0.13596277483E+04  0.50400001928E-02 0. -1.
       -1    1    3    3    0  502 -0.16907111372E+03  0.92653689054E+03 -0.90211188496E+03  0.13041708109E+04  0.50400001928E-02 0.  1.
</event>
<event>
 5   0  0.1232559E-05  0.2710472E+04  0.7818609E-02  0.8331615E-01
       -2   -1    0    0    0  501  0.00000000000E+00  0.00000000000E+00  0.14669540510E+04  0.14669540510E+04  0.25500000920E-02 0. -1.
        2   -1    0    0  501    0  0.00000000000E+00  0.00000000000E+00 -0.12520261692E+04  0.12520261692E+04  0.25500000920E-02 0.  1.
    10030    2    1    2    0    0  0.00000000000E+00  0.00000000000E+00  0.21492788184E+03  0.27189802202E+04  0.27104721809E+04 0.  0.
        3    1    3    3  502    0 -0.13064006913E+04  0.10141256610E+03  0.45452330894E+03  0.13869241952E+04  0.10100000352E+00 0. -1.
       -3    1    3    3    0  502  0.13064006913E+04 -0.10141256610E+03 -0.23959542710E+03  0.13320560250E+04  0.10100000352E+00 0.  1.
</event>
<event>
 5   0  0.4188000E-06  0.2610692E+04  0.7818609E-02  0.8364579E-01
        3   -1    0    0  501    0  0.00000000000E+00  0.00000000000E+00  0.14224269981E+04  0.14224270017E+04  0.10100000352E+00 0.  1.
       -3   -1    0    0    0  501  0.00000000000E+00  0.00000000000E+00 -0.11979016453E+04  0.11979016496E+04  0.10100000352E+00 0. -1.
    10030    2    1    2    0    0  0.00000000000E+00  0.00000000000E+00  0.22452535278E+03  0.26203286513E+04  0.26106915955E+04 0.  0.
        1    1    3    3  502    0 -0.20677321398E+03  0.33274514449E+03 -0.11375056662E+04  0.12030767365E+04  0.50400001928E-02 0. -1.
       -1    1    3    3    0  502  0.20677321398E+03 -0.33274514449E+03  0.13620310190E+04  0.14172519148E+04  0.50400001928E-02 0.  1.
</event>
<event>
 5   0  0.1232559E-05  0.2773462E+04  0.7818609E-02  0.8311555E-01
       -2   -1    0    0    0  501  0.00000000000E+00  0.00000000000E+00  0.11371419566E+04  0.11371419566E+04  0.25500000920E-02 0. -1.
        2   -1    0    0  501    0  0.00000000000E+00  0.00000000000E+00 -0.16911016995E+04  0.16911016995E+04  0.25500000920E-02 0.  1.
    10030    2    1    2    0    0  0.00000000000E+00  0.00000000000E+00 -0.55395974295E+03  0.28282436561E+04  0.27734618767E+04 0.  0.
        3    1    3    3  502    0  0.57991512426E+03 -0.62025849458E+03  0.84103338052E+03  0.11951398700E+04  0.10100000352E+00 0. -1.
       -3    1    3    3    0  502 -0.57991512426E+03  0.62025849458E+03 -0.13949931235E+04  0.16331037861E+04  0.10100000352E+00 0.  1.
</event>
<event>
 5   0  0.1261364E-05  0.2688120E+04  0.7818609E-02  0.8338870E-01
        2   -1    0    0  501    0  0.00000000000E+00  0.00000000000E+00  0.22535500014E+04  0.22535500014E+04  0.25500000920E-02 0.  1.
       -2   -1    0    0    0  501  0.00000000000E+00  0.00000000000E+00 -0.80162262550E+03  0.80162262550E+03  0.25500000920E-02 0. -1.
    10030    2    1    2    0    0  0.00000000000E+00  0.00000000000E+00  0.14519273759E+04  0.30551726269E+04  0.26881195426E+04 0.  0.
        5    1    3    3  502    0  0.89566862916E+03  0.97924735629E+03  0.48399164643E+03  0.14125925392E+04  0.46999998093E+01 0. -1.
       -5    1    3    3    0  502 -0.89566862916E+03 -0.97924735629E+03  0.96793572947E+03  0.16425800877E+04  0.46999998093E+01 0.  1.
</event>
<event>
 5   0  0.4846214E-06  0.2695352E+04  0.7818609E-02  0.8336515E-01
       -1   -1    0    0    0  501  0.00000000000E+00  0.00000000000E+00  0.14179449982E+04  0.14179449982E+04  0.50400001928E-02 0. -1.
        1   -1    0    0  501    0  0.00000000000E+00  0.00000000000E+00 -0.12808894054E+04  0.12808894055E+04  0.50400001928E-02 0.  1.
    10030    2    1    2    0    0  0.00000000000E+00  0.00000000000E+00  0.13705559273E+03  0.26988344036E+04  0.26953520925E+04 0.  0.
        2    1    3    3  502    0  0.60323980487E+03  0.11027074543E+04  0.55533359988E+03  0.13741387845E+04  0.25500000920E-02 0.  1.
       -2    1    3    3    0  502 -0.60323980487E+03 -0.11027074543E+04 -0.41827800715E+03  0.13246956191E+04  0.25500000920E-02 0. -1.
</event>
<event>
 5   0  0.4756800E-06  0.2740062E+04  0.7818609E-02  0.8322122E-01
       -1   -1    0    0    0  501  0.00000000000E+00  0.00000000000E+00  0.15087008687E+04  0.15087008687E+04  0.50400001928E-02 0. -1.
        1   -1    0    0  501    0  0.00000000000E+00  0.00000000000E+00 -0.12441070779E+04  0.12441070779E+04  0.50400001928E-02 0.  1.
    10030    2    1    2    0    0  0.00000000000E+00  0.00000000000E+00  0.26459379077E+03  0.27528079467E+04  0.27400623564E+04 0.  0.
        4    1    3    3  502    0  0.10683999891E+04  0.47474737337E+03 -0.58525238355E+03  0.13074347290E+04  0.12699999809E+01 0.  1.
       -4    1    3    3    0  502 -0.10683999891E+04 -0.47474737337E+03  0.84984617431E+03  0.14453732176E+04  0.12699999809E+01 0. -1.
</event>
<event>
 5   0  0.1220908E-05  0.2737386E+04  0.7818609E-02  0.8322976E-01
       -2   -1    0    0    0  501  0.00000000000E+00  0.00000000000E+00  0.63475499371E+03  0.63475499371E+03  0.25500000920E-02 0. -1.
        2   -1    0    0  501    0  0.00000000000E+00  0.00000000000E+00 -0.29512495683E+04  0.29512495683E+04  0.25500000920E-02 0.  1.
    10030    2    1    2    0    0  0.00000000000E+00  0.00000000000E+00 -0.23164945746E+04  0.35860045620E+04  0.27373859072E+04 0.  0.
        2    1    3    3  502    0  0.12205654047E+04  0.14540749976E+03 -0.36962835430E+03  0.12835686068E+04  0.25500000920E-02 0. -1.
       -2    1    3    3    0  502 -0.12205654047E+04 -0.14540749976E+03 -0.19468662203E+04  0.23024359552E+04  0.25500000920E-02 0.  1.
</event>
<event>
 5   0  0.1232559E-05  0.2723969E+04  0.7818609E-02  0.8327270E-01
        2   -1    0    0  501    0  0.00000000000E+00  0.00000000000E+00  0.17520912081E+04  0.17520912081E+04  0.25500000920E-02 0.  1.
       -2   -1    0    0    0  501  0.00000000000E+00  0.00000000000E+00 -0.10587358268E+04  0.10587358268E+04  0.25500000920E-02 0. -1.
    10030    2    1    2    0    0  0.00000000000E+00  0.00000000000E+00  0.69335538128E+03  0.28108270350E+04  0.27239689675E+04 0.  0.
        3    1    3    3  502    0 -0.23951320138E+03  0.90248906226E+03  0.13698329909E+04  0.16577983937E+04  0.10100000352E+00 0.  1.
       -3    1    3    3    0  502  0.23951320138E+03 -0.90248906226E+03 -0.67647760957E+03  0.11530286413E+04  0.10100000352E+00 0. -1.
</event>
<event>
 5   0  0.4826140E-06  0.2726512E+04  0.7818609E-02  0.8326454E-01
        1   -1    0    0  501    0  0.00000000000E+00  0.00000000000E+00  0.16353151948E+04  0.16353151948E+04  0.50400001928E-02 0. -1.
       -1   -1    0    0    0  501  0.00000000000E+00  0.00000000000E+00 -0.11364581591E+04  0.11364581591E+04  0.50400001928E-02 0.  1.
    10030    2    1    2    0    0  0.00000000000E+00  0.00000000000E+00  0.49885703576E+03  0.27717733539E+04  0.27265122745E+04 0.  0.
        1    1    3    3  502    0  0.46266122074E+03  0.11656870657E+04 -0.29384480155E+03  0.12881096645E+04  0.50400001928E-02 0.  1.
       -1    1    3    3    0  502 -0.46266122074E+03 -0.11656870657E+04  0.79270183732E+03  0.14836636894E+04  0.50400001928E-02 0. -1.
</event>
<event>
 5   0  0.1261364E-05  0.2768459E+04  0.7818609E-02  0.8313128E-01
       -2   -1    0    0    0  501  0.00000000000E+00  0.00000000000E+00  0.12206096213E+04  0.12206096213E+04  0.25500000920E-02 0. -1.
        2   -1    0    0  501    0  0.00000000000E+00  0.00000000000E+00 -0.15697821309E+04  0.15697821309E+04  0.25500000920E-02 0.  1.
    10030    2    1    2    0    0  0.00000000000E+00  0.00000000000E+00 -0.34917250956E+03  0.27903917522E+04  0.27684589015E+04 0.  0.
        5    1    3    3  502    0 -0.49012248327E+03 -0.12699674507E+04  0.78463916951E+02  0.13635307296E+04  0.46999998093E+01 0. -1.
       -5    1    3    3    0  502  0.49012248327E+03  0.12699674507E+04 -0.42763642651E+03  0.14268610225E+04  0.46999998093E+01 0.  1.
</event>
<event>
 5   0  0.4756800E-06  0.2692760E+04  0.7818609E-02  0.8337358E-01
       -1   -1    0    0    0  501  0.00000000000E+00  0.00000000000E+00  0.10699788849E+04  0.10699788849E+04  0.50400001928E-02 0.  1.
        1   -1    0    0  501    0  0.00000000000E+00  0.00000000000E+00 -0.16941821118E+04  0.16941821119E+04  0.50400001928E-02 0. -1.
    10030    2    1    2    0    0  0.00000000000E+00  0.00000000000E+00 -0.62420322692E+03  0.27641609968E+04  0.26927599870E+04 0.  0.
        4    1    3    3  502    0  0.47951178963E+03 -0.11647234994E+04  0.17614143872E+03  0.12718253834E+04  0.12699999809E+01 0.  1.
       -4    1    3    3    0  502 -0.47951178963E+03  0.11647234994E+04 -0.80034466564E+03  0.14923356134E+04  0.12699999809E+01 0. -1.
</event>
<event>
 5   0  0.4824715E-06  0.2545706E+04  0.7818609E-02  0.8386881E-01
       -1   -1    0    0    0  501  0.00000000000E+00  0.00000000000E+00  0.12064132817E+04  0.12064132817E+04  0.50400001928E-02 0. -1.
        1   -1    0    0  501    0  0.00000000000E+00  0.00000000000E+00 -0.13429520472E+04  0.13429520472E+04  0.50400001928E-02 0.  1.
    10030    2    1    2    0    0  0.00000000000E+00  0.00000000000E+00 -0.13653876552E+03  0.25493653289E+04  0.25457063354E+04 0.  0.
        5    1    3    3  502    0 -0.34670841091E+03  0.54485509750E+03  0.10301477255E+04  0.12158537025E+04  0.46999998093E+01 0. -1.
       -5    1    3    3    0  502  0.34670841091E+03 -0.54485509750E+03 -0.11666864910E+04  0.13335116264E+04  0.46999998093E+01 0.  1.
</event>
<event>
 5   0  0.1220908E-05  0.2695091E+04  0.7818609E-02  0.8336599E-01
       -2   -1    0    0    0  501  0.00000000000E+00  0.00000000000E+00  0.14940561140E+04  0.14940561140E+04  0.25500000920E-02 0. -1.
        2   -1    0    0  501    0  0.00000000000E+00  0.00000000000E+00 -0.12154023891E+04  0.12154023891E+04  0.25500000920E-02 0.  1.
    10030    2    1    2    0    0  0.00000000000E+00  0.00000000000E+00  0.27865372495E+03  0.27094585031E+04  0.26950913680E+04 0.  0.
        2    1    3    3  502    0  0.68078276748E+03  0.85960566411E+03 -0.64810605819E+03  0.12737458683E+04  0.25500000920E-02 0. -1.
       -2    1    3    3    0  502 -0.68078276748E+03 -0.85960566411E+03  0.92675978314E+03  0.14357126349E+04  0.25500000920E-02 0.  1.
</event>
<event>
 5   0  0.4826140E-06  0.2693392E+04  0.7818609E-02  0.8337152E-01
       -1   -1    0    0    0  501  0.00000000000E+00  0.00000000000E+00  0.91698467284E+03  0.91698467285E+03  0.50400001928E-02 0. -1.
        1   -1    0    0  501    0  0.00000000000E+00  0.00000000000E+00 -0.19777763644E+04  0.19777763644E+04  0.50400001928E-02 0.  1.
    10030    2    1    2    0    0  0.00000000000E+00  0.00000000000E+00 -0.10607916916E+04  0.28947610372E+04  0.26933923684E+04 0.  0.
        1    1    3    3  502    0 -0.57998868399E+03 -0.14446577697E+03 -0.18274063548E+04  0.19226729362E+04  0.50400001928E-02 0.  1.
       -1    1    3    3    0  502  0.57998868399E+03  0.14446577697E+03  0.76661466321E+03  0.97208810102E+03  0.50400001928E-02 0. -1.
</event>
<event>
 5   0  0.4846214E-06  0.2685361E+04  0.7818609E-02  0.8339771E-01
        1   -1    0    0  501    0  0.00000000000E+00  0.00000000000E+00  0.13207246495E+04  0.13207246495E+04  0.50400001928E-02 0. -1.
       -1   -1    0    0    0  501  0.00000000000E+00  0.00000000000E+00 -0.13650012025E+04  0.13650012025E+04  0.50400001928E-02 0.  1.
    10030    2    1    2    0    0  0.00000000000E+00  0.00000000000E+00 -0.44276552996E+02  0.26857258521E+04  0.26853608583E+04 0.  0.
        2    1    3    3  502    0  0.40119166893E+03  0.11596794255E+04  0.52289415001E+03  0.13338775871E+04  0.25500000920E-02 0. -1.
       -2    1    3    3    0  502 -0.40119166893E+03 -0.11596794255E+04 -0.56717070301E+03  0.13518482650E+04  0.25500000920E-02 0.  1.
</event>
<event>
 5   0  0.1261364E-05  0.2667186E+04  0.7818609E-02  0.8345731E-01
       -2   -1    0    0    0  501  0.00000000000E+00  0.00000000000E+00  0.69586643219E+03  0.69586643219E+03  0.25500000920E-02 0.  1.
        2   -1    0    0  501    0  0.00000000000E+00  0.00000000000E+00 -0.25557638704E+04  0.25557638704E+04  0.25500000920E-02 0. -1.
    10030    2    1    2    0    0  0.00000000000E+00  0.00000000000E+00 -0.18598974382E+04  0.32516303026E+04  0.26671859973E+04 0.  0.
        5    1    3    3  502    0 -0.10410104418E+04  0.38175514897E+03 -0.18332598859E+04  0.21424993892E+04  0.46999998093E+01 0. -1.
       -5    1    3    3    0  502  0.10410104418E+04 -0.38175514897E+03 -0.26637552379E+02  0.11091309134E+04  0.46999998093E+01 0.  1.
</event>
<event>
 5   0  0.1286641E-05  0.2698123E+04  0.7818609E-02  0.8335614E-01
        2   -1    0    0  501    0  0.00000000000E+00  0.00000000000E+00  0.13993170451E+04  0.13993170451E+04  0.25500000920E-02 0. -1.
       -2   -1    0    0    0  501  0.00000000000E+00  0.00000000000E+00 -0.13006112527E+04  0.13006112527E+04  0.25500000920E-02 0.  1.
    10030    2    1    2    0    0  0.00000000000E+00  0.00000000000E+00  0.98705792434E+02  0.26999282979E+04  0.26981234182E+04 0.  0.
        4    1    3    3  502    0  0.97071387547E+03  0.78775514602E+03  0.55676436361E+03  0.13685144382E+04  0.12699999809E+01 0. -1.
       -4    1    3    3    0  502 -0.97071387547E+03 -0.78775514602E+03 -0.45805857118E+03  0.13314138596E+04  0.12699999809E+01 0.  1.
</event>
<event>
 5   0  0.4846214E-06  0.2701273E+04  0.7818609E-02  0.8334592E-01
       -1   -1    0    0    0  501  0.00000000000E+00  0.00000000000E+00  0.76991872846E+03  0.76991872848E+03  0.50400001928E-02 0. -1.
        1   -1    0    0  501    0  0.00000000000E+00  0.00000000000E+00 -0.23693659624E+04  0.23693659624E+04  0.50400001928E-02 0.  1.
    10030    2    1    2    0    0  0.00000000000E+00  0.00000000000E+00 -0.15994472340E+04  0.31392846909E+04  0.27012732028E+04 0.  0.
        2    1    3    3  502    0 -0.43917270052E+02 -0.68363234017E+03  0.55303962947E+03  0.88041736404E+03  0.25500000920E-02 0. -1.
       -2    1    3    3    0  502  0.43917270052E+02  0.68363234017E+03 -0.21524868634E+04  0.22588673269E+04  0.25500000920E-02 0.  1.
</event>
<event>
 5   0  0.5152288E-06  0.2711516E+04  0.7818609E-02  0.8331278E-01
        1   -1    0    0  501    0  0.00000000000E+00  0.00000000000E+00  0.17822677267E+04  0.17822677267E+04  0.50400001928E-02 0.  1.
       -1   -1    0    0    0  501  0.00000000000E+00  0.00000000000E+00 -0.10313150150E+04  0.10313150150E+04  0.50400001928E-02 0. -1.
    10030    2    1    2    0    0  0.00000000000E+00  0.00000000000E+00  0.75095271166E+03  0.28135827417E+04  0.27115157881E+04 0.  0.
        3    1    3    3  502    0  0.15157489167E+03 -0.50240912406E+03  0.16726075757E+04  0.17529991409E+04  0.10100000352E+00 0.  1.
       -3    1    3    3    0  502 -0.15157489167E+03  0.50240912406E+03 -0.92165486400E+03  0.10605836008E+04  0.10100000352E+00 0. -1.
</event>
<event>
 5   0  0.4846214E-06  0.2636178E+04  0.7818609E-02  0.8356015E-01
       -1   -1    0    0    0  501  0.00000000000E+00  0.00000000000E+00  0.12572004956E+04  0.12572004956E+04  0.50400001928E-02 0.  1.
        1   -1    0    0  501    0  0.00000000000E+00  0.00000000000E+00 -0.13819267098E+04  0.13819267098E+04  0.50400001928E-02 0. -1.
    10030    2    1    2    0    0  0.00000000000E+00  0.00000000000E+00 -0.12472621422E+03  0.26391272054E+04  0.26361782523E+04 0.  0.
        2    1    3    3  502    0  0.10692517157E+04  0.74997798169E+03 -0.24030540577E+03  0.13279732274E+04  0.25500000920E-02 0.  1.
       -2    1    3    3    0  502 -0.10692517157E+04 -0.74997798169E+03  0.11557919155E+03  0.13111539780E+04  0.25500000920E-02 0. -1.
</event>
<event>
 5   0  0.1232559E-05  0.2696130E+04  0.7818609E-02  0.8336262E-01
       -2   -1    0    0    0  501  0.00000000000E+00  0.00000000000E+00  0.71278665976E+03  0.71278665977E+03  0.25500000920E-02 0.  1.
        2   -1    0    0  501    0  0.00000000000E+00  0.00000000000E+00 -0.25495407279E+04  0.25495407279E+04  0.25500000920E-02 0. -1.
    10030    2    1    2    0    0  0.00000000000E+00  0.00000000000E+00 -0.18367540681E+04  0.32623273876E+04  0.26961295365E+04 0.  0.
        3    1    3    3  502    0  0.93438975917E+03 -0.42931778922E+03  0.13639710432E+03  0.10373052427E+04  0.10100000352E+00 0.  1.
       -3    1    3    3    0  502 -0.93438975917E+03  0.42931778922E+03 -0.19731511724E+04  0.22250221450E+04  0.10100000352E+00 0. -1.
</event>
<event>
 5   0  0.4188000E-06  0.2684964E+04  0.7818609E-02  0.8339900E-01
        3   -1    0    0  501    0  0.00000000000E+00  0.00000000000E+00  0.90631860988E+03  0.90631861551E+03  0.10100000352E+00 0.  1.
       -3   -1    0    0    0  501  0.00000000000E+00  0.00000000000E+00 -0.19885481528E+04  0.19885481554E+04  0.10100000352E+00 0. -1.
    10030    2    1    2    0    0  0.00000000000E+00  0.00000000000E+00 -0.10822295429E+04  0.28948667709E+04  0.26849642153E+04 0.  0.
        2    1    3    3  502    0  0.85858879251E+03 -0.33366458690E+03 -0.15940646098E+04  0.18410727175E+04  0.25500000920E-02 0. -1.
       -2    1    3    3    0  502 -0.85858879251E+03  0.33366458690E+03  0.51183506685E+03  0.10537940533E+04  0.25500000920E-02 0.  1.
</event>
<event>
 5   0  0.4756800E-06  0.2691054E+04  0.7818609E-02  0.8337913E-01
        1   -1    0    0  501    0  0.00000000000E+00  0.00000000000E+00  0.25398794135E+04  0.25398794135E+04  0.50400001928E-02 0. -1.
       -1   -1    0    0    0  501  0.00000000000E+00  0.00000000000E+00 -0.71280679434E+03  0.71280679435E+03  0.50400001928E-02 0.  1.
    10030    2    1    2    0    0  0.00000000000E+00  0.00000000000E+00  0.18270726192E+04  0.32526862078E+04  0.26910542936E+04 0.  0.
        4    1    3    3  502    0 -0.93634787180E+03 -0.89847312696E+03  0.13433325643E+04  0.18677647839E+04  0.12699999809E+01 0. -1.
       -4    1    3    3    0  502  0.93634787180E+03  0.89847312696E+03  0.48374005487E+03  0.13849214239E+04  0.12699999809E+01 0.  1.
</event>
<event>
 5   0  0.5152288E-06  0.2781487E+04  0.7818609E-02  0.8309039E-01
       -1   -1    0    0    0  501  0.00000000000E+00  0.00000000000E+00  0.16099524476E+04  0.16099524476E+04  0.50400001928E-02 0. -1.
        1   -1    0    0  501    0  0.00000000000E+00  0.00000000000E+00 -0.12013815304E+04  0.12013815304E+04  0.50400001928E-02 0.  1.
    10030    2    1    2    0    0  0.00000000000E+00  0.00000000000E+00  0.40857091719E+03  0.28113339780E+04  0.27814867502E+04 0.  0.
        3    1    3    3  502    0 -0.12268279766E+04  0.65433027943E+03  0.23481097371E+03  0.14101032594E+04  0.10100000352E+00 0. -1.
       -3    1    3    3    0  502  0.12268279766E+04 -0.65433027943E+03  0.17375994347E+03  0.14012307186E+04  0.10100000352E+00 0.  1.
</event>
<event>
 5   0  0.1276517E-05  0.2716244E+04  0.7818609E-02  0.8329754E-01
        2   -1    0    0  501    0  0.00000000000E+00  0.00000000000E+00  0.21868813355E+04  0.21868813355E+04  0.25500000920E-02 0.  1.
       -2   -1    0    0    0  501  0.00000000000E+00  0.00000000000E+00 -0.84343617983E+03  0.84343617983E+03  0.25500000920E-02 0. -1.
    10030    2    1    2    0    0  0.00000000000E+00  0.00000000000E+00  0.13434451557E+04  0.30303175154E+04  0.27162436116E+04 0.  0.
        1    1    3    3  502    0  0.12330681891E+04  0.56212701722E+03  0.77182430052E+03  0.15595373331E+04  0.50400001928E-02 0. -1.
       -1    1    3    3    0  502 -0.12330681891E+04 -0.56212701722E+03  0.57162085519E+03  0.14707801823E+04  0.50400001928E-02 0.  1.
</event>
<event>
 5   0  0.4826140E-06  0.2663135E+04  0.7818609E-02  0.8347066E-01
       -1   -1    0    0    0  501  0.00000000000E+00  0.00000000000E+00  0.98509960126E+03  0.98509960128E+03  0.50400001928E-02 0. -1.
        1   -1    0    0  501    0  0.00000000000E+00  0.00000000000E+00 -0.17998908231E+04  0.17998908231E+04  0.50400001928E-02 0.  1.
    10030    2    1    2    0    0  0.00000000000E+00  0.00000000000E+00 -0.81479122183E+03  0.27849904244E+04  0.26631347936E+04 0.  0.
        1    1    3    3  502    0  0.38975997246E+03 -0.77094657653E+03 -0.14670727012E+04  0.17025198297E+04  0.50400001928E-02 0.  1.
       -1    1    3    3    0  502 -0.38975997246E+03  0.77094657653E+03  0.65228147935E+03  0.10824705947E+04  0.50400001928E-02 0. -1.
</event>
<event>
 5   0  0.1232559E-05  0.2712775E+04  0.7818609E-02  0.8330872E-01
       -2   -1    0    0    0  501  0.00000000000E+00  0.00000000000E+00  0.13427285936E+04  0.13427285936E+04  0.25500000920E-02 0.  1.
        2   -1    0    0  501    0  0.00000000000E+00  0.00000000000E+00 -0.13701857534E+04  0.13701857534E+04  0.25500000920E-02 0. -1.
    10030    2    1    2    0    0  0.00000000000E+00  0.00000000000E+00 -0.27457159809E+02  0.27129143471E+04  0.27127753978E+04 0.  0.
        3    1    3    3  502    0 -0.12570855872E+04  0.43796712283E+03 -0.27394991167E+03  0.13590908500E+04  0.10100000352E+00 0. -1.
       -3    1    3    3    0  502  0.12570855872E+04 -0.43796712283E+03  0.24649275186E+03  0.13538234971E+04  0.10100000352E+00 0.  1.
</event>
<event>
 5   0  0.1232559E-05  0.2702191E+04  0.7818609E-02  0.8334294E-01
       -2   -1    0    0    0  501  0.00000000000E+00  0.00000000000E+00  0.15703053346E+04  0.15703053346E+04  0.25500000920E-02 0.  1.
        2   -1    0    0  501    0  0.00000000000E+00  0.00000000000E+00 -0.11624868941E+04  0.11624868941E+04  0.25500000920E-02 0. -1.
    10030    2    1    2    0    0  0.00000000000E+00  0.00000000000E+00  0.40781844051E+03  0.27327922288E+04  0.27021912377E+04 0.  0.
        3    1    3    3  502    0  0.66845540433E+03 -0.70495691499E+03  0.11535114215E+04  0.15081065909E+04  0.10100000352E+00 0.  1.
       -3    1    3    3    0  502 -0.66845540433E+03  0.70495691499E+03 -0.74569298102E+03  0.12246856379E+04  0.10100000352E+00 0. -1.
</event>
<event>
 5   0  0.1286641E-05  0.2250933E+04  0.7818609E-02  0.8497523E-01
        2   -1    0    0  501    0  0.00000000000E+00  0.00000000000E+00  0.11693967079E+04  0.11693967079E+04  0.25500000920E-02 0. -1.
       -2   -1    0    0    0  501  0.00000000000E+00  0.00000000000E+00 -0.10831868186E+04  0.10831868186E+04  0.25500000920E-02 0.  1.
    10030    2    1    2    0    0  0.00000000000E+00  0.00000000000E+00  0.86209889300E+02  0.22525835265E+04  0.22509332285E+04 0.  0.
        4    1    3    3  502    0  0.78166804135E+03  0.79531788504E+03  0.19532833961E+03  0.11321175903E+04  0.12699999809E+01 0.  1.
       -4    1    3    3    0  502 -0.78166804135E+03 -0.79531788504E+03 -0.10911845031E+03  0.11204659362E+04  0.12699999809E+01 0. -1.
</event>
<event>
 5   0  0.5152288E-06  0.2727028E+04  0.7818609E-02  0.8326288E-01
       -1   -1    0    0    0  501  0.00000000000E+00  0.00000000000E+00  0.87427863562E+03  0.87427863564E+03  0.50400001928E-02 0.  1.
        1   -1    0    0  501    0  0.00000000000E+00  0.00000000000E+00 -0.21265186474E+04  0.21265186474E+04  0.50400001928E-02 0. -1.
    10030    2    1    2    0    0  0.00000000000E+00  0.00000000000E+00 -0.12522400117E+04  0.30007972830E+04  0.27270275552E+04 0.  0.
        3    1    3    3  502    0 -0.47741519536E+03 -0.39659540395E+03  0.70982777795E+03  0.94290437890E+03  0.10100000352E+00 0.  1.
       -3    1    3    3    0  502  0.47741519536E+03  0.39659540395E+03 -0.19620677897E+04  0.20578929041E+04  0.10100000352E+00 0. -1.
</event>
<event>
 5   0  0.1286641E-05  0.2511803E+04  0.7818609E-02  0.8398793E-01
        2   -1    0    0  501    0  0.00000000000E+00  0.00000000000E+00  0.10822113292E+04  0.10822113292E+04  0.25500000920E-02 0.  1.
       -2   -1    0    0    0  501  0.00000000000E+00  0.00000000000E+00 -0.14574684258E+04  0.14574684258E+04  0.25500000920E-02 0. -1.
    10030    2    1    2    0    0  0.00000000000E+00  0.00000000000E+00 -0.37525709659E+03  0.25396797550E+04  0.25118032107E+04 0.  0.
        4    1    3    3  502    0 -0.12484394913E+04  0.13151488897E+03 -0.14993342858E+03  0.12642701354E+04  0.12699999809E+01 0. -1.
       -4    1    3    3    0  502  0.12484394913E+04 -0.13151488897E+03 -0.22532366801E+03  0.12754096196E+04  0.12699999809E+01 0.  1.
</event>
<event>
 5   0  0.4824715E-06  0.2702017E+04  0.7818609E-02  0.8334351E-01
        1   -1    0    0  501    0  0.00000000000E+00  0.00000000000E+00  0.21158027264E+04  0.21158027264E+04  0.50400001928E-02 0. -1.
       -1   -1    0    0    0  501  0.00000000000E+00  0.00000000000E+00 -0.86266253766E+03  0.86266253768E+03  0.50400001928E-02 0.  1.
    10030    2    1    2    0    0  0.00000000000E+00  0.00000000000E+00  0.12531401888E+04  0.29784652641E+04  0.27020168387E+04 0.  0.
        5    1    3    3  502    0 -0.12482452834E+04  0.15784660551E+03  0.11690260710E+04  0.17174620471E+04  0.46999998093E+01 0. -1.
       -5    1    3    3    0  502  0.12482452834E+04 -0.15784660551E+03  0.84114117749E+02  0.12610032170E+04  0.46999998093E+01 0.  1.
</event>
<event>
 5   0  0.1276517E-05  0.2719821E+04  0.7818609E-02  0.8328602E-01
       -2   -1    0    0    0  501  0.00000000000E+00  0.00000000000E+00  0.10110548328E+04  0.10110548328E+04  0.25500000920E-02 0.  1.
        2   -1    0    0  501    0  0.00000000000E+00  0.00000000000E+00 -0.18291359328E+04  0.18291359328E+04  0.25500000920E-02 0. -1.
    10030    2    1    2    0    0  0.00000000000E+00  0.00000000000E+00 -0.81808110004E+03  0.28401907656E+04  0.27198211152E+04 0.  0.
        1    1    3    3  502    0  0.62725927837E+03  0.76996330572E+03  0.56108383348E+03  0.11406632994E+04  0.50400001928E-02 0.  1.
       -1    1    3    3    0  502 -0.62725927837E+03 -0.76996330572E+03 -0.13791649335E+04  0.16995274662E+04  0.50400001928E-02 0. -1.
</event>
<event>
 5   0  0.4846214E-06  0.2714573E+04  0.7818609E-02  0.8330292E-01
        1   -1    0    0  501    0  0.00000000000E+00  0.00000000000E+00  0.12976456670E+04  0.12976456670E+04  0.50400001928E-02 0.  1.
       -1   -1    0    0    0  501  0.00000000000E+00  0.00000000000E+00 -0.14196687011E+04  0.14196687011E+04  0.50400001928E-02 0. -1.
    10030    2    1    2    0    0  0.00000000000E+00  0.00000000000E+00 -0.12202303407E+03  0.27173143681E+04  0.27145732177E+04 0.  0.
        2    1    3    3  502    0  0.13029044674E+04  0.28886050387E+03 -0.30870126415E+03  0.13697798774E+04  0.25500000920E-02 0. -1.
       -2    1    3    3    0  502 -0.13029044674E+04 -0.28886050387E+03  0.18667823008E+03  0.13475344907E+04  0.25500000920E-02 0.  1.
</event>
<event>
 5   0  0.1261364E-05  0.2762631E+04  0.7818609E-02  0.8314965E-01
        2   -1    0    0  501    0  0.00000000000E+00  0.00000000000E+00  0.15729767135E+04  0.15729767135E+04  0.25500000920E-02 0. -1.
       -2   -1    0    0    0  501  0.00000000000E+00  0.00000000000E+00 -0.12130076499E+04  0.12130076499E+04  0.25500000920E-02 0.  1.
    10030    2    1    2    0    0  0.00000000000E+00  0.00000000000E+00  0.35996906367E+03  0.27859843634E+04  0.27626311998E+04 0.  0.
        5    1    3    3  502    0 -0.54260879518E+03  0.25531358258E+03  0.14348510602E+04  0.15551298933E+04  0.46999998093E+01 0. -1.
       -5    1    3    3    0  502  0.54260879518E+03 -0.25531358258E+03 -0.10748819965E+04  0.12308544701E+04  0.46999998093E+01 0.  1.
</event>
<event>
 5   0  0.5152288E-06  0.2829946E+04  0.7818609E-02  0.8294031E-01
        1   -1    0    0  501    0  0.00000000000E+00  0.00000000000E+00  0.12690545697E+04  0.12690545697E+04  0.50400001928E-02 0. -1.
       -1   -1    0    0    0  501  0.00000000000E+00  0.00000000000E+00 -0.15776694834E+04  0.15776694834E+04  0.50400001928E-02 0.  1.
    10030    2    1    2    0    0  0.00000000000E+00  0.00000000000E+00 -0.30861491377E+03  0.28467240531E+04  0.28299460542E+04 0.  0.
        3    1    3    3  502    0 -0.94716786807E+03 -0.56410003802E+03  0.73797618592E+03  0.13266290681E+04  0.10100000352E+00 0. -1.
       -3    1    3    3    0  502  0.94716786807E+03  0.56410003802E+03 -0.10465910997E+04  0.15200949850E+04  0.10100000352E+00 0.  1.
</event>
<event>
 5   0  0.5152288E-06  0.2870218E+04  0.7818609E-02  0.8281794E-01
       -1   -1    0    0    0  501  0.00000000000E+00  0.00000000000E+00  0.99056165311E+03  0.99056165312E+03  0.50400001928E-02 0. -1.
        1   -1    0    0  501    0  0.00000000000E+00  0.00000000000E+00 -0.20791613712E+04  0.20791613712E+04  0.50400001928E-02 0.  1.
    10030    2    1    2    0    0  0.00000000000E+00  0.00000000000E+00 -0.10885997181E+04  0.30697230243E+04  0.28702177791E+04 0.  0.
        3    1    3    3  502    0 -0.43261581542E+03 -0.73700695275E+03 -0.17773473544E+04  0.19721306551E+04  0.10100000352E+00 0.  1.
       -3    1    3    3    0  502  0.43261581542E+03  0.73700695275E+03  0.68874763637E+03  0.10975923692E+04  0.10100000352E+00 0. -1.
</event>
<event>
 5   0  0.4188000E-06  0.2719183E+04  0.7818609E-02  0.8328807E-01
        3   -1    0    0  501    0  0.00000000000E+00  0.00000000000E+00  0.17078086934E+04  0.17078086964E+04  0.10100000352E+00 0. -1.
       -3   -1    0    0    0  501  0.00000000000E+00  0.00000000000E+00 -0.10823747382E+04  0.10823747429E+04  0.10100000352E+00 0.  1.
    10030    2    1    2    0    0  0.00000000000E+00  0.00000000000E+00  0.62543395525E+03  0.27901834393E+04  0.27191829641E+04 0.  0.
        5    1    3    3  502    0 -0.73933878167E+03 -0.98349314735E+03  0.90625480849E+03  0.15281362743E+04  0.46999998093E+01 0. -1.
       -5    1    3    3    0  502  0.73933878167E+03  0.98349314735E+03 -0.28082085324E+03  0.12620471650E+04  0.46999998093E+01 0.  1.
</event>
<event>
 5   0  0.5152288E-06  0.2725888E+04  0.7818609E-02  0.8326654E-01
        1   -1    0    0  501    0  0.00000000000E+00  0.00000000000E+00  0.15632376148E+04  0.15632376148E+04  0.50400001928E-02 0. -1.
       -1   -1    0    0    0  501  0.00000000000E+00  0.00000000000E+00 -0.11883135490E+04  0.11883135490E+04  0.50400001928E-02 0.  1.
    10030    2    1    2    0    0  0.00000000000E+00  0.00000000000E+00  0.37492406575E+03  0.27515511638E+04  0.27258880666E+04 0.  0.
        3    1    3    3  502    0  0.24971004655E+03  0.11935789078E+04 -0.42706398636E+03  0.12920407793E+04  0.10100000352E+00 0.  1.
       -3    1    3    3    0  502 -0.24971004655E+03 -0.11935789078E+04  0.80198805211E+03  0.14595103845E+04  0.10100000352E+00 0. -1.
</event>
<event>
 5   0  0.4846214E-06  0.2710306E+04  0.7818609E-02  0.8331669E-01
       -1   -1    0    0    0  501  0.00000000000E+00  0.00000000000E+00  0.13616295106E+04  0.13616295107E+04  0.50400001928E-02 0.  1.
        1   -1    0    0  501    0  0.00000000000E+00  0.00000000000E+00 -0.13487071834E+04  0.13487071834E+04  0.50400001928E-02 0. -1.
    10030    2    1    2    0    0  0.00000000000E+00  0.00000000000E+00  0.12922327211E+02  0.27103366941E+04  0.27103058884E+04 0.  0.
        2    1    3    3  502    0 -0.48480787949E+03 -0.11851340946E+04  0.45015303311E+03  0.13572837785E+04  0.25500000920E-02 0.  1.
       -2    1    3    3    0  502  0.48480787949E+03  0.11851340946E+04 -0.43723070590E+03  0.13530529156E+04  0.25500000920E-02 0. -1.
</event>
<event>
 5   0  0.4824715E-06  0.2719049E+04  0.7818609E-02  0.8328851E-01
       -1   -1    0    0    0  501  0.00000000000E+00  0.00000000000E+00  0.72059416079E+03  0.72059416081E+03  0.50400001928E-02 0. -1.
        1   -1    0    0  501    0  0.00000000000E+00  0.00000000000E+00 -0.25649758135E+04  0.25649758135E+04  0.50400001928E-02 0.  1.
    10030    2    1    2    0    0  0.00000000000E+00  0.00000000000E+00 -0.18443816527E+04  0.32855699743E+04  0.27190487997E+04 0.  0.
        5    1    3    3  502    0  0.44323339859E+03 -0.12216528896E+04 -0.43976764127E+03  0.13719727755E+04  0.46999998093E+01 0. -1.
       -5    1    3    3    0  502 -0.44323339859E+03  0.12216528896E+04 -0.14046140115E+04  0.19135971989E+04  0.46999998093E+01 0.  1.
</event>
<event>
 5   0  0.1261364E-05  0.2767182E+04  0.7818609E-02  0.8313530E-01
        2   -1    0    0  501    0  0.00000000000E+00  0.00000000000E+00  0.15453242581E+04  0.15453242581E+04  0.25500000920E-02 0.  1.
       -2   -1    0    0    0  501  0.00000000000E+00  0.00000000000E+00 -0.12387848636E+04  0.12387848636E+04  0.25500000920E-02 0. -1.
    10030    2    1    2    0    0  0.00000000000E+00  0.00000000000E+00  0.30653939453E+03  0.27841091218E+04  0.27671821771E+04 0.  0.
        5    1    3    3  502    0 -0.12962296219E+04 -0.16633172147E+03  0.61038879992E+03  0.14423848485E+04  0.46999998093E+01 0.  1.
       -5    1    3    3    0  502  0.12962296219E+04  0.16633172147E+03 -0.30384940539E+03  0.13417242732E+04  0.46999998093E+01 0. -1.
</event>
<event>
 5   0  0.4188000E-06  0.2686782E+04  0.7818609E-02  0.8339306E-01
        3   -1    0    0  501    0  0.00000000000E+00  0.00000000000E+00  0.30952950562E+04  0.30952950578E+04  0.10100000352E+00 0.  1.
       -3   -1    0    0    0  501  0.00000000000E+00  0.00000000000E+00 -0.58304603262E+03  0.58304604136E+03  0.10100000352E+00 0. -1.
    10030    2    1    2    0    0  0.00000000000E+00  0.00000000000E+00  0.25122490235E+04  0.36783410992E+04  0.26867821061E+04 0.  0.
        2    1    3    3  502    0  0.59608354455E+03 -0.35350705571E+03  0.28316733691E+04  0.29152455986E+04  0.25500000920E-02 0.  1.
       -2    1    3    3    0  502 -0.59608354455E+03  0.35350705571E+03 -0.31942434557E+03  0.76309550062E+03  0.25500000920E-02 0. -1.
</event>
<event>
 5   0  0.1276517E-05  0.2694172E+04  0.7818609E-02  0.8336898E-01
       -2   -1    0    0    0  501  0.00000000000E+00  0.00000000000E+00  0.10956441591E+04  0.10956441591E+04  0.25500000920E-02 0. -1.
        2   -1    0    0  501    0  0.00000000000E+00  0.00000000000E+00 -0.16562322295E+04  0.16562322295E+04  0.25500000920E-02 0.  1.
    10030    2    1    2    0    0  0.00000000000E+00  0.00000000000E+00 -0.56058807041E+03  0.27518763885E+04  0.26941723540E+04 0.  0.
        1    1    3    3  502    0 -0.12078934216E+04  0.28833460470E+03 -0.81348778719E+03  0.14845557389E+04  0.50400001928E-02 0.  1.
       -1    1    3    3    0  502  0.12078934216E+04 -0.28833460470E+03  0.25289971678E+03  0.12673206496E+04  0.50400001928E-02 0. -1.
</event>
<event>
 5   0  0.4826140E-06  0.2707956E+04  0.7818609E-02  0.8332428E-01
        1   -1    0    0  501    0  0.00000000000E+00  0.00000000000E+00  0.21411736478E+04  0.21411736478E+04  0.50400001928E-02 0. -1.
       -1   -1    0    0    0  501  0.00000000000E+00  0.00000000000E+00 -0.85619204653E+03  0.85619204655E+03  0.50400001928E-02 0.  1.
    10030    2    1    2    0    0  0.00000000000E+00  0.00000000000E+00  0.12849816013E+04  0.29973656944E+04  0.27079555739E+04 0.  0.
        1    1    3    3  502    0  0.11195726826E+04  0.57824502575E+03  0.11908634365E+04  0.17337721955E+04  0.50400001928E-02 0. -1.
       -1    1    3    3    0  502 -0.11195726826E+04 -0.57824502575E+03  0.94118164817E+02  0.12635934989E+04  0.50400001928E-02 0.  1.
</event>
<event>
 5   0  0.1286641E-05  0.2694477E+04  0.7818609E-02  0.8336799E-01
        2   -1    0    0  501    0  0.00000000000E+00  0.00000000000E+00  0.15737665418E+04  0.15737665418E+04  0.25500000920E-02 0. -1.
       -2   -1    0    0    0  501  0.00000000000E+00  0.00000000000E+00 -0.11533171860E+04  0.11533171860E+04  0.25500000920E-02 0.  1.
    10030    2    1    2    0    0  0.00000000000E+00  0.00000000000E+00  0.42044935572E+03  0.27270837278E+04  0.26944773144E+04 0.  0.
        4    1    3    3  502    0  0.10205576948E+04 -0.14660723856E+03  0.10879088355E+04  0.14988592122E+04  0.12699999809E+01 0. -1.
       -4    1    3    3    0  502 -0.10205576948E+04  0.14660723856E+03 -0.66745947975E+03  0.12282245156E+04  0.12699999809E+01 0.  1.
</event>
<event>
 5   0  0.1232559E-05  0.2687914E+04  0.7818609E-02  0.8338937E-01
       -2   -1    0    0    0  501  0.00000000000E+00  0.00000000000E+00  0.15820164853E+04  0.15820164853E+04  0.25500000920E-02 0. -1.
        2   -1    0    0  501    0  0.00000000000E+00  0.00000000000E+00 -0.11417203238E+04  0.11417203238E+04  0.25500000920E-02 0.  1.
    10030    2    1    2    0    0  0.00000000000E+00  0.00000000000E+00  0.44029616153E+03  0.27237368091E+04  0.26879139673E+04 0.  0.
        3    1    3    3  502    0 -0.11255084536E+04  0.69478996753E+03 -0.21181286851E+02  0.13228571485E+04  0.10100000352E+00 0.  1.
       -3    1    3    3    0  502  0.11255084536E+04 -0.69478996753E+03  0.46147744838E+03  0.14008796607E+04  0.10100000352E+00 0. -1.
</event>
<event>
 5   0  0.5152288E-06  0.2685704E+04  0.7818609E-02  0.8339658E-01
       -1   -1    0    0    0  501  0.00000000000E+00  0.00000000000E+00  0.11416329019E+04  0.11416329019E+04  0.50400001928E-02 0. -1.
        1   -1    0    0  501    0  0.00000000000E+00  0.00000000000E+00 -0.15795370923E+04  0.15795370923E+04  0.50400001928E-02 0.  1.
    10030    2    1    2    0    0  0.00000000000E+00  0.00000000000E+00 -0.43790419035E+03  0.27211699942E+04  0.26857040152E+04 0.  0.
        3    1    3    3  502    0 -0.47692569683E+03  0.20549740932E+03 -0.14736769633E+04  0.15625015546E+04  0.10100000352E+00 0.  1.
       -3    1    3    3    0  502  0.47692569683E+03 -0.20549740932E+03  0.10357727730E+04  0.11586684396E+04  0.10100000352E+00 0. -1.
</event>
<event>
 5   0  0.4824715E-06  0.2720836E+04  0.7818609E-02  0.8328276E-01
        1   -1    0    0  501    0  0.00000000000E+00  0.00000000000E+00  0.97481217131E+03  0.97481217132E+03  0.50400001928E-02 0.  1.
       -1   -1    0    0    0  501  0.00000000000E+00  0.00000000000E+00 -0.18985575409E+04  0.18985575409E+04  0.50400001928E-02 0. -1.
    10030    2    1    2    0    0  0.00000000000E+00  0.00000000000E+00 -0.92374536954E+03  0.28733697122E+04  0.27208359001E+04 0.  0.
        5    1    3    3  502    0  0.39572352835E+02  0.56920952423E+03 -0.17660761876E+04  0.18559667681E+04  0.46999998093E+01 0. -1.
       -5    1    3    3    0  502 -0.39572352835E+02 -0.56920952423E+03  0.84233081810E+03  0.10174029441E+04  0.46999998093E+01 0.  1.
</event>
<event>
 5   0  0.4756800E-06  0.2674798E+04  0.7818609E-02  0.8343229E-01
        1   -1    0    0  501    0  0.00000000000E+00  0.00000000000E+00  0.12999657425E+04  0.12999657425E+04  0.50400001928E-02 0. -1.
       -1   -1    0    0    0  501  0.00000000000E+00  0.00000000000E+00 -0.13759103651E+04  0.13759103651E+04  0.50400001928E-02 0.  1.
    10030    2    1    2    0    0  0.00000000000E+00  0.00000000000E+00 -0.75944622615E+02  0.26758761076E+04  0.26747981901E+04 0.  0.
        4    1    3    3  502    0 -0.25747213634E+03  0.44781435686E+03 -0.12720841051E+04  0.13729636494E+04  0.12699999809E+01 0.  1.
       -4    1    3    3    0  502  0.25747213634E+03 -0.44781435686E+03  0.11961394825E+04  0.13029124582E+04  0.12699999809E+01 0. -1.
</event>
<event>
 5   0  0.1261364E-05  0.2705001E+04  0.7818609E-02  0.8333384E-01
       -2   -1    0    0    0  501  0.00000000000E+00  0.00000000000E+00  0.11684314456E+04  0.11684314456E+04  0.25500000920E-02 0. -1.
        2   -1    0    0  501    0  0.00000000000E+00  0.00000000000E+00 -0.15655672501E+04  0.15655672501E+04  0.25500000920E-02 0.  1.
    10030    2    1    2    0    0  0.00000000000E+00  0.00000000000E+00 -0.39713580445E+03  0.27339986957E+04  0.27050012977E+04 0.  0.
        5    1    3    3  502    0 -0.13269201436E+04  0.16820101353E+03  0.41495260325E+01  0.13375529735E+04  0.46999998093E+01 0. -1.
       -5    1    3    3    0  502  0.13269201436E+04 -0.16820101353E+03 -0.40128533048E+03  0.13964457221E+04  0.46999998093E+01 0.  1.
</event>
<event>
 5   0  0.1220908E-05  0.2680381E+04  0.7818609E-02  0.8341399E-01
        2   -1    0    0  501    0  0.00000000000E+00  0.00000000000E+00  0.19255453758E+04  0.19255453758E+04  0.25500000920E-02 0.  1.
       -2   -1    0    0    0  501  0.00000000000E+00  0.00000000000E+00 -0.93278004319E+03  0.93278004319E+03  0.25500000920E-02 0. -1.
    10030    2    1    2    0    0  0.00000000000E+00  0.00000000000E+00  0.99276533263E+03  0.28583254190E+04  0.26803807930E+04 0.  0.
        2    1    3    3  502    0  0.50127507265E+03  0.10482337375E+04 -0.21581721774E+03  0.11817985185E+04  0.25500000920E-02 0. -1.
       -2    1    3    3    0  502 -0.50127507265E+03 -0.10482337375E+04  0.12085825504E+04  0.16765269005E+04  0.25500000920E-02 0.  1.
</event>
<event>
 5   0  0.1232559E-05  0.2679942E+04  0.7818609E-02  0.8341543E-01
       -2   -1    0    0    0  501  0.00000000000E+00  0.00000000000E+00  0.83907188645E+03  0.83907188645E+03  0.25500000920E-02 0.  1.
        2   -1    0    0  501    0  0.00000000000E+00  0.00000000000E+00 -0.21398903197E+04  0.21398903197E+04  0.25500000920E-02 0. -1.
    10030    2    1    2    0    0  0.00000000000E+00  0.00000000000E+00 -0.13008184333E+04  0.29789622062E+04  0.26799416467E+04 0.  0.
        3    1    3    3  502    0 -0.73758484421E+03 -0.11124258814E+04 -0.78192836467E+03  0.15469113490E+04  0.10100000352E+00 0.  1.
       -3    1    3    3    0  502  0.73758484421E+03  0.11124258814E+04 -0.51889006860E+03  0.14320508572E+04  0.10100000352E+00 0. -1.
</event>
<event>
 5   0  0.1220908E-05  0.2706121E+04  0.7818609E-02  0.8333022E-01
        2   -1    0    0  501    0  0.00000000000E+00  0.00000000000E+00  0.15396188423E+04  0.15396188423E+04  0.25500000920E-02 0. -1.
       -2   -1    0    0    0  501  0.00000000000E+00  0.00000000000E+00 -0.11891075194E+04  0.11891075194E+04  0.25500000920E-02 0.  1.
    10030    2    1    2    0    0  0.00000000000E+00  0.00000000000E+00  0.35051132289E+03  0.27287263618E+04  0.27061207235E+04 0.  0.
        2    1    3    3  502    0  0.18869400914E+03  0.78373372042E+03  0.12710387592E+04  0.15051190986E+04  0.25500000920E-02 0. -1.
       -2    1    3    3    0  502 -0.18869400914E+03 -0.78373372042E+03 -0.92052743627E+03  0.12236072632E+04  0.25500000920E-02 0.  1.
</event>
<event>
 5   0  0.1232559E-05  0.2594960E+04  0.7818609E-02  0.8369915E-01
        2   -1    0    0  501    0  0.00000000000E+00  0.00000000000E+00  0.74652186939E+03  0.74652186939E+03  0.25500000920E-02 0.  1.
       -2   -1    0    0    0  501  0.00000000000E+00  0.00000000000E+00 -0.22550642868E+04  0.22550642868E+04  0.25500000920E-02 0. -1.
    10030    2    1    2    0    0  0.00000000000E+00  0.00000000000E+00 -0.15085424174E+04  0.30015861562E+04  0.25949603519E+04 0.  0.
        3    1    3    3  502    0  0.12264558220E+04  0.42012547971E+03 -0.81498954869E+03  0.15313090076E+04  0.10100000352E+00 0.  1.
       -3    1    3    3    0  502 -0.12264558220E+04 -0.42012547971E+03 -0.69355286874E+03  0.14702771487E+04  0.10100000352E+00 0. -1.
</event>
<event>
 5   0  0.1261364E-05  0.2686211E+04  0.7818609E-02  0.8339493E-01
        2   -1    0    0  501    0  0.00000000000E+00  0.00000000000E+00  0.17073018296E+04  0.17073018296E+04  0.25500000920E-02 0. -1.
       -2   -1    0    0    0  501  0.00000000000E+00  0.00000000000E+00 -0.10565986938E+04  0.10565986938E+04  0.25500000920E-02 0.  1.
    10030    2    1    2    0    0  0.00000000000E+00  0.00000000000E+00  0.65070313579E+03  0.27639005235E+04  0.26862113716E+04 0.  0.
        5    1    3    3  502    0  0.90268676150E+03 -0.99286820503E+03  0.38428040009E+03  0.13958238348E+04  0.46999998093E+01 0.  1.
       -5    1    3    3    0  502 -0.90268676150E+03  0.99286820503E+03  0.26642273570E+03  0.13680766887E+04  0.46999998093E+01 0. -1.
</event>
<event>
 5   0  0.1286641E-05  0.2713923E+04  0.7818609E-02  0.8330501E-01
       -2   -1    0    0    0  501  0.00000000000E+00  0.00000000000E+00  0.11593157481E+04  0.11593157481E+04  0.25500000920E-02 0. -1.
        2   -1    0    0  501    0  0.00000000000E+00  0.00000000000E+00 -0.15883031058E+04  0.15883031058E+04  0.25500000920E-02 0.  1.
    10030    2    1    2    0    0  0.00000000000E+00  0.00000000000E+00 -0.42898735771E+03  0.27476188538E+04  0.27139232143E+04 0.  0.
        4    1    3    3  502    0 -0.10991377031E+04 -0.78929609097E+03 -0.11198848370E+03  0.13578052301E+04  0.12699999809E+01 0.  1.
       -4    1    3    3    0  502  0.10991377031E+04  0.78929609097E+03 -0.31699887401E+03  0.13898136237E+04  0.12699999809E+01 0. -1.
</event>
<event>
 5   0  0.1286641E-05  0.2680682E+04  0.7818609E-02  0.8341300E-01
       -2   -1    0    0    0  501  0.00000000000E+00  0.00000000000E+00  0.13905268155E+04  0.13905268155E+04  0.25500000920E-02 0.  1.
        2   -1    0    0  501    0  0.00000000000E+00  0.00000000000E+00 -0.12919664360E+04  0.12919664360E+04  0.25500000920E-02 0. -1.
    10030    2    1    2    0    0  0.00000000000E+00  0.00000000000E+00  0.98560379539E+02  0.26824932515E+04  0.26806819834E+04 0.  0.
        4    1    3    3  502    0  0.88792327390E+03  0.66362114497E+03 -0.70469529544E+03  0.13135439988E+04  0.12699999809E+01 0. -1.
       -4    1    3    3    0  502 -0.88792327390E+03 -0.66362114497E+03  0.80325567498E+03  0.13689492528E+04  0.12699999809E+01 0.  1.
</event>
<event>
 5   0  0.4826140E-06  0.2700245E+04  0.7818609E-02  0.8334925E-01
       -1   -1    0    0    0  501  0.00000000000E+00  0.00000000000E+00  0.67623599855E+03  0.67623599857E+03  0.50400001928E-02 0.  1.
        1   -1    0    0  501    0  0.00000000000E+00  0.00000000000E+00 -0.26955540409E+04  0.26955540409E+04  0.50400001928E-02 0. -1.
    10030    2    1    2    0    0  0.00000000000E+00  0.00000000000E+00 -0.20193180423E+04  0.33717900394E+04  0.27002449359E+04 0.  0.
        1    1    3    3  502    0 -0.34732649979E+03 -0.18880891872E+03  0.60234469430E+03  0.72048847043E+03  0.50400001928E-02 0.  1.
       -1    1    3    3    0  502  0.34732649979E+03  0.18880891872E+03 -0.26216627366E+04  0.26513015690E+04  0.50400001928E-02 0. -1.
</event>
<event>
 5   0  0.1220908E-05  0.2670399E+04  0.7818609E-02  0.8344674E-01
        2   -1    0    0  501    0  0.00000000000E+00  0.00000000000E+00  0.14809119874E+04  0.14809119874E+04  0.25500000920E-02 0.  1.
       -2   -1    0    0    0  501  0.00000000000E+00  0.00000000000E+00 -0.12038246130E+04  0.12038246130E+04  0.25500000920E-02 0. -1.
    10030    2    1    2    0    0  0.00000000000E+00  0.00000000000E+00  0.27708737436E+03  0.26847366004E+04  0.26703994459E+04 0.  0.
        2    1    3    3  502    0 -0.53315720950E+03 -0.11336974003E+04 -0.32570591177E+03  0.12944538410E+04  0.25500000920E-02 0. -1.
       -2    1    3    3    0  502  0.53315720950E+03  0.11336974003E+04  0.60279328613E+03  0.13902827595E+04  0.25500000920E-02 0.  1.
</event>
<event>
 5   0  0.4824715E-06  0.2739950E+04  0.7818609E-02  0.8322158E-01
        1   -1    0    0  501    0  0.00000000000E+00  0.00000000000E+00  0.25232869238E+04  0.25232869238E+04  0.50400001928E-02 0. -1.
       -1   -1    0    0    0  501  0.00000000000E+00  0.00000000000E+00 -0.74380402791E+03  0.74380402793E+03  0.50400001928E-02 0.  1.
    10030    2    1    2    0    0  0.00000000000E+00  0.00000000000E+00  0.17794828959E+04  0.32670909517E+04  0.27399496182E+04 0.  0.
        5    1    3    3  502    0  0.46247876089E+03  0.73560208577E+03 -0.37318675062E+03  0.94566773959E+03  0.46999998093E+01 0.  1.
       -5    1    3    3    0  502 -0.46247876089E+03 -0.73560208577E+03  0.21526696465E+04  0.23214232121E+04  0.46999998093E+01 0. -1.
</event>
<event>
 5   0  0.4756800E-06  0.2626475E+04  0.7818609E-02  0.8359263E-01
       -1   -1    0    0    0  501  0.00000000000E+00  0.00000000000E+00  0.15911574432E+04  0.15911574432E+04  0.50400001928E-02 0. -1.
        1   -1    0    0  501    0  0.00000000000E+00  0.00000000000E+00 -0.10838607781E+04  0.10838607781E+04  0.50400001928E-02 0.  1.
    10030    2    1    2    0    0  0.00000000000E+00  0.00000000000E+00  0.50729666503E+03  0.26750182213E+04  0.26264753145E+04 0.  0.
        4    1    3    3  502    0 -0.10810325362E+04 -0.30496485184E+03  0.94663291663E+03  0.14689283158E+04  0.12699999809E+01 0. -1.
       -4    1    3    3    0  502  0.10810325362E+04  0.30496485184E+03 -0.43933625160E+03  0.12060899055E+04  0.12699999809E+01 0.  1.
</event>
<event>
 5   0  0.4824715E-06  0.2682930E+04  0.7818609E-02  0.8340565E-01
        1   -1    0    0  501    0  0.00000000000E+00  0.00000000000E+00  0.23219826727E+04  0.23219826727E+04  0.50400001928E-02 0.  1.
       -1   -1    0    0    0  501  0.00000000000E+00  0.00000000000E+00 -0.77499665698E+03  0.77499665700E+03  0.50400001928E-02 0. -1.
    10030    2    1    2    0    0  0.00000000000E+00  0.00000000000E+00  0.15469860157E+04  0.30969793297E+04  0.26829303449E+04 0.  0.
        5    1    3    3  502    0 -0.37370174900E+03 -0.39267339975E+03 -0.64292864252E+03  0.84096654241E+03  0.46999998093E+01 0. -1.
       -5    1    3    3    0  502  0.37370174900E+03  0.39267339975E+03  0.21899146582E+04  0.22560127873E+04  0.46999998093E+01 0.  1.
</event>
<event>
 5   0  0.1276517E-05  0.2601864E+04  0.7818609E-02  0.8367568E-01
        2   -1    0    0  501    0  0.00000000000E+00  0.00000000000E+00  0.11131272034E+04  0.11131272034E+04  0.25500000920E-02 0.  1.
       -2   -1    0    0    0  501  0.00000000000E+00  0.00000000000E+00 -0.15204233643E+04  0.15204233643E+04  0.25500000920E-02 0. -1.
    10030    2    1    2    0    0  0.00000000000E+00  0.00000000000E+00 -0.40729616094E+03  0.26335505677E+04  0.26018644143E+04 0.  0.
        1    1    3    3  502    0  0.17806052516E+03 -0.82345359410E+03  0.79970764878E+03  0.11615996280E+04  0.50400001928E-02 0.  1.
       -1    1    3    3    0  502 -0.17806052516E+03  0.82345359410E+03 -0.12070038097E+04  0.14719509397E+04  0.50400001928E-02 0. -1.
</event>
<event>
 5   0  0.1232559E-05  0.2726833E+04  0.7818609E-02  0.8326351E-01
        2   -1    0    0  501    0  0.00000000000E+00  0.00000000000E+00  0.14313134285E+04  0.14313134285E+04  0.25500000920E-02 0.  1.
       -2   -1    0    0    0  501  0.00000000000E+00  0.00000000000E+00 -0.12987402802E+04  0.12987402802E+04  0.25500000920E-02 0. -1.
    10030    2    1    2    0    0  0.00000000000E+00  0.00000000000E+00  0.13257314826E+03  0.27300537088E+04  0.27268328906E+04 0.  0.
        3    1    3    3  502    0  0.12720312416E+04 -0.23138496244E+03 -0.36700852142E+03  0.13439857684E+04  0.10100000352E+00 0. -1.
       -3    1    3    3    0  502 -0.12720312416E+04  0.23138496244E+03  0.49958166968E+03  0.13860679404E+04  0.10100000352E+00 0.  1.
</event>
<event>
 5   0  0.1261364E-05  0.2618028E+04  0.7818609E-02  0.8362103E-01
        2   -1    0    0  501    0  0.00000000000E+00  0.00000000000E+00  0.16447091906E+04  0.16447091906E+04  0.25500000920E-02 0.  1.
       -2   -1    0    0    0  501  0.00000000000E+00  0.00000000000E+00 -0.10418360032E+04  0.10418360032E+04  0.25500000920E-02 0. -1.
    10030    2    1    2    0    0  0.00000000000E+00  0.00000000000E+00  0.60287318742E+03  0.26865451938E+04  0.26180276924E+04 0.  0.
        5    1    3    3  502    0 -0.11638030215E+04  0.49861539633E+03 -0.39586545114E+02  0.12667454247E+04  0.46999998093E+01 0. -1.
       -5    1    3    3    0  502  0.11638030215E+04 -0.49861539633E+03  0.64245973254E+03  0.14197997691E+04  0.46999998093E+01 0.  1.
</event>
<event>
 5   0  0.4824715E-06  0.2420003E+04  0.7818609E-02  0.8432053E-01
        1   -1    0    0  501    0  0.00000000000E+00  0.00000000000E+00  0.97639188183E+03  0.97639188184E+03  0.50400001928E-02 0. -1.
       -1   -1    0    0    0  501  0.00000000000E+00  0.00000000000E+00 -0.14995037342E+04  0.14995037342E+04  0.50400001928E-02 0.  1.
    10030    2    1    2    0    0  0.00000000000E+00  0.00000000000E+00 -0.52311185240E+03  0.24758956161E+04  0.24200027049E+04 0.  0.
        5    1    3    3  502    0  0.80767578922E+03 -0.39217660290E+03 -0.10914241480E+04  0.14132839167E+04  0.46999998093E+01 0.  1.
       -5    1    3    3    0  502 -0.80767578922E+03  0.39217660290E+03  0.56831229559E+03  0.10626116994E+04  0.46999998093E+01 0. -1.
</event>
<event>
 5   0  0.1232559E-05  0.2722007E+04  0.7818609E-02  0.8327900E-01
        2   -1    0    0  501    0  0.00000000000E+00  0.00000000000E+00  0.20929653664E+04  0.20929653664E+04  0.25500000920E-02 0.  1.
       -2   -1    0    0    0  501  0.00000000000E+00  0.00000000000E+00 -0.88502658411E+03  0.88502658412E+03  0.25500000920E-02 0. -1.
    10030    2    1    2    0    0  0.00000000000E+00  0.00000000000E+00  0.12079387823E+04  0.29779919505E+04  0.27220066046E+04 0.  0.
        3    1    3    3  502    0 -0.10953444765E+04  0.71951897960E+03  0.20222633583E+03  0.13260401899E+04  0.10100000352E+00 0. -1.
       -3    1    3    3    0  502  0.10953444765E+04 -0.71951897960E+03  0.10057124464E+04  0.16519517606E+04  0.10100000352E+00 0.  1.
</event>
<event>
 5   0  0.1286641E-05  0.2692105E+04  0.7818609E-02  0.8337571E-01
       -2   -1    0    0    0  501  0.00000000000E+00  0.00000000000E+00  0.89651576346E+03  0.89651576346E+03  0.25500000920E-02 0. -1.
        2   -1    0    0  501    0  0.00000000000E+00  0.00000000000E+00 -0.20209991662E+04  0.20209991662E+04  0.25500000920E-02 0.  1.
    10030    2    1    2    0    0  0.00000000000E+00  0.00000000000E+00 -0.11244834028E+04  0.29175149297E+04  0.26921052063E+04 0.  0.
        4    1    3    3  502    0  0.14223667045E+03  0.12637184330E+04 -0.84120933490E+02  0.12744777333E+04  0.12699999809E+01 0. -1.
       -4    1    3    3    0  502 -0.14223667045E+03 -0.12637184330E+04 -0.10403624693E+04  0.16430371964E+04  0.12699999809E+01 0.  1.
</event>
<event>
 5   0  0.1261364E-05  0.2696026E+04  0.7818609E-02  0.8336296E-01
       -2   -1    0    0    0  501  0.00000000000E+00  0.00000000000E+00  0.63290609386E+03  0.63290609387E+03  0.25500000920E-02 0. -1.
        2   -1    0    0  501    0  0.00000000000E+00  0.00000000000E+00 -0.28711027214E+04  0.28711027214E+04  0.25500000920E-02 0.  1.
    10030    2    1    2    0    0  0.00000000000E+00  0.00000000000E+00 -0.22381966275E+04  0.35040088153E+04  0.26960255255E+04 0.  0.
        5    1    3    3  502    0  0.97403512323E+03 -0.88086795453E+03 -0.15142642342E+04  0.20044178794E+04  0.46999998093E+01 0.  1.
       -5    1    3    3    0  502 -0.97403512323E+03  0.88086795453E+03 -0.72393239338E+03  0.14995909358E+04  0.46999998093E+01 0. -1.
</event>
<event>
 5   0  0.4824715E-06  0.2725491E+04  0.7818609E-02  0.8326781E-01
       -1   -1    0    0    0  501  0.00000000000E+00  0.00000000000E+00  0.12531185846E+04  0.12531185846E+04  0.50400001928E-02 0.  1.
        1   -1    0    0  501    0  0.00000000000E+00  0.00000000000E+00 -0.14819626570E+04  0.14819626571E+04  0.50400001928E-02 0. -1.
    10030    2    1    2    0    0  0.00000000000E+00  0.00000000000E+00 -0.22884407245E+03  0.27350812417E+04  0.27254907428E+04 0.  0.
        5    1    3    3  502    0 -0.30763760477E+03  0.44744945980E+02  0.12170511191E+04  0.12561363471E+04  0.46999998093E+01 0.  1.
       -5    1    3    3    0  502  0.30763760477E+03 -0.44744945980E+02 -0.14458951916E+04  0.14789448945E+04  0.46999998093E+01 0. -1.
</event>
<event>
 5   0  0.1232559E-05  0.2696064E+04  0.7818609E-02  0.8336283E-01
        2   -1    0    0  501    0  0.00000000000E+00  0.00000000000E+00  0.95177105403E+03  0.95177105403E+03  0.25500000920E-02 0.  1.
       -2   -1    0    0    0  501  0.00000000000E+00  0.00000000000E+00 -0.19092728697E+04  0.19092728697E+04  0.25500000920E-02 0. -1.
    10030    2    1    2    0    0  0.00000000000E+00  0.00000000000E+00 -0.95750181569E+03  0.28610439238E+04  0.26960642809E+04 0.  0.
        3    1    3    3  502    0 -0.12049647486E+04 -0.59166096183E+03 -0.60953146457E+03  0.14742901192E+04  0.10100000352E+00 0.  1.
       -3    1    3    3    0  502  0.12049647486E+04  0.59166096183E+03 -0.34797035112E+03  0.13867538046E+04  0.10100000352E+00 0. -1.
</event>
<event>
 5   0  0.1276517E-05  0.2666939E+04  0.7818609E-02  0.8345813E-01
        2   -1    0    0  501    0  0.00000000000E+00  0.00000000000E+00  0.26522773794E+04  0.26522773794E+04  0.25500000920E-02 0. -1.
       -2   -1    0    0    0  501  0.00000000000E+00  0.00000000000E+00 -0.67042016630E+03  0.67042016630E+03  0.25500000920E-02 0.  1.
    10030    2    1    2    0    0  0.00000000000E+00  0.00000000000E+00  0.19818572131E+04  0.33226975458E+04  0.26669385008E+04 0.  0.
        1    1    3    3  502    0 -0.24232036565E+03  0.40469421265E+03  0.25448636960E+04  0.25882093804E+04  0.50400001928E-02 0. -1.
       -1    1    3    3    0  502  0.24232036565E+03 -0.40469421265E+03 -0.56300648284E+03  0.73448816540E+03  0.50400001928E-02 0.  1.
</event>
<event>
 5   0  0.1286641E-05  0.2770288E+04  0.7818609E-02  0.8312552E-01
        2   -1    0    0  501    0  0.00000000000E+00  0.00000000000E+00  0.11653950451E+04  0.11653950451E+04  0.25500000920E-02 0. -1.
       -2   -1    0    0    0  501  0.00000000000E+00  0.00000000000E+00 -0.16463297361E+04  0.16463297361E+04  0.25500000920E-02 0.  1.
    10030    2    1    2    0    0  0.00000000000E+00  0.00000000000E+00 -0.48093469099E+03  0.28117247813E+04  0.27702884450E+04 0.  0.
        4    1    3    3  502    0 -0.10423568037E+04  0.45155047981E+03  0.56398956265E+03  0.12682631359E+04  0.12699999809E+01 0. -1.
       -4    1    3    3    0  502  0.10423568037E+04 -0.45155047981E+03 -0.10449242536E+04  0.15434616454E+04  0.12699999809E+01 0.  1.
</event>
<event>
 5   0  0.1276517E-05  0.2345204E+04  0.7818609E-02  0.8460308E-01
        2   -1    0    0  501    0  0.00000000000E+00  0.00000000000E+00  0.13458429594E+04  0.13458429594E+04  0.25500000920E-02 0. -1.
       -2   -1    0    0    0  501  0.00000000000E+00  0.00000000000E+00 -0.10216614473E+04  0.10216614473E+04  0.25500000920E-02 0.  1.
    10030    2    1    2    0    0  0.00000000000E+00  0.00000000000E+00  0.32418151210E+03  0.23675044068E+04  0.23452043543E+04 0.  0.
        1    1    3    3  502    0  0.64390807984E+03 -0.68617071925E+03 -0.54423938975E+03  0.10870346750E+04  0.50400001928E-02 0.  1.
       -1    1    3    3    0  502 -0.64390807984E+03  0.68617071925E+03  0.86842090185E+03  0.12804697318E+04  0.50400001928E-02 0. -1.
</event>
<event>
 5   0  0.1232559E-05  0.2713898E+04  0.7818609E-02  0.8330510E-01
        2   -1    0    0  501    0  0.00000000000E+00  0.00000000000E+00  0.13041223949E+04  0.13041223949E+04  0.25500000920E-02 0.  1.
       -2   -1    0    0    0  501  0.00000000000E+00  0.00000000000E+00 -0.14119149691E+04  0.14119149691E+04  0.25500000920E-02 0. -1.
    10030    2    1    2    0    0  0.00000000000E+00  0.00000000000E+00 -0.10779257412E+03  0.27160373640E+04  0.27138975153E+04 0.  0.
        3    1    3    3  502    0  0.27464295336E+03 -0.93225729243E+03  0.89383376201E+03  0.13204057011E+04  0.10100000352E+00 0.  1.
       -3    1    3    3    0  502 -0.27464295336E+03  0.93225729243E+03 -0.10016263361E+04  0.13956316629E+04  0.10100000352E+00 0. -1.
</event>
<event>
 5   0  0.1220908E-05  0.2640748E+04  0.7818609E-02  0.8354490E-01
       -2   -1    0    0    0  501  0.00000000000E+00  0.00000000000E+00  0.10489892800E+04  0.10489892800E+04  0.25500000920E-02 0.  1.
        2   -1    0    0  501    0  0.00000000000E+00  0.00000000000E+00 -0.16619684040E+04  0.16619684040E+04  0.25500000920E-02 0. -1.
    10030    2    1    2    0    0  0.00000000000E+00  0.00000000000E+00 -0.61297912397E+03  0.27109576840E+04  0.26407476513E+04 0.  0.
        2    1    3    3  502    0 -0.11713304194E+04 -0.54745777300E+03 -0.31674504086E+02  0.12933399549E+04  0.25500000920E-02 0. -1.
       -2    1    3    3    0  502  0.11713304194E+04  0.54745777300E+03 -0.58130461988E+03  0.14176177291E+04  0.25500000920E-02 0.  1.
</event>
<event>
 5   0  0.1276517E-05  0.2689465E+04  0.7818609E-02  0.8338431E-01
       -2   -1    0    0    0  501  0.00000000000E+00  0.00000000000E+00  0.16969739719E+04  0.16969739719E+04  0.25500000920E-02 0. -1.
        2   -1    0    0  501    0  0.00000000000E+00  0.00000000000E+00 -0.10656059108E+04  0.10656059108E+04  0.25500000920E-02 0.  1.
    10030    2    1    2    0    0  0.00000000000E+00  0.00000000000E+00  0.63136806112E+03  0.27625798826E+04  0.26894649987E+04 0.  0.
        1    1    3    3  502    0 -0.69518692705E+03 -0.62387380380E+03  0.13093512385E+04  0.16083855422E+04  0.50400001928E-02 0. -1.
       -1    1    3    3    0  502  0.69518692705E+03  0.62387380380E+03 -0.67798317740E+03  0.11541943404E+04  0.50400001928E-02 0.  1.
</event>
<event>
 5   0  0.1220908E-05  0.2705520E+04  0.7818609E-02  0.8333216E-01
        2   -1    0    0  501    0  0.00000000000E+00  0.00000000000E+00  0.18654706796E+04  0.18654706796E+04  0.25500000920E-02 0.  1.
       -2   -1    0    0    0  501  0.00000000000E+00  0.00000000000E+00 -0.98096375911E+03  0.98096375911E+03  0.25500000920E-02 0. -1.
    10030    2    1    2    0    0  0.00000000000E+00  0.00000000000E+00  0.88450692050E+03  0.28464344387E+04  0.27055196398E+04 0.  0.
        2    1    3    3  502    0  0.64685857349E+03 -0.41028508080E+03  0.16153151923E+04  0.17877368465E+04  0.25500000920E-02 0.  1.
       -2    1    3    3    0  502 -0.64685857349E+03  0.41028508080E+03 -0.73080827185E+03  0.10586975922E+04  0.25500000920E-02 0. -1.
</event>
<event>
 5   0  0.4826140E-06  0.2702296E+04  0.7818609E-02  0.8334260E-01
       -1   -1    0    0    0  501  0.00000000000E+00  0.00000000000E+00  0.10598403779E+04  0.10598403780E+04  0.50400001928E-02 0.  1.
        1   -1    0    0  501    0  0.00000000000E+00  0.00000000000E+00 -0.17225246545E+04  0.17225246545E+04  0.50400001928E-02 0. -1.
    10030    2    1    2    0    0  0.00000000000E+00  0.00000000000E+00 -0.66268427657E+03  0.27823650325E+04  0.27022961946E+04 0.  0.
        1    1    3    3  502    0  0.19384109605E+03  0.73426728378E+03  0.81930252707E+03  0.11171300038E+04  0.50400001928E-02 0.  1.
       -1    1    3    3    0  502 -0.19384109605E+03 -0.73426728378E+03 -0.14819868036E+04  0.16652350287E+04  0.50400001928E-02 0. -1.
</event>
<event>
 5   0  0.4846214E-06  0.2692923E+04  0.7818609E-02  0.8337305E-01
        1   -1    0    0  501    0  0.00000000000E+00  0.00000000000E+00  0.13844746769E+04  0.13844746769E+04  0.50400001928E-02 0. -1.
       -1   -1    0    0    0  501  0.00000000000E+00  0.00000000000E+00 -0.13094917709E+04  0.13094917709E+04  0.50400001928E-02 0.  1.
    10030    2    1    2    0    0  0.00000000000E+00  0.00000000000E+00  0.74982906011E+02  0.26939664479E+04  0.26929227219E+04 0.  0.
        2    1    3    3  502    0  0.54001156678E+03  0.13824814427E+03  0.12636227082E+04  0.13811109261E+04  0.25500000920E-02 0. -1.
       -2    1    3    3    0  502 -0.54001156678E+03 -0.13824814427E+03 -0.11886398022E+04  0.13128555217E+04  0.25500000920E-02 0.  1.
</event>
<event>
 5   0  0.4756800E-06  0.2705726E+04  0.7818609E-02  0.8333149E-01
       -1   -1    0    0    0  501  0.00000000000E+00  0.00000000000E+00  0.11567116169E+04  0.11567116169E+04  0.50400001928E-02 0. -1.
        1   -1    0    0  501    0  0.00000000000E+00  0.00000000000E+00 -0.15822772388E+04  0.15822772388E+04  0.50400001928E-02 0.  1.
    10030    2    1    2    0    0  0.00000000000E+00  0.00000000000E+00 -0.42556562187E+03  0.27389888557E+04  0.27057261231E+04 0.  0.
        4    1    3    3  502    0 -0.32830497658E+03 -0.55521304758E+03 -0.14165998617E+04  0.15565354049E+04  0.12699999809E+01 0.  1.
       -4    1    3    3    0  502  0.32830497658E+03  0.55521304758E+03  0.99103423980E+03  0.11824534508E+04  0.12699999809E+01 0. -1.
</event>
<event>
 5   0  0.4824715E-06  0.2681754E+04  0.7818609E-02  0.8340950E-01
        1   -1    0    0  501    0  0.00000000000E+00  0.00000000000E+00  0.21585383397E+04  0.21585383397E+04  0.50400001928E-02 0. -1.
       -1   -1    0    0    0  501  0.00000000000E+00  0.00000000000E+00 -0.83294821839E+03  0.83294821840E+03  0.50400001928E-02 0.  1.
    10030    2    1    2    0    0  0.00000000000E+00  0.00000000000E+00  0.13255901214E+04  0.29914865581E+04  0.26817536534E+04 0.  0.
        5    1    3    3  502    0 -0.24343653015E+03 -0.12738130739E+04  0.10428299403E+04  0.16641446649E+04  0.46999998093E+01 0. -1.
       -5    1    3    3    0  502  0.24343653015E+03  0.12738130739E+04  0.28276018109E+03  0.13273418932E+04  0.46999998093E+01 0.  1.
</event>
<event>
 5   0  0.1232559E-05  0.2705979E+04  0.7818609E-02  0.8333068E-01
        2   -1    0    0  501    0  0.00000000000E+00  0.00000000000E+00  0.11540433347E+04  0.11540433347E+04  0.25500000920E-02 0. -1.
       -2   -1    0    0    0  501  0.00000000000E+00  0.00000000000E+00 -0.15862324838E+04  0.15862324838E+04  0.25500000920E-02 0.  1.
    10030    2    1    2    0    0  0.00000000000E+00  0.00000000000E+00 -0.43218914916E+03  0.27402758185E+04  0.27059793238E+04 0.  0.
        3    1    3    3  502    0 -0.12788942856E+04 -0.42174463195E+03 -0.83508133107E+02  0.13492267218E+04  0.10100000352E+00 0.  1.
       -3    1    3    3    0  502  0.12788942856E+04  0.42174463195E+03 -0.34868101605E+03  0.13910490967E+04  0.10100000352E+00 0. -1.
</event>
<event>
 5   0  0.1232559E-05  0.2720419E+04  0.7818609E-02  0.8328410E-01
       -2   -1    0    0    0  501  0.00000000000E+00  0.00000000000E+00  0.12003648850E+04  0.12003648850E+04  0.25500000920E-02 0.  1.
        2   -1    0    0  501    0  0.00000000000E+00  0.00000000000E+00 -0.15413391912E+04  0.15413391912E+04  0.25500000920E-02 0. -1.
    10030    2    1    2    0    0  0.00000000000E+00  0.00000000000E+00 -0.34097430620E+03  0.27417040762E+04  0.27204186744E+04 0.  0.
        3    1    3    3  502    0 -0.58725068211E+03 -0.45392293395E+03  0.97828227846E+03  0.12279843729E+04  0.10100000352E+00 0.  1.
       -3    1    3    3    0  502  0.58725068211E+03  0.45392293395E+03 -0.13192565847E+04  0.15137197032E+04  0.10100000352E+00 0. -1.
</event>
<event>
 5   0  0.5152288E-06  0.2707767E+04  0.7818609E-02  0.8332489E-01
        1   -1    0    0  501    0  0.00000000000E+00  0.00000000000E+00  0.13347521369E+04  0.13347521369E+04  0.50400001928E-02 0. -1.
       -1   -1    0    0    0  501  0.00000000000E+00  0.00000000000E+00 -0.13732890419E+04  0.13732890419E+04  0.50400001928E-02 0.  1.
    10030    2    1    2    0    0  0.00000000000E+00  0.00000000000E+00 -0.38536905003E+02  0.27080411789E+04  0.27077669644E+04 0.  0.
        3    1    3    3  502    0 -0.10867619908E+04 -0.79963273419E+03 -0.13124558472E+03  0.13556140852E+04  0.10100000352E+00 0.  1.
       -3    1    3    3    0  502  0.10867619908E+04  0.79963273419E+03  0.92708679716E+02  0.13524270937E+04  0.10100000352E+00 0. -1.
</event>
<event>
 5   0  0.4756800E-06  0.2724838E+04  0.7818609E-02  0.8326991E-01
       -1   -1    0    0    0  501  0.00000000000E+00  0.00000000000E+00  0.89066862546E+03  0.89066862547E+03  0.50400001928E-02 0. -1.
        1   -1    0    0  501    0  0.00000000000E+00  0.00000000000E+00 -0.20840364905E+04  0.20840364905E+04  0.50400001928E-02 0.  1.
    10030    2    1    2    0    0  0.00000000000E+00  0.00000000000E+00 -0.11933678651E+04  0.29747051160E+04  0.27248382825E+04 0.  0.
        4    1    3    3  502    0 -0.80462097069E+03  0.58256766879E+03  0.42122537798E+03  0.10789960274E+04  0.12699999809E+01 0. -1.
       -4    1    3    3    0  502  0.80462097069E+03 -0.58256766879E+03 -0.16145932430E+04  0.18957090886E+04  0.12699999809E+01 0.  1.
</event>
<event>
 5   0  0.4824715E-06  0.2679446E+04  0.7818609E-02  0.8341705E-01
        1   -1    0    0  501    0  0.00000000000E+00  0.00000000000E+00  0.16116584266E+04  0.16116584266E+04  0.50400001928E-02 0.  1.
       -1   -1    0    0    0  501  0.00000000000E+00  0.00000000000E+00 -0.11136714352E+04  0.11136714352E+04  0.50400001928E-02 0. -1.
    10030    2    1    2    0    0  0.00000000000E+00  0.00000000000E+00  0.49798699142E+03  0.27253298617E+04  0.26794461763E+04 0.  0.
        5    1    3    3  502    0 -0.11502483241E+04 -0.15539313669E+03  0.92949271067E+03  0.14870094227E+04  0.46999998093E+01 0.  1.
       -5    1    3    3    0  502  0.11502483241E+04  0.15539313669E+03 -0.43150571925E+03  0.12383204390E+04  0.46999998093E+01 0. -1.
</event>
<event>
 5   0  0.1286641E-05  0.2704792E+04  0.7818609E-02  0.8333452E-01
       -2   -1    0    0    0  501  0.00000000000E+00  0.00000000000E+00  0.50264898210E+03  0.50264898210E+03  0.25500000920E-02 0.  1.
        2   -1    0    0  501    0  0.00000000000E+00  0.00000000000E+00 -0.36386734754E+04  0.36386734754E+04  0.25500000920E-02 0. -1.
    10030    2    1    2    0    0  0.00000000000E+00  0.00000000000E+00 -0.31360244933E+04  0.41413224575E+04  0.27047924272E+04 0.  0.
        4    1    3    3  502    0  0.52665607629E+03 -0.22499953773E+03  0.30781534116E+03  0.65018713601E+03  0.12699999809E+01 0.  1.
       -4    1    3    3    0  502 -0.52665607629E+03  0.22499953773E+03 -0.34438398344E+04  0.34911353215E+04  0.12699999809E+01 0. -1.
</event>
<event>
 5   0  0.1286641E-05  0.2751665E+04  0.7818609E-02  0.8318433E-01
        2   -1    0    0  501    0  0.00000000000E+00  0.00000000000E+00  0.10341974418E+04  0.10341974418E+04  0.25500000920E-02 0.  1.
       -2   -1    0    0    0  501  0.00000000000E+00  0.00000000000E+00 -0.18303231994E+04  0.18303231994E+04  0.25500000920E-02 0. -1.
    10030    2    1    2    0    0  0.00000000000E+00  0.00000000000E+00 -0.79612575757E+03  0.28645206412E+04  0.27516653652E+04 0.  0.
        4    1    3    3  502    0  0.98040052296E+03  0.83843920941E+03  0.99829446725E+02  0.12938829254E+04  0.12699999809E+01 0.  1.
       -4    1    3    3    0  502 -0.98040052296E+03 -0.83843920941E+03 -0.89595520429E+03  0.15706377158E+04  0.12699999809E+01 0. -1.
</event>
<event>
 5   0  0.1232559E-05  0.2730943E+04  0.7818609E-02  0.8325034E-01
       -2   -1    0    0    0  501  0.00000000000E+00  0.00000000000E+00  0.74871148937E+03  0.74871148938E+03  0.25500000920E-02 0.  1.
        2   -1    0    0  501    0  0.00000000000E+00  0.00000000000E+00 -0.24902948868E+04  0.24902948868E+04  0.25500000920E-02 0. -1.
    10030    2    1    2    0    0  0.00000000000E+00  0.00000000000E+00 -0.17415833974E+04  0.32390063762E+04  0.27309429827E+04 0.  0.
        3    1    3    3  502    0 -0.52073273440E+01 -0.11882727236E+04 -0.72971184083E+02  0.11905225684E+04  0.10100000352E+00 0.  1.
       -3    1    3    3    0  502  0.52073273440E+01  0.11882727236E+04 -0.16686122133E+04  0.20484838078E+04  0.10100000352E+00 0. -1.
</event>
<event>
 5   0  0.4826140E-06  0.2845206E+04  0.7818609E-02  0.8289370E-01
       -1   -1    0    0    0  501  0.00000000000E+00  0.00000000000E+00  0.12300329652E+04  0.12300329652E+04  0.50400001928E-02 0.  1.
        1   -1    0    0  501    0  0.00000000000E+00  0.00000000000E+00 -0.16453207864E+04  0.16453207864E+04  0.50400001928E-02 0. -1.
    10030    2    1    2    0    0  0.00000000000E+00  0.00000000000E+00 -0.41528782120E+03  0.28753537515E+04  0.28452056555E+04 0.  0.
        1    1    3    3  502    0  0.36778267186E+03  0.79449762399E+03  0.92553504400E+03  0.12740116506E+04  0.50400001928E-02 0.  1.
       -1    1    3    3    0  502 -0.36778267186E+03 -0.79449762399E+03 -0.13408228652E+04  0.16013421009E+04  0.50400001928E-02 0. -1.
</event>
<event>
 5   0  0.1286641E-05  0.2722747E+04  0.7818609E-02  0.8327662E-01
       -2   -1    0    0    0  501  0.00000000000E+00  0.00000000000E+00  0.11187820917E+04  0.11187820917E+04  0.25500000920E-02 0. -1.
        2   -1    0    0  501    0  0.00000000000E+00  0.00000000000E+00 -0.16565666971E+04  0.16565666971E+04  0.25500000920E-02 0.  1.
    10030    2    1    2    0    0  0.00000000000E+00  0.00000000000E+00 -0.53778460540E+03  0.27753487888E+04  0.27227465210E+04 0.  0.
        4    1    3    3  502    0 -0.10038929130E+04 -0.43030729407E+03 -0.10972236364E+04  0.15481817300E+04  0.12699999809E+01 0. -1.
       -4    1    3    3    0  502  0.10038929130E+04  0.43030729407E+03  0.55943903096E+03  0.12271670588E+04  0.12699999809E+01 0.  1.
</event>
<event>
 5   0  0.4756800E-06  0.2687255E+04  0.7818609E-02  0.8339152E-01
        1   -1    0    0  501    0  0.00000000000E+00  0.00000000000E+00  0.15745114956E+04  0.15745114956E+04  0.50400001928E-02 0.  1.
       -1   -1    0    0    0  501  0.00000000000E+00  0.00000000000E+00 -0.11465999048E+04  0.11465999048E+04  0.50400001928E-02 0. -1.
    10030    2    1    2    0    0  0.00000000000E+00  0.00000000000E+00  0.42791159074E+03  0.27211114004E+04  0.26872549049E+04 0.  0.
        4    1    3    3  502    0  0.88847355059E+03  0.30590962641E+02  0.12341269954E+04  0.15209839285E+04  0.12699999809E+01 0.  1.
       -4    1    3    3    0  502 -0.88847355059E+03 -0.30590962641E+02 -0.80621540468E+03  0.12001274719E+04  0.12699999809E+01 0. -1.
</event>
<event>
 5   0  0.1276517E-05  0.2698574E+04  0.7818609E-02  0.8335468E-01
       -2   -1    0    0    0  501  0.00000000000E+00  0.00000000000E+00  0.92911537721E+03  0.92911537721E+03  0.25500000920E-02 0.  1.
        2   -1    0    0  501    0  0.00000000000E+00  0.00000000000E+00 -0.19594722153E+04  0.19594722153E+04  0.25500000920E-02 0. -1.
    10030    2    1    2    0    0  0.00000000000E+00  0.00000000000E+00 -0.10303568381E+04  0.28885875925E+04  0.26985742654E+04 0.  0.
        1    1    3    3  502    0 -0.29325376521E+03 -0.88700377958E+03 -0.15572799742E+04  0.18160105710E+04  0.50400001928E-02 0. -1.
       -1    1    3    3    0  502  0.29325376521E+03  0.88700377958E+03  0.52692313609E+03  0.10725770216E+04  0.50400001928E-02 0.  1.
</event>
<event>
 5   0  0.1261364E-05  0.2728440E+04  0.7818609E-02  0.8325836E-01
        2   -1    0    0  501    0  0.00000000000E+00  0.00000000000E+00  0.77029795644E+03  0.77029795644E+03  0.25500000920E-02 0.  1.
       -2   -1    0    0    0  501  0.00000000000E+00  0.00000000000E+00 -0.24160729310E+04  0.24160729310E+04  0.25500000920E-02 0. -1.
    10030    2    1    2    0    0  0.00000000000E+00  0.00000000000E+00 -0.16457749745E+04  0.31863708874E+04  0.27284398775E+04 0.  0.
        5    1    3    3  502    0  0.67668936020E+03  0.56603499248E+03 -0.20380937915E+04  0.22208449959E+04  0.46999998093E+01 0. -1.
       -5    1    3    3    0  502 -0.67668936020E+03 -0.56603499248E+03  0.39231881700E+03  0.96552589147E+03  0.46999998093E+01 0.  1.
</event>
<event>
 5   0  0.4826140E-06  0.2657731E+04  0.7818609E-02  0.8348852E-01
        1   -1    0    0  501    0  0.00000000000E+00  0.00000000000E+00  0.12623762490E+04  0.12623762490E+04  0.50400001928E-02 0. -1.
       -1   -1    0    0    0  501  0.00000000000E+00  0.00000000000E+00 -0.13988564320E+04  0.13988564320E+04  0.50400001928E-02 0.  1.
    10030    2    1    2    0    0  0.00000000000E+00  0.00000000000E+00 -0.13648018302E+03  0.26612326810E+04  0.26577307129E+04 0.  0.
        1    1    3    3  502    0 -0.55015561547E+03 -0.85272530782E+03 -0.92731665155E+03  0.13746737155E+04  0.50400001928E-02 0.  1.
       -1    1    3    3    0  502  0.55015561547E+03  0.85272530782E+03  0.79083646853E+03  0.12865589655E+04  0.50400001928E-02 0. -1.
</event>
<event>
 5   0  0.4826140E-06  0.2634429E+04  0.7818609E-02  0.8356600E-01
       -1   -1    0    0    0  501  0.00000000000E+00  0.00000000000E+00  0.75467501028E+03  0.75467501030E+03  0.50400001928E-02 0.  1.
        1   -1    0    0  501    0  0.00000000000E+00  0.00000000000E+00 -0.22990743722E+04  0.22990743722E+04  0.50400001928E-02 0. -1.
    10030    2    1    2    0    0  0.00000000000E+00  0.00000000000E+00 -0.15443993619E+04  0.30537493825E+04  0.26344289518E+04 0.  0.
        1    1    3    3  502    0 -0.12465820313E+04 -0.23202054889E+03 -0.11857059291E+04  0.17360008198E+04  0.50400001928E-02 0.  1.
       -1    1    3    3    0  502  0.12465820313E+04  0.23202054889E+03 -0.35869343281E+03  0.13177485627E+04  0.50400001928E-02 0. -1.
</event>
<event>
 5   0  0.4756800E-06  0.2797576E+04  0.7818609E-02  0.8304021E-01
        1   -1    0    0  501    0  0.00000000000E+00  0.00000000000E+00  0.11804650433E+04  0.11804650433E+04  0.50400001928E-02 0.  1.
       -1   -1    0    0    0  501  0.00000000000E+00  0.00000000000E+00 -0.16574889546E+04  0.16574889546E+04  0.50400001928E-02 0. -1.
    10030    2    1    2    0    0  0.00000000000E+00  0.00000000000E+00 -0.47702391135E+03  0.28379539979E+04  0.27975759297E+04 0.  0.
        4    1    3    3  502    0 -0.30403595638E+03  0.13600930579E+04 -0.11713906227E+03  0.13985757619E+04  0.12699999809E+01 0.  1.
       -4    1    3    3    0  502  0.30403595638E+03 -0.13600930579E+04 -0.35988484908E+03  0.14393782360E+04  0.12699999809E+01 0. -1.
</event>
<event>
 5   0  0.1286641E-05  0.2705995E+04  0.7818609E-02  0.8333062E-01
       -2   -1    0    0    0  501  0.00000000000E+00  0.00000000000E+00  0.11534032501E+04  0.11534032501E+04  0.25500000920E-02 0. -1.
        2   -1    0    0  501    0  0.00000000000E+00  0.00000000000E+00 -0.15871313281E+04  0.15871313281E+04  0.25500000920E-02 0.  1.
    10030    2    1    2    0    0  0.00000000000E+00  0.00000000000E+00 -0.43372807802E+03  0.27405345782E+04  0.27059951457E+04 0.  0.
        4    1    3    3  502    0 -0.78448280249E+03  0.51920482423E+03 -0.12017029453E+04  0.15261318746E+04  0.12699999809E+01 0.  1.
       -4    1    3    3    0  502  0.78448280249E+03 -0.51920482423E+03  0.76797486730E+03  0.12144027036E+04  0.12699999809E+01 0. -1.
</event>
<event>
 5   0  0.4826140E-06  0.2707395E+04  0.7818609E-02  0.8332610E-01
       -1   -1    0    0    0  501  0.00000000000E+00  0.00000000000E+00  0.14067657918E+04  0.14067657918E+04  0.50400001928E-02 0.  1.
        1   -1    0    0  501    0  0.00000000000E+00  0.00000000000E+00 -0.13026308364E+04  0.13026308364E+04  0.50400001928E-02 0. -1.
    10030    2    1    2    0    0  0.00000000000E+00  0.00000000000E+00  0.10413495540E+03  0.27093966282E+04  0.27073946886E+04 0.  0.
        1    1    3    3  502    0  0.50613143622E+03 -0.23280589163E+03 -0.11825906717E+04  0.13072445489E+04  0.50400001928E-02 0. -1.
       -1    1    3    3    0  502 -0.50613143622E+03  0.23280589163E+03  0.12867256271E+04  0.14021520793E+04  0.50400001928E-02 0.  1.
</event>
<event>
 5   0  0.1276517E-05  0.2709837E+04  0.7818609E-02  0.8331820E-01
       -2   -1    0    0    0  501  0.00000000000E+00  0.00000000000E+00  0.77506023399E+03  0.77506023399E+03  0.25500000920E-02 0. -1.
        2   -1    0    0  501    0  0.00000000000E+00  0.00000000000E+00 -0.23685961881E+04  0.23685961881E+04  0.25500000920E-02 0.  1.
    10030    2    1    2    0    0  0.00000000000E+00  0.00000000000E+00 -0.15935359541E+04  0.31436564221E+04  0.27098374237E+04 0.  0.
        1    1    3    3  502    0  0.73398149697E+03  0.23764948302E+03  0.49536580852E+03  0.91683880750E+03  0.50400001928E-02 0. -1.
       -1    1    3    3    0  502 -0.73398149697E+03 -0.23764948302E+03 -0.20889017626E+04  0.22268176145E+04  0.50400001928E-02 0.  1.
</event>
<event>
 5   0  0.4824715E-06  0.2699112E+04  0.7818609E-02  0.8335293E-01
        1   -1    0    0  501    0  0.00000000000E+00  0.00000000000E+00  0.10076386691E+04  0.10076386691E+04  0.50400001928E-02 0.  1.
       -1   -1    0    0    0  501  0.00000000000E+00  0.00000000000E+00 -0.18074947532E+04  0.18074947532E+04  0.50400001928E-02 0. -1.
    10030    2    1    2    0    0  0.00000000000E+00  0.00000000000E+00 -0.79985608413E+03  0.28151334223E+04  0.26991121559E+04 0.  0.
        5    1    3    3  502    0 -0.13372886136E+04  0.14838566824E+03 -0.29093548954E+03  0.13765989582E+04  0.46999998093E+01 0.  1.
       -5    1    3    3    0  502  0.13372886136E+04 -0.14838566824E+03 -0.50892059459E+03  0.14385344641E+04  0.46999998093E+01 0. -1.
</event>
<event>
 5   0  0.1232559E-05  0.2685124E+04  0.7818609E-02  0.8339848E-01
       -2   -1    0    0    0  501  0.00000000000E+00  0.00000000000E+00  0.11038011683E+04  0.11038011683E+04  0.25500000920E-02 0.  1.
        2   -1    0    0  501    0  0.00000000000E+00  0.00000000000E+00 -0.16329687125E+04  0.16329687125E+04  0.25500000920E-02 0. -1.
    10030    2    1    2    0    0  0.00000000000E+00  0.00000000000E+00 -0.52916754420E+03  0.27367698808E+04  0.26851240364E+04 0.  0.
        3    1    3    3  502    0 -0.10972499234E+04  0.63773995897E+03 -0.71096071645E+03  0.14546940572E+04  0.10100000352E+00 0.  1.
       -3    1    3    3    0  502  0.10972499234E+04 -0.63773995897E+03  0.18179317226E+03  0.12820758235E+04  0.10100000352E+00 0. -1.
</event>
<event>
 5   0  0.4826140E-06  0.2454176E+04  0.7818609E-02  0.8419495E-01
        1   -1    0    0  501    0  0.00000000000E+00  0.00000000000E+00  0.11910401198E+04  0.11910401198E+04  0.50400001928E-02 0. -1.
       -1   -1    0    0    0  501  0.00000000000E+00  0.00000000000E+00 -0.12642272537E+04  0.12642272537E+04  0.50400001928E-02 0.  1.
    10030    2    1    2    0    0  0.00000000000E+00  0.00000000000E+00 -0.73187133952E+02  0.24552673735E+04  0.24541763422E+04 0.  0.
        1    1    3    3  502    0 -0.52515297639E+03  0.10945542038E+04 -0.21530899706E+03  0.12329608744E+04  0.50400001928E-02 0. -1.
       -1    1    3    3    0  502  0.52515297639E+03 -0.10945542038E+04  0.14212186311E+03  0.12223064991E+04  0.50400001928E-02 0.  1.
</event>
<event>
 5   0  0.4824715E-06  0.2723464E+04  0.7818609E-02  0.8327432E-01
       -1   -1    0    0    0  501  0.00000000000E+00  0.00000000000E+00  0.13233991479E+04  0.13233991480E+04  0.50400001928E-02 0.  1.
        1   -1    0    0  501    0  0.00000000000E+00  0.00000000000E+00 -0.14011754689E+04  0.14011754689E+04  0.50400001928E-02 0. -1.
    10030    2    1    2    0    0  0.00000000000E+00  0.00000000000E+00 -0.77776320969E+02  0.27245746169E+04  0.27234642804E+04 0.  0.
        5    1    3    3  502    0  0.11394915516E+04 -0.72036146443E+03  0.15336379673E+03  0.13567992407E+04  0.46999998093E+01 0. -1.
       -5    1    3    3    0  502 -0.11394915516E+04  0.72036146443E+03 -0.23114011770E+03  0.13677753761E+04  0.46999998093E+01 0.  1.
</event>
<event>
 5   0  0.1261364E-05  0.2730794E+04  0.7818609E-02  0.8325082E-01
       -2   -1    0    0    0  501  0.00000000000E+00  0.00000000000E+00  0.11200272404E+04  0.11200272404E+04  0.25500000920E-02 0.  1.
        2   -1    0    0  501    0  0.00000000000E+00  0.00000000000E+00 -0.16645211694E+04  0.16645211694E+04  0.25500000920E-02 0. -1.
    10030    2    1    2    0    0  0.00000000000E+00  0.00000000000E+00 -0.54449392900E+03  0.27845484099E+04  0.27307940619E+04 0.  0.
        5    1    3    3  502    0 -0.94650002273E+03 -0.29054508168E+03 -0.12309717951E+04  0.15797444058E+04  0.46999998093E+01 0. -1.
       -5    1    3    3    0  502  0.94650002273E+03  0.29054508168E+03  0.68647786608E+03  0.12048040040E+04  0.46999998093E+01 0.  1.
</event>
<event>
 5   0  0.4826140E-06  0.2661743E+04  0.7818609E-02  0.8347526E-01
        1   -1    0    0  501    0  0.00000000000E+00  0.00000000000E+00  0.18923518595E+04  0.18923518595E+04  0.50400001928E-02 0. -1.
       -1   -1    0    0    0  501  0.00000000000E+00  0.00000000000E+00 -0.93598790840E+03  0.93598790842E+03  0.50400001928E-02 0.  1.
    10030    2    1    2    0    0  0.00000000000E+00  0.00000000000E+00  0.95636395112E+03  0.28283397680E+04  0.26617426314E+04 0.  0.
        1    1    3    3  502    0 -0.79432012937E+03  0.93109390111E+03  0.10337223608E+04  0.16020181771E+04  0.50400001928E-02 0. -1.
       -1    1    3    3    0  502  0.79432012937E+03 -0.93109390111E+03 -0.77358409628E+02  0.12263215908E+04  0.50400001928E-02 0.  1.
</event>
<event>
 5   0  0.4824715E-06  0.2714418E+04  0.7818609E-02  0.8330342E-01
        1   -1    0    0  501    0  0.00000000000E+00  0.00000000000E+00  0.19058767224E+04  0.19058767224E+04  0.50400001928E-02 0. -1.
       -1   -1    0    0    0  501  0.00000000000E+00  0.00000000000E+00 -0.96649265238E+03  0.96649265239E+03  0.50400001928E-02 0.  1.
    10030    2    1    2    0    0  0.00000000000E+00  0.00000000000E+00  0.93938407004E+03  0.28723693748E+04  0.27144176897E+04 0.  0.
        5    1    3    3  502    0 -0.10805460115E+04 -0.17981271756E+03  0.13176194489E+04  0.17134921647E+04  0.46999998093E+01 0. -1.
       -5    1    3    3    0  502  0.10805460115E+04  0.17981271756E+03 -0.37823537886E+03  0.11588772101E+04  0.46999998093E+01 0.  1.
</event>
<event>
 5   0  0.5152288E-06  0.2677639E+04  0.7818609E-02  0.8342297E-01
       -1   -1    0    0    0  501  0.00000000000E+00  0.00000000000E+00  0.75942750753E+03  0.75942750754E+03  0.50400001928E-02 0.  1.
        1   -1    0    0  501    0  0.00000000000E+00  0.00000000000E+00 -0.23602490420E+04  0.23602490420E+04  0.50400001928E-02 0. -1.
    10030    2    1    2    0    0  0.00000000000E+00  0.00000000000E+00 -0.16008215345E+04  0.31196765496E+04  0.26776392940E+04 0.  0.
        3    1    3    3  502    0  0.10222083612E+04 -0.54230719832E+03 -0.15849471756E+04  0.19624129511E+04  0.10100000352E+00 0. -1.
       -3    1    3    3    0  502 -0.10222083612E+04  0.54230719832E+03 -0.15874358921E+02  0.11572635985E+04  0.10100000352E+00 0.  1.
</event>
<event>
 5   0  0.1286641E-05  0.2670546E+04  0.7818609E-02  0.8344625E-01
       -2   -1    0    0    0  501  0.00000000000E+00  0.00000000000E+00  0.66541841783E+03  0.66541841783E+03  0.25500000920E-02 0. -1.
        2   -1    0    0  501    0  0.00000000000E+00  0.00000000000E+00 -0.26794484930E+04  0.26794484930E+04  0.25500000920E-02 0.  1.
    10030    2    1    2    0    0  0.00000000000E+00  0.00000000000E+00 -0.20140300752E+04  0.33448669108E+04  0.26705462938E+04 0.  0.
        4    1    3    3  502    0 -0.75543169203E+03  0.10100343481E+04 -0.45804381587E+03  0.13418838161E+04  0.12699999809E+01 0. -1.
       -4    1    3    3    0  502  0.75543169203E+03 -0.10100343481E+04 -0.15559862593E+04  0.20029830947E+04  0.12699999809E+01 0.  1.
</event>
<event>
 5   0  0.4846214E-06  0.2637144E+04  0.7818609E-02  0.8355693E-01
        1   -1    0    0  501    0  0.00000000000E+00  0.00000000000E+00  0.12201585808E+04  0.12201585808E+04  0.50400001928E-02 0. -1.
       -1   -1    0    0    0  501  0.00000000000E+00  0.00000000000E+00 -0.14249226524E+04  0.14249226524E+04  0.50400001928E-02 0.  1.
    10030    2    1    2    0    0  0.00000000000E+00  0.00000000000E+00 -0.20476407152E+03  0.26450812332E+04  0.26371436072E+04 0.  0.
        2    1    3    3  502    0 -0.12368023922E+04  0.16776730545E+03  0.32411021340E+03  0.12895245079E+04  0.25500000920E-02 0. -1.
       -2    1    3    3    0  502  0.12368023922E+04 -0.16776730545E+03 -0.52887428493E+03  0.13555567253E+04  0.25500000920E-02 0.  1.
</event>
<event>
 5   0  0.4188000E-06  0.2697209E+04  0.7818609E-02  0.8335911E-01
       -3   -1    0    0    0  501  0.00000000000E+00  0.00000000000E+00  0.27737551356E+04  0.27737551374E+04  0.10100000352E+00 0. -1.
        3   -1    0    0  501    0  0.00000000000E+00  0.00000000000E+00 -0.65569405104E+03  0.65569405882E+03  0.10100000352E+00 0.  1.
    10030    2    1    2    0    0  0.00000000000E+00  0.00000000000E+00  0.21180610845E+04  0.34294491962E+04  0.26972094898E+04 0.  0.
        3    1    3    3  502    0  0.75240110232E+03 -0.79879971448E+03  0.20557823103E+04  0.23303281571E+04  0.10100000352E+00 0. -1.
       -3    1    3    3    0  502 -0.75240110232E+03  0.79879971448E+03  0.62278774272E+02  0.10991210391E+04  0.10100000352E+00 0.  1.
</event>
<event>
 5   0  0.1276517E-05  0.2701448E+04  0.7818609E-02  0.8334535E-01
       -2   -1    0    0    0  501  0.00000000000E+00  0.00000000000E+00  0.96699882909E+03  0.96699882909E+03  0.25500000920E-02 0.  1.
        2   -1    0    0  501    0  0.00000000000E+00  0.00000000000E+00 -0.18867190881E+04  0.18867190881E+04  0.25500000920E-02 0. -1.
    10030    2    1    2    0    0  0.00000000000E+00  0.00000000000E+00 -0.91972025900E+03  0.28537179172E+04  0.27014478703E+04 0.  0.
        1    1    3    3  502    0  0.40880587120E+03  0.86301694110E+03  0.54925132737E+03  0.11016340144E+04  0.50400001928E-02 0. -1.
       -1    1    3    3    0  502 -0.40880587120E+03 -0.86301694110E+03 -0.14689715864E+04  0.17520839028E+04  0.50400001928E-02 0.  1.
</event>
<event>
 5   0  0.1286641E-05  0.2706662E+04  0.7818609E-02  0.8332847E-01
        2   -1    0    0  501    0  0.00000000000E+00  0.00000000000E+00  0.11657002062E+04  0.11657002062E+04  0.25500000920E-02 0. -1.
       -2   -1    0    0    0  501  0.00000000000E+00  0.00000000000E+00 -0.15711624394E+04  0.15711624394E+04  0.25500000920E-02 0.  1.
    10030    2    1    2    0    0  0.00000000000E+00  0.00000000000E+00 -0.40546223320E+03  0.27368626455E+04  0.27066616925E+04 0.  0.
        4    1    3    3  502    0 -0.39441152528E+03  0.96469020155E+03 -0.10756803633E+04  0.14977574881E+04  0.12699999809E+01 0.  1.
       -4    1    3    3    0  502  0.39441152528E+03 -0.96469020155E+03  0.67021813014E+03  0.12391051574E+04  0.12699999809E+01 0. -1.
</event>
<event>
 5   0  0.1286641E-05  0.2573902E+04  0.7818609E-02  0.8377120E-01
       -2   -1    0    0    0  501  0.00000000000E+00  0.00000000000E+00  0.16569875900E+04  0.16569875901E+04  0.25500000920E-02 0.  1.
        2   -1    0    0  501    0  0.00000000000E+00  0.00000000000E+00 -0.99955065430E+03  0.99955065430E+03  0.25500000920E-02 0. -1.
    10030    2    1    2    0    0  0.00000000000E+00  0.00000000000E+00  0.65743693575E+03  0.26565382444E+04  0.25739021192E+04 0.  0.
        4    1    3    3  502    0  0.33041898605E+02  0.93171384419E+03 -0.58692769421E+03  0.11016660954E+04  0.12699999809E+01 0. -1.
       -4    1    3    3    0  502 -0.33041898605E+02 -0.93171384419E+03  0.12443646300E+04  0.15548721490E+04  0.12699999809E+01 0.  1.
</event>
<event>
 5   0  0.1220908E-05  0.2692801E+04  0.7818609E-02  0.8337345E-01
        2   -1    0    0  501    0  0.00000000000E+00  0.00000000000E+00  0.23174035038E+04  0.23174035038E+04  0.25500000920E-02 0. -1.
       -2   -1    0    0    0  501  0.00000000000E+00  0.00000000000E+00 -0.78225217035E+03  0.78225217035E+03  0.25500000920E-02 0.  1.
    10030    2    1    2    0    0  0.00000000000E+00  0.00000000000E+00  0.15351513334E+04  0.30996556741E+04  0.26928007133E+04 0.  0.
        2    1    3    3  502    0  0.10255012326E+04 -0.84116115844E+03  0.50110631873E+03  0.14178548640E+04  0.25500000920E-02 0.  1.
       -2    1    3    3    0  502 -0.10255012326E+04  0.84116115844E+03  0.10340450147E+04  0.16818008102E+04  0.25500000920E-02 0. -1.
</event>
<event>
 5   0  0.1232559E-05  0.2660820E+04  0.7818609E-02  0.8347831E-01
       -2   -1    0    0    0  501  0.00000000000E+00  0.00000000000E+00  0.13740584223E+04  0.13740584223E+04  0.25500000920E-02 0. -1.
        2   -1    0    0  501    0  0.00000000000E+00  0.00000000000E+00 -0.12881482055E+04  0.12881482055E+04  0.25500000920E-02 0.  1.
    10030    2    1    2    0    0  0.00000000000E+00  0.00000000000E+00  0.85910216726E+02  0.26622066278E+04  0.26608200923E+04 0.  0.
        3    1    3    3  502    0 -0.94340912210E+03  0.63701771967E+03 -0.64600994527E+03  0.13088702023E+04  0.10100000352E+00 0.  1.
       -3    1    3    3    0  502  0.94340912210E+03 -0.63701771967E+03  0.73192016200E+03  0.13533364255E+04  0.10100000352E+00 0. -1.
</event>
<event>
 5   0  0.5152288E-06  0.2718419E+04  0.7818609E-02  0.8329053E-01
        1   -1    0    0  501    0  0.00000000000E+00  0.00000000000E+00  0.18616454812E+04  0.18616454812E+04  0.50400001928E-02 0. -1.
       -1   -1    0    0    0  501  0.00000000000E+00  0.00000000000E+00 -0.99237518026E+03  0.99237518028E+03  0.50400001928E-02 0.  1.
    10030    2    1    2    0    0  0.00000000000E+00  0.00000000000E+00  0.86927030097E+03  0.28540206615E+04  0.27184192245E+04 0.  0.
        3    1    3    3  502    0  0.10344826926E+04  0.66696681145E+03  0.10399828382E+04  0.16113855786E+04  0.10100000352E+00 0. -1.
       -3    1    3    3    0  502 -0.10344826926E+04 -0.66696681145E+03 -0.17071253724E+03  0.12426350830E+04  0.10100000352E+00 0.  1.
</event>
<event>
 5   0  0.4756800E-06  0.2692955E+04  0.7818609E-02  0.8337294E-01
        1   -1    0    0  501    0  0.00000000000E+00  0.00000000000E+00  0.18966564457E+04  0.18966564457E+04  0.50400001928E-02 0.  1.
       -1   -1    0    0    0  501  0.00000000000E+00  0.00000000000E+00 -0.95589361553E+03  0.95589361554E+03  0.50400001928E-02 0. -1.
    10030    2    1    2    0    0  0.00000000000E+00  0.00000000000E+00  0.94076283012E+03  0.28525500612E+04  0.26929550960E+04 0.  0.
        4    1    3    3  502    0 -0.68326531144E+03  0.10457012416E+04 -0.62058184194E+02  0.12506779776E+04  0.12699999809E+01 0. -1.
       -4    1    3    3    0  502  0.68326531144E+03 -0.10457012416E+04  0.10028210143E+04  0.16018720836E+04  0.12699999809E+01 0.  1.
</event>
<event>
 5   0  0.1232559E-05  0.2703674E+04  0.7818609E-02  0.8333814E-01
        2   -1    0    0  501    0  0.00000000000E+00  0.00000000000E+00  0.13573288038E+04  0.13573288038E+04  0.25500000920E-02 0. -1.
       -2   -1    0    0    0  501  0.00000000000E+00  0.00000000000E+00 -0.13463675805E+04  0.13463675805E+04  0.25500000920E-02 0.  1.
    10030    2    1    2    0    0  0.00000000000E+00  0.00000000000E+00  0.10961223283E+02  0.27036963843E+04  0.27036741649E+04 0.  0.
        3    1    3    3  502    0 -0.11985305215E+04 -0.53287285755E+03 -0.32168349613E+03  0.13505218159E+04  0.10100000352E+00 0.  1.
       -3    1    3    3    0  502  0.11985305215E+04  0.53287285755E+03  0.33264471942E+03  0.13531745685E+04  0.10100000352E+00 0. -1.
</event>
<event>
 5   0  0.1220908E-05  0.2694106E+04  0.7818609E-02  0.8336920E-01
        2   -1    0    0  501    0  0.00000000000E+00  0.00000000000E+00  0.17405186878E+04  0.17405186878E+04  0.25500000920E-02 0.  1.
       -2   -1    0    0    0  501  0.00000000000E+00  0.00000000000E+00 -0.10425347042E+04  0.10425347042E+04  0.25500000920E-02 0. -1.
    10030    2    1    2    0    0  0.00000000000E+00  0.00000000000E+00  0.69798398356E+03  0.27830533921E+04  0.26941055179E+04 0.  0.
        2    1    3    3  502    0 -0.13286900868E+04 -0.20620141080E+03  0.26497556568E+03  0.13704555517E+04  0.25500000920E-02 0. -1.
       -2    1    3    3    0  502  0.13286900868E+04  0.20620141080E+03  0.43300841789E+03  0.14125978404E+04  0.25500000920E-02 0.  1.
</event>
<event>
 5   0  0.4826140E-06  0.2707784E+04  0.7818609E-02  0.8332484E-01
       -1   -1    0    0    0  501  0.00000000000E+00  0.00000000000E+00  0.14625060847E+04  0.14625060847E+04  0.50400001928E-02 0.  1.
        1   -1    0    0  501    0  0.00000000000E+00  0.00000000000E+00 -0.12533439087E+04  0.12533439087E+04  0.50400001928E-02 0. -1.
    10030    2    1    2    0    0  0.00000000000E+00  0.00000000000E+00  0.20916217602E+03  0.27158499934E+04  0.27077836640E+04 0.  0.
        1    1    3    3  502    0  0.11118957326E+04 -0.18695741738E+03  0.85631892113E+03  0.14158203596E+04  0.50400001928E-02 0.  1.
       -1    1    3    3    0  502 -0.11118957326E+04  0.18695741738E+03 -0.64715674510E+03  0.13000296338E+04  0.50400001928E-02 0. -1.
</event>
<event>
 5   0  0.1276517E-05  0.2699967E+04  0.7818609E-02  0.8335016E-01
        2   -1    0    0  501    0  0.00000000000E+00  0.00000000000E+00  0.19927152809E+04  0.19927152809E+04  0.25500000920E-02 0. -1.
       -2   -1    0    0    0  501  0.00000000000E+00  0.00000000000E+00 -0.91455891719E+03  0.91455891719E+03  0.25500000920E-02 0.  1.
    10030    2    1    2    0    0  0.00000000000E+00  0.00000000000E+00  0.10781563637E+04  0.29072741981E+04  0.26999670587E+04 0.  0.
        1    1    3    3  502    0 -0.73129281190E+03 -0.78809908897E+03  0.14182002163E+04  0.17796576088E+04  0.50400001928E-02 0. -1.
       -1    1    3    3    0  502  0.73129281190E+03  0.78809908897E+03 -0.34004385263E+03  0.11276165893E+04  0.50400001928E-02 0.  1.
</event>
<event>
 5   0  0.4846214E-06  0.2869279E+04  0.7818609E-02  0.8282077E-01
        1   -1    0    0  501    0  0.00000000000E+00  0.00000000000E+00  0.10252515741E+04  0.10252515741E+04  0.50400001928E-02 0. -1.
       -1   -1    0    0    0  501  0.00000000000E+00  0.00000000000E+00 -0.20074973933E+04  0.20074973933E+04  0.50400001928E-02 0.  1.
    10030    2    1    2    0    0  0.00000000000E+00  0.00000000000E+00 -0.98224581921E+03  0.30327489675E+04  0.28692785592E+04 0.  0.
        2    1    3    3  502    0  0.15287001421E+03  0.14207606696E+04 -0.62590139263E+03  0.15600264981E+04  0.25500000920E-02 0.  1.
       -2    1    3    3    0  502 -0.15287001421E+03 -0.14207606696E+04 -0.35634442657E+03  0.14727224694E+04  0.25500000920E-02 0. -1.
</event>
<event>
 5   0  0.1261364E-05  0.2693932E+04  0.7818609E-02  0.8336977E-01
        2   -1    0    0  501    0  0.00000000000E+00  0.00000000000E+00  0.15354636714E+04  0.15354636714E+04  0.25500000920E-02 0. -1.
       -2   -1    0    0    0  501  0.00000000000E+00  0.00000000000E+00 -0.11816086050E+04  0.11816086050E+04  0.25500000920E-02 0.  1.
    10030    2    1    2    0    0  0.00000000000E+00  0.00000000000E+00  0.35385506641E+03  0.27170722764E+04  0.26939317636E+04 0.  0.
        5    1    3    3  502    0  0.18323243783E+03 -0.57580471267E+03  0.13910828281E+04  0.15166603833E+04  0.46999998093E+01 0. -1.
       -5    1    3    3    0  502 -0.18323243783E+03  0.57580471267E+03 -0.10372277617E+04  0.12004118931E+04  0.46999998093E+01 0.  1.
</event>
<event>
 5   0  0.4846214E-06  0.2643824E+04  0.7818609E-02  0.8353466E-01
        1   -1    0    0  501    0  0.00000000000E+00  0.00000000000E+00  0.20613233670E+04  0.20613233670E+04  0.50400001928E-02 0.  1.
       -1   -1    0    0    0  501  0.00000000000E+00  0.00000000000E+00 -0.84773256617E+03  0.84773256618E+03  0.50400001928E-02 0. -1.
    10030    2    1    2    0    0  0.00000000000E+00  0.00000000000E+00  0.12135908008E+04  0.29090559332E+04  0.26438237064E+04 0.  0.
        2    1    3    3  502    0  0.68972821092E+03 -0.75111808718E+03  0.15323401011E+04  0.18406437926E+04  0.25500000920E-02 0.  1.
       -2    1    3    3    0  502 -0.68972821092E+03  0.75111808718E+03 -0.31874930022E+03  0.10684121406E+04  0.25500000920E-02 0. -1.
</event>
<event>
 5   0  0.5152288E-06  0.2679314E+04  0.7818609E-02  0.8341748E-01
       -1   -1    0    0    0  501  0.00000000000E+00  0.00000000000E+00  0.11585725894E+04  0.11585725894E+04  0.50400001928E-02 0.  1.
        1   -1    0    0  501    0  0.00000000000E+00  0.00000000000E+00 -0.15490444466E+04  0.15490444466E+04  0.50400001928E-02 0. -1.
    10030    2    1    2    0    0  0.00000000000E+00  0.00000000000E+00 -0.39047185720E+03  0.27076170361E+04  0.26793136701E+04 0.  0.
        3    1    3    3  502    0  0.96628976040E+03  0.56339147787E+03  0.54981378594E+03  0.12463631364E+04  0.10100000352E+00 0.  1.
       -3    1    3    3    0  502 -0.96628976040E+03 -0.56339147787E+03 -0.94028564313E+03  0.14612538997E+04  0.10100000352E+00 0. -1.
</event>
<event>
 5   0  0.4824715E-06  0.2668680E+04  0.7818609E-02  0.8345239E-01
       -1   -1    0    0    0  501  0.00000000000E+00  0.00000000000E+00  0.10397500093E+04  0.10397500093E+04  0.50400001928E-02 0.  1.
        1   -1    0    0  501    0  0.00000000000E+00  0.00000000000E+00 -0.17123949715E+04  0.17123949715E+04  0.50400001928E-02 0. -1.
    10030    2    1    2    0    0  0.00000000000E+00  0.00000000000E+00 -0.67264496221E+03  0.27521449808E+04  0.26686795892E+04 0.  0.
        5    1    3    3  502    0  0.62913582611E+03  0.11766521917E+04 -0.32510432362E+03  0.13733306882E+04  0.46999998093E+01 0. -1.
       -5    1    3    3    0  502 -0.62913582611E+03 -0.11766521917E+04 -0.34754063859E+03  0.13788142926E+04  0.46999998093E+01 0.  1.
</event>
<event>
 5   0  0.1276517E-05  0.2475610E+04  0.7818609E-02  0.8411726E-01
        2   -1    0    0  501    0  0.00000000000E+00  0.00000000000E+00  0.14624894617E+04  0.14624894617E+04  0.25500000920E-02 0. -1.
       -2   -1    0    0    0  501  0.00000000000E+00  0.00000000000E+00 -0.10476391229E+04  0.10476391229E+04  0.25500000920E-02 0.  1.
    10030    2    1    2    0    0  0.00000000000E+00  0.00000000000E+00  0.41485033877E+03  0.25101285847E+04  0.24756099668E+04 0.  0.
        1    1    3    3  502    0 -0.70339556735E+03 -0.75863370930E+03  0.89651204060E+03  0.13689500605E+04  0.50400001928E-02 0. -1.
       -1    1    3    3    0  502  0.70339556735E+03  0.75863370930E+03 -0.48166170183E+03  0.11411785242E+04  0.50400001928E-02 0.  1.
</event>
<event>
 5   0  0.5152288E-06  0.2990290E+04  0.7818609E-02  0.8246509E-01
        1   -1    0    0  501    0  0.00000000000E+00  0.00000000000E+00  0.23330084496E+04  0.23330084497E+04  0.50400001928E-02 0.  1.
       -1   -1    0    0    0  501  0.00000000000E+00  0.00000000000E+00 -0.95818713560E+03  0.95818713561E+03  0.50400001928E-02 0. -1.
    10030    2    1    2    0    0  0.00000000000E+00  0.00000000000E+00  0.13748213141E+04  0.32911955853E+04  0.29902900754E+04 0.  0.
        3    1    3    3  502    0 -0.11205233941E+04 -0.96914285165E+03  0.46550894292E+03  0.15529034515E+04  0.10100000352E+00 0. -1.
       -3    1    3    3    0  502  0.11205233941E+04  0.96914285165E+03  0.90931237113E+03  0.17382921337E+04  0.10100000352E+00 0.  1.
</event>
<event>
 5   0  0.1220908E-05  0.2726611E+04  0.7818609E-02  0.8326422E-01
       -2   -1    0    0    0  501  0.00000000000E+00  0.00000000000E+00  0.89007332498E+03  0.89007332498E+03  0.25500000920E-02 0.  1.
        2   -1    0    0  501    0  0.00000000000E+00  0.00000000000E+00 -0.20881441319E+04  0.20881441319E+04  0.25500000920E-02 0. -1.
    10030    2    1    2    0    0  0.00000000000E+00  0.00000000000E+00 -0.11980708069E+04  0.29782174568E+04  0.27266106363E+04 0.  0.
        2    1    3    3  502    0  0.45047710993E+03 -0.12403422341E+04 -0.22506302838E+03  0.13386679390E+04  0.25500000920E-02 0.  1.
       -2    1    3    3    0  502 -0.45047710993E+03  0.12403422341E+04 -0.97300777850E+03  0.16395495178E+04  0.25500000920E-02 0. -1.
</event>
<event>
 5   0  0.4756800E-06  0.2624069E+04  0.7818609E-02  0.8360071E-01
       -1   -1    0    0    0  501  0.00000000000E+00  0.00000000000E+00  0.94829802861E+03  0.94829802862E+03  0.50400001928E-02 0.  1.
        1   -1    0    0  501    0  0.00000000000E+00  0.00000000000E+00 -0.18152882790E+04  0.18152882790E+04  0.50400001928E-02 0. -1.
    10030    2    1    2    0    0  0.00000000000E+00  0.00000000000E+00 -0.86699025040E+03  0.27635863076E+04  0.26240688226E+04 0.  0.
        4    1    3    3  502    0  0.11245449882E+04  0.65102981390E+03 -0.62478783109E+03  0.14418053599E+04  0.12699999809E+01 0.  1.
       -4    1    3    3    0  502 -0.11245449882E+04 -0.65102981390E+03 -0.24220241931E+03  0.13217809478E+04  0.12699999809E+01 0. -1.
</event>
<event>
 5   0  0.4824715E-06  0.2709921E+04  0.7818609E-02  0.8331793E-01
        1   -1    0    0  501    0  0.00000000000E+00  0.00000000000E+00  0.26086380885E+04  0.26086380885E+04  0.50400001928E-02 0.  1.
       -1   -1    0    0    0  501  0.00000000000E+00  0.00000000000E+00 -0.70378404266E+03  0.70378404267E+03  0.50400001928E-02 0. -1.
    10030    2    1    2    0    0  0.00000000000E+00  0.00000000000E+00  0.19048540459E+04  0.33124221312E+04  0.27099209286E+04 0.  0.
        5    1    3    3  502    0  0.33682434627E+03 -0.16800940803E+03 -0.63858587485E+03  0.74127714857E+03  0.46999998093E+01 0. -1.
       -5    1    3    3    0  502 -0.33682434627E+03  0.16800940803E+03  0.25434399207E+04  0.25711449826E+04  0.46999998093E+01 0.  1.
</event>
<event>
 5   0  0.1261364E-05  0.2601217E+04  0.7818609E-02  0.8367788E-01
       -2   -1    0    0    0  501  0.00000000000E+00  0.00000000000E+00  0.83161488056E+03  0.83161488056E+03  0.25500000920E-02 0. -1.
        2   -1    0    0  501    0  0.00000000000E+00  0.00000000000E+00 -0.20340936132E+04  0.20340936132E+04  0.25500000920E-02 0.  1.
    10030    2    1    2    0    0  0.00000000000E+00  0.00000000000E+00 -0.12024787327E+04  0.28657084938E+04  0.26012170361E+04 0.  0.
        5    1    3    3  502    0  0.77766000720E+03  0.10289263000E+04 -0.41651156435E+03  0.13553406918E+04  0.46999998093E+01 0.  1.
       -5    1    3    3    0  502 -0.77766000720E+03 -0.10289263000E+04 -0.78596716831E+03  0.15103678020E+04  0.46999998093E+01 0. -1.
</event>
<event>
 5   0  0.4824715E-06  0.2749296E+04  0.7818609E-02  0.8319185E-01
       -1   -1    0    0    0  501  0.00000000000E+00  0.00000000000E+00  0.10673637555E+04  0.10673637555E+04  0.50400001928E-02 0. -1.
        1   -1    0    0  501    0  0.00000000000E+00  0.00000000000E+00 -0.17703970046E+04  0.17703970046E+04  0.50400001928E-02 0.  1.
    10030    2    1    2    0    0  0.00000000000E+00  0.00000000000E+00 -0.70303324913E+03  0.28377607601E+04  0.27492963431E+04 0.  0.
        5    1    3    3  502    0  0.10645493353E+04 -0.53962855634E+03  0.35246391260E+03  0.12444746545E+04  0.46999998093E+01 0.  1.
       -5    1    3    3    0  502 -0.10645493353E+04  0.53962855634E+03 -0.10554971617E+04  0.15932861056E+04  0.46999998093E+01 0. -1.
</event>
<event>
 5   0  0.4846214E-06  0.2651204E+04  0.7818609E-02  0.8351013E-01
        1   -1    0    0  501    0  0.00000000000E+00  0.00000000000E+00  0.17799520000E+04  0.17799520000E+04  0.50400001928E-02 0. -1.
       -1   -1    0    0    0  501  0.00000000000E+00  0.00000000000E+00 -0.98722947587E+03  0.98722947588E+03  0.50400001928E-02 0.  1.
    10030    2    1    2    0    0  0.00000000000E+00  0.00000000000E+00  0.79272252414E+03  0.27671814759E+04  0.26512043151E+04 0.  0.
        2    1    3    3  502    0 -0.10227792913E+04 -0.53930278795E+03  0.10730237888E+04  0.15774362197E+04  0.25500000920E-02 0. -1.
       -2    1    3    3    0  502  0.10227792913E+04  0.53930278795E+03 -0.28030126462E+03  0.11897452563E+04  0.25500000920E-02 0.  1.
</event>
<event>
 5   0  0.1276517E-05  0.2713350E+04  0.7818609E-02  0.8330686E-01
       -2   -1    0    0    0  501  0.00000000000E+00  0.00000000000E+00  0.14745170256E+04  0.14745170256E+04  0.25500000920E-02 0.  1.
        2   -1    0    0  501    0  0.00000000000E+00  0.00000000000E+00 -0.12482508776E+04  0.12482508776E+04  0.25500000920E-02 0. -1.
    10030    2    1    2    0    0  0.00000000000E+00  0.00000000000E+00  0.22626614795E+03  0.27227679032E+04  0.27133500853E+04 0.  0.
        1    1    3    3  502    0 -0.30545088561E+03 -0.74855600419E+03  0.12063780680E+04  0.14522342710E+04  0.50400001928E-02 0.  1.
       -1    1    3    3    0  502  0.30545088561E+03  0.74855600419E+03 -0.98011192001E+03  0.12705336323E+04  0.50400001928E-02 0. -1.
</event>
<event>
 5   0  0.4756800E-06  0.2572139E+04  0.7818609E-02  0.8377727E-01
        1   -1    0    0  501    0  0.00000000000E+00  0.00000000000E+00  0.21472542366E+04  0.21472542366E+04  0.50400001928E-02 0. -1.
       -1   -1    0    0    0  501  0.00000000000E+00  0.00000000000E+00 -0.77027409092E+03  0.77027409094E+03  0.50400001928E-02 0.  1.
    10030    2    1    2    0    0  0.00000000000E+00  0.00000000000E+00  0.13769801456E+04  0.29175283275E+04  0.25721386472E+04 0.  0.
        4    1    3    3  502    0 -0.91861522796E+03 -0.62706796747E+03  0.14208743429E+04  0.18044261371E+04  0.12699999809E+01 0. -1.
       -4    1    3    3    0  502  0.91861522796E+03  0.62706796747E+03 -0.43894197293E+02  0.11131021904E+04  0.12699999809E+01 0.  1.
</event>
<event>
 5   0  0.1276517E-05  0.2702985E+04  0.7818609E-02  0.8334037E-01
       -2   -1    0    0    0  501  0.00000000000E+00  0.00000000000E+00  0.72117937319E+03  0.72117937319E+03  0.25500000920E-02 0.  1.
        2   -1    0    0  501    0  0.00000000000E+00  0.00000000000E+00 -0.25327004497E+04  0.25327004497E+04  0.25500000920E-02 0. -1.
    10030    2    1    2    0    0  0.00000000000E+00  0.00000000000E+00 -0.18115210765E+04  0.32538798229E+04  0.27029845155E+04 0.  0.
        1    1    3    3  502    0  0.67313314506E+03  0.11246689756E+04 -0.13023657671E+04  0.18477405464E+04  0.50400001928E-02 0. -1.
       -1    1    3    3    0  502 -0.67313314506E+03 -0.11246689756E+04 -0.50915530937E+03  0.14061392764E+04  0.50400001928E-02 0.  1.
</event>
<event>
 5   0  0.1276517E-05  0.2683146E+04  0.7818609E-02  0.8340494E-01
       -2   -1    0    0    0  501  0.00000000000E+00  0.00000000000E+00  0.11196709238E+04  0.11196709238E+04  0.25500000920E-02 0. -1.
        2   -1    0    0  501    0  0.00000000000E+00  0.00000000000E+00 -0.16074522826E+04  0.16074522826E+04  0.25500000920E-02 0.  1.
    10030    2    1    2    0    0  0.00000000000E+00  0.00000000000E+00 -0.48778135882E+03  0.27271232064E+04  0.26831456034E+04 0.  0.
        1    1    3    3  502    0  0.30495898925E+03 -0.11328721799E+04  0.41748053692E+03  0.12452667826E+04  0.50400001928E-02 0. -1.
       -1    1    3    3    0  502 -0.30495898925E+03  0.11328721799E+04 -0.90526189574E+03  0.14818564239E+04  0.50400001928E-02 0.  1.
</event>
<event>
 5   0  0.4756800E-06  0.2696690E+04  0.7818609E-02  0.8336080E-01
       -1   -1    0    0    0  501  0.00000000000E+00  0.00000000000E+00  0.15334106902E+04  0.15334106902E+04  0.50400001928E-02 0.  1.
        1   -1    0    0  501    0  0.00000000000E+00  0.00000000000E+00 -0.11856146281E+04  0.11856146281E+04  0.50400001928E-02 0. -1.
    10030    2    1    2    0    0  0.00000000000E+00  0.00000000000E+00  0.34779606211E+03  0.27190253184E+04  0.26966899305E+04 0.  0.
        4    1    3    3  502    0  0.13437278633E+04 -0.11097309224E+03  0.16318294271E+03  0.13581420704E+04  0.12699999809E+01 0. -1.
       -4    1    3    3    0  502 -0.13437278633E+04  0.11097309224E+03  0.18461311940E+03  0.13608832479E+04  0.12699999809E+01 0.  1.
</event>
<event>
 5   0  0.5152288E-06  0.2683617E+04  0.7818609E-02  0.8340340E-01
        1   -1    0    0  501    0  0.00000000000E+00  0.00000000000E+00  0.22916747175E+04  0.22916747175E+04  0.50400001928E-02 0. -1.
       -1   -1    0    0    0  501  0.00000000000E+00  0.00000000000E+00 -0.78564797800E+03  0.78564797802E+03  0.50400001928E-02 0.  1.
    10030    2    1    2    0    0  0.00000000000E+00  0.00000000000E+00  0.15060267395E+04  0.30773226955E+04  0.26836166701E+04 0.  0.
        3    1    3    3  502    0  0.75229416384E+03 -0.11073070622E+04  0.64807769549E+03  0.14873063399E+04  0.10100000352E+00 0.  1.
       -3    1    3    3    0  502 -0.75229416384E+03  0.11073070622E+04  0.85794904398E+03  0.15900163556E+04  0.10100000352E+00 0. -1.
</event>
<event>
 5   0  0.1286641E-05  0.2627717E+04  0.7818609E-02  0.8358847E-01
       -2   -1    0    0    0  501  0.00000000000E+00  0.00000000000E+00  0.98229158998E+03  0.98229158998E+03  0.25500000920E-02 0. -1.
        2   -1    0    0  501    0  0.00000000000E+00  0.00000000000E+00 -0.17573434382E+04  0.17573434382E+04  0.25500000920E-02 0.  1.
    10030    2    1    2    0    0  0.00000000000E+00  0.00000000000E+00 -0.77505184819E+03  0.27396350282E+04  0.26277166362E+04 0.  0.
        4    1    3    3  502    0 -0.60828476253E+03  0.10699621147E+04  0.91831284750E+02  0.12342057677E+04  0.12699999809E+01 0. -1.
       -4    1    3    3    0  502  0.60828476253E+03 -0.10699621147E+04 -0.86688313294E+03  0.15054292605E+04  0.12699999809E+01 0.  1.
</event>
<event>
 5   0  0.4756800E-06  0.2679963E+04  0.7818609E-02  0.8341536E-01
       -1   -1    0    0    0  501  0.00000000000E+00  0.00000000000E+00  0.12750769060E+04  0.12750769060E+04  0.50400001928E-02 0. -1.
        1   -1    0    0  501    0  0.00000000000E+00  0.00000000000E+00 -0.14081894569E+04  0.14081894569E+04  0.50400001928E-02 0.  1.
    10030    2    1    2    0    0  0.00000000000E+00  0.00000000000E+00 -0.13311255087E+03  0.26832663629E+04  0.26799625787E+04 0.  0.
        4    1    3    3  502    0  0.81785842480E+02 -0.26705803517E+02 -0.14054205670E+04  0.14080520967E+04  0.12699999809E+01 0.  1.
       -4    1    3    3    0  502 -0.81785842480E+02  0.26705803517E+02  0.12723080161E+04  0.12752142662E+04  0.12699999809E+01 0. -1.
</event>
<event>
 5   0  0.4826140E-06  0.2730902E+04  0.7818609E-02  0.8325047E-01
       -1   -1    0    0    0  501  0.00000000000E+00  0.00000000000E+00  0.13494478511E+04  0.13494478511E+04  0.50400001928E-02 0.  1.
        1   -1    0    0  501    0  0.00000000000E+00  0.00000000000E+00 -0.13816442037E+04  0.13816442037E+04  0.50400001928E-02 0. -1.
    10030    2    1    2    0    0  0.00000000000E+00  0.00000000000E+00 -0.32196352643E+02  0.27310920548E+04  0.27309022697E+04 0.  0.
        1    1    3    3  502    0 -0.94092916858E+03  0.87972825744E+03 -0.46910569790E+03  0.13708864516E+04  0.50400001928E-02 0. -1.
       -1    1    3    3    0  502  0.94092916858E+03 -0.87972825744E+03  0.43690934526E+03  0.13602056033E+04  0.50400001928E-02 0.  1.
</event>
<event>
 5   0  0.4824715E-06  0.2708447E+04  0.7818609E-02  0.8332270E-01
       -1   -1    0    0    0  501  0.00000000000E+00  0.00000000000E+00  0.19971799192E+04  0.19971799192E+04  0.50400001928E-02 0.  1.
        1   -1    0    0  501    0  0.00000000000E+00  0.00000000000E+00 -0.91825517727E+03  0.91825517729E+03  0.50400001928E-02 0. -1.
    10030    2    1    2    0    0  0.00000000000E+00  0.00000000000E+00  0.10789247419E+04  0.29154350965E+04  0.27084466403E+04 0.  0.
        5    1    3    3  502    0  0.97731150596E+03 -0.55947354621E+03 -0.27018420459E+03  0.11580889530E+04  0.46999998093E+01 0. -1.
       -5    1    3    3    0  502 -0.97731150596E+03  0.55947354621E+03  0.13491089465E+04  0.17573461435E+04  0.46999998093E+01 0.  1.
</event>
<event>
 5   0  0.1286641E-05  0.2743139E+04  0.7818609E-02  0.8321142E-01
        2   -1    0    0  501    0  0.00000000000E+00  0.00000000000E+00  0.16564965438E+04  0.16564965438E+04  0.25500000920E-02 0. -1.
       -2   -1    0    0    0  501  0.00000000000E+00  0.00000000000E+00 -0.11356515535E+04  0.11356515535E+04  0.25500000920E-02 0.  1.
    10030    2    1    2    0    0  0.00000000000E+00  0.00000000000E+00  0.52084499035E+03  0.27921480973E+04  0.27431389854E+04 0.  0.
        4    1    3    3  502    0  0.23040369151E+03  0.58382575127E+03  0.15017446552E+04  0.16276292549E+04  0.12699999809E+01 0. -1.
       -4    1    3    3    0  502 -0.23040369151E+03 -0.58382575127E+03 -0.98089966486E+03  0.11645188424E+04  0.12699999809E+01 0.  1.
</event>
<event>
 5   0  0.1220908E-05  0.2709419E+04  0.7818609E-02  0.8331955E-01
       -2   -1    0    0    0  501  0.00000000000E+00  0.00000000000E+00  0.15404876664E+04  0.15404876664E+04  0.25500000920E-02 0. -1.
        2   -1    0    0  501    0  0.00000000000E+00  0.00000000000E+00 -0.11913358595E+04  0.11913358595E+04  0.25500000920E-02 0.  1.
    10030    2    1    2    0    0  0.00000000000E+00  0.00000000000E+00  0.34915180689E+03  0.27318235258E+04  0.27094192721E+04 0.  0.
        2    1    3    3  502    0  0.77147492720E+03  0.50202253474E+03 -0.82764452576E+03  0.12378189083E+04  0.25500000920E-02 0.  1.
       -2    1    3    3    0  502 -0.77147492720E+03 -0.50202253474E+03  0.11767963327E+04  0.14940046175E+04  0.25500000920E-02 0. -1.
</event>
<event>
 5   0  0.4824715E-06  0.2697390E+04  0.7818609E-02  0.8335852E-01
        1   -1    0    0  501    0  0.00000000000E+00  0.00000000000E+00  0.17387066614E+04  0.17387066614E+04  0.50400001928E-02 0.  1.
       -1   -1    0    0    0  501  0.00000000000E+00  0.00000000000E+00 -0.10461676540E+04  0.10461676540E+04  0.50400001928E-02 0. -1.
    10030    2    1    2    0    0  0.00000000000E+00  0.00000000000E+00  0.69253900741E+03  0.27848743155E+04  0.26973903455E+04 0.  0.
        5    1    3    3  502    0  0.87383397064E+03  0.97564245782E+03  0.14133177961E+02  0.13098419181E+04  0.46999998093E+01 0.  1.
       -5    1    3    3    0  502 -0.87383397064E+03 -0.97564245782E+03  0.67840582945E+03  0.14750323973E+04  0.46999998093E+01 0. -1.
</event>
<event>
 5   0  0.4826140E-06  0.2800099E+04  0.7818609E-02  0.8303238E-01
        1   -1    0    0  501    0  0.00000000000E+00  0.00000000000E+00  0.12249839987E+04  0.12249839987E+04  0.50400001928E-02 0.  1.
       -1   -1    0    0    0  501  0.00000000000E+00  0.00000000000E+00 -0.16001336461E+04  0.16001336461E+04  0.50400001928E-02 0. -1.
    10030    2    1    2    0    0  0.00000000000E+00  0.00000000000E+00 -0.37514964746E+03  0.28251176448E+04  0.28000986499E+04 0.  0.
        1    1    3    3  502    0 -0.36426989465E+02 -0.43865279355E+03 -0.15285079144E+04  0.15906224075E+04  0.50400001928E-02 0. -1.
       -1    1    3    3    0  502  0.36426989465E+02  0.43865279355E+03  0.11533582670E+04  0.12344952373E+04  0.50400001928E-02 0.  1.
</event>
<event>
 5   0  0.1232559E-05  0.2679973E+04  0.7818609E-02  0.8341532E-01
        2   -1    0    0  501    0  0.00000000000E+00  0.00000000000E+00  0.93142426318E+03  0.93142426319E+03  0.25500000920E-02 0. -1.
       -2   -1    0    0    0  501  0.00000000000E+00  0.00000000000E+00 -0.19277618982E+04  0.19277618982E+04  0.25500000920E-02 0.  1.
    10030    2    1    2    0    0  0.00000000000E+00  0.00000000000E+00 -0.99633763505E+03  0.28591861614E+04  0.26799732877E+04 0.  0.
        3    1    3    3  502    0 -0.48430567560E+03 -0.75954698646E+03 -0.15565246623E+04  0.17983972438E+04  0.10100000352E+00 0.  1.
       -3    1    3    3    0  502  0.48430567560E+03  0.75954698646E+03  0.56018702723E+03  0.10607889176E+04  0.10100000352E+00 0. -1.
</event>
<event>
 5   0  0.1286641E-05  0.2683552E+04  0.7818609E-02  0.8340362E-01
       -2   -1    0    0    0  501  0.00000000000E+00  0.00000000000E+00  0.92012401656E+03  0.92012401657E+03  0.25500000920E-02 0.  1.
        2   -1    0    0  501    0  0.00000000000E+00  0.00000000000E+00 -0.19566520242E+04  0.19566520242E+04  0.25500000920E-02 0. -1.
    10030    2    1    2    0    0  0.00000000000E+00  0.00000000000E+00 -0.10365280077E+04  0.28767760408E+04  0.26835517655E+04 0.  0.
        4    1    3    3  502    0  0.11861042409E+04  0.61974728977E+03 -0.62236944117E+03  0.14758981359E+04  0.12699999809E+01 0.  1.
       -4    1    3    3    0  502 -0.11861042409E+04 -0.61974728977E+03 -0.41415856649E+03  0.14008779049E+04  0.12699999809E+01 0. -1.
</event>
<event>
 5   0  0.1286641E-05  0.2729563E+04  0.7818609E-02  0.8325476E-01
       -2   -1    0    0    0  501  0.00000000000E+00  0.00000000000E+00  0.69045104501E+03  0.69045104502E+03  0.25500000920E-02 0.  1.
        2   -1    0    0  501    0  0.00000000000E+00  0.00000000000E+00 -0.26976979606E+04  0.26976979606E+04  0.25500000920E-02 0. -1.
    10030    2    1    2    0    0  0.00000000000E+00  0.00000000000E+00 -0.20072469156E+04  0.33881490056E+04  0.27295628778E+04 0.  0.
        4    1    3    3  502    0  0.82187950793E+03 -0.86579905021E+03 -0.18246831412E+04  0.21804962966E+04  0.12699999809E+01 0. -1.
       -4    1    3    3    0  502 -0.82187950793E+03  0.86579905021E+03 -0.18256377438E+03  0.12076527090E+04  0.12699999809E+01 0.  1.
</event>
<event>
 5   0  0.5152288E-06  0.2691861E+04  0.7818609E-02  0.8337651E-01
       -1   -1    0    0    0  501  0.00000000000E+00  0.00000000000E+00  0.14521609380E+04  0.14521609380E+04  0.50400001928E-02 0.  1.
        1   -1    0    0  501    0  0.00000000000E+00  0.00000000000E+00 -0.12474708250E+04  0.12474708250E+04  0.50400001928E-02 0. -1.
    10030    2    1    2    0    0  0.00000000000E+00  0.00000000000E+00  0.20469011302E+03  0.26996317630E+04  0.26918606230E+04 0.  0.
        3    1    3    3  502    0 -0.90051602567E+03 -0.15324000507E+03 -0.88900080010E+03  0.12746505578E+04  0.10100000352E+00 0. -1.
       -3    1    3    3    0  502  0.90051602567E+03  0.15324000507E+03  0.10936909131E+04  0.14249812052E+04  0.10100000352E+00 0.  1.
</event>
<event>
 5   0  0.5152288E-06  0.2745458E+04  0.7818609E-02  0.8320404E-01
        1   -1    0    0  501    0  0.00000000000E+00  0.00000000000E+00  0.10405381999E+04  0.10405381999E+04  0.50400001928E-02 0. -1.
       -1   -1    0    0    0  501  0.00000000000E+00  0.00000000000E+00 -0.18109709988E+04  0.18109709988E+04  0.50400001928E-02 0.  1.
    10030    2    1    2    0    0  0.00000000000E+00  0.00000000000E+00 -0.77043279886E+03  0.28515091988E+04  0.27454577056E+04 0.  0.
        3    1    3    3  502    0  0.38509421712E+03  0.57919714730E+02  0.98196376160E+03  0.10563640891E+04  0.10100000352E+00 0. -1.
       -3    1    3    3    0  502 -0.38509421712E+03 -0.57919714730E+02 -0.17523965605E+04  0.17951451097E+04  0.10100000352E+00 0.  1.
</event>
<event>
 5   0  0.4826140E-06  0.2702318E+04  0.7818609E-02  0.8334253E-01
        1   -1    0    0  501    0  0.00000000000E+00  0.00000000000E+00  0.23076237256E+04  0.23076237256E+04  0.50400001928E-02 0. -1.
       -1   -1    0    0    0  501  0.00000000000E+00  0.00000000000E+00 -0.79113021097E+03  0.79113021099E+03  0.50400001928E-02 0.  1.
    10030    2    1    2    0    0  0.00000000000E+00  0.00000000000E+00  0.15164935147E+04  0.30987539366E+04  0.27023181492E+04 0.  0.
        1    1    3    3  502    0 -0.32105569768E+03 -0.13079719898E+04  0.63387657604E+03  0.14885116730E+04  0.50400001928E-02 0. -1.
       -1    1    3    3    0  502  0.32105569768E+03  0.13079719898E+04  0.88261693862E+03  0.16102422636E+04  0.50400001928E-02 0.  1.
</event>
<event>
 5   0  0.4846214E-06  0.2645199E+04  0.7818609E-02  0.8353008E-01
       -1   -1    0    0    0  501  0.00000000000E+00  0.00000000000E+00  0.89389350505E+03  0.89389350506E+03  0.50400001928E-02 0.  1.
        1   -1    0    0  501    0  0.00000000000E+00  0.00000000000E+00 -0.19569096539E+04  0.19569096539E+04  0.50400001928E-02 0. -1.
    10030    2    1    2    0    0  0.00000000000E+00  0.00000000000E+00 -0.10630161489E+04  0.28508031590E+04  0.26451985405E+04 0.  0.
        2    1    3    3  502    0 -0.93563445940E+03 -0.25146582827E+03  0.43881895670E+03  0.10635830862E+04  0.25500000920E-02 0.  1.
       -2    1    3    3    0  502  0.93563445940E+03  0.25146582827E+03 -0.15018351056E+04  0.17872200728E+04  0.25500000920E-02 0. -1.
</event>
<event>
 5   0  0.1232559E-05  0.2669463E+04  0.7818609E-02  0.8344982E-01
        2   -1    0    0  501    0  0.00000000000E+00  0.00000000000E+00  0.17988062632E+04  0.17988062632E+04  0.25500000920E-02 0.  1.
       -2   -1    0    0    0  501  0.00000000000E+00  0.00000000000E+00 -0.99038354925E+03  0.99038354925E+03  0.25500000920E-02 0. -1.
    10030    2    1    2    0    0  0.00000000000E+00  0.00000000000E+00  0.80842271396E+03  0.27891898125E+04  0.26694629657E+04 0.  0.
        3    1    3    3  502    0 -0.12185479883E+04  0.21829778709E+03  0.92558549046E+03  0.15457107213E+04  0.10100000352E+00 0. -1.
       -3    1    3    3    0  502  0.12185479883E+04 -0.21829778709E+03 -0.11716277650E+03  0.12434790911E+04  0.10100000352E+00 0.  1.
</event>
<event>
 5   0  0.1232559E-05  0.2730137E+04  0.7818609E-02  0.8325292E-01
       -2   -1    0    0    0  501  0.00000000000E+00  0.00000000000E+00  0.16362960031E+04  0.16362960031E+04  0.25500000920E-02 0. -1.
        2   -1    0    0  501    0  0.00000000000E+00  0.00000000000E+00 -0.11387989079E+04  0.11387989079E+04  0.25500000920E-02 0.  1.
    10030    2    1    2    0    0  0.00000000000E+00  0.00000000000E+00  0.49749709516E+03  0.27750949110E+04  0.27301370672E+04 0.  0.
        3    1    3    3  502    0  0.48779828012E+03  0.38466457298E+03  0.14842886739E+04  0.16090453298E+04  0.10100000352E+00 0. -1.
       -3    1    3    3    0  502 -0.48779828012E+03 -0.38466457298E+03 -0.98679157872E+03  0.11660495812E+04  0.10100000352E+00 0.  1.
</event>
<event>
 5   0  0.5152288E-06  0.2705198E+04  0.7818609E-02  0.8333320E-01
        1   -1    0    0  501    0  0.00000000000E+00  0.00000000000E+00  0.53737632435E+03  0.53737632438E+03  0.50400001928E-02 0.  1.
       -1   -1    0    0    0  501  0.00000000000E+00  0.00000000000E+00 -0.34045499416E+04  0.34045499416E+04  0.50400001928E-02 0. -1.
    10030    2    1    2    0    0  0.00000000000E+00  0.00000000000E+00 -0.28671736172E+04  0.39419262659E+04  0.27051983541E+04 0.  0.
        3    1    3    3  502    0 -0.76118875895E+03 -0.25128670843E+03 -0.30211443319E+04  0.31256785537E+04  0.10100000352E+00 0. -1.
       -3    1    3    3    0  502  0.76118875895E+03  0.25128670843E+03  0.15397071469E+03  0.81624771226E+03  0.10100000352E+00 0.  1.
</event>
<event>
 5   0  0.1220908E-05  0.2711464E+04  0.7818609E-02  0.8331295E-01
       -2   -1    0    0    0  501  0.00000000000E+00  0.00000000000E+00  0.77766549197E+03  0.77766549198E+03  0.25500000920E-02 0.  1.
        2   -1    0    0  501    0  0.00000000000E+00  0.00000000000E+00 -0.23634956498E+04  0.23634956498E+04  0.25500000920E-02 0. -1.
    10030    2    1    2    0    0  0.00000000000E+00  0.00000000000E+00 -0.15858301579E+04  0.31411611418E+04  0.27114638167E+04 0.  0.
        2    1    3    3  502    0 -0.94296690362E+02  0.10884863806E+04 -0.17228131979E+04  0.20400440636E+04  0.25500000920E-02 0. -1.
       -2    1    3    3    0  502  0.94296690362E+02 -0.10884863806E+04  0.13698304007E+03  0.11011170782E+04  0.25500000920E-02 0.  1.
</event>
<event>
 5   0  0.1276517E-05  0.2579564E+04  0.7818609E-02  0.8375176E-01
       -2   -1    0    0    0  501  0.00000000000E+00  0.00000000000E+00  0.89039863148E+03  0.89039863148E+03  0.25500000920E-02 0.  1.
        2   -1    0    0  501    0  0.00000000000E+00  0.00000000000E+00 -0.18683064000E+04  0.18683064000E+04  0.25500000920E-02 0. -1.
    10030    2    1    2    0    0  0.00000000000E+00  0.00000000000E+00 -0.97790776857E+03  0.27587050315E+04  0.25795638870E+04 0.  0.
        1    1    3    3  502    0  0.72080673389E+02  0.11515852928E+04  0.12743431580E+03  0.11608547777E+04  0.50400001928E-02 0.  1.
       -1    1    3    3    0  502 -0.72080673389E+02 -0.11515852928E+04 -0.11053420844E+04  0.15978502538E+04  0.50400001928E-02 0. -1.
</event>
<event>
 5   0  0.1286641E-05  0.2667294E+04  0.7818609E-02  0.8345695E-01
        2   -1    0    0  501    0  0.00000000000E+00  0.00000000000E+00  0.23105617286E+04  0.23105617286E+04  0.25500000920E-02 0. -1.
       -2   -1    0    0    0  501  0.00000000000E+00  0.00000000000E+00 -0.76977594234E+03  0.76977594235E+03  0.25500000920E-02 0.  1.
    10030    2    1    2    0    0  0.00000000000E+00  0.00000000000E+00  0.15407857862E+04  0.30803376709E+04  0.26672943834E+04 0.  0.
        4    1    3    3  502    0 -0.95186595435E+03 -0.31031487596E+03  0.17878908050E+04  0.20491215828E+04  0.12699999809E+01 0. -1.
       -4    1    3    3    0  502  0.95186595435E+03  0.31031487596E+03 -0.24710501879E+03  0.10312160882E+04  0.12699999809E+01 0.  1.
</event>
<event>
 5   0  0.4824715E-06  0.2736450E+04  0.7818609E-02  0.8323274E-01
       -1   -1    0    0    0  501  0.00000000000E+00  0.00000000000E+00  0.12263137954E+04  0.12263137955E+04  0.50400001928E-02 0. -1.
        1   -1    0    0  501    0  0.00000000000E+00  0.00000000000E+00 -0.15265582571E+04  0.15265582571E+04  0.50400001928E-02 0.  1.
    10030    2    1    2    0    0  0.00000000000E+00  0.00000000000E+00 -0.30024446169E+03  0.27528720526E+04  0.27364498536E+04 0.  0.
        5    1    3    3  502    0 -0.66789805958E+03 -0.96188359024E+03 -0.86197708205E+03  0.14540751147E+04  0.46999998093E+01 0. -1.
       -5    1    3    3    0  502  0.66789805958E+03  0.96188359024E+03  0.56173262036E+03  0.12987969379E+04  0.46999998093E+01 0.  1.
</event>
<event>
 5   0  0.1276517E-05  0.2771136E+04  0.7818609E-02  0.8312286E-01
       -2   -1    0    0    0  501  0.00000000000E+00  0.00000000000E+00  0.10192236315E+04  0.10192236315E+04  0.25500000920E-02 0.  1.
        2   -1    0    0  501    0  0.00000000000E+00  0.00000000000E+00 -0.18835891467E+04  0.18835891467E+04  0.25500000920E-02 0. -1.
    10030    2    1    2    0    0  0.00000000000E+00  0.00000000000E+00 -0.86436551512E+03  0.29028127782E+04  0.27711359190E+04 0.  0.
        1    1    3    3  502    0  0.19764072421E+03 -0.12763678722E+04 -0.95763748601E+03  0.16078701302E+04  0.50400001928E-02 0. -1.
       -1    1    3    3    0  502 -0.19764072421E+03  0.12763678722E+04  0.93271970886E+02  0.12949426480E+04  0.50400001928E-02 0.  1.
</event>
<event>
 5   0  0.1232559E-05  0.2682073E+04  0.7818609E-02  0.8340845E-01
        2   -1    0    0  501    0  0.00000000000E+00  0.00000000000E+00  0.14679165594E+04  0.14679165594E+04  0.25500000920E-02 0.  1.
       -2   -1    0    0    0  501  0.00000000000E+00  0.00000000000E+00 -0.12251233438E+04  0.12251233438E+04  0.25500000920E-02 0. -1.
    10030    2    1    2    0    0  0.00000000000E+00  0.00000000000E+00  0.24279321555E+03  0.26930399032E+04  0.26820729623E+04 0.  0.
        3    1    3    3  502    0  0.59910156576E+03 -0.10007906749E+04  0.78582298479E+03  0.14064218552E+04  0.10100000352E+00 0. -1.
       -3    1    3    3    0  502 -0.59910156576E+03  0.10007906749E+04 -0.54302976924E+03  0.12866180481E+04  0.10100000352E+00 0.  1.
</event>
<event>
 5   0  0.4756800E-06  0.2464420E+04  0.7818609E-02  0.8415772E-01
        1   -1    0    0  501    0  0.00000000000E+00  0.00000000000E+00  0.13590647607E+04  0.13590647607E+04  0.50400001928E-02 0.  1.
       -1   -1    0    0    0  501  0.00000000000E+00  0.00000000000E+00 -0.11171956326E+04  0.11171956326E+04  0.50400001928E-02 0. -1.
    10030    2    1    2    0    0  0.00000000000E+00  0.00000000000E+00  0.24186912805E+03  0.24762603933E+04  0.24644197817E+04 0.  0.
        4    1    3    3  502    0  0.74989386676E+02 -0.80696618667E+03 -0.81170697081E+03  0.11470342863E+04  0.12699999809E+01 0. -1.
       -4    1    3    3    0  502 -0.74989386676E+02  0.80696618667E+03  0.10535760989E+04  0.13292261070E+04  0.12699999809E+01 0.  1.
</event>
<event>
 5   0  0.1261364E-05  0.2681803E+04  0.7818609E-02  0.8340933E-01
       -2   -1    0    0    0  501  0.00000000000E+00  0.00000000000E+00  0.25438817677E+04  0.25438817677E+04  0.25500000920E-02 0.  1.
        2   -1    0    0  501    0  0.00000000000E+00  0.00000000000E+00 -0.70680061654E+03  0.70680061654E+03  0.25500000920E-02 0. -1.
    10030    2    1    2    0    0  0.00000000000E+00  0.00000000000E+00  0.18370811512E+04  0.32506823842E+04  0.26818032753E+04 0.  0.
        5    1    3    3  502    0 -0.77490314954E+03  0.10129464543E+04  0.14204538160E+04  0.19089909753E+04  0.46999998093E+01 0.  1.
       -5    1    3    3    0  502  0.77490314954E+03 -0.10129464543E+04  0.41662733511E+03  0.13416914089E+04  0.46999998093E+01 0. -1.
</event>
<event>
 5   0  0.1220908E-05  0.2708187E+04  0.7818609E-02  0.8332353E-01
       -2   -1    0    0    0  501  0.00000000000E+00  0.00000000000E+00  0.16967096967E+04  0.16967096967E+04  0.25500000920E-02 0.  1.
        2   -1    0    0  501    0  0.00000000000E+00  0.00000000000E+00 -0.10806619860E+04  0.10806619860E+04  0.25500000920E-02 0. -1.
    10030    2    1    2    0    0  0.00000000000E+00  0.00000000000E+00  0.61604771063E+03  0.27773716827E+04  0.27081873425E+04 0.  0.
        2    1    3    3  502    0  0.10024041532E+04 -0.90969267240E+03  0.27227909848E+03  0.13807573110E+04  0.25500000920E-02 0.  1.
       -2    1    3    3    0  502 -0.10024041532E+04  0.90969267240E+03  0.34376861215E+03  0.13966143717E+04  0.25500000920E-02 0. -1.
</event>
<event>
 5   0  0.1220908E-05  0.2709497E+04  0.7818609E-02  0.8331930E-01
       -2   -1    0    0    0  501  0.00000000000E+00  0.00000000000E+00  0.10898078286E+04  0.10898078286E+04  0.25500000920E-02 0.  1.
        2   -1    0    0  501    0  0.00000000000E+00  0.00000000000E+00 -0.16840981902E+04  0.16840981902E+04  0.25500000920E-02 0. -1.
    10030    2    1    2    0    0  0.00000000000E+00  0.00000000000E+00 -0.59429036167E+03  0.27739060188E+04  0.27094969214E+04 0.  0.
        2    1    3    3  502    0 -0.10910057780E+04 -0.57552454239E+03  0.27636915655E+03  0.12640814915E+04  0.25500000920E-02 0.  1.
       -2    1    3    3    0  502  0.10910057780E+04  0.57552454239E+03 -0.87065951821E+03  0.15098245273E+04  0.25500000920E-02 0. -1.
</event>
<event>
 5   0  0.5152288E-06  0.2671304E+04  0.7818609E-02  0.8344376E-01
        1   -1    0    0  501    0  0.00000000000E+00  0.00000000000E+00  0.18277015791E+04  0.18277015791E+04  0.50400001928E-02 0.  1.
       -1   -1    0    0    0  501  0.00000000000E+00  0.00000000000E+00 -0.97607071537E+03  0.97607071538E+03  0.50400001928E-02 0. -1.
    10030    2    1    2    0    0  0.00000000000E+00  0.00000000000E+00  0.85163086377E+03  0.28037722945E+04  0.26713037924E+04 0.  0.
        3    1    3    3  502    0 -0.93583426283E+03  0.46315027062E+01  0.14260465168E+04  0.17057009986E+04  0.10100000352E+00 0.  1.
       -3    1    3    3    0  502  0.93583426283E+03 -0.46315027062E+01 -0.57441565304E+03  0.10980712959E+04  0.10100000352E+00 0. -1.
</event>
<event>
 5   0  0.4846214E-06  0.2709839E+04  0.7818609E-02  0.8331820E-01
       -1   -1    0    0    0  501  0.00000000000E+00  0.00000000000E+00  0.13814473137E+04  0.13814473137E+04  0.50400001928E-02 0.  1.
        1   -1    0    0  501    0  0.00000000000E+00  0.00000000000E+00 -0.13289013857E+04  0.13289013857E+04  0.50400001928E-02 0. -1.
    10030    2    1    2    0    0  0.00000000000E+00  0.00000000000E+00  0.52545928076E+02  0.27103486994E+04  0.27098392937E+04 0.  0.
        2    1    3    3  502    0  0.22757628151E+02  0.69739278878E+03  0.11879268886E+04  0.13776955049E+04  0.25500000920E-02 0.  1.
       -2    1    3    3    0  502 -0.22757628151E+02 -0.69739278878E+03 -0.11353809605E+04  0.13326531946E+04  0.25500000920E-02 0. -1.
</event>
<event>
 5   0  0.1276517E-05  0.2697280E+04  0.7818609E-02  0.8335888E-01
        2   -1    0    0  501    0  0.00000000000E+00  0.00000000000E+00  0.19557720472E+04  0.19557720472E+04  0.25500000920E-02 0. -1.
       -2   -1    0    0    0  501  0.00000000000E+00  0.00000000000E+00 -0.92998041129E+03  0.92998041129E+03  0.25500000920E-02 0.  1.
    10030    2    1    2    0    0  0.00000000000E+00  0.00000000000E+00  0.10257916360E+04  0.28857524585E+04  0.26972798838E+04 0.  0.
        1    1    3    3  502    0 -0.50471843985E+03  0.10039843603E+04 -0.28493576460E+03  0.11592729140E+04  0.50400001928E-02 0.  1.
       -1    1    3    3    0  502  0.50471843985E+03 -0.10039843603E+04  0.13107274006E+04  0.17264795445E+04  0.50400001928E-02 0. -1.
</event>
<event>
 5   0  0.4846214E-06  0.2572391E+04  0.7818609E-02  0.8377640E-01
       -1   -1    0    0    0  501  0.00000000000E+00  0.00000000000E+00  0.83912421022E+03  0.83912421023E+03  0.50400001928E-02 0.  1.
        1   -1    0    0  501    0  0.00000000000E+00  0.00000000000E+00 -0.19714583376E+04  0.19714583377E+04  0.50400001928E-02 0. -1.
    10030    2    1    2    0    0  0.00000000000E+00  0.00000000000E+00 -0.11323341274E+04  0.28105825479E+04  0.25723906551E+04 0.  0.
        2    1    3    3  502    0  0.46456262301E+03  0.11092711942E+04 -0.10644641906E+04  0.16060463960E+04  0.25500000920E-02 0. -1.
       -2    1    3    3    0  502 -0.46456262301E+03 -0.11092711942E+04 -0.67869936872E+02  0.12045361519E+04  0.25500000920E-02 0.  1.
</event>
<event>
 5   0  0.4824715E-06  0.2691242E+04  0.7818609E-02  0.8337852E-01
       -1   -1    0    0    0  501  0.00000000000E+00  0.00000000000E+00  0.70390798939E+03  0.70390798941E+03  0.50400001928E-02 0.  1.
        1   -1    0    0  501    0  0.00000000000E+00  0.00000000000E+00 -0.25723473887E+04  0.25723473887E+04  0.50400001928E-02 0. -1.
    10030    2    1    2    0    0  0.00000000000E+00  0.00000000000E+00 -0.18684393993E+04  0.32762553781E+04  0.26912420021E+04 0.  0.
        5    1    3    3  502    0  0.24080903932E+03  0.66952890793E+03 -0.23245981439E+04  0.24310566782E+04  0.46999998093E+01 0. -1.
       -5    1    3    3    0  502 -0.24080903932E+03 -0.66952890793E+03  0.45615874463E+03  0.84519869988E+03  0.46999998093E+01 0.  1.
</event>
<event>
 5   0  0.1261364E-05  0.2711989E+04  0.7818609E-02  0.8331125E-01
       -2   -1    0    0    0  501  0.00000000000E+00  0.00000000000E+00  0.12778118881E+04  0.12778118881E+04  0.25500000920E-02 0. -1.
        2   -1    0    0  501    0  0.00000000000E+00  0.00000000000E+00 -0.14389608739E+04  0.14389608739E+04  0.25500000920E-02 0.  1.
    10030    2    1    2    0    0  0.00000000000E+00  0.00000000000E+00 -0.16114898576E+03  0.27167727620E+04  0.27119891676E+04 0.  0.
        5    1    3    3  502    0 -0.57241595234E+03 -0.12066479891E+04  0.15444500974E+03  0.13444458870E+04  0.46999998093E+01 0. -1.
       -5    1    3    3    0  502  0.57241595234E+03  0.12066479891E+04 -0.31559399549E+03  0.13723268751E+04  0.46999998093E+01 0.  1.
</event>
<event>
 5   0  0.4846214E-06  0.2704799E+04  0.7818609E-02  0.8333450E-01
        1   -1    0    0  501    0  0.00000000000E+00  0.00000000000E+00  0.12585456616E+04  0.12585456616E+04  0.50400001928E-02 0. -1.
       -1   -1    0    0    0  501  0.00000000000E+00  0.00000000000E+00 -0.14532522882E+04  0.14532522882E+04  0.50400001928E-02 0.  1.
    10030    2    1    2    0    0  0.00000000000E+00  0.00000000000E+00 -0.19470662657E+03  0.27117979498E+04  0.27047989667E+04 0.  0.
        2    1    3    3  502    0  0.29687263297E+03  0.90394516643E+03 -0.10609511876E+04  0.14250851366E+04  0.25500000920E-02 0.  1.
       -2    1    3    3    0  502 -0.29687263297E+03 -0.90394516643E+03  0.86624456103E+03  0.12867128132E+04  0.25500000920E-02 0. -1.
</event>
<event>
 5   0  0.5152288E-06  0.2687910E+04  0.7818609E-02  0.8338938E-01
       -1   -1    0    0    0  501  0.00000000000E+00  0.00000000000E+00  0.64144055254E+03  0.64144055256E+03  0.50400001928E-02 0. -1.
        1   -1    0    0  501    0  0.00000000000E+00  0.00000000000E+00 -0.28158726040E+04  0.28158726040E+04  0.50400001928E-02 0.  1.
    10030    2    1    2    0    0  0.00000000000E+00  0.00000000000E+00 -0.21744320514E+04  0.34573131565E+04  0.26879098787E+04 0.  0.
        3    1    3    3  502    0 -0.11748854695E+03 -0.63289558149E+03 -0.26046888886E+04  0.26830513585E+04  0.10100000352E+00 0.  1.
       -3    1    3    3    0  502  0.11748854695E+03  0.63289558149E+03  0.43025683719E+03  0.77426179802E+03  0.10100000352E+00 0. -1.
</event>
<event>
 5   0  0.4824715E-06  0.2283834E+04  0.7818609E-02  0.8484322E-01
        1   -1    0    0  501    0  0.00000000000E+00  0.00000000000E+00  0.85879424366E+03  0.85879424367E+03  0.50400001928E-02 0. -1.
       -1   -1    0    0    0  501  0.00000000000E+00  0.00000000000E+00 -0.15183783964E+04  0.15183783964E+04  0.50400001928E-02 0.  1.
    10030    2    1    2    0    0  0.00000000000E+00  0.00000000000E+00 -0.65958415269E+03  0.23771726400E+04  0.22838341678E+04 0.  0.
        5    1    3    3  502    0 -0.19004979967E+03  0.23756364000E+03 -0.14754090162E+04  0.15064558621E+04  0.46999998093E+01 0.  1.
       -5    1    3    3    0  502  0.19004979967E+03 -0.23756364000E+03  0.81582486352E+03  0.87071677791E+03  0.46999998093E+01 0. -1.
</event>
<event>
 5   0  0.1220908E-05  0.2671020E+04  0.7818609E-02  0.8344470E-01
        2   -1    0    0  501    0  0.00000000000E+00  0.00000000000E+00  0.15388029240E+04  0.15388029240E+04  0.25500000920E-02 0.  1.
       -2   -1    0    0    0  501  0.00000000000E+00  0.00000000000E+00 -0.11590746574E+04  0.11590746574E+04  0.25500000920E-02 0. -1.
    10030    2    1    2    0    0  0.00000000000E+00  0.00000000000E+00  0.37972826657E+03  0.26978775813E+04  0.26710203832E+04 0.  0.
        2    1    3    3  502    0 -0.32583594823E+03  0.30634840911E+03 -0.10811885178E+04  0.11700371892E+04  0.25500000920E-02 0. -1.
       -2    1    3    3    0  502  0.32583594823E+03 -0.30634840911E+03  0.14609167844E+04  0.15278403922E+04  0.25500000920E-02 0.  1.
</event>
<event>
 5   0  0.1232559E-05  0.2691566E+04  0.7818609E-02  0.8337747E-01
       -2   -1    0    0    0  501  0.00000000000E+00  0.00000000000E+00  0.15950937502E+04  0.15950937502E+04  0.25500000920E-02 0. -1.
        2   -1    0    0  501    0  0.00000000000E+00  0.00000000000E+00 -0.11354393633E+04  0.11354393633E+04  0.25500000920E-02 0.  1.
    10030    2    1    2    0    0  0.00000000000E+00  0.00000000000E+00  0.45965438681E+03  0.27305331135E+04  0.26915662594E+04 0.  0.
        3    1    3    3  502    0 -0.12193848325E+03 -0.12291610977E+04  0.77181474083E+03  0.14565040343E+04  0.10100000352E+00 0. -1.
       -3    1    3    3    0  502  0.12193848325E+03  0.12291610977E+04 -0.31216035402E+03  0.12740290791E+04  0.10100000352E+00 0.  1.
</event>
<event>
 5   0  0.5152288E-06  0.2702218E+04  0.7818609E-02  0.8334286E-01
        1   -1    0    0  501    0  0.00000000000E+00  0.00000000000E+00  0.13173156226E+04  0.13173156227E+04  0.50400001928E-02 0. -1.
       -1   -1    0    0    0  501  0.00000000000E+00  0.00000000000E+00 -0.13857692215E+04  0.13857692215E+04  0.50400001928E-02 0.  1.
    10030    2    1    2    0    0  0.00000000000E+00  0.00000000000E+00 -0.68453598858E+02  0.27030848442E+04  0.27022179371E+04 0.  0.
        3    1    3    3  502    0 -0.41568338868E+03 -0.62011865357E+03 -0.11607122290E+04  0.13800698218E+04  0.10100000352E+00 0.  1.
       -3    1    3    3    0  502  0.41568338868E+03  0.62011865357E+03  0.10922586302E+04  0.13230150224E+04  0.10100000352E+00 0. -1.
</event>
<event>
 5   0  0.1276517E-05  0.2755465E+04  0.7818609E-02  0.8317230E-01
        2   -1    0    0  501    0  0.00000000000E+00  0.00000000000E+00  0.31951024727E+04  0.31951024727E+04  0.25500000920E-02 0. -1.
       -2   -1    0    0    0  501  0.00000000000E+00  0.00000000000E+00 -0.59408019613E+03  0.59408019613E+03  0.25500000920E-02 0.  1.
    10030    2    1    2    0    0  0.00000000000E+00  0.00000000000E+00  0.26010222766E+04  0.37891826689E+04  0.27554651902E+04 0.  0.
        1    1    3    3  502    0  0.11191516266E+04  0.23551413742E+03  0.23569461727E+04  0.26197638316E+04  0.50400001928E-02 0. -1.
       -1    1    3    3    0  502 -0.11191516266E+04 -0.23551413742E+03  0.24407610385E+03  0.11694188372E+04  0.50400001928E-02 0.  1.
</event>
<event>
 5   0  0.1276517E-05  0.2709386E+04  0.7818609E-02  0.8331966E-01
       -2   -1    0    0    0  501  0.00000000000E+00  0.00000000000E+00  0.12725568203E+04  0.12725568203E+04  0.25500000920E-02 0. -1.
        2   -1    0    0  501    0  0.00000000000E+00  0.00000000000E+00 -0.14421302587E+04  0.14421302587E+04  0.25500000920E-02 0.  1.
    10030    2    1    2    0    0  0.00000000000E+00  0.00000000000E+00 -0.16957343840E+03  0.27146870791E+04  0.27093856843E+04 0.  0.
        1    1    3    3  502    0  0.11004588668E+04 -0.27715659875E+03  0.65650359973E+03  0.13110387005E+04  0.50400001928E-02 0. -1.
       -1    1    3    3    0  502 -0.11004588668E+04  0.27715659875E+03 -0.82607703813E+03  0.14036483786E+04  0.50400001928E-02 0.  1.
</event>
<event>
 5   0  0.1261364E-05  0.2694233E+04  0.7818609E-02  0.8336878E-01
        2   -1    0    0  501    0  0.00000000000E+00  0.00000000000E+00  0.24925144773E+04  0.24925144773E+04  0.25500000920E-02 0. -1.
       -2   -1    0    0    0  501  0.00000000000E+00  0.00000000000E+00 -0.72806929006E+03  0.72806929006E+03  0.25500000920E-02 0.  1.
    10030    2    1    2    0    0  0.00000000000E+00  0.00000000000E+00  0.17644451873E+04  0.32205837674E+04  0.26942332831E+04 0.  0.
        5    1    3    3  502    0 -0.36245825638E+03  0.10389132165E+04 -0.46770100178E+02  0.11013292837E+04  0.46999998093E+01 0.  1.
       -5    1    3    3    0  502  0.36245825638E+03 -0.10389132165E+04  0.18112152874E+04  0.21192544836E+04  0.46999998093E+01 0. -1.
</event>
<event>
 5   0  0.1232559E-05  0.2727834E+04  0.7818609E-02  0.8326030E-01
       -2   -1    0    0    0  501  0.00000000000E+00  0.00000000000E+00  0.89494962929E+03  0.89494962929E+03  0.25500000920E-02 0.  1.
        2   -1    0    0  501    0  0.00000000000E+00  0.00000000000E+00 -0.20786298255E+04  0.20786298255E+04  0.25500000920E-02 0. -1.
    10030    2    1    2    0    0  0.00000000000E+00  0.00000000000E+00 -0.11836801962E+04  0.29735794548E+04  0.27278335666E+04 0.  0.
        3    1    3    3  502    0  0.11712000672E+04 -0.69875361391E+03 -0.61080798652E+03  0.14943401945E+04  0.10100000352E+00 0. -1.
       -3    1    3    3    0  502 -0.11712000672E+04  0.69875361391E+03 -0.57287220968E+03  0.14792392603E+04  0.10100000352E+00 0.  1.
</event>
<event>
 5   0  0.4826140E-06  0.2670851E+04  0.7818609E-02  0.8344525E-01
        1   -1    0    0  501    0  0.00000000000E+00  0.00000000000E+00  0.25931039571E+04  0.25931039571E+04  0.50400001928E-02 0.  1.
       -1   -1    0    0    0  501  0.00000000000E+00  0.00000000000E+00 -0.68773228949E+03  0.68773228951E+03  0.50400001928E-02 0. -1.
    10030    2    1    2    0    0  0.00000000000E+00  0.00000000000E+00  0.19053716676E+04  0.32808362466E+04  0.26708510414E+04 0.  0.
        1    1    3    3  502    0  0.12494485111E+04  0.11700858081E+03  0.15136545772E+04  0.19662051696E+04  0.50400001928E-02 0.  1.
       -1    1    3    3    0  502 -0.12494485111E+04 -0.11700858081E+03  0.39171709043E+03  0.13146310770E+04  0.50400001928E-02 0. -1.
</event>
<event>
 5   0  0.4826140E-06  0.2577790E+04  0.7818609E-02  0.8375785E-01
       -1   -1    0    0    0  501  0.00000000000E+00  0.00000000000E+00  0.13011128610E+04  0.13011128610E+04  0.50400001928E-02 0. -1.
        1   -1    0    0  501    0  0.00000000000E+00  0.00000000000E+00 -0.12767922255E+04  0.12767922255E+04  0.50400001928E-02 0.  1.
    10030    2    1    2    0    0  0.00000000000E+00  0.00000000000E+00  0.24320635473E+02  0.25779050865E+04  0.25777903604E+04 0.  0.
        1    1    3    3  502    0  0.62751162848E+03 -0.23962711866E+03  0.11122359955E+04  0.12993309469E+04  0.50400001928E-02 0. -1.
       -1    1    3    3    0  502 -0.62751162848E+03  0.23962711866E+03 -0.10879153600E+04  0.12785741396E+04  0.50400001928E-02 0.  1.
</event>
<event>
 5   0  0.4826140E-06  0.2694566E+04  0.7818609E-02  0.8336770E-01
       -1   -1    0    0    0  501  0.00000000000E+00  0.00000000000E+00  0.11239865776E+04  0.11239865776E+04  0.50400001928E-02 0.  1.
        1   -1    0    0  501    0  0.00000000000E+00  0.00000000000E+00 -0.16149401871E+04  0.16149401871E+04  0.50400001928E-02 0. -1.
    10030    2    1    2    0    0  0.00000000000E+00  0.00000000000E+00 -0.49095360955E+03  0.27389267647E+04  0.26945657119E+04 0.  0.
        1    1    3    3  502    0 -0.94091473975E+03  0.81601049797E+03  0.27676907891E+03  0.12758506195E+04  0.50400001928E-02 0.  1.
       -1    1    3    3    0  502  0.94091473975E+03 -0.81601049797E+03 -0.76772268845E+03  0.14630761452E+04  0.50400001928E-02 0. -1.
</event>
<event>
 5   0  0.1261364E-05  0.2701286E+04  0.7818609E-02  0.8334588E-01
       -2   -1    0    0    0  501  0.00000000000E+00  0.00000000000E+00  0.66600242620E+03  0.66600242620E+03  0.25500000920E-02 0.  1.
        2   -1    0    0  501    0  0.00000000000E+00  0.00000000000E+00 -0.27390847564E+04  0.27390847564E+04  0.25500000920E-02 0. -1.
    10030    2    1    2    0    0  0.00000000000E+00  0.00000000000E+00 -0.20730823302E+04  0.34050871826E+04  0.27012864293E+04 0.  0.
        5    1    3    3  502    0 -0.97611738878E+03  0.47959301808E+03 -0.27004243826E+02  0.10879181674E+04  0.46999998093E+01 0.  1.
       -5    1    3    3    0  502  0.97611738878E+03 -0.47959301808E+03 -0.20460780864E+04  0.23171690153E+04  0.46999998093E+01 0. -1.
</event>
<event>
 5   0  0.1276517E-05  0.2434853E+04  0.7818609E-02  0.8426569E-01
       -2   -1    0    0    0  501  0.00000000000E+00  0.00000000000E+00  0.95817131553E+03  0.95817131553E+03  0.25500000920E-02 0.  1.
        2   -1    0    0  501    0  0.00000000000E+00  0.00000000000E+00 -0.15468296266E+04  0.15468296266E+04  0.25500000920E-02 0. -1.
    10030    2    1    2    0    0  0.00000000000E+00  0.00000000000E+00 -0.58865831103E+03  0.25050009421E+04  0.24348534068E+04 0.  0.
        1    1    3    3  502    0  0.11327525352E+04  0.37996733963E+03 -0.53877379792E+02  0.11959959270E+04  0.50400001928E-02 0.  1.
       -1    1    3    3    0  502 -0.11327525352E+04 -0.37996733963E+03 -0.53478093124E+03  0.13090050151E+04  0.50400001928E-02 0. -1.
</event>
<event>
 5   0  0.4824715E-06  0.2695112E+04  0.7818609E-02  0.8336593E-01
        1   -1    0    0  501    0  0.00000000000E+00  0.00000000000E+00  0.10875435314E+04  0.10875435314E+04  0.50400001928E-02 0. -1.
       -1   -1    0    0    0  501  0.00000000000E+00  0.00000000000E+00 -0.16697329894E+04  0.16697329894E+04  0.50400001928E-02 0.  1.
    10030    2    1    2    0    0  0.00000000000E+00  0.00000000000E+00 -0.58218945804E+03  0.27572765208E+04  0.26951121029E+04 0.  0.
        5    1    3    3  502    0  0.91477602406E+03 -0.75887125059E+03 -0.94070874626E+03  0.15158020268E+04  0.46999998093E+01 0.  1.
       -5    1    3    3    0  502 -0.91477602406E+03  0.75887125059E+03  0.35851928822E+03  0.12414744940E+04  0.46999998093E+01 0. -1.
</event>
<event>
 5   0  0.4824715E-06  0.2660456E+04  0.7818609E-02  0.8347951E-01
       -1   -1    0    0    0  501  0.00000000000E+00  0.00000000000E+00  0.70494743826E+03  0.70494743828E+03  0.50400001928E-02 0.  1.
        1   -1    0    0  501    0  0.00000000000E+00  0.00000000000E+00 -0.25101263525E+04  0.25101263525E+04  0.50400001928E-02 0. -1.
    10030    2    1    2    0    0  0.00000000000E+00  0.00000000000E+00 -0.18051789142E+04  0.32150737907E+04  0.26604564585E+04 0.  0.
        5    1    3    3  502    0  0.58284848341E+03 -0.63999896846E+03 -0.21231853906E+04  0.22928692346E+04  0.46999998093E+01 0. -1.
       -5    1    3    3    0  502 -0.58284848341E+03  0.63999896846E+03  0.31800647642E+03  0.92220455610E+03  0.46999998093E+01 0.  1.
</event>
<event>
 5   0  0.1276517E-05  0.2697535E+04  0.7818609E-02  0.8335805E-01
        2   -1    0    0  501    0  0.00000000000E+00  0.00000000000E+00  0.15438022063E+04  0.15438022063E+04  0.25500000920E-02 0.  1.
       -2   -1    0    0    0  501  0.00000000000E+00  0.00000000000E+00 -0.11783725909E+04  0.11783725909E+04  0.25500000920E-02 0. -1.
    10030    2    1    2    0    0  0.00000000000E+00  0.00000000000E+00  0.36542961534E+03  0.27221747972E+04  0.26975353237E+04 0.  0.
        1    1    3    3  502    0  0.84971720481E+03  0.19694255609E+03  0.12208820533E+04  0.15004528272E+04  0.50400001928E-02 0.  1.
       -1    1    3    3    0  502 -0.84971720481E+03 -0.19694255609E+03 -0.85545243792E+03  0.12217219701E+04  0.50400001928E-02 0. -1.
</event>
<event>
 5   0  0.5152288E-06  0.2681184E+04  0.7818609E-02  0.8341136E-01
        1   -1    0    0  501    0  0.00000000000E+00  0.00000000000E+00  0.20759099317E+04  0.20759099317E+04  0.50400001928E-02 0.  1.
       -1   -1    0    0    0  501  0.00000000000E+00  0.00000000000E+00 -0.86573452053E+03  0.86573452055E+03  0.50400001928E-02 0. -1.
    10030    2    1    2    0    0  0.00000000000E+00  0.00000000000E+00  0.12101754111E+04  0.29416444522E+04  0.26811839843E+04 0.  0.
        3    1    3    3  502    0  0.12031818105E+04 -0.58646685860E+03  0.68716868439E+03  0.15045898632E+04  0.10100000352E+00 0.  1.
       -3    1    3    3    0  502 -0.12031818105E+04  0.58646685860E+03  0.52300672675E+03  0.14370545890E+04  0.10100000352E+00 0. -1.
</event>
<event>
 5   0  0.4846214E-06  0.2768685E+04  0.7818609E-02  0.8313057E-01
       -1   -1    0    0    0  501  0.00000000000E+00  0.00000000000E+00  0.13081596924E+04  0.13081596924E+04  0.50400001928E-02 0. -1.
        1   -1    0    0  501    0  0.00000000000E+00  0.00000000000E+00 -0.14649616393E+04  0.14649616393E+04  0.50400001928E-02 0.  1.
    10030    2    1    2    0    0  0.00000000000E+00  0.00000000000E+00 -0.15680194689E+03  0.27731213318E+04  0.27686847184E+04 0.  0.
        2    1    3    3  502    0 -0.49564822846E+03  0.12789192590E+04  0.10925487501E+03  0.13759499501E+04  0.25500000920E-02 0. -1.
       -2    1    3    3    0  502  0.49564822846E+03 -0.12789192590E+04 -0.26605682190E+03  0.13971713817E+04  0.25500000920E-02 0.  1.
</event>
<event>
 5   0  0.4756800E-06  0.2700092E+04  0.7818609E-02  0.8334975E-01
        1   -1    0    0  501    0  0.00000000000E+00  0.00000000000E+00  0.10887935153E+04  0.10887935153E+04  0.50400001928E-02 0.  1.
       -1   -1    0    0    0  501  0.00000000000E+00  0.00000000000E+00 -0.16739848237E+04  0.16739848237E+04  0.50400001928E-02 0. -1.
    10030    2    1    2    0    0  0.00000000000E+00  0.00000000000E+00 -0.58519130839E+03  0.27627783390E+04  0.27000917175E+04 0.  0.
        4    1    3    3  502    0  0.69842842840E+03  0.11421228371E+04 -0.47092723793E+03  0.14191620488E+04  0.12699999809E+01 0.  1.
       -4    1    3    3    0  502 -0.69842842840E+03 -0.11421228371E+04 -0.11426407047E+03  0.13436162902E+04  0.12699999809E+01 0. -1.
</event>
<event>
 5   0  0.4756800E-06  0.2671142E+04  0.7818609E-02  0.8344430E-01
       -1   -1    0    0    0  501  0.00000000000E+00  0.00000000000E+00  0.12306254387E+04  0.12306254387E+04  0.50400001928E-02 0. -1.
        1   -1    0    0  501    0  0.00000000000E+00  0.00000000000E+00 -0.14494659171E+04  0.14494659171E+04  0.50400001928E-02 0.  1.
    10030    2    1    2    0    0  0.00000000000E+00  0.00000000000E+00 -0.21884047836E+03  0.26800913558E+04  0.26711418009E+04 0.  0.
        4    1    3    3  502    0  0.11289807292E+04 -0.41406945232E+03 -0.69248429283E+03  0.13876552551E+04  0.12699999809E+01 0. -1.
       -4    1    3    3    0  502 -0.11289807292E+04  0.41406945232E+03  0.47364381446E+03  0.12924361006E+04  0.12699999809E+01 0.  1.
</event>
<event>
 5   0  0.4826140E-06  0.2728747E+04  0.7818609E-02  0.8325737E-01
        1   -1    0    0  501    0  0.00000000000E+00  0.00000000000E+00  0.10588566455E+04  0.10588566455E+04  0.50400001928E-02 0.  1.
       -1   -1    0    0    0  501  0.00000000000E+00  0.00000000000E+00 -0.17580431196E+04  0.17580431196E+04  0.50400001928E-02 0. -1.
    10030    2    1    2    0    0  0.00000000000E+00  0.00000000000E+00 -0.69918647409E+03  0.28168997652E+04  0.27287474345E+04 0.  0.
        1    1    3    3  502    0  0.11684810190E+04  0.11622783644E+03  0.36758678777E+03  0.12304376654E+04  0.50400001928E-02 0.  1.
       -1    1    3    3    0  502 -0.11684810190E+04 -0.11622783644E+03 -0.10667732619E+04  0.15864620998E+04  0.50400001928E-02 0. -1.
</event>
<event>
 5   0  0.5152288E-06  0.2710582E+04  0.7818609E-02  0.8331580E-01
        1   -1    0    0  501    0  0.00000000000E+00  0.00000000000E+00  0.15912215194E+04  0.15912215194E+04  0.50400001928E-02 0.  1.
       -1   -1    0    0    0  501  0.00000000000E+00  0.00000000000E+00 -0.11543421955E+04  0.11543421955E+04  0.50400001928E-02 0. -1.
    10030    2    1    2    0    0  0.00000000000E+00  0.00000000000E+00  0.43687932385E+03  0.27455637149E+04  0.27105823302E+04 0.  0.
        3    1    3    3  502    0 -0.28145772561E+02  0.42047421133E+03 -0.10862924572E+04  0.11651703994E+04  0.10100000352E+00 0. -1.
       -3    1    3    3    0  502  0.28145772561E+02 -0.42047421133E+03  0.15231717810E+04  0.15803933155E+04  0.10100000352E+00 0.  1.
</event>
<event>
 5   0  0.4756800E-06  0.2690055E+04  0.7818609E-02  0.8338239E-01
        1   -1    0    0  501    0  0.00000000000E+00  0.00000000000E+00  0.22790013064E+04  0.22790013064E+04  0.50400001928E-02 0. -1.
       -1   -1    0    0    0  501  0.00000000000E+00  0.00000000000E+00 -0.79381188815E+03  0.79381188817E+03  0.50400001928E-02 0.  1.
    10030    2    1    2    0    0  0.00000000000E+00  0.00000000000E+00  0.14851894183E+04  0.30728131946E+04  0.26900545200E+04 0.  0.
        4    1    3    3  502    0 -0.64720555431E+02 -0.10067463314E+04 -0.27357164474E+03  0.10452607253E+04  0.12699999809E+01 0.  1.
       -4    1    3    3    0  502  0.64720555431E+02  0.10067463314E+04  0.17587610630E+04  0.20275524693E+04  0.12699999809E+01 0. -1.
</event>
<event>
 5   0  0.1261364E-05  0.2634198E+04  0.7818609E-02  0.8356677E-01
        2   -1    0    0  501    0  0.00000000000E+00  0.00000000000E+00  0.20015561758E+04  0.20015561758E+04  0.25500000920E-02 0.  1.
       -2   -1    0    0    0  501  0.00000000000E+00  0.00000000000E+00 -0.86670039436E+03  0.86670039437E+03  0.25500000920E-02 0. -1.
    10030    2    1    2    0    0  0.00000000000E+00  0.00000000000E+00  0.11348557814E+04  0.28682565701E+04  0.26341978110E+04 0.  0.
        5    1    3    3  502    0 -0.10458849104E+04  0.66765484798E+03  0.10483627101E+04  0.16244151883E+04  0.46999998093E+01 0.  1.
       -5    1    3    3    0  502  0.10458849104E+04 -0.66765484798E+03  0.86493071280E+02  0.12438413819E+04  0.46999998093E+01 0. -1.
</event>
<event>
 5   0  0.4846214E-06  0.2736096E+04  0.7818609E-02  0.8323387E-01
        1   -1    0    0  501    0  0.00000000000E+00  0.00000000000E+00  0.80484696440E+03  0.80484696441E+03  0.50400001928E-02 0.  1.
       -1   -1    0    0    0  501  0.00000000000E+00  0.00000000000E+00 -0.23253559649E+04  0.23253559649E+04  0.50400001928E-02 0. -1.
    10030    2    1    2    0    0  0.00000000000E+00  0.00000000000E+00 -0.15205090005E+04  0.31302029293E+04  0.27360962626E+04 0.  0.
        2    1    3    3  502    0  0.90772779453E+03 -0.42994126109E+03 -0.18228799055E+04  0.20812761438E+04  0.25500000920E-02 0. -1.
       -2    1    3    3    0  502 -0.90772779453E+03  0.42994126109E+03  0.30237090506E+03  0.10489267854E+04  0.25500000920E-02 0.  1.
</event>
<event>
 5   0  0.5152288E-06  0.2731424E+04  0.7818609E-02  0.8324881E-01
       -1   -1    0    0    0  501  0.00000000000E+00  0.00000000000E+00  0.11880205214E+04  0.11880205215E+04  0.50400001928E-02 0.  1.
        1   -1    0    0  501    0  0.00000000000E+00  0.00000000000E+00 -0.15699804242E+04  0.15699804242E+04  0.50400001928E-02 0. -1.
    10030    2    1    2    0    0  0.00000000000E+00  0.00000000000E+00 -0.38195990273E+03  0.27580009456E+04  0.27314237769E+04 0.  0.
        3    1    3    3  502    0 -0.72341549738E+03  0.11903387354E+03  0.97247716673E+03  0.12178714608E+04  0.10100000352E+00 0.  1.
       -3    1    3    3    0  502  0.72341549738E+03 -0.11903387354E+03 -0.13544370695E+04  0.15401294849E+04  0.10100000352E+00 0. -1.
</event>
<event>
 5   0  0.4846214E-06  0.2686038E+04  0.7818609E-02  0.8339549E-01
        1   -1    0    0  501    0  0.00000000000E+00  0.00000000000E+00  0.16518577177E+04  0.16518577177E+04  0.50400001928E-02 0.  1.
       -1   -1    0    0    0  501  0.00000000000E+00  0.00000000000E+00 -0.10919222092E+04  0.10919222092E+04  0.50400001928E-02 0. -1.
    10030    2    1    2    0    0  0.00000000000E+00  0.00000000000E+00  0.55993550855E+03  0.27437799269E+04  0.26860380700E+04 0.  0.
        2    1    3    3  502    0  0.97313136126E+03 -0.77878301035E+03 -0.23099779074E+03  0.12676149269E+04  0.25500000920E-02 0. -1.
       -2    1    3    3    0  502 -0.97313136126E+03  0.77878301035E+03  0.79093329929E+03  0.14761650001E+04  0.25500000920E-02 0.  1.
</event>
<event>
 5   0  0.1276517E-05  0.2621556E+04  0.7818609E-02  0.8360916E-01
        2   -1    0    0  501    0  0.00000000000E+00  0.00000000000E+00  0.12647715863E+04  0.12647715863E+04  0.25500000920E-02 0.  1.
       -2   -1    0    0    0  501  0.00000000000E+00  0.00000000000E+00 -0.13584579765E+04  0.13584579765E+04  0.25500000920E-02 0. -1.
    10030    2    1    2    0    0  0.00000000000E+00  0.00000000000E+00 -0.93686390134E+02  0.26232295628E+04  0.26215560646E+04 0.  0.
        1    1    3    3  502    0  0.28804675140E+03  0.12782793274E+04 -0.12614928330E+02  0.13103923483E+04  0.50400001928E-02 0. -1.
       -1    1    3    3    0  502 -0.28804675140E+03 -0.12782793274E+04 -0.81071461804E+02  0.13128372146E+04  0.50400001928E-02 0.  1.
</event>
<event>
 5   0  0.4826140E-06  0.2658860E+04  0.7818609E-02  0.8348478E-01
        1   -1    0    0  501    0  0.00000000000E+00  0.00000000000E+00  0.14055186574E+04  0.14055186574E+04  0.50400001928E-02 0.  1.
       -1   -1    0    0    0  501  0.00000000000E+00  0.00000000000E+00 -0.12574601275E+04  0.12574601275E+04  0.50400001928E-02 0. -1.
    10030    2    1    2    0    0  0.00000000000E+00  0.00000000000E+00  0.14805852989E+03  0.26629787849E+04  0.26588596579E+04 0.  0.
        1    1    3    3  502    0 -0.48872180394E+03  0.11785486413E+04 -0.30012379410E+03  0.13106869166E+04  0.50400001928E-02 0. -1.
       -1    1    3    3    0  502  0.48872180394E+03 -0.11785486413E+04  0.44818232399E+03  0.13522918683E+04  0.50400001928E-02 0.  1.
</event>
<event>
 5   0  0.1220908E-05  0.2734098E+04  0.7818609E-02  0.8324025E-01
        2   -1    0    0  501    0  0.00000000000E+00  0.00000000000E+00  0.16030759397E+04  0.16030759397E+04  0.25500000920E-02 0. -1.
       -2   -1    0    0    0  501  0.00000000000E+00  0.00000000000E+00 -0.11657733709E+04  0.11657733709E+04  0.25500000920E-02 0.  1.
    10030    2    1    2    0    0  0.00000000000E+00  0.00000000000E+00  0.43730256877E+03  0.27688493107E+04  0.27340982002E+04 0.  0.
        2    1    3    3  502    0  0.67700363065E+02 -0.13615059699E+04  0.32262756871E+03  0.14008463133E+04  0.25500000920E-02 0. -1.
       -2    1    3    3    0  502 -0.67700363065E+02  0.13615059699E+04  0.11467500006E+03  0.13680029974E+04  0.25500000920E-02 0.  1.
</event>
<event>
 5   0  0.4188000E-06  0.2700119E+04  0.7818609E-02  0.8334966E-01
       -3   -1    0    0    0  501  0.00000000000E+00  0.00000000000E+00  0.11862356926E+04  0.11862356969E+04  0.10100000352E+00 0.  1.
        3   -1    0    0  501    0  0.00000000000E+00  0.00000000000E+00 -0.15365076736E+04  0.15365076769E+04  0.10100000352E+00 0. -1.
    10030    2    1    2    0    0  0.00000000000E+00  0.00000000000E+00 -0.35027198107E+03  0.27227433738E+04  0.27001187046E+04 0.  0.
        2    1    3    3  502    0 -0.75201450291E+03  0.49558965551E+03 -0.11893094357E+04  0.14918417654E+04  0.25500000920E-02 0. -1.
       -2    1    3    3    0  502  0.75201450291E+03 -0.49558965551E+03  0.83903745463E+03  0.12309016084E+04  0.25500000920E-02 0.  1.
</event>
<event>
 5   0  0.4826140E-06  0.2675659E+04  0.7818609E-02  0.8342946E-01
       -1   -1    0    0    0  501  0.00000000000E+00  0.00000000000E+00  0.95642753389E+03  0.95642753391E+03  0.50400001928E-02 0.  1.
        1   -1    0    0  501    0  0.00000000000E+00  0.00000000000E+00 -0.18713264903E+04  0.18713264903E+04  0.50400001928E-02 0. -1.
    10030    2    1    2    0    0  0.00000000000E+00  0.00000000000E+00 -0.91489895644E+03  0.28277540242E+04  0.26756593059E+04 0.  0.
        1    1    3    3  502    0  0.69526556319E+03 -0.66232079276E+03  0.52701920808E+03  0.10953594303E+04  0.50400001928E-02 0.  1.
       -1    1    3    3    0  502 -0.69526556319E+03  0.66232079276E+03 -0.14419181645E+04  0.17323945939E+04  0.50400001928E-02 0. -1.
</event>
<event>
 5   0  0.5152288E-06  0.2715266E+04  0.7818609E-02  0.8330069E-01
       -1   -1    0    0    0  501  0.00000000000E+00  0.00000000000E+00  0.10034981875E+04  0.10034981875E+04  0.50400001928E-02 0.  1.
        1   -1    0    0  501    0  0.00000000000E+00  0.00000000000E+00 -0.18367425807E+04  0.18367425807E+04  0.50400001928E-02 0. -1.
    10030    2    1    2    0    0  0.00000000000E+00  0.00000000000E+00 -0.83324439321E+03  0.28402407682E+04  0.27152663594E+04 0.  0.
        3    1    3    3  502    0  0.12669101312E+04 -0.28654549144E+03 -0.82976726112E+03  0.15413251821E+04  0.10100000352E+00 0. -1.
       -3    1    3    3    0  502 -0.12669101312E+04  0.28654549144E+03 -0.34771320953E+01  0.12989155861E+04  0.10100000352E+00 0.  1.
</event>
<event>
 5   0  0.1232559E-05  0.2692301E+04  0.7818609E-02  0.8337507E-01
        2   -1    0    0  501    0  0.00000000000E+00  0.00000000000E+00  0.15459569171E+04  0.15459569171E+04  0.25500000920E-02 0.  1.
       -2   -1    0    0    0  501  0.00000000000E+00  0.00000000000E+00 -0.11721680069E+04  0.11721680069E+04  0.25500000920E-02 0. -1.
    10030    2    1    2    0    0  0.00000000000E+00  0.00000000000E+00  0.37378891014E+03  0.27181249240E+04  0.26923010517E+04 0.  0.
        3    1    3    3  502    0 -0.44744503308E+03  0.61082748439E+03  0.13105859236E+04  0.15135893587E+04  0.10100000352E+00 0.  1.
       -3    1    3    3    0  502  0.44744503308E+03 -0.61082748439E+03 -0.93679701349E+03  0.12045355653E+04  0.10100000352E+00 0. -1.
</event>
<event>
 5   0  0.1286641E-05  0.2665137E+04  0.7818609E-02  0.8346406E-01
       -2   -1    0    0    0  501  0.00000000000E+00  0.00000000000E+00  0.86947005551E+03  0.86947005552E+03  0.25500000920E-02 0.  1.
        2   -1    0    0  501    0  0.00000000000E+00  0.00000000000E+00 -0.20423227055E+04  0.20423227055E+04  0.25500000920E-02 0. -1.
    10030    2    1    2    0    0  0.00000000000E+00  0.00000000000E+00 -0.11728526500E+04  0.29117927610E+04  0.26651367216E+04 0.  0.
        4    1    3    3  502    0 -0.39760780438E+03 -0.18665459083E+03  0.78810507271E+03  0.90224338231E+03  0.12699999809E+01 0.  1.
       -4    1    3    3    0  502  0.39760780438E+03  0.18665459083E+03 -0.19609577227E+04  0.20095493787E+04  0.12699999809E+01 0. -1.
</event>
<event>
 5   0  0.4826140E-06  0.2633920E+04  0.7818609E-02  0.8356770E-01
        1   -1    0    0  501    0  0.00000000000E+00  0.00000000000E+00  0.86476664168E+03  0.86476664170E+03  0.50400001928E-02 0.  1.
       -1   -1    0    0    0  501  0.00000000000E+00  0.00000000000E+00 -0.20056090538E+04  0.20056090538E+04  0.50400001928E-02 0. -1.
    10030    2    1    2    0    0  0.00000000000E+00  0.00000000000E+00 -0.11408424121E+04  0.28703756955E+04  0.26339201248E+04 0.  0.
        1    1    3    3  502    0  0.46556279172E+03  0.10217526320E+04 -0.13204327774E+04  0.17332829757E+04  0.50400001928E-02 0. -1.
       -1    1    3    3    0  502 -0.46556279172E+03 -0.10217526320E+04  0.17959036533E+03  0.11370927198E+04  0.50400001928E-02 0.  1.
</event>
<event>
 5   0  0.4824715E-06  0.2740806E+04  0.7818609E-02  0.8321885E-01
        1   -1    0    0  501    0  0.00000000000E+00  0.00000000000E+00  0.23202081972E+04  0.23202081972E+04  0.50400001928E-02 0. -1.
       -1   -1    0    0    0  501  0.00000000000E+00  0.00000000000E+00 -0.80941221715E+03  0.80941221716E+03  0.50400001928E-02 0.  1.
    10030    2    1    2    0    0  0.00000000000E+00  0.00000000000E+00  0.15107959801E+04  0.31296204144E+04  0.27408063494E+04 0.  0.
        5    1    3    3  502    0  0.74137549267E+03 -0.88773910503E+03 -0.83900617427E+02  0.11596463872E+04  0.46999998093E+01 0.  1.
       -5    1    3    3    0  502 -0.74137549267E+03  0.88773910503E+03  0.15946965975E+04  0.19699740272E+04  0.46999998093E+01 0. -1.
</event>
<event>
 5   0  0.1232559E-05  0.2709608E+04  0.7818609E-02  0.8331894E-01
       -2   -1    0    0    0  501  0.00000000000E+00  0.00000000000E+00  0.10624973842E+04  0.10624973842E+04  0.25500000920E-02 0. -1.
        2   -1    0    0  501    0  0.00000000000E+00  0.00000000000E+00 -0.17275281488E+04  0.17275281488E+04  0.25500000920E-02 0.  1.
    10030    2    1    2    0    0  0.00000000000E+00  0.00000000000E+00 -0.66503076461E+03  0.27900255330E+04  0.27096081925E+04 0.  0.
        3    1    3    3  502    0  0.35509064859E+03  0.97113500269E+02 -0.16750416318E+04  0.17150174574E+04  0.10100000352E+00 0.  1.
       -3    1    3    3    0  502 -0.35509064859E+03 -0.97113500269E+02  0.10100108672E+04  0.10750080756E+04  0.10100000352E+00 0. -1.
</event>
<event>
 5   0  0.4756800E-06  0.2666604E+04  0.7818609E-02  0.8345923E-01
       -1   -1    0    0    0  501  0.00000000000E+00  0.00000000000E+00  0.12681010908E+04  0.12681010908E+04  0.50400001928E-02 0.  1.
        1   -1    0    0  501    0  0.00000000000E+00  0.00000000000E+00 -0.14018553480E+04  0.14018553480E+04  0.50400001928E-02 0. -1.
    10030    2    1    2    0    0  0.00000000000E+00  0.00000000000E+00 -0.13375425717E+03  0.26699564389E+04  0.26666040546E+04 0.  0.
        4    1    3    3  502    0 -0.73726307608E+03  0.80940046301E+03 -0.82875866092E+03  0.13731454707E+04  0.12699999809E+01 0. -1.
       -4    1    3    3    0  502  0.73726307608E+03 -0.80940046301E+03  0.69500440375E+03  0.12968109681E+04  0.12699999809E+01 0.  1.
</event>
<event>
 5   0  0.1232559E-05  0.2612861E+04  0.7818609E-02  0.8363846E-01
       -2   -1    0    0    0  501  0.00000000000E+00  0.00000000000E+00  0.22295123170E+04  0.22295123170E+04  0.25500000920E-02 0. -1.
        2   -1    0    0  501    0  0.00000000000E+00  0.00000000000E+00 -0.76553099250E+03  0.76553099251E+03  0.25500000920E-02 0.  1.
    10030    2    1    2    0    0  0.00000000000E+00  0.00000000000E+00  0.14639813245E+04  0.29950433096E+04  0.26128610961E+04 0.  0.
        3    1    3    3  502    0 -0.27479118841E+02 -0.96578851895E+03  0.17399640167E+04  0.19902204287E+04  0.10100000352E+00 0. -1.
       -3    1    3    3    0  502  0.27479118841E+02  0.96578851895E+03 -0.27598269214E+03  0.10048228808E+04  0.10100000352E+00 0.  1.
</event>
<event>
 5   0  0.4824715E-06  0.2698961E+04  0.7818609E-02  0.8335342E-01
        1   -1    0    0  501    0  0.00000000000E+00  0.00000000000E+00  0.11074617610E+04  0.11074617610E+04  0.50400001928E-02 0.  1.
       -1   -1    0    0    0  501  0.00000000000E+00  0.00000000000E+00 -0.16443886071E+04  0.16443886071E+04  0.50400001928E-02 0. -1.
    10030    2    1    2    0    0  0.00000000000E+00  0.00000000000E+00 -0.53692684613E+03  0.27518503682E+04  0.26989609131E+04 0.  0.
        5    1    3    3  502    0  0.10156124850E+04 -0.17979062559E+03  0.61880912399E+03  0.12028051424E+04  0.46999998093E+01 0.  1.
       -5    1    3    3    0  502 -0.10156124850E+04  0.17979062559E+03 -0.11557359701E+04  0.15490452257E+04  0.46999998093E+01 0. -1.
</event>
<event>
 5   0  0.4846214E-06  0.2772293E+04  0.7818609E-02  0.8311922E-01
       -1   -1    0    0    0  501  0.00000000000E+00  0.00000000000E+00  0.71071683832E+03  0.71071683834E+03  0.50400001928E-02 0. -1.
        1   -1    0    0  501    0  0.00000000000E+00  0.00000000000E+00 -0.27034704789E+04  0.27034704789E+04  0.50400001928E-02 0.  1.
    10030    2    1    2    0    0  0.00000000000E+00  0.00000000000E+00 -0.19927536406E+04  0.34141873173E+04  0.27722929076E+04 0.  0.
        2    1    3    3  502    0 -0.52827083741E+03  0.55624662427E+03 -0.24182161882E+04  0.25369765307E+04  0.25500000920E-02 0.  1.
       -2    1    3    3    0  502  0.52827083741E+03 -0.55624662427E+03  0.42546254757E+03  0.87721078656E+03  0.25500000920E-02 0. -1.
</event>
<event>
 5   0  0.1261364E-05  0.2713318E+04  0.7818609E-02  0.8330697E-01
       -2   -1    0    0    0  501  0.00000000000E+00  0.00000000000E+00  0.90571671070E+03  0.90571671071E+03  0.25500000920E-02 0. -1.
        2   -1    0    0  501    0  0.00000000000E+00  0.00000000000E+00 -0.20321181814E+04  0.20321181814E+04  0.25500000920E-02 0.  1.
    10030    2    1    2    0    0  0.00000000000E+00  0.00000000000E+00 -0.11264014707E+04  0.29378348921E+04  0.27133178178E+04 0.  0.
        5    1    3    3  502    0 -0.61761583588E+02 -0.61863646413E+03  0.74238470271E+03  0.96834018030E+03  0.46999998093E+01 0. -1.
       -5    1    3    3    0  502  0.61761583588E+02  0.61863646413E+03 -0.18687861734E+04  0.19694947118E+04  0.46999998093E+01 0.  1.
</event>
<event>
 5   0  0.4826140E-06  0.2830165E+04  0.7818609E-02  0.8293964E-01
        1   -1    0    0  501    0  0.00000000000E+00  0.00000000000E+00  0.24878581649E+04  0.24878581649E+04  0.50400001928E-02 0. -1.
       -1   -1    0    0    0  501  0.00000000000E+00  0.00000000000E+00 -0.80489258801E+03  0.80489258802E+03  0.50400001928E-02 0.  1.
    10030    2    1    2    0    0  0.00000000000E+00  0.00000000000E+00  0.16829655769E+04  0.32927507529E+04  0.28301650814E+04 0.  0.
        1    1    3    3  502    0 -0.42917139514E+02  0.23563043050E+03 -0.78113973455E+03  0.81703296479E+03  0.50400001928E-02 0.  1.
       -1    1    3    3    0  502  0.42917139514E+02 -0.23563043050E+03  0.24641053115E+04  0.24757177882E+04  0.50400001928E-02 0. -1.
</event>
<event>
 5   0  0.4826140E-06  0.2678285E+04  0.7818609E-02  0.8342085E-01
       -1   -1    0    0    0  501  0.00000000000E+00  0.00000000000E+00  0.14477808859E+04  0.14477808859E+04  0.50400001928E-02 0.  1.
        1   -1    0    0  501    0  0.00000000000E+00  0.00000000000E+00 -0.12386557051E+04  0.12386557051E+04  0.50400001928E-02 0. -1.
    10030    2    1    2    0    0  0.00000000000E+00  0.00000000000E+00  0.20912518081E+03  0.26864365909E+04  0.26782845659E+04 0.  0.
        1    1    3    3  502    0  0.27298393408E+03  0.46680267019E+03  0.13333943864E+04  0.14388764891E+04  0.50400001928E-02 0.  1.
       -1    1    3    3    0  502 -0.27298393408E+03 -0.46680267019E+03 -0.11242692056E+04  0.12475601019E+04  0.50400001928E-02 0. -1.
</event>
<event>
 5   0  0.1232559E-05  0.2699932E+04  0.7818609E-02  0.8335027E-01
        2   -1    0    0  501    0  0.00000000000E+00  0.00000000000E+00  0.26134332699E+04  0.26134332699E+04  0.25500000920E-02 0. -1.
       -2   -1    0    0    0  501  0.00000000000E+00  0.00000000000E+00 -0.69732323906E+03  0.69732323906E+03  0.25500000920E-02 0.  1.
    10030    2    1    2    0    0  0.00000000000E+00  0.00000000000E+00  0.19161100308E+04  0.33107565090E+04  0.26999316679E+04 0.  0.
        3    1    3    3  502    0  0.61136830098E+03  0.10834445269E+04  0.16008471956E+04  0.20273961123E+04  0.10100000352E+00 0. -1.
       -3    1    3    3    0  502 -0.61136830098E+03 -0.10834445269E+04  0.31526283519E+03  0.12833603966E+04  0.10100000352E+00 0.  1.
</event>
<event>
 5   0  0.4756800E-06  0.2514873E+04  0.7818609E-02  0.8397706E-01
        1   -1    0    0  501    0  0.00000000000E+00  0.00000000000E+00  0.17749199334E+04  0.17749199334E+04  0.50400001928E-02 0. -1.
       -1   -1    0    0    0  501  0.00000000000E+00  0.00000000000E+00 -0.89082732013E+03  0.89082732014E+03  0.50400001928E-02 0.  1.
    10030    2    1    2    0    0  0.00000000000E+00  0.00000000000E+00  0.88409261330E+03  0.26657472536E+04  0.25148734901E+04 0.  0.
        4    1    3    3  502    0  0.15128579369E+02 -0.40306849072E+03 -0.82039216825E+03  0.91418707317E+03  0.12699999809E+01 0.  1.
       -4    1    3    3    0  502 -0.15128579369E+02  0.40306849072E+03  0.17044847816E+04  0.17515601804E+04  0.12699999809E+01 0. -1.
</event>
<event>
 5   0  0.4826140E-06  0.2698326E+04  0.7818609E-02  0.8335548E-01
       -1   -1    0    0    0  501  0.00000000000E+00  0.00000000000E+00  0.89612937723E+03  0.89612937724E+03  0.50400001928E-02 0. -1.
        1   -1    0    0  501    0  0.00000000000E+00  0.00000000000E+00 -0.20312261607E+04  0.20312261607E+04  0.50400001928E-02 0.  1.
    10030    2    1    2    0    0  0.00000000000E+00  0.00000000000E+00 -0.11350967834E+04  0.29273555379E+04  0.26983264698E+04 0.  0.
        1    1    3    3  502    0 -0.54831571641E+03 -0.32954513038E+03 -0.18562226372E+04  0.19633676672E+04  0.50400001928E-02 0.  1.
       -1    1    3    3    0  502  0.54831571641E+03  0.32954513038E+03  0.72112585377E+03  0.96398787068E+03  0.50400001928E-02 0. -1.
</event>
<event>
 5   0  0.1261364E-05  0.2698378E+04  0.7818609E-02  0.8335532E-01
       -2   -1    0    0    0  501  0.00000000000E+00  0.00000000000E+00  0.10982011668E+04  0.10982011668E+04  0.25500000920E-02 0.  1.
        2   -1    0    0  501    0  0.00000000000E+00  0.00000000000E+00 -0.16575382543E+04  0.16575382543E+04  0.25500000920E-02 0. -1.
    10030    2    1    2    0    0  0.00000000000E+00  0.00000000000E+00 -0.55933708746E+03  0.27557394211E+04  0.26983776199E+04 0.  0.
        5    1    3    3  502    0  0.60599648352E+03 -0.11939224477E+04 -0.44935048994E+03  0.14123103419E+04  0.46999998093E+01 0. -1.
       -5    1    3    3    0  502 -0.60599648352E+03  0.11939224477E+04 -0.10998659752E+03  0.13434290792E+04  0.46999998093E+01 0.  1.
</event>
<event>
 5   0  0.4824715E-06  0.2698548E+04  0.7818609E-02  0.8335476E-01
       -1   -1    0    0    0  501  0.00000000000E+00  0.00000000000E+00  0.13252222080E+04  0.13252222080E+04  0.50400001928E-02 0.  1.
        1   -1    0    0  501    0  0.00000000000E+00  0.00000000000E+00 -0.13737625329E+04  0.13737625330E+04  0.50400001928E-02 0. -1.
    10030    2    1    2    0    0  0.00000000000E+00  0.00000000000E+00 -0.48540324994E+02  0.26989847409E+04  0.26985482150E+04 0.  0.
        5    1    3    3  502    0  0.92017274001E+03 -0.77269986233E+03 -0.63815734452E+03  0.13605329232E+04  0.46999998093E+01 0. -1.
       -5    1    3    3    0  502 -0.92017274001E+03  0.77269986233E+03  0.58961701953E+03  0.13384518177E+04  0.46999998093E+01 0.  1.
</event>
<event>
 5   0  0.1232559E-05  0.2698877E+04  0.7818609E-02  0.8335369E-01
       -2   -1    0    0    0  501  0.00000000000E+00  0.00000000000E+00  0.10015279480E+04  0.10015279480E+04  0.25500000920E-02 0.  1.
        2   -1    0    0  501    0  0.00000000000E+00  0.00000000000E+00 -0.18182065023E+04  0.18182065023E+04  0.25500000920E-02 0. -1.
    10030    2    1    2    0    0  0.00000000000E+00  0.00000000000E+00 -0.81667855438E+03  0.28197344503E+04  0.26988772682E+04 0.  0.
        3    1    3    3  502    0  0.89888357410E+03 -0.44587332084E+03 -0.13510705964E+04  0.16829101178E+04  0.10100000352E+00 0. -1.
       -3    1    3    3    0  502 -0.89888357410E+03  0.44587332084E+03  0.53439204205E+03  0.11368243324E+04  0.10100000352E+00 0.  1.
</event>
<event>
 5   0  0.4846214E-06  0.2674104E+04  0.7818609E-02  0.8343457E-01
       -1   -1    0    0    0  501  0.00000000000E+00  0.00000000000E+00  0.14082743270E+04  0.14082743270E+04  0.50400001928E-02 0. -1.
        1   -1    0    0  501    0  0.00000000000E+00  0.00000000000E+00 -0.12694315558E+04  0.12694315559E+04  0.50400001928E-02 0.  1.
    10030    2    1    2    0    0  0.00000000000E+00  0.00000000000E+00  0.13884277114E+03  0.26777058829E+04  0.26741038649E+04 0.  0.
        2    1    3    3  502    0  0.91088186285E+03  0.34745500601E+03  0.98568240980E+03  0.13863623488E+04  0.25500000920E-02 0. -1.
       -2    1    3    3    0  502 -0.91088186285E+03 -0.34745500601E+03 -0.84683963866E+03  0.12913435340E+04  0.25500000920E-02 0.  1.
</event>
<event>
 5   0  0.4756800E-06  0.2699352E+04  0.7818609E-02  0.8335215E-01
        1   -1    0    0  501    0  0.00000000000E+00  0.00000000000E+00  0.16170521947E+04  0.16170521947E+04  0.50400001928E-02 0.  1.
       -1   -1    0    0    0  501  0.00000000000E+00  0.00000000000E+00 -0.11265099555E+04  0.11265099555E+04  0.50400001928E-02 0. -1.
    10030    2    1    2    0    0  0.00000000000E+00  0.00000000000E+00  0.49054223923E+03  0.27435621502E+04  0.26993520674E+04 0.  0.
        4    1    3    3  502    0  0.89680495843E+03  0.67189169891E+03 -0.51933042147E+03  0.12350721793E+04  0.12699999809E+01 0. -1.
       -4    1    3    3    0  502 -0.89680495843E+03 -0.67189169891E+03  0.10098726607E+04  0.15084899709E+04  0.12699999809E+01 0.  1.
</event>
<event>
 5   0  0.4826140E-06  0.2657237E+04  0.7818609E-02  0.8349015E-01
        1   -1    0    0  501    0  0.00000000000E+00  0.00000000000E+00  0.14924970277E+04  0.14924970278E+04  0.50400001928E-02 0. -1.
       -1   -1    0    0    0  501  0.00000000000E+00  0.00000000000E+00 -0.11827342220E+04  0.11827342220E+04  0.50400001928E-02 0.  1.
    10030    2    1    2    0    0  0.00000000000E+00  0.00000000000E+00  0.30976280579E+03  0.26752312497E+04  0.26572371448E+04 0.  0.
        1    1    3    3  502    0  0.41719958801E+03  0.12589913617E+03 -0.11087359345E+04  0.11913024222E+04  0.50400001928E-02 0.  1.
       -1    1    3    3    0  502 -0.41719958801E+03 -0.12589913617E+03  0.14184987403E+04  0.14839288275E+04  0.50400001928E-02 0. -1.
</event>
<event>
 5   0  0.4756800E-06  0.2747014E+04  0.7818609E-02  0.8319910E-01
        1   -1    0    0  501    0  0.00000000000E+00  0.00000000000E+00  0.10727322539E+04  0.10727322539E+04  0.50400001928E-02 0. -1.
       -1   -1    0    0    0  501  0.00000000000E+00  0.00000000000E+00 -0.17586129472E+04  0.17586129472E+04  0.50400001928E-02 0.  1.
    10030    2    1    2    0    0  0.00000000000E+00  0.00000000000E+00 -0.68588069328E+03  0.28313452011E+04  0.27470135279E+04 0.  0.
        4    1    3    3  502    0  0.85702248016E+03  0.32189217378E+03  0.71241587578E+03  0.11600172826E+04  0.12699999809E+01 0. -1.
       -4    1    3    3    0  502 -0.85702248016E+03 -0.32189217378E+03 -0.13982965691E+04  0.16713279185E+04  0.12699999809E+01 0.  1.
</event>
<event>
 5   0  0.1220908E-05  0.2673939E+04  0.7818609E-02  0.8343511E-01
       -2   -1    0    0    0  501  0.00000000000E+00  0.00000000000E+00  0.13196257572E+04  0.13196257572E+04  0.25500000920E-02 0. -1.
        2   -1    0    0  501    0  0.00000000000E+00  0.00000000000E+00 -0.13545408110E+04  0.13545408110E+04  0.25500000920E-02 0.  1.
    10030    2    1    2    0    0  0.00000000000E+00  0.00000000000E+00 -0.34915053882E+02  0.26741665682E+04  0.26739386256E+04 0.  0.
        2    1    3    3  502    0 -0.94001001036E+03  0.36127357374E+03  0.86202037742E+03  0.13256004473E+04  0.25500000920E-02 0. -1.
       -2    1    3    3    0  502  0.94001001036E+03 -0.36127357374E+03 -0.89693543130E+03  0.13485661210E+04  0.25500000920E-02 0.  1.
</event>
<event>
 5   0  0.1276517E-05  0.2770839E+04  0.7818609E-02  0.8312379E-01
        2   -1    0    0  501    0  0.00000000000E+00  0.00000000000E+00  0.13082708529E+04  0.13082708529E+04  0.25500000920E-02 0.  1.
       -2   -1    0    0    0  501  0.00000000000E+00  0.00000000000E+00 -0.14671173434E+04  0.14671173434E+04  0.25500000920E-02 0. -1.
    10030    2    1    2    0    0  0.00000000000E+00  0.00000000000E+00 -0.15884649050E+03  0.27753881962E+04  0.27708387597E+04 0.  0.
        1    1    3    3  502    0 -0.12060946789E+04  0.21559146241E+03  0.56835554177E+03  0.13506191451E+04  0.50400001928E-02 0.  1.
       -1    1    3    3    0  502  0.12060946789E+04 -0.21559146241E+03 -0.72720203228E+03  0.14247690511E+04  0.50400001928E-02 0. -1.
</event>
<event>
 5   0  0.1232559E-05  0.2714543E+04  0.7818609E-02  0.8330302E-01
        2   -1    0    0  501    0  0.00000000000E+00  0.00000000000E+00  0.95746412403E+03  0.95746412404E+03  0.25500000920E-02 0.  1.
       -2   -1    0    0    0  501  0.00000000000E+00  0.00000000000E+00 -0.19240264153E+04  0.19240264154E+04  0.25500000920E-02 0. -1.
    10030    2    1    2    0    0  0.00000000000E+00  0.00000000000E+00 -0.96656229131E+03  0.28814905394E+04  0.27145432517E+04 0.  0.
        3    1    3    3  502    0 -0.42021300349E+02  0.62702566934E+03  0.79372681089E+03  0.10123878902E+04  0.10100000352E+00 0.  1.
       -3    1    3    3    0  502  0.42021300349E+02 -0.62702566934E+03 -0.17602891022E+04  0.18691026492E+04  0.10100000352E+00 0. -1.
</event>
<event>
 5   0  0.1276517E-05  0.2636043E+04  0.7818609E-02  0.8356060E-01
       -2   -1    0    0    0  501  0.00000000000E+00  0.00000000000E+00  0.80468827755E+03  0.80468827756E+03  0.25500000920E-02 0. -1.
        2   -1    0    0  501    0  0.00000000000E+00  0.00000000000E+00 -0.21588240655E+04  0.21588240655E+04  0.25500000920E-02 0.  1.
    10030    2    1    2    0    0  0.00000000000E+00  0.00000000000E+00 -0.13541357880E+04  0.29635123431E+04  0.26360428061E+04 0.  0.
        1    1    3    3  502    0  0.68812688257E+03  0.56939115862E+03 -0.17667313683E+04  0.19796627556E+04  0.50400001928E-02 0.  1.
       -1    1    3    3    0  502 -0.68812688257E+03 -0.56939115862E+03  0.41259558029E+03  0.98384958755E+03  0.50400001928E-02 0. -1.
</event>
<event>
 5   0  0.1286641E-05  0.2643075E+04  0.7818609E-02  0.8353715E-01
        2   -1    0    0  501    0  0.00000000000E+00  0.00000000000E+00  0.11278397276E+04  0.11278397276E+04  0.25500000920E-02 0. -1.
       -2   -1    0    0    0  501  0.00000000000E+00  0.00000000000E+00 -0.15485015396E+04  0.15485015396E+04  0.25500000920E-02 0.  1.
    10030    2    1    2    0    0  0.00000000000E+00  0.00000000000E+00 -0.42066181203E+03  0.26763412672E+04  0.26430751443E+04 0.  0.
        4    1    3    3  502    0 -0.17562579172E+03  0.55560274330E+03 -0.14113968527E+04  0.15269517071E+04  0.12699999809E+01 0.  1.
       -4    1    3    3    0  502  0.17562579172E+03 -0.55560274330E+03  0.99073504067E+03  0.11493895601E+04  0.12699999809E+01 0. -1.
</event>
<event>
 5   0  0.5152288E-06  0.2742585E+04  0.7818609E-02  0.8321318E-01
       -1   -1    0    0    0  501  0.00000000000E+00  0.00000000000E+00  0.96510233549E+03  0.96510233551E+03  0.50400001928E-02 0. -1.
        1   -1    0    0  501    0  0.00000000000E+00  0.00000000000E+00 -0.19484391168E+04  0.19484391168E+04  0.50400001928E-02 0.  1.
    10030    2    1    2    0    0  0.00000000000E+00  0.00000000000E+00 -0.98333678135E+03  0.29135414524E+04  0.27425850158E+04 0.  0.
        3    1    3    3  502    0 -0.17839987923E+02 -0.11936334140E+04  0.22520179047E+03  0.12148229701E+04  0.10100000352E+00 0. -1.
       -3    1    3    3    0  502  0.17839987923E+02  0.11936334140E+04 -0.12085385718E+04  0.16987184822E+04  0.10100000352E+00 0.  1.
</event>
<event>
 5   0  0.4826140E-06  0.2696190E+04  0.7818609E-02  0.8336242E-01
        1   -1    0    0  501    0  0.00000000000E+00  0.00000000000E+00  0.13092817732E+04  0.13092817732E+04  0.50400001928E-02 0. -1.
       -1   -1    0    0    0  501  0.00000000000E+00  0.00000000000E+00 -0.13880585844E+04  0.13880585844E+04  0.50400001928E-02 0.  1.
    10030    2    1    2    0    0  0.00000000000E+00  0.00000000000E+00 -0.78776811219E+02  0.26973403576E+04  0.26961897594E+04 0.  0.
        1    1    3    3  502    0  0.58892394711E+03 -0.15005936782E+02 -0.12524664665E+04  0.13840985670E+04  0.50400001928E-02 0.  1.
       -1    1    3    3    0  502 -0.58892394711E+03  0.15005936782E+02  0.11736896552E+04  0.13132417906E+04  0.50400001928E-02 0. -1.
</event>
<event>
 5   0  0.4188000E-06  0.2709494E+04  0.7818609E-02  0.8331931E-01
       -3   -1    0    0    0  501  0.00000000000E+00  0.00000000000E+00  0.97891750215E+03  0.97891750736E+03  0.10100000352E+00 0.  1.
        3   -1    0    0  501    0  0.00000000000E+00  0.00000000000E+00 -0.18748667659E+04  0.18748667686E+04  0.10100000352E+00 0. -1.
    10030    2    1    2    0    0  0.00000000000E+00  0.00000000000E+00 -0.89594926373E+03  0.28537842760E+04  0.27094943459E+04 0.  0.
        4    1    3    3  502    0 -0.46533296392E+03  0.71170459141E+03 -0.15587851277E+04  0.17756325296E+04  0.12699999809E+01 0. -1.
       -4    1    3    3    0  502  0.46533296392E+03 -0.71170459141E+03  0.66283586400E+03  0.10781517464E+04  0.12699999809E+01 0.  1.
</event>
<event>
 5   0  0.4826140E-06  0.2731491E+04  0.7818609E-02  0.8324859E-01
       -1   -1    0    0    0  501  0.00000000000E+00  0.00000000000E+00  0.10274578533E+04  0.10274578533E+04  0.50400001928E-02 0.  1.
        1   -1    0    0  501    0  0.00000000000E+00  0.00000000000E+00 -0.18154129633E+04  0.18154129633E+04  0.50400001928E-02 0. -1.
    10030    2    1    2    0    0  0.00000000000E+00  0.00000000000E+00 -0.78795510995E+03  0.28428708166E+04  0.27314906598E+04 0.  0.
        1    1    3    3  502    0  0.28776041936E+03 -0.83731429830E+02  0.99281278730E+03  0.10370603849E+04  0.50400001928E-02 0.  1.
       -1    1    3    3    0  502 -0.28776041936E+03  0.83731429830E+02 -0.17807678973E+04  0.18058104317E+04  0.50400001928E-02 0. -1.
</event>
<event>
 5   0  0.4756800E-06  0.2702390E+04  0.7818609E-02  0.8334230E-01
       -1   -1    0    0    0  501  0.00000000000E+00  0.00000000000E+00  0.14193998020E+04  0.14193998020E+04  0.50400001928E-02 0.  1.
        1   -1    0    0  501    0  0.00000000000E+00  0.00000000000E+00 -0.12862675096E+04  0.12862675096E+04  0.50400001928E-02 0. -1.
    10030    2    1    2    0    0  0.00000000000E+00  0.00000000000E+00  0.13313229237E+03  0.27056673116E+04  0.27023899411E+04 0.  0.
        4    1    3    3  502    0  0.70999572234E+03  0.65775522489E+03 -0.87744018781E+03  0.13063838478E+04  0.12699999809E+01 0. -1.
       -4    1    3    3    0  502 -0.70999572234E+03 -0.65775522489E+03  0.10105724802E+04  0.13992834638E+04  0.12699999809E+01 0.  1.
</event>
<event>
 5   0  0.5152288E-06  0.2710512E+04  0.7818609E-02  0.8331602E-01
       -1   -1    0    0    0  501  0.00000000000E+00  0.00000000000E+00  0.12824178605E+04  0.12824178605E+04  0.50400001928E-02 0.  1.
        1   -1    0    0  501    0  0.00000000000E+00  0.00000000000E+00 -0.14322316574E+04  0.14322316575E+04  0.50400001928E-02 0. -1.
    10030    2    1    2    0    0  0.00000000000E+00  0.00000000000E+00 -0.14981379692E+03  0.27146495180E+04  0.27105124666E+04 0.  0.
        3    1    3    3  502    0  0.11471414973E+04  0.67970755418E+03 -0.31772998822E+03  0.13707254757E+04  0.10100000352E+00 0.  1.
       -3    1    3    3    0  502 -0.11471414973E+04 -0.67970755418E+03  0.16791619129E+03  0.13439240423E+04  0.10100000352E+00 0. -1.
</event>
<event>
 5   0  0.1286641E-05  0.2735722E+04  0.7818609E-02  0.8323507E-01
       -2   -1    0    0    0  501  0.00000000000E+00  0.00000000000E+00  0.10397560783E+04  0.10397560784E+04  0.25500000920E-02 0. -1.
        2   -1    0    0  501    0  0.00000000000E+00  0.00000000000E+00 -0.17995023317E+04  0.17995023317E+04  0.25500000920E-02 0.  1.
    10030    2    1    2    0    0  0.00000000000E+00  0.00000000000E+00 -0.75974625337E+03  0.28392584101E+04  0.27357218334E+04 0.  0.
        4    1    3    3  502    0 -0.80121437995E+03  0.56196993236E+03 -0.13717018168E+04  0.16850288350E+04  0.12699999809E+01 0.  1.
       -4    1    3    3    0  502  0.80121437995E+03 -0.56196993236E+03  0.61195556344E+03  0.11542295751E+04  0.12699999809E+01 0. -1.
</event>
<event>
 5   0  0.4846214E-06  0.2616536E+04  0.7818609E-02  0.8362606E-01
        1   -1    0    0  501    0  0.00000000000E+00  0.00000000000E+00  0.17600714964E+04  0.17600714964E+04  0.50400001928E-02 0. -1.
       -1   -1    0    0    0  501  0.00000000000E+00  0.00000000000E+00 -0.97244093432E+03  0.97244093433E+03  0.50400001928E-02 0.  1.
    10030    2    1    2    0    0  0.00000000000E+00  0.00000000000E+00  0.78763056209E+03  0.27325124308E+04  0.26165363139E+04 0.  0.
        2    1    3    3  502    0  0.45745208905E+03  0.53806013619E+02 -0.88496314772E+03  0.99765588943E+03  0.25500000920E-02 0.  1.
       -2    1    3    3    0  502 -0.45745208905E+03 -0.53806013619E+02  0.16725937098E+04  0.17348565413E+04  0.25500000920E-02 0. -1.
</event>
<event>
 5   0  0.5152288E-06  0.2734377E+04  0.7818609E-02  0.8323936E-01
       -1   -1    0    0    0  501  0.00000000000E+00  0.00000000000E+00  0.92737728150E+03  0.92737728151E+03  0.50400001928E-02 0.  1.
        1   -1    0    0  501    0  0.00000000000E+00  0.00000000000E+00 -0.20155809112E+04  0.20155809112E+04  0.50400001928E-02 0. -1.
    10030    2    1    2    0    0  0.00000000000E+00  0.00000000000E+00 -0.10882036297E+04  0.29429581927E+04  0.27343766720E+04 0.  0.
        3    1    3    3  502    0  0.63208094677E+03  0.68239843728E+03  0.53433515732E+03  0.10727105952E+04  0.10100000352E+00 0.  1.
       -3    1    3    3    0  502 -0.63208094677E+03 -0.68239843728E+03 -0.16225387870E+04  0.18702475975E+04  0.10100000352E+00 0. -1.
</event>
<event>
 5   0  0.1261364E-05  0.2630482E+04  0.7818609E-02  0.8357920E-01
        2   -1    0    0  501    0  0.00000000000E+00  0.00000000000E+00  0.25569888973E+04  0.25569888973E+04  0.25500000920E-02 0. -1.
       -2   -1    0    0    0  501  0.00000000000E+00  0.00000000000E+00 -0.67652168872E+03  0.67652168872E+03  0.25500000920E-02 0.  1.
    10030    2    1    2    0    0  0.00000000000E+00  0.00000000000E+00  0.18804672086E+04  0.32335105860E+04  0.26304816645E+04 0.  0.
        5    1    3    3  502    0 -0.18967300459E+03 -0.11588334430E+04  0.21199908942E+03  0.11932462031E+04  0.46999998093E+01 0.  1.
       -5    1    3    3    0  502  0.18967300459E+03  0.11588334430E+04  0.16684681191E+04  0.20402643829E+04  0.46999998093E+01 0. -1.
</event>
<event>
 5   0  0.4846214E-06  0.2705004E+04  0.7818609E-02  0.8333383E-01
        1   -1    0    0  501    0  0.00000000000E+00  0.00000000000E+00  0.21959113677E+04  0.21959113677E+04  0.50400001928E-02 0. -1.
       -1   -1    0    0    0  501  0.00000000000E+00  0.00000000000E+00 -0.83303087523E+03  0.83303087524E+03  0.50400001928E-02 0.  1.
    10030    2    1    2    0    0  0.00000000000E+00  0.00000000000E+00  0.13628804924E+04  0.30289422429E+04  0.27050042281E+04 0.  0.
        2    1    3    3  502    0 -0.26629330055E+03  0.12735842725E+04  0.26798980856E+03  0.13284380146E+04  0.25500000920E-02 0.  1.
       -2    1    3    3    0  502  0.26629330055E+03 -0.12735842725E+04  0.10948906839E+04  0.17005042284E+04  0.25500000920E-02 0. -1.
</event>
<event>
 5   0  0.4824715E-06  0.2696287E+04  0.7818609E-02  0.8336211E-01
       -1   -1    0    0    0  501  0.00000000000E+00  0.00000000000E+00  0.16174110786E+04  0.16174110786E+04  0.50400001928E-02 0. -1.
        1   -1    0    0  501    0  0.00000000000E+00  0.00000000000E+00 -0.11237037042E+04  0.11237037042E+04  0.50400001928E-02 0.  1.
    10030    2    1    2    0    0  0.00000000000E+00  0.00000000000E+00  0.49370737438E+03  0.27411147828E+04  0.26962869434E+04 0.  0.
        5    1    3    3  502    0  0.92520621736E+03  0.61907918565E+03  0.10198925699E+04  0.15097908885E+04  0.46999998093E+01 0. -1.
       -5    1    3    3    0  502 -0.92520621736E+03 -0.61907918565E+03 -0.52618519555E+03  0.12313238943E+04  0.46999998093E+01 0.  1.
</event>
<event>
 5   0  0.4824715E-06  0.2698770E+04  0.7818609E-02  0.8335404E-01
        1   -1    0    0  501    0  0.00000000000E+00  0.00000000000E+00  0.15642663541E+04  0.15642663541E+04  0.50400001928E-02 0.  1.
       -1   -1    0    0    0  501  0.00000000000E+00  0.00000000000E+00 -0.11640215470E+04  0.11640215470E+04  0.50400001928E-02 0. -1.
    10030    2    1    2    0    0  0.00000000000E+00  0.00000000000E+00  0.40024480711E+03  0.27282879011E+04  0.26987698987E+04 0.  0.
        5    1    3    3  502    0 -0.20516703019E+03 -0.83560282881E+03 -0.85071404555E+03  0.12099843284E+04  0.46999998093E+01 0. -1.
       -5    1    3    3    0  502  0.20516703019E+03  0.83560282881E+03  0.12509588527E+04  0.15183035727E+04  0.46999998093E+01 0.  1.
</event>
<event>
 5   0  0.1220908E-05  0.2687283E+04  0.7818609E-02  0.8339143E-01
       -2   -1    0    0    0  501  0.00000000000E+00  0.00000000000E+00  0.11957420045E+04  0.11957420045E+04  0.25500000920E-02 0. -1.
        2   -1    0    0  501    0  0.00000000000E+00  0.00000000000E+00 -0.15098339175E+04  0.15098339175E+04  0.25500000920E-02 0.  1.
    10030    2    1    2    0    0  0.00000000000E+00  0.00000000000E+00 -0.31409191300E+03  0.27055759221E+04  0.26872825196E+04 0.  0.
        2    1    3    3  502    0  0.84371138585E+01 -0.10223482366E+04 -0.10348207730E+04  0.14546893599E+04  0.25500000920E-02 0.  1.
       -2    1    3    3    0  502 -0.84371138585E+01  0.10223482366E+04  0.72072885998E+03  0.12508865621E+04  0.25500000920E-02 0. -1.
</event>
<event>
 5   0  0.1220908E-05  0.3063287E+04  0.7818609E-02  0.8225886E-01
        2   -1    0    0  501    0  0.00000000000E+00  0.00000000000E+00  0.19784775479E+04  0.19784775479E+04  0.25500000920E-02 0. -1.
       -2   -1    0    0    0  501  0.00000000000E+00  0.00000000000E+00 -0.11857254091E+04  0.11857254091E+04  0.25500000920E-02 0.  1.
    10030    2    1    2    0    0  0.00000000000E+00  0.00000000000E+00  0.79275213877E+03  0.31642029570E+04  0.30632865357E+04 0.  0.
        2    1    3    3  502    0  0.96854280877E+03  0.61428116557E+02  0.16203524169E+04  0.18887537004E+04  0.25500000920E-02 0. -1.
       -2    1    3    3    0  502 -0.96854280877E+03 -0.61428116557E+02 -0.82760027809E+03  0.12754492566E+04  0.25500000920E-02 0.  1.
</event>
<event>
 5   0  0.1261364E-05  0.2672320E+04  0.7818609E-02  0.8344042E-01
        2   -1    0    0  501    0  0.00000000000E+00  0.00000000000E+00  0.30244502267E+04  0.30244502267E+04  0.25500000920E-02 0. -1.
       -2   -1    0    0    0  501  0.00000000000E+00  0.00000000000E+00 -0.59029705215E+03  0.59029705216E+03  0.25500000920E-02 0.  1.
    10030    2    1    2    0    0  0.00000000000E+00  0.00000000000E+00  0.24341531745E+04  0.36147472788E+04  0.26723203799E+04 0.  0.
        5    1    3    3  502    0 -0.10191690617E+04 -0.16636364612E+03  0.23639871561E+04  0.25796976186E+04  0.46999998093E+01 0. -1.
       -5    1    3    3    0  502  0.10191690617E+04  0.16636364612E+03  0.70166018435E+02  0.10350496603E+04  0.46999998093E+01 0.  1.
</event>
<event>
 5   0  0.1286641E-05  0.2830877E+04  0.7818609E-02  0.8293746E-01
        2   -1    0    0  501    0  0.00000000000E+00  0.00000000000E+00  0.21902614059E+04  0.21902614059E+04  0.25500000920E-02 0.  1.
       -2   -1    0    0    0  501  0.00000000000E+00  0.00000000000E+00 -0.91471548029E+03  0.91471548030E+03  0.25500000920E-02 0. -1.
    10030    2    1    2    0    0  0.00000000000E+00  0.00000000000E+00  0.12755459256E+04  0.31049768862E+04  0.28308769057E+04 0.  0.
        4    1    3    3  502    0 -0.44920991633E+02 -0.10156665228E+04 -0.44240100307E+03  0.11087455260E+04  0.12699999809E+01 0. -1.
       -4    1    3    3    0  502  0.44920991633E+02  0.10156665228E+04  0.17179469286E+04  0.19962313602E+04  0.12699999809E+01 0.  1.
</event>
<event>
 5   0  0.4826140E-06  0.2578119E+04  0.7818609E-02  0.8375672E-01
        1   -1    0    0  501    0  0.00000000000E+00  0.00000000000E+00  0.15561390216E+04  0.15561390216E+04  0.50400001928E-02 0.  1.
       -1   -1    0    0    0  501  0.00000000000E+00  0.00000000000E+00 -0.10678187670E+04  0.10678187670E+04  0.50400001928E-02 0. -1.
    10030    2    1    2    0    0  0.00000000000E+00  0.00000000000E+00  0.48832025456E+03  0.26239577887E+04  0.25781190441E+04 0.  0.
        1    1    3    3  502    0 -0.69555932259E+03  0.42602935866E+03 -0.77177117985E+03  0.11229134160E+04  0.50400001928E-02 0. -1.
       -1    1    3    3    0  502  0.69555932259E+03 -0.42602935866E+03  0.12600914344E+04  0.15010443727E+04  0.50400001928E-02 0.  1.
</event>
<event>
 5   0  0.1286641E-05  0.2779176E+04  0.7818609E-02  0.8309763E-01
       -2   -1    0    0    0  501  0.00000000000E+00  0.00000000000E+00  0.13753680369E+04  0.13753680369E+04  0.25500000920E-02 0.  1.
        2   -1    0    0  501    0  0.00000000000E+00  0.00000000000E+00 -0.14039550302E+04  0.14039550302E+04  0.25500000920E-02 0. -1.
    10030    2    1    2    0    0  0.00000000000E+00  0.00000000000E+00 -0.28586993272E+02  0.27793230671E+04  0.27791760461E+04 0.  0.
        4    1    3    3  502    0  0.13022028699E+04  0.19116836881E+03 -0.46004748954E+03  0.13942463789E+04  0.12699999809E+01 0. -1.
       -4    1    3    3    0  502 -0.13022028699E+04 -0.19116836881E+03  0.43146049626E+03  0.13850766882E+04  0.12699999809E+01 0.  1.
</event>
<event>
 5   0  0.4756800E-06  0.2614993E+04  0.7818609E-02  0.8363126E-01
       -1   -1    0    0    0  501  0.00000000000E+00  0.00000000000E+00  0.12907303347E+04  0.12907303348E+04  0.50400001928E-02 0. -1.
        1   -1    0    0  501    0  0.00000000000E+00  0.00000000000E+00 -0.13244800435E+04  0.13244800435E+04  0.50400001928E-02 0.  1.
    10030    2    1    2    0    0  0.00000000000E+00  0.00000000000E+00 -0.33749708787E+02  0.26152103783E+04  0.26149925965E+04 0.  0.
        4    1    3    3  502    0 -0.75412717880E+02 -0.65781643144E+03  0.11106654579E+04  0.12930541008E+04  0.12699999809E+01 0. -1.
       -4    1    3    3    0  502  0.75412717880E+02  0.65781643144E+03 -0.11444151666E+04  0.13221562775E+04  0.12699999809E+01 0.  1.
</event>
<event>
 5   0  0.1276517E-05  0.2695175E+04  0.7818609E-02  0.8336572E-01
       -2   -1    0    0    0  501  0.00000000000E+00  0.00000000000E+00  0.10173903211E+04  0.10173903211E+04  0.25500000920E-02 0. -1.
        2   -1    0    0  501    0  0.00000000000E+00  0.00000000000E+00 -0.17849514995E+04  0.17849514995E+04  0.25500000920E-02 0.  1.
    10030    2    1    2    0    0  0.00000000000E+00  0.00000000000E+00 -0.76756117837E+03  0.28023418206E+04  0.26951752294E+04 0.  0.
        1    1    3    3  502    0  0.93880097563E+03  0.79443621364E+03  0.18904847714E+03  0.12442730794E+04  0.50400001928E-02 0. -1.
       -1    1    3    3    0  502 -0.93880097563E+03 -0.79443621364E+03 -0.95660965551E+03  0.15580687412E+04  0.50400001928E-02 0.  1.
</event>
<event>
 5   0  0.5152288E-06  0.2693250E+04  0.7818609E-02  0.8337199E-01
       -1   -1    0    0    0  501  0.00000000000E+00  0.00000000000E+00  0.10889378714E+04  0.10889378714E+04  0.50400001928E-02 0. -1.
        1   -1    0    0  501    0  0.00000000000E+00  0.00000000000E+00 -0.16652909996E+04  0.16652909996E+04  0.50400001928E-02 0.  1.
    10030    2    1    2    0    0  0.00000000000E+00  0.00000000000E+00 -0.57635312812E+03  0.27542288710E+04  0.26932496627E+04 0.  0.
        3    1    3    3  502    0  0.30625992043E+03 -0.30185200316E+03  0.10168392699E+04  0.11040253084E+04  0.10100000352E+00 0. -1.
       -3    1    3    3    0  502 -0.30625992043E+03  0.30185200316E+03 -0.15931923980E+04  0.16502035626E+04  0.10100000352E+00 0.  1.
</event>
<event>
 5   0  0.1232559E-05  0.2712124E+04  0.7818609E-02  0.8331082E-01
       -2   -1    0    0    0  501  0.00000000000E+00  0.00000000000E+00  0.68773172828E+03  0.68773172828E+03  0.25500000920E-02 0. -1.
        2   -1    0    0  501    0  0.00000000000E+00  0.00000000000E+00 -0.26738684828E+04  0.26738684828E+04  0.25500000920E-02 0.  1.
    10030    2    1    2    0    0  0.00000000000E+00  0.00000000000E+00 -0.19861367545E+04  0.33616002111E+04  0.27121240332E+04 0.  0.
        3    1    3    3  502    0 -0.18373793562E+03 -0.10763373530E+04 -0.19897779351E+04  0.22696867554E+04  0.10100000352E+00 0.  1.
       -3    1    3    3    0  502  0.18373793562E+03  0.10763373530E+04  0.36411805443E+01  0.10919134557E+04  0.10100000352E+00 0. -1.
</event>
<event>
 5   0  0.4824715E-06  0.2645425E+04  0.7818609E-02  0.8352933E-01
        1   -1    0    0  501    0  0.00000000000E+00  0.00000000000E+00  0.10086242773E+04  0.10086242773E+04  0.50400001928E-02 0. -1.
       -1   -1    0    0    0  501  0.00000000000E+00  0.00000000000E+00 -0.17346085015E+04  0.17346085015E+04  0.50400001928E-02 0.  1.
    10030    2    1    2    0    0  0.00000000000E+00  0.00000000000E+00 -0.72598422422E+03  0.27432327788E+04  0.26454249157E+04 0.  0.
        5    1    3    3  502    0  0.93024288637E+03 -0.93186067581E+03 -0.23252296943E+03  0.13370883172E+04  0.46999998093E+01 0.  1.
       -5    1    3    3    0  502 -0.93024288637E+03  0.93186067581E+03 -0.49346125479E+03  0.14061444615E+04  0.46999998093E+01 0. -1.
</event>
<event>
 5   0  0.1276517E-05  0.2704093E+04  0.7818609E-02  0.8333678E-01
       -2   -1    0    0    0  501  0.00000000000E+00  0.00000000000E+00  0.10831528032E+04  0.10831528032E+04  0.25500000920E-02 0.  1.
        2   -1    0    0  501    0  0.00000000000E+00  0.00000000000E+00 -0.16876931752E+04  0.16876931753E+04  0.25500000920E-02 0. -1.
    10030    2    1    2    0    0  0.00000000000E+00  0.00000000000E+00 -0.60454037201E+03  0.27708459785E+04  0.27040928932E+04 0.  0.
        1    1    3    3  502    0 -0.15940424205E+03  0.32121185896E+03 -0.16380782398E+04  0.16768682388E+04  0.50400001928E-02 0. -1.
       -1    1    3    3    0  502  0.15940424205E+03 -0.32121185896E+03  0.10335378678E+04  0.10939777397E+04  0.50400001928E-02 0.  1.
</event>
<event>
 5   0  0.1232559E-05  0.2677829E+04  0.7818609E-02  0.8342235E-01
        2   -1    0    0  501    0  0.00000000000E+00  0.00000000000E+00  0.12058968324E+04  0.12058968324E+04  0.25500000920E-02 0.  1.
       -2   -1    0    0    0  501  0.00000000000E+00  0.00000000000E+00 -0.14866052546E+04  0.14866052546E+04  0.25500000920E-02 0. -1.
    10030    2    1    2    0    0  0.00000000000E+00  0.00000000000E+00 -0.28070842217E+03  0.26925020870E+04  0.26778293953E+04 0.  0.
        3    1    3    3  502    0 -0.12069841569E+03  0.16424322584E+02 -0.14810223085E+04  0.14860232012E+04  0.10100000352E+00 0. -1.
       -3    1    3    3    0  502  0.12069841569E+03 -0.16424322584E+02  0.12003138864E+04  0.12064788858E+04  0.10100000352E+00 0.  1.
</event>
<event>
 5   0  0.4188000E-06  0.2696429E+04  0.7818609E-02  0.8336164E-01
       -3   -1    0    0    0  501  0.00000000000E+00  0.00000000000E+00  0.84508949246E+03  0.84508949849E+03  0.10100000352E+00 0.  1.
        3   -1    0    0  501    0  0.00000000000E+00  0.00000000000E+00 -0.21508760740E+04  0.21508760763E+04  0.10100000352E+00 0. -1.
    10030    2    1    2    0    0  0.00000000000E+00  0.00000000000E+00 -0.13057865815E+04  0.29959655748E+04  0.26964293295E+04 0.  0.
        4    1    3    3  502    0 -0.21535775213E+03  0.89439444011E+03 -0.17479536590E+04  0.19752630162E+04  0.12699999809E+01 0. -1.
       -4    1    3    3    0  502  0.21535775213E+03 -0.89439444011E+03  0.44216707755E+03  0.10207025587E+04  0.12699999809E+01 0.  1.
</event>
<event>
 5   0  0.4756800E-06  0.2709388E+04  0.7818609E-02  0.8331965E-01
       -1   -1    0    0    0  501  0.00000000000E+00  0.00000000000E+00  0.12529615368E+04  0.12529615368E+04  0.50400001928E-02 0.  1.
        1   -1    0    0  501    0  0.00000000000E+00  0.00000000000E+00 -0.14646862570E+04  0.14646862570E+04  0.50400001928E-02 0. -1.
    10030    2    1    2    0    0  0.00000000000E+00  0.00000000000E+00 -0.21172472013E+03  0.27176477938E+04  0.27093877858E+04 0.  0.
        4    1    3    3  502    0  0.12488970899E+04  0.36026588892E+03  0.27695346976E+03  0.13289997326E+04  0.12699999809E+01 0.  1.
       -4    1    3    3    0  502 -0.12488970899E+04 -0.36026588892E+03 -0.48867818990E+03  0.13886480613E+04  0.12699999809E+01 0. -1.
</event>
<event>
 5   0  0.4846214E-06  0.2732120E+04  0.7818609E-02  0.8324658E-01
        1   -1    0    0  501    0  0.00000000000E+00  0.00000000000E+00  0.12725665735E+04  0.12725665735E+04  0.50400001928E-02 0.  1.
       -1   -1    0    0    0  501  0.00000000000E+00  0.00000000000E+00 -0.14664222189E+04  0.14664222189E+04  0.50400001928E-02 0. -1.
    10030    2    1    2    0    0  0.00000000000E+00  0.00000000000E+00 -0.19385564543E+03  0.27389887924E+04  0.27321199816E+04 0.  0.
        2    1    3    3  502    0  0.73144844238E+03 -0.11289817465E+04 -0.33522964221E+03  0.13863605306E+04  0.25500000920E-02 0. -1.
       -2    1    3    3    0  502 -0.73144844238E+03  0.11289817465E+04  0.14137399678E+03  0.13526282618E+04  0.25500000920E-02 0.  1.
</event>
<event>
 5   0  0.1286641E-05  0.2646367E+04  0.7818609E-02  0.8352620E-01
        2   -1    0    0  501    0  0.00000000000E+00  0.00000000000E+00  0.15902966377E+04  0.15902966377E+04  0.25500000920E-02 0. -1.
       -2   -1    0    0    0  501  0.00000000000E+00  0.00000000000E+00 -0.11009356457E+04  0.11009356457E+04  0.25500000920E-02 0.  1.
    10030    2    1    2    0    0  0.00000000000E+00  0.00000000000E+00  0.48936099200E+03  0.26912322834E+04  0.26463667590E+04 0.  0.
        4    1    3    3  502    0  0.18599396482E+03 -0.11663135247E+04 -0.36203411678E+03  0.12352940166E+04  0.12699999809E+01 0.  1.
       -4    1    3    3    0  502 -0.18599396482E+03  0.11663135247E+04  0.85139510879E+03  0.14559382669E+04  0.12699999809E+01 0. -1.
</event>
<event>
 5   0  0.1276517E-05  0.2641876E+04  0.7818609E-02  0.8354115E-01
       -2   -1    0    0    0  501  0.00000000000E+00  0.00000000000E+00  0.11659634862E+04  0.11659634862E+04  0.25500000920E-02 0. -1.
        2   -1    0    0  501    0  0.00000000000E+00  0.00000000000E+00 -0.14965107319E+04  0.14965107319E+04  0.25500000920E-02 0.  1.
    10030    2    1    2    0    0  0.00000000000E+00  0.00000000000E+00 -0.33054724570E+03  0.26624742180E+04  0.26418757503E+04 0.  0.
        1    1    3    3  502    0  0.91816612787E+03 -0.93399686948E+03 -0.33836161827E+03  0.13527260533E+04  0.50400001928E-02 0. -1.
       -1    1    3    3    0  502 -0.91816612787E+03  0.93399686948E+03  0.78143725673E+01  0.13097481647E+04  0.50400001928E-02 0.  1.
</event>
<event>
 5   0  0.4826140E-06  0.2713418E+04  0.7818609E-02  0.8330664E-01
        1   -1    0    0  501    0  0.00000000000E+00  0.00000000000E+00  0.14384523674E+04  0.14384523674E+04  0.50400001928E-02 0.  1.
       -1   -1    0    0    0  501  0.00000000000E+00  0.00000000000E+00 -0.12796113158E+04  0.12796113158E+04  0.50400001928E-02 0. -1.
    10030    2    1    2    0    0  0.00000000000E+00  0.00000000000E+00  0.15884105162E+03  0.27180636832E+04  0.27134184540E+04 0.  0.
        1    1    3    3  502    0  0.10221014475E+04 -0.82910023234E+03  0.40947110238E+03  0.13783196828E+04  0.50400001928E-02 0.  1.
       -1    1    3    3    0  502 -0.10221014475E+04  0.82910023234E+03 -0.25063005076E+03  0.13397440004E+04  0.50400001928E-02 0. -1.
</event>
<event>
 5   0  0.1261364E-05  0.2611365E+04  0.7818609E-02  0.8364351E-01
        2   -1    0    0  501    0  0.00000000000E+00  0.00000000000E+00  0.10424201913E+04  0.10424201913E+04  0.25500000920E-02 0.  1.
       -2   -1    0    0    0  501  0.00000000000E+00  0.00000000000E+00 -0.16354317955E+04  0.16354317955E+04  0.25500000920E-02 0. -1.
    10030    2    1    2    0    0  0.00000000000E+00  0.00000000000E+00 -0.59301160421E+03  0.26778519869E+04  0.26113652561E+04 0.  0.
        5    1    3    3  502    0 -0.64065989517E+03  0.38677491627E+03  0.80066273028E+03  0.10959574968E+04  0.46999998093E+01 0.  1.
       -5    1    3    3    0  502  0.64065989517E+03 -0.38677491627E+03 -0.13936743345E+04  0.15818944901E+04  0.46999998093E+01 0. -1.
</event>
<event>
 5   0  0.4756800E-06  0.2608025E+04  0.7818609E-02  0.8365481E-01
       -1   -1    0    0    0  501  0.00000000000E+00  0.00000000000E+00  0.11381686811E+04  0.11381686811E+04  0.50400001928E-02 0. -1.
        1   -1    0    0  501    0  0.00000000000E+00  0.00000000000E+00 -0.14940211709E+04  0.14940211709E+04  0.50400001928E-02 0.  1.
    10030    2    1    2    0    0  0.00000000000E+00  0.00000000000E+00 -0.35585248980E+03  0.26321898520E+04  0.26080246207E+04 0.  0.
        4    1    3    3  502    0  0.46514981985E+03  0.16585388002E+03  0.10401427645E+04  0.11514210559E+04  0.12699999809E+01 0. -1.
       -4    1    3    3    0  502 -0.46514981985E+03 -0.16585388002E+03 -0.13959952543E+04  0.14807687961E+04  0.12699999809E+01 0.  1.
</event>
<event>
 5   0  0.5152288E-06  0.2671125E+04  0.7818609E-02  0.8344435E-01
        1   -1    0    0  501    0  0.00000000000E+00  0.00000000000E+00  0.11135028098E+04  0.11135028098E+04  0.50400001928E-02 0. -1.
       -1   -1    0    0    0  501  0.00000000000E+00  0.00000000000E+00 -0.16019062975E+04  0.16019062976E+04  0.50400001928E-02 0.  1.
    10030    2    1    2    0    0  0.00000000000E+00  0.00000000000E+00 -0.48840348776E+03  0.27154091074E+04  0.26711249790E+04 0.  0.
        3    1    3    3  502    0  0.12769607073E+04 -0.78634785857E+02 -0.63385135134E+03  0.14277883679E+04  0.10100000352E+00 0.  1.
       -3    1    3    3    0  502 -0.12769607073E+04  0.78634785857E+02  0.14544786357E+03  0.12876207395E+04  0.10100000352E+00 0. -1.
</event>
<event>
 5   0  0.4846214E-06  0.2682374E+04  0.7818609E-02  0.8340747E-01
        1   -1    0    0  501    0  0.00000000000E+00  0.00000000000E+00  0.11703970781E+04  0.11703970781E+04  0.50400001928E-02 0.  1.
       -1   -1    0    0    0  501  0.00000000000E+00  0.00000000000E+00 -0.15368996204E+04  0.15368996204E+04  0.50400001928E-02 0. -1.
    10030    2    1    2    0    0  0.00000000000E+00  0.00000000000E+00 -0.36650254224E+03  0.27072966985E+04  0.26823741910E+04 0.  0.
        2    1    3    3  502    0 -0.11996728292E+04 -0.35194509087E+03 -0.67325418318E+03  0.14199829010E+04  0.25500000920E-02 0. -1.
       -2    1    3    3    0  502  0.11996728292E+04  0.35194509087E+03  0.30675164094E+03  0.12873137975E+04  0.25500000920E-02 0.  1.
</event>
<event>
 5   0  0.1286641E-05  0.2657451E+04  0.7818609E-02  0.8348944E-01
        2   -1    0    0  501    0  0.00000000000E+00  0.00000000000E+00  0.19580306732E+04  0.19580306732E+04  0.25500000920E-02 0. -1.
       -2   -1    0    0    0  501  0.00000000000E+00  0.00000000000E+00 -0.90167715341E+03  0.90167715341E+03  0.25500000920E-02 0.  1.
    10030    2    1    2    0    0  0.00000000000E+00  0.00000000000E+00  0.10563535198E+04  0.28597078266E+04  0.26574510522E+04 0.  0.
        4    1    3    3  502    0 -0.86955830018E+03 -0.45154278631E+03 -0.43762003931E+03  0.10730961919E+04  0.12699999809E+01 0.  1.
       -4    1    3    3    0  502  0.86955830018E+03  0.45154278631E+03  0.14939735591E+04  0.17866116348E+04  0.12699999809E+01 0. -1.
</event>
<event>
 5   0  0.4826140E-06  0.2690032E+04  0.7818609E-02  0.8338247E-01
        1   -1    0    0  501    0  0.00000000000E+00  0.00000000000E+00  0.24452943949E+04  0.24452943949E+04  0.50400001928E-02 0.  1.
       -1   -1    0    0    0  501  0.00000000000E+00  0.00000000000E+00 -0.73981594831E+03  0.73981594833E+03  0.50400001928E-02 0. -1.
    10030    2    1    2    0    0  0.00000000000E+00  0.00000000000E+00  0.17054784466E+04  0.31851103432E+04  0.26900318152E+04 0.  0.
        1    1    3    3  502    0 -0.33295191401E+03  0.65021193066E+03 -0.48446049199E+03  0.87654691839E+03  0.50400001928E-02 0. -1.
       -1    1    3    3    0  502  0.33295191401E+03 -0.65021193066E+03  0.21899389386E+04  0.23085634248E+04  0.50400001928E-02 0.  1.
</event>
<event>
 5   0  0.5152288E-06  0.2758210E+04  0.7818609E-02  0.8316361E-01
       -1   -1    0    0    0  501  0.00000000000E+00  0.00000000000E+00  0.90446083489E+03  0.90446083491E+03  0.50400001928E-02 0.  1.
        1   -1    0    0  501    0  0.00000000000E+00  0.00000000000E+00 -0.21028328843E+04  0.21028328843E+04  0.50400001928E-02 0. -1.
    10030    2    1    2    0    0  0.00000000000E+00  0.00000000000E+00 -0.11983720494E+04  0.30072937192E+04  0.27582095542E+04 0.  0.
        3    1    3    3  502    0 -0.43008655774E+03  0.87244194618E+03  0.46675268385E+03  0.10788825120E+04  0.10100000352E+00 0.  1.
       -3    1    3    3    0  502  0.43008655774E+03 -0.87244194618E+03 -0.16651247333E+04  0.19284112072E+04  0.10100000352E+00 0. -1.
</event>
<event>
 5   0  0.1220908E-05  0.2683709E+04  0.7818609E-02  0.8340310E-01
       -2   -1    0    0    0  501  0.00000000000E+00  0.00000000000E+00  0.11051012956E+04  0.11051012956E+04  0.25500000920E-02 0.  1.
        2   -1    0    0  501    0  0.00000000000E+00  0.00000000000E+00 -0.16293293839E+04  0.16293293839E+04  0.25500000920E-02 0. -1.
    10030    2    1    2    0    0  0.00000000000E+00  0.00000000000E+00 -0.52422808830E+03  0.27344306795E+04  0.26837093830E+04 0.  0.
        2    1    3    3  502    0  0.45946797335E+03  0.59639954931E+03 -0.13938592730E+04  0.15841865148E+04  0.25500000920E-02 0. -1.
       -2    1    3    3    0  502 -0.45946797335E+03 -0.59639954931E+03  0.86963118467E+03  0.11502441646E+04  0.25500000920E-02 0.  1.
</event>
<event>
 5   0  0.1286641E-05  0.2719564E+04  0.7818609E-02  0.8328685E-01
       -2   -1    0    0    0  501  0.00000000000E+00  0.00000000000E+00  0.16909545510E+04  0.16909545510E+04  0.25500000920E-02 0.  1.
        2   -1    0    0  501    0  0.00000000000E+00  0.00000000000E+00 -0.10934694447E+04  0.10934694447E+04  0.25500000920E-02 0. -1.
    10030    2    1    2    0    0  0.00000000000E+00  0.00000000000E+00  0.59748510629E+03  0.27844239957E+04  0.27195640341E+04 0.  0.
        4    1    3    3  502    0 -0.12133991437E+04  0.24311337369E+03  0.87571046492E+03  0.15160184780E+04  0.12699999809E+01 0.  1.
       -4    1    3    3    0  502  0.12133991437E+04 -0.24311337369E+03 -0.27822535863E+03  0.12684055177E+04  0.12699999809E+01 0. -1.
</event>
<event>
 5   0  0.4824715E-06  0.2682069E+04  0.7818609E-02  0.8340847E-01
        1   -1    0    0  501    0  0.00000000000E+00  0.00000000000E+00  0.12894763619E+04  0.12894763619E+04  0.50400001928E-02 0. -1.
       -1   -1    0    0    0  501  0.00000000000E+00  0.00000000000E+00 -0.13946538789E+04  0.13946538789E+04  0.50400001928E-02 0.  1.
    10030    2    1    2    0    0  0.00000000000E+00  0.00000000000E+00 -0.10517751702E+03  0.26841302408E+04  0.26820687612E+04 0.  0.
        5    1    3    3  502    0  0.38985439156E+02 -0.71419494739E+02  0.12869954581E+04  0.12895735760E+04  0.46999998093E+01 0. -1.
       -5    1    3    3    0  502 -0.38985439156E+02  0.71419494739E+02 -0.13921729751E+04  0.13945566648E+04  0.46999998093E+01 0.  1.
</event>
<event>
 5   0  0.1286641E-05  0.2726527E+04  0.7818609E-02  0.8326449E-01
       -2   -1    0    0    0  501  0.00000000000E+00  0.00000000000E+00  0.11979701157E+04  0.11979701157E+04  0.25500000920E-02 0. -1.
        2   -1    0    0  501    0  0.00000000000E+00  0.00000000000E+00 -0.15513636449E+04  0.15513636449E+04  0.25500000920E-02 0.  1.
    10030    2    1    2    0    0  0.00000000000E+00  0.00000000000E+00 -0.35339352919E+03  0.27493337607E+04  0.27265269375E+04 0.  0.
        4    1    3    3  502    0  0.73609912646E+03 -0.10097205402E+04  0.37293898954E+03  0.13040178665E+04  0.12699999809E+01 0.  1.
       -4    1    3    3    0  502 -0.73609912646E+03  0.10097205402E+04 -0.72633251873E+03  0.14453158942E+04  0.12699999809E+01 0. -1.
</event>
<event>
 5   0  0.4846214E-06  0.2658046E+04  0.7818609E-02  0.8348747E-01
       -1   -1    0    0    0  501  0.00000000000E+00  0.00000000000E+00  0.10774099424E+04  0.10774099424E+04  0.50400001928E-02 0.  1.
        1   -1    0    0  501    0  0.00000000000E+00  0.00000000000E+00 -0.16393971176E+04  0.16393971176E+04  0.50400001928E-02 0. -1.
    10030    2    1    2    0    0  0.00000000000E+00  0.00000000000E+00 -0.56198717523E+03  0.27168070601E+04  0.26580464662E+04 0.  0.
        2    1    3    3  502    0  0.18884638717E+03  0.10055166355E+04 -0.11480245187E+04  0.15377538678E+04  0.25500000920E-02 0. -1.
       -2    1    3    3    0  502 -0.18884638717E+03 -0.10055166355E+04  0.58603734352E+03  0.11790531923E+04  0.25500000920E-02 0.  1.
</event>
<event>
 5   0  0.1261364E-05  0.2687204E+04  0.7818609E-02  0.8339169E-01
        2   -1    0    0  501    0  0.00000000000E+00  0.00000000000E+00  0.14992165840E+04  0.14992165840E+04  0.25500000920E-02 0.  1.
       -2   -1    0    0    0  501  0.00000000000E+00  0.00000000000E+00 -0.12041396775E+04  0.12041396775E+04  0.25500000920E-02 0. -1.
    10030    2    1    2    0    0  0.00000000000E+00  0.00000000000E+00  0.29507690652E+03  0.27033562615E+04  0.26872038806E+04 0.  0.
        5    1    3    3  502    0  0.10399080725E+04 -0.17774987726E+03  0.98454931480E+03  0.14430395910E+04  0.46999998093E+01 0.  1.
       -5    1    3    3    0  502 -0.10399080725E+04  0.17774987726E+03 -0.68947240828E+03  0.12603166705E+04  0.46999998093E+01 0. -1.
</event>
<event>
 5   0  0.4756800E-06  0.2698458E+04  0.7818609E-02  0.8335505E-01
       -1   -1    0    0    0  501  0.00000000000E+00  0.00000000000E+00  0.13177645366E+04  0.13177645366E+04  0.50400001928E-02 0.  1.
        1   -1    0    0  501    0  0.00000000000E+00  0.00000000000E+00 -0.13814449641E+04  0.13814449641E+04  0.50400001928E-02 0. -1.
    10030    2    1    2    0    0  0.00000000000E+00  0.00000000000E+00 -0.63680427502E+02  0.26992095006E+04  0.26984582138E+04 0.  0.
        4    1    3    3  502    0  0.10276186736E+04 -0.11002144201E+03 -0.89944132031E+03  0.13700734132E+04  0.12699999809E+01 0. -1.
       -4    1    3    3    0  502 -0.10276186736E+04  0.11002144201E+03  0.83576089281E+03  0.13291360874E+04  0.12699999809E+01 0.  1.
</event>
<event>
 5   0  0.1232559E-05  0.2719059E+04  0.7818609E-02  0.8328847E-01
       -2   -1    0    0    0  501  0.00000000000E+00  0.00000000000E+00  0.86049910960E+03  0.86049910960E+03  0.25500000920E-02 0. -1.
        2   -1    0    0  501    0  0.00000000000E+00  0.00000000000E+00 -0.21479631689E+04  0.21479631689E+04  0.25500000920E-02 0.  1.
    10030    2    1    2    0    0  0.00000000000E+00  0.00000000000E+00 -0.12874640593E+04  0.30084622785E+04  0.27190589507E+04 0.  0.
        3    1    3    3  502    0 -0.46528052746E+03 -0.95785445305E+03 -0.15788819628E+04  0.19044262614E+04  0.10100000352E+00 0.  1.
       -3    1    3    3    0  502  0.46528052746E+03  0.95785445305E+03  0.29141790346E+03  0.11040360171E+04  0.10100000352E+00 0. -1.
</event>
<event>
 5   0  0.4846214E-06  0.2703139E+04  0.7818609E-02  0.8333987E-01
        1   -1    0    0  501    0  0.00000000000E+00  0.00000000000E+00  0.14801127641E+04  0.14801127641E+04  0.50400001928E-02 0.  1.
       -1   -1    0    0    0  501  0.00000000000E+00  0.00000000000E+00 -0.12341896439E+04  0.12341896439E+04  0.50400001928E-02 0. -1.
    10030    2    1    2    0    0  0.00000000000E+00  0.00000000000E+00  0.24592312014E+03  0.27143024080E+04  0.27031388017E+04 0.  0.
        2    1    3    3  502    0  0.63769977336E+03 -0.69309441855E+03  0.10963456898E+04  0.14453424319E+04  0.25500000920E-02 0.  1.
       -2    1    3    3    0  502 -0.63769977336E+03  0.69309441855E+03 -0.85042256964E+03  0.12689599761E+04  0.25500000920E-02 0. -1.
</event>
<event>
 5   0  0.1220908E-05  0.2655272E+04  0.7818609E-02  0.8349665E-01
        2   -1    0    0  501    0  0.00000000000E+00  0.00000000000E+00  0.12090383541E+04  0.12090383541E+04  0.25500000920E-02 0.  1.
       -2   -1    0    0    0  501  0.00000000000E+00  0.00000000000E+00 -0.14578673358E+04  0.14578673358E+04  0.25500000920E-02 0. -1.
    10030    2    1    2    0    0  0.00000000000E+00  0.00000000000E+00 -0.24882898167E+03  0.26669056899E+04  0.26552721324E+04 0.  0.
        2    1    3    3  502    0  0.35631099014E+03  0.10451256283E+04  0.61595313067E+03  0.12643746912E+04  0.25500000920E-02 0.  1.
       -2    1    3    3    0  502 -0.35631099014E+03 -0.10451256283E+04 -0.86478211234E+03  0.14025309987E+04  0.25500000920E-02 0. -1.
</event>
<event>
 5   0  0.4188000E-06  0.2690032E+04  0.7818609E-02  0.8338247E-01
       -3   -1    0    0    0  501  0.00000000000E+00  0.00000000000E+00  0.16943575963E+04  0.16943575993E+04  0.10100000352E+00 0.  1.
        3   -1    0    0  501    0  0.00000000000E+00  0.00000000000E+00 -0.10677013236E+04  0.10677013284E+04  0.10100000352E+00 0. -1.
    10030    2    1    2    0    0  0.00000000000E+00  0.00000000000E+00  0.62665627266E+03  0.27620589277E+04  0.26900318653E+04 0.  0.
        3    1    3    3  502    0 -0.52531706652E+03 -0.13491848172E+03 -0.95044313167E+03  0.10943048816E+04  0.10100000352E+00 0. -1.
       -3    1    3    3    0  502  0.52531706652E+03  0.13491848172E+03  0.15770994043E+04  0.16677540461E+04  0.10100000352E+00 0.  1.
</event>
<event>
 5   0  0.1286641E-05  0.2680509E+04  0.7818609E-02  0.8341357E-01
       -2   -1    0    0    0  501  0.00000000000E+00  0.00000000000E+00  0.12915600622E+04  0.12915600622E+04  0.25500000920E-02 0.  1.
        2   -1    0    0  501    0  0.00000000000E+00  0.00000000000E+00 -0.13907846714E+04  0.13907846714E+04  0.25500000920E-02 0. -1.
    10030    2    1    2    0    0  0.00000000000E+00  0.00000000000E+00 -0.99224609175E+02  0.26823447336E+04  0.26805088596E+04 0.  0.
        4    1    3    3  502    0 -0.13392011169E+04 -0.35696876415E+02 -0.10260756886E+02  0.13397166844E+04  0.12699999809E+01 0. -1.
       -4    1    3    3    0  502  0.13392011169E+04  0.35696876415E+02 -0.88963852289E+02  0.13426280492E+04  0.12699999809E+01 0.  1.
</event>
<event>
 5   0  0.1261364E-05  0.2621695E+04  0.7818609E-02  0.8360869E-01
        2   -1    0    0  501    0  0.00000000000E+00  0.00000000000E+00  0.16185546386E+04  0.16185546386E+04  0.25500000920E-02 0. -1.
       -2   -1    0    0    0  501  0.00000000000E+00  0.00000000000E+00 -0.10616389370E+04  0.10616389370E+04  0.25500000920E-02 0.  1.
    10030    2    1    2    0    0  0.00000000000E+00  0.00000000000E+00  0.55691570167E+03  0.26801935756E+04  0.26216945863E+04 0.  0.
        5    1    3    3  502    0 -0.11123639450E+04  0.68195408937E+03  0.40730021031E+03  0.13668688589E+04  0.46999998093E+01 0.  1.
       -5    1    3    3    0  502  0.11123639450E+04 -0.68195408937E+03  0.14961549135E+03  0.13133247167E+04  0.46999998093E+01 0. -1.
</event>
<event>
 5   0  0.4756800E-06  0.2685246E+04  0.7818609E-02  0.8339808E-01
        1   -1    0    0  501    0  0.00000000000E+00  0.00000000000E+00  0.74699774945E+03  0.74699774946E+03  0.50400001928E-02 0.  1.
       -1   -1    0    0    0  501  0.00000000000E+00  0.00000000000E+00 -0.24131748386E+04  0.24131748387E+04  0.50400001928E-02 0. -1.
    10030    2    1    2    0    0  0.00000000000E+00  0.00000000000E+00 -0.16661770892E+04  0.31601725881E+04  0.26852457418E+04 0.  0.
        4    1    3    3  502    0 -0.39835755501E+03  0.14675324266E+03  0.66592990900E+03  0.78974015503E+03  0.12699999809E+01 0.  1.
       -4    1    3    3    0  502  0.39835755501E+03 -0.14675324266E+03 -0.23321069982E+04  0.23704324331E+04  0.12699999809E+01 0. -1.
</event>
<event>
 5   0  0.4846214E-06  0.2695773E+04  0.7818609E-02  0.8336378E-01
        1   -1    0    0  501    0  0.00000000000E+00  0.00000000000E+00  0.20707545049E+04  0.20707545049E+04  0.50400001928E-02 0. -1.
       -1   -1    0    0    0  501  0.00000000000E+00  0.00000000000E+00 -0.87736018931E+03  0.87736018933E+03  0.50400001928E-02 0.  1.
    10030    2    1    2    0    0  0.00000000000E+00  0.00000000000E+00  0.11933943156E+04  0.29481146942E+04  0.26957726643E+04 0.  0.
        2    1    3    3  502    0 -0.12351252068E+04 -0.30762801507E+03  0.11176150606E+03  0.12777558086E+04  0.25500000920E-02 0. -1.
       -2    1    3    3    0  502  0.12351252068E+04  0.30762801507E+03  0.10816328095E+04  0.16703588856E+04  0.25500000920E-02 0.  1.
</event>
<event>
 5   0  0.1261364E-05  0.2698936E+04  0.7818609E-02  0.8335350E-01
        2   -1    0    0  501    0  0.00000000000E+00  0.00000000000E+00  0.20585976907E+04  0.20585976907E+04  0.25500000920E-02 0. -1.
       -2   -1    0    0    0  501  0.00000000000E+00  0.00000000000E+00 -0.88461359039E+03  0.88461359039E+03  0.25500000920E-02 0.  1.
    10030    2    1    2    0    0  0.00000000000E+00  0.00000000000E+00  0.11739841003E+04  0.29432112811E+04  0.26989357120E+04 0.  0.
        5    1    3    3  502    0  0.10382406240E+04  0.27291347755E+03  0.14786890319E+04  0.18272845161E+04  0.46999998093E+01 0.  1.
       -5    1    3    3    0  502 -0.10382406240E+04 -0.27291347755E+03 -0.30470493162E+03  0.11159267650E+04  0.46999998093E+01 0. -1.
</event>
<event>
 5   0  0.5152288E-06  0.2670669E+04  0.7818609E-02  0.8344585E-01
        1   -1    0    0  501    0  0.00000000000E+00  0.00000000000E+00  0.13179009581E+04  0.13179009581E+04  0.50400001928E-02 0. -1.
       -1   -1    0    0    0  501  0.00000000000E+00  0.00000000000E+00 -0.13529985727E+04  0.13529985728E+04  0.50400001928E-02 0.  1.
    10030    2    1    2    0    0  0.00000000000E+00  0.00000000000E+00 -0.35097614657E+02  0.26708995308E+04  0.26706689165E+04 0.  0.
        3    1    3    3  502    0 -0.12410749149E+02 -0.11558908843E+04  0.65100001082E+03  0.13266645346E+04  0.10100000352E+00 0. -1.
       -3    1    3    3    0  502  0.12410749149E+02  0.11558908843E+04 -0.68609762548E+03  0.13442349962E+04  0.10100000352E+00 0.  1.
</event>
<event>
 5   0  0.1276517E-05  0.2733275E+04  0.7818609E-02  0.8324288E-01
        2   -1    0    0  501    0  0.00000000000E+00  0.00000000000E+00  0.17119137658E+04  0.17119137658E+04  0.25500000920E-02 0. -1.
       -2   -1    0    0    0  501  0.00000000000E+00  0.00000000000E+00 -0.10910004088E+04  0.10910004088E+04  0.25500000920E-02 0.  1.
    10030    2    1    2    0    0  0.00000000000E+00  0.00000000000E+00  0.62091335700E+03  0.28029141745E+04  0.27332754111E+04 0.  0.
        1    1    3    3  502    0 -0.12866131690E+04  0.12793043046E+03  0.76440768842E+03  0.15020182275E+04  0.50400001928E-02 0. -1.
       -1    1    3    3    0  502  0.12866131690E+04 -0.12793043046E+03 -0.14349433142E+03  0.13008959470E+04  0.50400001928E-02 0.  1.
</event>
<event>
 5   0  0.4826140E-06  0.2467457E+04  0.7818609E-02  0.8414672E-01
        1   -1    0    0  501    0  0.00000000000E+00  0.00000000000E+00  0.48220046257E+03  0.48220046259E+03  0.50400001928E-02 0. -1.
       -1   -1    0    0    0  501  0.00000000000E+00  0.00000000000E+00 -0.31565411153E+04  0.31565411153E+04  0.50400001928E-02 0.  1.
    10030    2    1    2    0    0  0.00000000000E+00  0.00000000000E+00 -0.26743406528E+04  0.36387415779E+04  0.24674566549E+04 0.  0.
        1    1    3    3  502    0 -0.51962149923E+03 -0.75217140361E+03 -0.11547154008E+03  0.92146730786E+03  0.50400001928E-02 0. -1.
       -1    1    3    3    0  502  0.51962149923E+03  0.75217140361E+03 -0.25588691127E+04  0.27172742701E+04  0.50400001928E-02 0.  1.
</event>
<event>
 5   0  0.1276517E-05  0.2648498E+04  0.7818609E-02  0.8351912E-01
       -2   -1    0    0    0  501  0.00000000000E+00  0.00000000000E+00  0.14561546838E+04  0.14561546838E+04  0.25500000920E-02 0.  1.
        2   -1    0    0  501    0  0.00000000000E+00  0.00000000000E+00 -0.12042919672E+04  0.12042919672E+04  0.25500000920E-02 0. -1.
    10030    2    1    2    0    0  0.00000000000E+00  0.00000000000E+00  0.25186271666E+03  0.26604466510E+04  0.26484979809E+04 0.  0.
        1    1    3    3  502    0  0.60740274455E+03  0.10000393431E+04  0.74890554771E+03  0.13891998781E+04  0.50400001928E-02 0.  1.
       -1    1    3    3    0  502 -0.60740274455E+03 -0.10000393431E+04 -0.49704283105E+03  0.12712467729E+04  0.50400001928E-02 0. -1.
</event>
<event>
 5   0  0.1276517E-05  0.2671442E+04  0.7818609E-02  0.8344331E-01
       -2   -1    0    0    0  501  0.00000000000E+00  0.00000000000E+00  0.12951939017E+04  0.12951939017E+04  0.25500000920E-02 0. -1.
        2   -1    0    0  501    0  0.00000000000E+00  0.00000000000E+00 -0.13775159850E+04  0.13775159850E+04  0.25500000920E-02 0.  1.
    10030    2    1    2    0    0  0.00000000000E+00  0.00000000000E+00 -0.82322083301E+02  0.26727098866E+04  0.26714417854E+04 0.  0.
        1    1    3    3  502    0  0.40340207340E+03  0.45825582446E+01  0.12327839141E+04  0.12971161904E+04  0.50400001928E-02 0. -1.
       -1    1    3    3    0  502 -0.40340207340E+03 -0.45825582446E+01 -0.13151059974E+04  0.13755936962E+04  0.50400001928E-02 0.  1.
</event>
<event>
 5   0  0.1261364E-05  0.2642975E+04  0.7818609E-02  0.8353748E-01
       -2   -1    0    0    0  501  0.00000000000E+00  0.00000000000E+00  0.29064697308E+04  0.29064697308E+04  0.25500000920E-02 0. -1.
        2   -1    0    0  501    0  0.00000000000E+00  0.00000000000E+00 -0.60084216056E+03  0.60084216056E+03  0.25500000920E-02 0.  1.
    10030    2    1    2    0    0  0.00000000000E+00  0.00000000000E+00  0.23056275703E+04  0.35073118914E+04  0.26429752573E+04 0.  0.
        5    1    3    3  502    0 -0.21159316142E+03 -0.64007446775E+03  0.26611068478E+04  0.27451737169E+04  0.46999998093E+01 0. -1.
       -5    1    3    3    0  502  0.21159316142E+03  0.64007446775E+03 -0.35547927759E+03  0.76213817449E+03  0.46999998093E+01 0.  1.
</event>
<event>
 5   0  0.1232559E-05  0.2624920E+04  0.7818609E-02  0.8359785E-01
        2   -1    0    0  501    0  0.00000000000E+00  0.00000000000E+00  0.16822377469E+04  0.16822377469E+04  0.25500000920E-02 0.  1.
       -2   -1    0    0    0  501  0.00000000000E+00  0.00000000000E+00 -0.10239640520E+04  0.10239640520E+04  0.25500000920E-02 0. -1.
    10030    2    1    2    0    0  0.00000000000E+00  0.00000000000E+00  0.65827369495E+03  0.27062017989E+04  0.26249197929E+04 0.  0.
        3    1    3    3  502    0  0.80217216988E+03  0.70947711824E+03  0.11113897048E+04  0.15433810475E+04  0.10100000352E+00 0. -1.
       -3    1    3    3    0  502 -0.80217216988E+03 -0.70947711824E+03 -0.45311600990E+03  0.11628207515E+04  0.10100000352E+00 0.  1.
</event>
<event>
 5   0  0.4846214E-06  0.2686262E+04  0.7818609E-02  0.8339476E-01
        1   -1    0    0  501    0  0.00000000000E+00  0.00000000000E+00  0.13442253308E+04  0.13442253308E+04  0.50400001928E-02 0. -1.
       -1   -1    0    0    0  501  0.00000000000E+00  0.00000000000E+00 -0.13420376777E+04  0.13420376777E+04  0.50400001928E-02 0.  1.
    10030    2    1    2    0    0  0.00000000000E+00  0.00000000000E+00  0.21876531460E+01  0.26862630085E+04  0.26862621177E+04 0.  0.
        2    1    3    3  502    0  0.85891164258E+03  0.98402964469E+03 -0.31188788986E+03  0.13428766165E+04  0.25500000920E-02 0.  1.
       -2    1    3    3    0  502 -0.85891164258E+03 -0.98402964469E+03  0.31407554301E+03  0.13433863920E+04  0.25500000920E-02 0. -1.
</event>
<event>
 5   0  0.5152288E-06  0.2692679E+04  0.7818609E-02  0.8337384E-01
       -1   -1    0    0    0  501  0.00000000000E+00  0.00000000000E+00  0.14134968832E+04  0.14134968832E+04  0.50400001928E-02 0. -1.
        1   -1    0    0  501    0  0.00000000000E+00  0.00000000000E+00 -0.12823731884E+04  0.12823731884E+04  0.50400001928E-02 0.  1.
    10030    2    1    2    0    0  0.00000000000E+00  0.00000000000E+00  0.13112369476E+03  0.26958700716E+04  0.26926793385E+04 0.  0.
        3    1    3    3  502    0 -0.20807681895E+03 -0.94826290652E+03  0.99947585173E+03  0.13933594263E+04  0.10100000352E+00 0. -1.
       -3    1    3    3    0  502  0.20807681895E+03  0.94826290652E+03 -0.86835215697E+03  0.13025106453E+04  0.10100000352E+00 0.  1.
</event>
<event>
 5   0  0.4846214E-06  0.2696593E+04  0.7818609E-02  0.8336111E-01
        1   -1    0    0  501    0  0.00000000000E+00  0.00000000000E+00  0.12196299696E+04  0.12196299696E+04  0.50400001928E-02 0.  1.
       -1   -1    0    0    0  501  0.00000000000E+00  0.00000000000E+00 -0.14905367007E+04  0.14905367007E+04  0.50400001928E-02 0. -1.
    10030    2    1    2    0    0  0.00000000000E+00  0.00000000000E+00 -0.27090673103E+03  0.27101666703E+04  0.26965928362E+04 0.  0.
        2    1    3    3  502    0 -0.78862404992E+02 -0.61048514017E+03 -0.13410715505E+04  0.14755962486E+04  0.25500000920E-02 0. -1.
       -2    1    3    3    0  502  0.78862404992E+02  0.61048514017E+03  0.10701648195E+04  0.12345704217E+04  0.25500000920E-02 0.  1.
</event>
<event>
 5   0  0.4826140E-06  0.2658367E+04  0.7818609E-02  0.8348641E-01
       -1   -1    0    0    0  501  0.00000000000E+00  0.00000000000E+00  0.15172916959E+04  0.15172916959E+04  0.50400001928E-02 0. -1.
        1   -1    0    0  501    0  0.00000000000E+00  0.00000000000E+00 -0.11643962571E+04  0.11643962571E+04  0.50400001928E-02 0.  1.
    10030    2    1    2    0    0  0.00000000000E+00  0.00000000000E+00  0.35289543879E+03  0.26816879530E+04  0.26583669962E+04 0.  0.
        1    1    3    3  502    0  0.34356610705E+03  0.91640770750E+03  0.10837197130E+04  0.14602359990E+04  0.50400001928E-02 0. -1.
       -1    1    3    3    0  502 -0.34356610705E+03 -0.91640770750E+03 -0.73082427422E+03  0.12214519541E+04  0.50400001928E-02 0.  1.
</event>
<event>
 5   0  0.1276517E-05  0.2875263E+04  0.7818609E-02  0.8280276E-01
        2   -1    0    0  501    0  0.00000000000E+00  0.00000000000E+00  0.73742937092E+03  0.73742937093E+03  0.25500000920E-02 0.  1.
       -2   -1    0    0    0  501  0.00000000000E+00  0.00000000000E+00 -0.28026872215E+04  0.28026872215E+04  0.25500000920E-02 0. -1.
    10030    2    1    2    0    0  0.00000000000E+00  0.00000000000E+00 -0.20652578505E+04  0.35401165924E+04  0.28752626834E+04 0.  0.
        1    1    3    3  502    0 -0.44304146712E+03  0.92017164648E+03  0.21315820662E+03  0.10432823307E+04  0.50400001928E-02 0.  1.
       -1    1    3    3    0  502  0.44304146712E+03 -0.92017164648E+03 -0.22784160572E+04  0.24968342616E+04  0.50400001928E-02 0. -1.
</event>
<event>
 5   0  0.5152288E-06  0.2597143E+04  0.7818609E-02  0.8369172E-01
       -1   -1    0    0    0  501  0.00000000000E+00  0.00000000000E+00  0.14966121312E+04  0.14966121312E+04  0.50400001928E-02 0.  1.
        1   -1    0    0  501    0  0.00000000000E+00  0.00000000000E+00 -0.11267365681E+04  0.11267365682E+04  0.50400001928E-02 0. -1.
    10030    2    1    2    0    0  0.00000000000E+00  0.00000000000E+00  0.36987556308E+03  0.26233486994E+04  0.25971427505E+04 0.  0.
        3    1    3    3  502    0 -0.12093786003E+04  0.65942049143E+02  0.65800379406E+03  0.13783736634E+04  0.10100000352E+00 0.  1.
       -3    1    3    3    0  502  0.12093786003E+04 -0.65942049143E+02 -0.28812823097E+03  0.12449750360E+04  0.10100000352E+00 0. -1.
</event>
<event>
 5   0  0.1220908E-05  0.2736590E+04  0.7818609E-02  0.8323229E-01
       -2   -1    0    0    0  501  0.00000000000E+00  0.00000000000E+00  0.11911415815E+04  0.11911415815E+04  0.25500000920E-02 0.  1.
        2   -1    0    0  501    0  0.00000000000E+00  0.00000000000E+00 -0.15717962160E+04  0.15717962160E+04  0.25500000920E-02 0. -1.
    10030    2    1    2    0    0  0.00000000000E+00  0.00000000000E+00 -0.38065463450E+03  0.27629377975E+04  0.27365904557E+04 0.  0.
        2    1    3    3  502    0 -0.64494358757E+03  0.93604812562E+03 -0.95929891903E+03  0.14874114228E+04  0.25500000920E-02 0. -1.
       -2    1    3    3    0  502  0.64494358757E+03 -0.93604812562E+03  0.57864428452E+03  0.12755263747E+04  0.25500000920E-02 0.  1.
</event>
<event>
 5   0  0.4824715E-06  0.2737658E+04  0.7818609E-02  0.8322889E-01
        1   -1    0    0  501    0  0.00000000000E+00  0.00000000000E+00  0.15404813195E+04  0.15404813195E+04  0.50400001928E-02 0.  1.
       -1   -1    0    0    0  501  0.00000000000E+00  0.00000000000E+00 -0.12163030694E+04  0.12163030694E+04  0.50400001928E-02 0. -1.
    10030    2    1    2    0    0  0.00000000000E+00  0.00000000000E+00  0.32417825005E+03  0.27567843889E+04  0.27376575077E+04 0.  0.
        5    1    3    3  502    0  0.70327598775E+02 -0.15065435867E+03 -0.12060893463E+04  0.12175041307E+04  0.46999998093E+01 0. -1.
       -5    1    3    3    0  502 -0.70327598775E+02  0.15065435867E+03  0.15302675964E+04  0.15392802583E+04  0.46999998093E+01 0.  1.
</event>
<event>
 5   0  0.1286641E-05  0.2633329E+04  0.7818609E-02  0.8356968E-01
       -2   -1    0    0    0  501  0.00000000000E+00  0.00000000000E+00  0.13014173214E+04  0.13014173214E+04  0.25500000920E-02 0.  1.
        2   -1    0    0  501    0  0.00000000000E+00  0.00000000000E+00 -0.13320901494E+04  0.13320901494E+04  0.25500000920E-02 0. -1.
    10030    2    1    2    0    0  0.00000000000E+00  0.00000000000E+00 -0.30672827980E+02  0.26335074708E+04  0.26333288393E+04 0.  0.
        4    1    3    3  502    0  0.75857654247E+03 -0.32853497126E+03 -0.10402132223E+04  0.13286906182E+04  0.12699999809E+01 0. -1.
       -4    1    3    3    0  502 -0.75857654247E+03  0.32853497126E+03  0.10095403943E+04  0.13048168526E+04  0.12699999809E+01 0.  1.
</event>
<event>
 5   0  0.1276517E-05  0.2691844E+04  0.7818609E-02  0.8337656E-01
       -2   -1    0    0    0  501  0.00000000000E+00  0.00000000000E+00  0.84374046058E+03  0.84374046059E+03  0.25500000920E-02 0. -1.
        2   -1    0    0  501    0  0.00000000000E+00  0.00000000000E+00 -0.21469943737E+04  0.21469943737E+04  0.25500000920E-02 0.  1.
    10030    2    1    2    0    0  0.00000000000E+00  0.00000000000E+00 -0.13032539131E+04  0.29907348343E+04  0.26918439938E+04 0.  0.
        1    1    3    3  502    0  0.38452244604E+03  0.14500220907E+03 -0.20755842192E+04  0.21158764149E+04  0.50400001928E-02 0.  1.
       -1    1    3    3    0  502 -0.38452244604E+03 -0.14500220907E+03  0.77233030611E+03  0.87485841935E+03  0.50400001928E-02 0. -1.
</event>
<event>
 5   0  0.1276517E-05  0.2743010E+04  0.7818609E-02  0.8321183E-01
       -2   -1    0    0    0  501  0.00000000000E+00  0.00000000000E+00  0.12181566533E+04  0.12181566533E+04  0.25500000920E-02 0.  1.
        2   -1    0    0  501    0  0.00000000000E+00  0.00000000000E+00 -0.15441581240E+04  0.15441581240E+04  0.25500000920E-02 0. -1.
    10030    2    1    2    0    0  0.00000000000E+00  0.00000000000E+00 -0.32600147072E+03  0.27623147774E+04  0.27430103847E+04 0.  0.
        1    1    3    3  502    0 -0.50734476898E+03  0.57493388212E+03  0.98213828195E+03  0.12460109503E+04  0.50400001928E-02 0.  1.
       -1    1    3    3    0  502  0.50734476898E+03 -0.57493388212E+03 -0.13081397527E+04  0.15163038271E+04  0.50400001928E-02 0. -1.
</event>
<event>
 5   0  0.4756800E-06  0.2695955E+04  0.7818609E-02  0.8336319E-01
       -1   -1    0    0    0  501  0.00000000000E+00  0.00000000000E+00  0.12079670849E+04  0.12079670849E+04  0.50400001928E-02 0. -1.
        1   -1    0    0  501    0  0.00000000000E+00  0.00000000000E+00 -0.15042158860E+04  0.15042158861E+04  0.50400001928E-02 0.  1.
    10030    2    1    2    0    0  0.00000000000E+00  0.00000000000E+00 -0.29624880111E+03  0.27121829710E+04  0.26959549544E+04 0.  0.
        4    1    3    3  502    0  0.11281266473E+03  0.46070367821E+03 -0.14174909100E+04  0.14947430111E+04  0.12699999809E+01 0.  1.
       -4    1    3    3    0  502 -0.11281266473E+03 -0.46070367821E+03  0.11212421088E+04  0.12174399599E+04  0.12699999809E+01 0. -1.
</event>
<event>
 5   0  0.1286641E-05  0.2668567E+04  0.7818609E-02  0.8345276E-01
        2   -1    0    0  501    0  0.00000000000E+00  0.00000000000E+00  0.10355570238E+04  0.10355570238E+04  0.25500000920E-02 0.  1.
       -2   -1    0    0    0  501  0.00000000000E+00  0.00000000000E+00 -0.17191838912E+04  0.17191838912E+04  0.25500000920E-02 0. -1.
    10030    2    1    2    0    0  0.00000000000E+00  0.00000000000E+00 -0.68362686739E+03  0.27547409149E+04  0.26685673712E+04 0.  0.
        4    1    3    3  502    0  0.71540363128E+03 -0.11233698212E+04 -0.42535405593E+03  0.13981022125E+04  0.12699999809E+01 0. -1.
       -4    1    3    3    0  502 -0.71540363128E+03  0.11233698212E+04 -0.25827281146E+03  0.13566387024E+04  0.12699999809E+01 0.  1.
</event>
<event>
 5   0  0.1286641E-05  0.2684044E+04  0.7818609E-02  0.8340201E-01
       -2   -1    0    0    0  501  0.00000000000E+00  0.00000000000E+00  0.96337193220E+03  0.96337193220E+03  0.25500000920E-02 0.  1.
        2   -1    0    0  501    0  0.00000000000E+00  0.00000000000E+00 -0.18694992213E+04  0.18694992213E+04  0.25500000920E-02 0. -1.
    10030    2    1    2    0    0  0.00000000000E+00  0.00000000000E+00 -0.90612728914E+03  0.28328711535E+04  0.26840440213E+04 0.  0.
        4    1    3    3  502    0 -0.85091594339E+03  0.75946988211E+02 -0.15454381933E+04  0.17658444750E+04  0.12699999809E+01 0. -1.
       -4    1    3    3    0  502  0.85091594339E+03 -0.75946988211E+02  0.63931090412E+03  0.10670266786E+04  0.12699999809E+01 0.  1.
</event>
<event>
 5   0  0.4846214E-06  0.2703983E+04  0.7818609E-02  0.8333714E-01
       -1   -1    0    0    0  501  0.00000000000E+00  0.00000000000E+00  0.30181971389E+04  0.30181971389E+04  0.50400001928E-02 0.  1.
        1   -1    0    0  501    0  0.00000000000E+00  0.00000000000E+00 -0.60562031750E+03  0.60562031753E+03  0.50400001928E-02 0. -1.
    10030    2    1    2    0    0  0.00000000000E+00  0.00000000000E+00  0.24125768214E+04  0.36238174564E+04  0.27039833650E+04 0.  0.
        2    1    3    3  502    0  0.74470739659E+03 -0.95040678962E+03  0.39106900773E+03  0.12691718328E+04  0.25500000920E-02 0.  1.
       -2    1    3    3    0  502 -0.74470739659E+03  0.95040678962E+03  0.20215078137E+04  0.23546456237E+04  0.25500000920E-02 0. -1.
</event>
<event>
 5   0  0.1276517E-05  0.2731757E+04  0.7818609E-02  0.8324774E-01
       -2   -1    0    0    0  501  0.00000000000E+00  0.00000000000E+00  0.17536955056E+04  0.17536955056E+04  0.25500000920E-02 0.  1.
        2   -1    0    0  501    0  0.00000000000E+00  0.00000000000E+00 -0.10638243950E+04  0.10638243950E+04  0.25500000920E-02 0. -1.
    10030    2    1    2    0    0  0.00000000000E+00  0.00000000000E+00  0.68987111063E+03  0.28175199007E+04  0.27317569880E+04 0.  0.
        1    1    3    3  502    0  0.12038623023E+04 -0.63689566966E+03  0.23822968597E+03  0.13826329666E+04  0.50400001928E-02 0. -1.
       -1    1    3    3    0  502 -0.12038623023E+04  0.63689566966E+03  0.45164142465E+03  0.14348869341E+04  0.50400001928E-02 0.  1.
</event>
<event>
 5   0  0.4824715E-06  0.2724633E+04  0.7818609E-02  0.8327056E-01
        1   -1    0    0  501    0  0.00000000000E+00  0.00000000000E+00  0.29643431164E+04  0.29643431164E+04  0.50400001928E-02 0. -1.
       -1   -1    0    0    0  501  0.00000000000E+00  0.00000000000E+00 -0.62607663961E+03  0.62607663963E+03  0.50400001928E-02 0.  1.
    10030    2    1    2    0    0  0.00000000000E+00  0.00000000000E+00  0.23382664768E+04  0.35904197560E+04  0.27246328024E+04 0.  0.
        5    1    3    3  502    0  0.58450133717E+03 -0.11158741616E+04  0.48558777511E+03  0.13500498269E+04  0.46999998093E+01 0.  1.
       -5    1    3    3    0  502 -0.58450133717E+03  0.11158741616E+04  0.18526787017E+04  0.22403699291E+04  0.46999998093E+01 0. -1.
</event>
<event>
 5   0  0.4824715E-06  0.2673559E+04  0.7818609E-02  0.8343635E-01
        1   -1    0    0  501    0  0.00000000000E+00  0.00000000000E+00  0.12792529544E+04  0.12792529544E+04  0.50400001928E-02 0. -1.
       -1   -1    0    0    0  501  0.00000000000E+00  0.00000000000E+00 -0.13968928908E+04  0.13968928908E+04  0.50400001928E-02 0.  1.
    10030    2    1    2    0    0  0.00000000000E+00  0.00000000000E+00 -0.11763993640E+03  0.26761458452E+04  0.26735589446E+04 0.  0.
        5    1    3    3  502    0  0.27642331314E+03  0.74228186615E+03 -0.11366929182E+04  0.13854548340E+04  0.46999998093E+01 0.  1.
       -5    1    3    3    0  502 -0.27642331314E+03 -0.74228186615E+03  0.10190529818E+04  0.12906910112E+04  0.46999998093E+01 0. -1.
</event>
<event>
 5   0  0.4824715E-06  0.2586764E+04  0.7818609E-02  0.8372711E-01
       -1   -1    0    0    0  501  0.00000000000E+00  0.00000000000E+00  0.10137851353E+04  0.10137851353E+04  0.50400001928E-02 0. -1.
        1   -1    0    0  501    0  0.00000000000E+00  0.00000000000E+00 -0.16500902093E+04  0.16500902093E+04  0.50400001928E-02 0.  1.
    10030    2    1    2    0    0  0.00000000000E+00  0.00000000000E+00 -0.63630507403E+03  0.26638753446E+04  0.25867639444E+04 0.  0.
        5    1    3    3  502    0 -0.11492827244E+04  0.69075637391E+02 -0.92494801663E+03  0.14768795305E+04  0.46999998093E+01 0.  1.
       -5    1    3    3    0  502  0.11492827244E+04 -0.69075637391E+02  0.28864294260E+03  0.11869958140E+04  0.46999998093E+01 0. -1.
</event>
<event>
 5   0  0.4846214E-06  0.2656523E+04  0.7818609E-02  0.8349251E-01
        1   -1    0    0  501    0  0.00000000000E+00  0.00000000000E+00  0.15559620581E+04  0.15559620581E+04  0.50400001928E-02 0.  1.
       -1   -1    0    0    0  501  0.00000000000E+00  0.00000000000E+00 -0.11338824999E+04  0.11338824999E+04  0.50400001928E-02 0. -1.
    10030    2    1    2    0    0  0.00000000000E+00  0.00000000000E+00  0.42207955823E+03  0.26898445580E+04  0.26565226506E+04 0.  0.
        2    1    3    3  502    0 -0.94232524294E+03  0.17109762838E+03 -0.72084508578E+03  0.11986946649E+04  0.25500000920E-02 0. -1.
       -2    1    3    3    0  502  0.94232524294E+03 -0.17109762838E+03  0.11429246440E+04  0.14911498931E+04  0.25500000920E-02 0.  1.
</event>
<event>
 5   0  0.1232559E-05  0.2729611E+04  0.7818609E-02  0.8325461E-01
        2   -1    0    0  501    0  0.00000000000E+00  0.00000000000E+00  0.24594843776E+04  0.24594843776E+04  0.25500000920E-02 0.  1.
       -2   -1    0    0    0  501  0.00000000000E+00  0.00000000000E+00 -0.75735135452E+03  0.75735135452E+03  0.25500000920E-02 0. -1.
    10030    2    1    2    0    0  0.00000000000E+00  0.00000000000E+00  0.17021330231E+04  0.32168357321E+04  0.27296108329E+04 0.  0.
        3    1    3    3  502    0 -0.54272728150E+03  0.73355379829E+03 -0.34499947695E+03  0.97554022283E+03  0.10100000352E+00 0. -1.
       -3    1    3    3    0  502  0.54272728150E+03 -0.73355379829E+03  0.20471325000E+04  0.22412955093E+04  0.10100000352E+00 0.  1.
</event>
<event>
 5   0  0.1261364E-05  0.2713291E+04  0.7818609E-02  0.8330705E-01
       -2   -1    0    0    0  501  0.00000000000E+00  0.00000000000E+00  0.11367692148E+04  0.11367692148E+04  0.25500000920E-02 0. -1.
        2   -1    0    0  501    0  0.00000000000E+00  0.00000000000E+00 -0.16190510433E+04  0.16190510433E+04  0.25500000920E-02 0.  1.
    10030    2    1    2    0    0  0.00000000000E+00  0.00000000000E+00 -0.48228182859E+03  0.27558202581E+04  0.27132912731E+04 0.  0.
        5    1    3    3  502    0 -0.13512422215E+04  0.12065483933E+03 -0.24847643512E+03  0.13791938806E+04  0.46999998093E+01 0.  1.
       -5    1    3    3    0  502  0.13512422215E+04 -0.12065483933E+03 -0.23380539347E+03  0.13766263775E+04  0.46999998093E+01 0. -1.
</event>
<event>
 5   0  0.1220908E-05  0.2676258E+04  0.7818609E-02  0.8342750E-01
       -2   -1    0    0    0  501  0.00000000000E+00  0.00000000000E+00  0.96483202787E+03  0.96483202788E+03  0.25500000920E-02 0. -1.
        2   -1    0    0  501    0  0.00000000000E+00  0.00000000000E+00 -0.18558562015E+04  0.18558562015E+04  0.25500000920E-02 0.  1.
    10030    2    1    2    0    0  0.00000000000E+00  0.00000000000E+00 -0.89102417362E+03  0.28206882294E+04  0.26762582105E+04 0.  0.
        2    1    3    3  502    0  0.34547735208E+03  0.82556290045E+03  0.60300290827E+03  0.10791298396E+04  0.25500000920E-02 0. -1.
       -2    1    3    3    0  502 -0.34547735208E+03 -0.82556290045E+03 -0.14940270819E+04  0.17415583897E+04  0.25500000920E-02 0.  1.
</event>
<event>
 5   0  0.4756800E-06  0.2695013E+04  0.7818609E-02  0.8336625E-01
        1   -1    0    0  501    0  0.00000000000E+00  0.00000000000E+00  0.14021077294E+04  0.14021077294E+04  0.50400001928E-02 0. -1.
       -1   -1    0    0    0  501  0.00000000000E+00  0.00000000000E+00 -0.12950316639E+04  0.12950316639E+04  0.50400001928E-02 0.  1.
    10030    2    1    2    0    0  0.00000000000E+00  0.00000000000E+00  0.10707606552E+03  0.26971393933E+04  0.26950131026E+04 0.  0.
        4    1    3    3  502    0  0.21141882734E+03  0.45171760381E+03 -0.11992585324E+04  0.12988338441E+04  0.12699999809E+01 0.  1.
       -4    1    3    3    0  502 -0.21141882734E+03 -0.45171760381E+03  0.13063345980E+04  0.13983055492E+04  0.12699999809E+01 0. -1.
</event>
<event>
 5   0  0.1276517E-05  0.2683618E+04  0.7818609E-02  0.8340340E-01
        2   -1    0    0  501    0  0.00000000000E+00  0.00000000000E+00  0.12672137139E+04  0.12672137139E+04  0.25500000920E-02 0. -1.
       -2   -1    0    0    0  501  0.00000000000E+00  0.00000000000E+00 -0.14207949539E+04  0.14207949539E+04  0.25500000920E-02 0.  1.
    10030    2    1    2    0    0  0.00000000000E+00  0.00000000000E+00 -0.15358123996E+03  0.26880086677E+04  0.26836175958E+04 0.  0.
        1    1    3    3  502    0 -0.10045300315E+04  0.19246720497E+03 -0.94673153521E+03  0.13937090116E+04  0.50400001928E-02 0.  1.
       -1    1    3    3    0  502  0.10045300315E+04 -0.19246720497E+03  0.79315029525E+03  0.12942996562E+04  0.50400001928E-02 0. -1.
</event>
<event>
 5   0  0.4846214E-06  0.2713549E+04  0.7818609E-02  0.8330622E-01
       -1   -1    0    0    0  501  0.00000000000E+00  0.00000000000E+00  0.68590010030E+03  0.68590010032E+03  0.50400001928E-02 0. -1.
        1   -1    0    0  501    0  0.00000000000E+00  0.00000000000E+00 -0.26838266576E+04  0.26838266576E+04  0.50400001928E-02 0.  1.
    10030    2    1    2    0    0  0.00000000000E+00  0.00000000000E+00 -0.19979265573E+04  0.33697267579E+04  0.27135489483E+04 0.  0.
        2    1    3    3  502    0 -0.12055501176E+04 -0.27747836136E+03 -0.30700169046E+03  0.12745961576E+04  0.25500000920E-02 0.  1.
       -2    1    3    3    0  502  0.12055501176E+04  0.27747836136E+03 -0.16909248668E+04  0.20951306003E+04  0.25500000920E-02 0. -1.
</event>
<event>
 5   0  0.4826140E-06  0.2698721E+04  0.7818609E-02  0.8335420E-01
        1   -1    0    0  501    0  0.00000000000E+00  0.00000000000E+00  0.16584098581E+04  0.16584098581E+04  0.50400001928E-02 0. -1.
       -1   -1    0    0    0  501  0.00000000000E+00  0.00000000000E+00 -0.10979034985E+04  0.10979034986E+04  0.50400001928E-02 0.  1.
    10030    2    1    2    0    0  0.00000000000E+00  0.00000000000E+00  0.56050635955E+03  0.27563133567E+04  0.26987211677E+04 0.  0.
        1    1    3    3  502    0 -0.90380756653E+03  0.18236498631E+03  0.12864933548E+04  0.15827792826E+04  0.50400001928E-02 0. -1.
       -1    1    3    3    0  502  0.90380756653E+03 -0.18236498631E+03 -0.72598699527E+03  0.11735340740E+04  0.50400001928E-02 0.  1.
</event>
<event>
 5   0  0.5152288E-06  0.2675616E+04  0.7818609E-02  0.8342960E-01
        1   -1    0    0  501    0  0.00000000000E+00  0.00000000000E+00  0.16217331205E+04  0.16217331206E+04  0.50400001928E-02 0.  1.
       -1   -1    0    0    0  501  0.00000000000E+00  0.00000000000E+00 -0.11035909587E+04  0.11035909587E+04  0.50400001928E-02 0. -1.
    10030    2    1    2    0    0  0.00000000000E+00  0.00000000000E+00  0.51814216183E+03  0.27253240793E+04  0.26756158239E+04 0.  0.
        3    1    3    3  502    0 -0.13280944856E+04  0.98816982492E+02  0.38843549297E+03  0.13872569701E+04  0.10100000352E+00 0.  1.
       -3    1    3    3    0  502  0.13280944856E+04 -0.98816982492E+02  0.12970666887E+03  0.13380671092E+04  0.10100000352E+00 0. -1.
</event>
<event>
 5   0  0.4846214E-06  0.2697631E+04  0.7818609E-02  0.8335774E-01
        1   -1    0    0  501    0  0.00000000000E+00  0.00000000000E+00  0.23742475312E+04  0.23742475312E+04  0.50400001928E-02 0.  1.
       -1   -1    0    0    0  501  0.00000000000E+00  0.00000000000E+00 -0.76626544773E+03  0.76626544774E+03  0.50400001928E-02 0. -1.
    10030    2    1    2    0    0  0.00000000000E+00  0.00000000000E+00  0.16079820835E+04  0.31405129789E+04  0.26976314408E+04 0.  0.
        2    1    3    3  502    0 -0.31990270054E+03 -0.83726019640E+03  0.19774194484E+04  0.21710665695E+04  0.25500000920E-02 0.  1.
       -2    1    3    3    0  502  0.31990270054E+03  0.83726019640E+03 -0.36943736488E+03  0.96944640949E+03  0.25500000920E-02 0. -1.
</event>
<event>
 5   0  0.5152288E-06  0.2476819E+04  0.7818609E-02  0.8411291E-01
       -1   -1    0    0    0  501  0.00000000000E+00  0.00000000000E+00  0.12613576421E+04  0.12613576421E+04  0.50400001928E-02 0.  1.
        1   -1    0    0  501    0  0.00000000000E+00  0.00000000000E+00 -0.12158785081E+04  0.12158785081E+04  0.50400001928E-02 0. -1.
    10030    2    1    2    0    0  0.00000000000E+00  0.00000000000E+00  0.45479133993E+02  0.24772361502E+04  0.24768186433E+04 0.  0.
        3    1    3    3  502    0  0.98462135675E+03 -0.36694097083E+03  0.67823752030E+03  0.12506522444E+04  0.10100000352E+00 0.  1.
       -3    1    3    3    0  502 -0.98462135675E+03  0.36694097083E+03 -0.63275838631E+03  0.12265839058E+04  0.10100000352E+00 0. -1.
</event>
<event>
 5   0  0.4826140E-06  0.2706562E+04  0.7818609E-02  0.8332879E-01
        1   -1    0    0  501    0  0.00000000000E+00  0.00000000000E+00  0.18816962252E+04  0.18816962252E+04  0.50400001928E-02 0. -1.
       -1   -1    0    0    0  501  0.00000000000E+00  0.00000000000E+00 -0.97325433486E+03  0.97325433487E+03  0.50400001928E-02 0.  1.
    10030    2    1    2    0    0  0.00000000000E+00  0.00000000000E+00  0.90844189033E+03  0.28549505601E+04  0.27065616624E+04 0.  0.
        1    1    3    3  502    0  0.20333606323E+03 -0.10283673804E+04  0.13569963791E+04  0.17147373550E+04  0.50400001928E-02 0. -1.
       -1    1    3    3    0  502 -0.20333606323E+03  0.10283673804E+04 -0.44855448873E+03  0.11402132051E+04  0.50400001928E-02 0.  1.
</event>
<event>
 5   0  0.4846214E-06  0.2857036E+04  0.7818609E-02  0.8285777E-01
       -1   -1    0    0    0  501  0.00000000000E+00  0.00000000000E+00  0.11822652906E+04  0.11822652906E+04  0.50400001928E-02 0. -1.
        1   -1    0    0  501    0  0.00000000000E+00  0.00000000000E+00 -0.17260618330E+04  0.17260618330E+04  0.50400001928E-02 0.  1.
    10030    2    1    2    0    0  0.00000000000E+00  0.00000000000E+00 -0.54379654240E+03  0.29083271237E+04  0.28570355228E+04 0.  0.
        2    1    3    3  502    0  0.12112896495E+03  0.14162673947E+04 -0.41649570781E+03  0.14812002681E+04  0.25500000920E-02 0.  1.
       -2    1    3    3    0  502 -0.12112896495E+03 -0.14162673947E+04 -0.12730083459E+03  0.14271268556E+04  0.25500000920E-02 0. -1.
</event>
<event>
 5   0  0.1220908E-05  0.2697364E+04  0.7818609E-02  0.8335861E-01
       -2   -1    0    0    0  501  0.00000000000E+00  0.00000000000E+00  0.93285598867E+03  0.93285598867E+03  0.25500000920E-02 0.  1.
        2   -1    0    0  501    0  0.00000000000E+00  0.00000000000E+00 -0.19498647075E+04  0.19498647075E+04  0.25500000920E-02 0. -1.
    10030    2    1    2    0    0  0.00000000000E+00  0.00000000000E+00 -0.10170087188E+04  0.28827206962E+04  0.26973638757E+04 0.  0.
        2    1    3    3  502    0 -0.15106806052E+03 -0.89700733432E+03 -0.15726699811E+04  0.18167923894E+04  0.25500000920E-02 0. -1.
       -2    1    3    3    0  502  0.15106806052E+03  0.89700733432E+03  0.55566126229E+03  0.10659283068E+04  0.25500000920E-02 0.  1.
</event>
<event>
 5   0  0.4846214E-06  0.2607119E+04  0.7818609E-02  0.8365787E-01
        1   -1    0    0  501    0  0.00000000000E+00  0.00000000000E+00  0.18925723715E+04  0.18925723715E+04  0.50400001928E-02 0. -1.
       -1   -1    0    0    0  501  0.00000000000E+00  0.00000000000E+00 -0.89786150872E+03  0.89786150874E+03  0.50400001928E-02 0.  1.
    10030    2    1    2    0    0  0.00000000000E+00  0.00000000000E+00  0.99471086278E+03  0.27904338802E+04  0.26071193949E+04 0.  0.
        2    1    3    3  502    0 -0.10627693824E+04  0.61522725877E+03  0.96546849019E+03  0.15620860238E+04  0.25500000920E-02 0. -1.
       -2    1    3    3    0  502  0.10627693824E+04 -0.61522725877E+03  0.29242372590E+02  0.12283478565E+04  0.25500000920E-02 0.  1.
</event>
<event>
 5   0  0.4824715E-06  0.2388114E+04  0.7818609E-02  0.8443967E-01
        1   -1    0    0  501    0  0.00000000000E+00  0.00000000000E+00  0.94722380397E+03  0.94722380398E+03  0.50400001928E-02 0.  1.
       -1   -1    0    0    0  501  0.00000000000E+00  0.00000000000E+00 -0.15052112040E+04  0.15052112040E+04  0.50400001928E-02 0. -1.
    10030    2    1    2    0    0  0.00000000000E+00  0.00000000000E+00 -0.55798740001E+03  0.24524350080E+04  0.23881138017E+04 0.  0.
        5    1    3    3  502    0 -0.73972492201E+03  0.75021490869E+03  0.29804302607E+03  0.10949278994E+04  0.46999998093E+01 0.  1.
       -5    1    3    3    0  502  0.73972492201E+03 -0.75021490869E+03 -0.85603042608E+03  0.13575071086E+04  0.46999998093E+01 0. -1.
</event>
<event>
 5   0  0.4188000E-06  0.2708330E+04  0.7818609E-02  0.8332307E-01
       -3   -1    0    0    0  501  0.00000000000E+00  0.00000000000E+00  0.12288498250E+04  0.12288498292E+04  0.10100000352E+00 0. -1.
        3   -1    0    0  501    0  0.00000000000E+00  0.00000000000E+00 -0.14922591587E+04  0.14922591621E+04  0.10100000352E+00 0.  1.
    10030    2    1    2    0    0  0.00000000000E+00  0.00000000000E+00 -0.26340933367E+03  0.27211089913E+04  0.27083296818E+04 0.  0.
        5    1    3    3  502    0  0.61913378701E+01 -0.81190973653E+03 -0.12205639650E+04  0.14659584699E+04  0.46999998093E+01 0.  1.
       -5    1    3    3    0  502 -0.61913378701E+01  0.81190973653E+03  0.95715463133E+03  0.12551505213E+04  0.46999998093E+01 0. -1.
</event>
<event>
 5   0  0.1232559E-05  0.2696401E+04  0.7818609E-02  0.8336174E-01
        2   -1    0    0  501    0  0.00000000000E+00  0.00000000000E+00  0.10916269059E+04  0.10916269059E+04  0.25500000920E-02 0. -1.
       -2   -1    0    0    0  501  0.00000000000E+00  0.00000000000E+00 -0.16650786443E+04  0.16650786443E+04  0.25500000920E-02 0.  1.
    10030    2    1    2    0    0  0.00000000000E+00  0.00000000000E+00 -0.57345173845E+03  0.27567055502E+04  0.26964010448E+04 0.  0.
        3    1    3    3  502    0 -0.76948859131E+03  0.68555487034E+03 -0.11753876102E+04  0.15632127868E+04  0.10100000352E+00 0.  1.
       -3    1    3    3    0  502  0.76948859131E+03 -0.68555487034E+03  0.60193587177E+03  0.11934927634E+04  0.10100000352E+00 0. -1.
</event>
<event>
 5   0  0.1232559E-05  0.2676988E+04  0.7818609E-02  0.8342510E-01
        2   -1    0    0  501    0  0.00000000000E+00  0.00000000000E+00  0.14281894951E+04  0.14281894951E+04  0.25500000920E-02 0. -1.
       -2   -1    0    0    0  501  0.00000000000E+00  0.00000000000E+00 -0.12544318069E+04  0.12544318069E+04  0.25500000920E-02 0.  1.
    10030    2    1    2    0    0  0.00000000000E+00  0.00000000000E+00  0.17375768819E+03  0.26826213020E+04  0.26769881052E+04 0.  0.
        3    1    3    3  502    0  0.46536727832E+03 -0.71065404468E+03 -0.94969159143E+03  0.12741703199E+04  0.10100000352E+00 0.  1.
       -3    1    3    3    0  502 -0.46536727832E+03  0.71065404468E+03  0.11234492796E+04  0.14084509821E+04  0.10100000352E+00 0. -1.
</event>
<event>
 5   0  0.1286641E-05  0.2697130E+04  0.7818609E-02  0.8335937E-01
       -2   -1    0    0    0  501  0.00000000000E+00  0.00000000000E+00  0.72339591789E+03  0.72339591789E+03  0.25500000920E-02 0. -1.
        2   -1    0    0  501    0  0.00000000000E+00  0.00000000000E+00 -0.25140144275E+04  0.25140144275E+04  0.25500000920E-02 0.  1.
    10030    2    1    2    0    0  0.00000000000E+00  0.00000000000E+00 -0.17906185096E+04  0.32374103454E+04  0.26971301595E+04 0.  0.
        4    1    3    3  502    0 -0.10259497070E+04  0.51819148967E+03 -0.17419631127E+04  0.20869912123E+04  0.12699999809E+01 0.  1.
       -4    1    3    3    0  502  0.10259497070E+04 -0.51819148967E+03 -0.48655396880E+02  0.11504191331E+04  0.12699999809E+01 0. -1.
</event>
<event>
 5   0  0.1232559E-05  0.2722132E+04  0.7818609E-02  0.8327859E-01
        2   -1    0    0  501    0  0.00000000000E+00  0.00000000000E+00  0.17363336242E+04  0.17363336242E+04  0.25500000920E-02 0. -1.
       -2   -1    0    0    0  501  0.00000000000E+00  0.00000000000E+00 -0.10669039573E+04  0.10669039573E+04  0.25500000920E-02 0.  1.
    10030    2    1    2    0    0  0.00000000000E+00  0.00000000000E+00  0.66942966696E+03  0.28032375815E+04  0.27221324104E+04 0.  0.
        3    1    3    3  502    0 -0.10758824312E+04 -0.31117550159E+03 -0.46172869952E+03  0.12114233779E+04  0.10100000352E+00 0.  1.
       -3    1    3    3    0  502  0.10758824312E+04  0.31117550159E+03  0.11311583665E+04  0.15918142036E+04  0.10100000352E+00 0. -1.
</event>
<event>
 5   0  0.1276517E-05  0.2460057E+04  0.7818609E-02  0.8417355E-01
       -2   -1    0    0    0  501  0.00000000000E+00  0.00000000000E+00  0.11293620203E+04  0.11293620203E+04  0.25500000920E-02 0.  1.
        2   -1    0    0  501    0  0.00000000000E+00  0.00000000000E+00 -0.13396680442E+04  0.13396680442E+04  0.25500000920E-02 0. -1.
    10030    2    1    2    0    0  0.00000000000E+00  0.00000000000E+00 -0.21030602384E+03  0.24690300645E+04  0.24600570798E+04 0.  0.
        1    1    3    3  502    0  0.32922014892E+03 -0.11390200111E+04 -0.43378850924E+03  0.12625074110E+04  0.50400001928E-02 0. -1.
       -1    1    3    3    0  502 -0.32922014892E+03  0.11390200111E+04  0.22348248540E+03  0.12065226535E+04  0.50400001928E-02 0.  1.
</event>
<event>
 5   0  0.1261364E-05  0.2693214E+04  0.7818609E-02  0.8337210E-01
        2   -1    0    0  501    0  0.00000000000E+00  0.00000000000E+00  0.12778367457E+04  0.12778367457E+04  0.25500000920E-02 0.  1.
       -2   -1    0    0    0  501  0.00000000000E+00  0.00000000000E+00 -0.14190782050E+04  0.14190782050E+04  0.25500000920E-02 0. -1.
    10030    2    1    2    0    0  0.00000000000E+00  0.00000000000E+00 -0.14124145932E+03  0.26969149507E+04  0.26932138982E+04 0.  0.
        5    1    3    3  502    0  0.11285991365E+04  0.42378728794E+02  0.66373295053E+03  0.13099982776E+04  0.46999998093E+01 0.  1.
       -5    1    3    3    0  502 -0.11285991365E+04 -0.42378728794E+02 -0.80497440985E+03  0.13869166731E+04  0.46999998093E+01 0. -1.
</event>
<event>
 5   0  0.1261364E-05  0.2748065E+04  0.7818609E-02  0.8319576E-01
       -2   -1    0    0    0  501  0.00000000000E+00  0.00000000000E+00  0.13231755506E+04  0.13231755506E+04  0.25500000920E-02 0.  1.
        2   -1    0    0  501    0  0.00000000000E+00  0.00000000000E+00 -0.14268442478E+04  0.14268442478E+04  0.25500000920E-02 0. -1.
    10030    2    1    2    0    0  0.00000000000E+00  0.00000000000E+00 -0.10366869724E+03  0.27500197984E+04  0.27480650816E+04 0.  0.
        5    1    3    3  502    0  0.12582961087E+04 -0.36931666200E+02  0.49925718451E+03  0.13542351610E+04  0.46999998093E+01 0.  1.
       -5    1    3    3    0  502 -0.12582961087E+04  0.36931666200E+02 -0.60292588175E+03  0.13957846374E+04  0.46999998093E+01 0. -1.
</event>
<event>
 5   0  0.5152288E-06  0.2704039E+04  0.7818609E-02  0.8333696E-01
        1   -1    0    0  501    0  0.00000000000E+00  0.00000000000E+00  0.16842949189E+04  0.16842949189E+04  0.50400001928E-02 0.  1.
       -1   -1    0    0    0  501  0.00000000000E+00  0.00000000000E+00 -0.10852950473E+04  0.10852950473E+04  0.50400001928E-02 0. -1.
    10030    2    1    2    0    0  0.00000000000E+00  0.00000000000E+00  0.59899987158E+03  0.27695899662E+04  0.27040391518E+04 0.  0.
        3    1    3    3  502    0 -0.70071491806E+03  0.11080026280E+04  0.63809777137E+03  0.14580260615E+04  0.10100000352E+00 0. -1.
       -3    1    3    3    0  502  0.70071491806E+03 -0.11080026280E+04 -0.39097899791E+02  0.13115639047E+04  0.10100000352E+00 0.  1.
</event>
<event>
 5   0  0.4826140E-06  0.2684998E+04  0.7818609E-02  0.8339889E-01
       -1   -1    0    0    0  501  0.00000000000E+00  0.00000000000E+00  0.75153598434E+03  0.75153598436E+03  0.50400001928E-02 0. -1.
        1   -1    0    0  501    0  0.00000000000E+00  0.00000000000E+00 -0.23981604855E+04  0.23981604855E+04  0.50400001928E-02 0.  1.
    10030    2    1    2    0    0  0.00000000000E+00  0.00000000000E+00 -0.16466245011E+04  0.31496964698E+04  0.26849982503E+04 0.  0.
        1    1    3    3  502    0 -0.10381700256E+04 -0.68539178778E+03 -0.14153883469E+04  0.18843786979E+04  0.50400001928E-02 0.  1.
       -1    1    3    3    0  502  0.10381700256E+04  0.68539178778E+03 -0.23123615427E+03  0.12653177719E+04  0.50400001928E-02 0. -1.
</event>
<event>
 5   0  0.5152288E-06  0.2705558E+04  0.7818609E-02  0.8333204E-01
        1   -1    0    0  501    0  0.00000000000E+00  0.00000000000E+00  0.17836249909E+04  0.17836249910E+04  0.50400001928E-02 0.  1.
       -1   -1    0    0    0  501  0.00000000000E+00  0.00000000000E+00 -0.10260064957E+04  0.10260064957E+04  0.50400001928E-02 0. -1.
    10030    2    1    2    0    0  0.00000000000E+00  0.00000000000E+00  0.75761849522E+03  0.28096314867E+04  0.27055578550E+04 0.  0.
        3    1    3    3  502    0 -0.10316674572E+04 -0.53132143626E+03  0.11008016949E+04  0.15995013575E+04  0.10100000352E+00 0.  1.
       -3    1    3    3    0  502  0.10316674572E+04  0.53132143626E+03 -0.34318319972E+03  0.12101301292E+04  0.10100000352E+00 0. -1.
</event>
<event>
 5   0  0.4826140E-06  0.2676645E+04  0.7818609E-02  0.8342623E-01
        1   -1    0    0  501    0  0.00000000000E+00  0.00000000000E+00  0.16625456668E+04  0.16625456668E+04  0.50400001928E-02 0.  1.
       -1   -1    0    0    0  501  0.00000000000E+00  0.00000000000E+00 -0.10773279473E+04  0.10773279473E+04  0.50400001928E-02 0. -1.
    10030    2    1    2    0    0  0.00000000000E+00  0.00000000000E+00  0.58521771948E+03  0.27398736142E+04  0.26766448480E+04 0.  0.
        1    1    3    3  502    0  0.62175967350E+03 -0.70962576199E+03 -0.67899866769E+03  0.11624082779E+04  0.50400001928E-02 0. -1.
       -1    1    3    3    0  502 -0.62175967350E+03  0.70962576199E+03  0.12642163872E+04  0.15774653363E+04  0.50400001928E-02 0.  1.
</event>
<event>
 5   0  0.4756800E-06  0.2688945E+04  0.7818609E-02  0.8338601E-01
        1   -1    0    0  501    0  0.00000000000E+00  0.00000000000E+00  0.10872930769E+04  0.10872930769E+04  0.50400001928E-02 0.  1.
       -1   -1    0    0    0  501  0.00000000000E+00  0.00000000000E+00 -0.16624829241E+04  0.16624829241E+04  0.50400001928E-02 0. -1.
    10030    2    1    2    0    0  0.00000000000E+00  0.00000000000E+00 -0.57518984717E+03  0.27497760010E+04  0.26889449037E+04 0.  0.
        4    1    3    3  502    0 -0.71738861660E+02 -0.12655714892E+04 -0.74582448537E+03  0.14707390776E+04  0.12699999809E+01 0. -1.
       -4    1    3    3    0  502  0.71738861660E+02  0.12655714892E+04  0.17063463820E+03  0.12790369233E+04  0.12699999809E+01 0.  1.
</event>
<event>
 5   0  0.1286641E-05  0.2738956E+04  0.7818609E-02  0.8322475E-01
        2   -1    0    0  501    0  0.00000000000E+00  0.00000000000E+00  0.19878537434E+04  0.19878537434E+04  0.25500000920E-02 0. -1.
       -2   -1    0    0    0  501  0.00000000000E+00  0.00000000000E+00 -0.94346479392E+03  0.94346479392E+03  0.25500000920E-02 0.  1.
    10030    2    1    2    0    0  0.00000000000E+00  0.00000000000E+00  0.10443889495E+04  0.29313185373E+04  0.27389560218E+04 0.  0.
        4    1    3    3  502    0  0.17721273812E+03 -0.86191367065E+03 -0.60087059544E+03  0.10655264500E+04  0.12699999809E+01 0.  1.
       -4    1    3    3    0  502 -0.17721273812E+03  0.86191367065E+03  0.16452595449E+04  0.18657920874E+04  0.12699999809E+01 0. -1.
</event>
<event>
 5   0  0.1261364E-05  0.2695769E+04  0.7818609E-02  0.8336379E-01
       -2   -1    0    0    0  501  0.00000000000E+00  0.00000000000E+00  0.83517831330E+03  0.83517831330E+03  0.25500000920E-02 0.  1.
        2   -1    0    0  501    0  0.00000000000E+00  0.00000000000E+00 -0.21753345804E+04  0.21753345804E+04  0.25500000920E-02 0. -1.
    10030    2    1    2    0    0  0.00000000000E+00  0.00000000000E+00 -0.13401562671E+04  0.30105128937E+04  0.26957687332E+04 0.  0.
        5    1    3    3  502    0  0.40354190231E+03  0.95072088235E+03 -0.16372509912E+04  0.19358019427E+04  0.46999998093E+01 0. -1.
       -5    1    3    3    0  502 -0.40354190231E+03 -0.95072088235E+03  0.29709472415E+03  0.10747109510E+04  0.46999998093E+01 0.  1.
</event>
<event>
 5   0  0.4826140E-06  0.2810161E+04  0.7818609E-02  0.8300121E-01
       -1   -1    0    0    0  501  0.00000000000E+00  0.00000000000E+00  0.68547260476E+03  0.68547260478E+03  0.50400001928E-02 0.  1.
        1   -1    0    0  501    0  0.00000000000E+00  0.00000000000E+00 -0.28801314219E+04  0.28801314219E+04  0.50400001928E-02 0. -1.
    10030    2    1    2    0    0  0.00000000000E+00  0.00000000000E+00 -0.21946588171E+04  0.35656040267E+04  0.28101609832E+04 0.  0.
        1    1    3    3  502    0  0.59596762865E+03  0.44472115616E+03 -0.26099998173E+04  0.27138631814E+04  0.50400001928E-02 0. -1.
       -1    1    3    3    0  502 -0.59596762865E+03 -0.44472115616E+03  0.41534100012E+03  0.85174084529E+03  0.50400001928E-02 0.  1.
</event>
<event>
 5   0  0.1232559E-05  0.2709116E+04  0.7818609E-02  0.8332053E-01
       -2   -1    0    0    0  501  0.00000000000E+00  0.00000000000E+00  0.10280205104E+04  0.10280205104E+04  0.25500000920E-02 0.  1.
        2   -1    0    0  501    0  0.00000000000E+00  0.00000000000E+00 -0.17848158445E+04  0.17848158445E+04  0.25500000920E-02 0. -1.
    10030    2    1    2    0    0  0.00000000000E+00  0.00000000000E+00 -0.75679533410E+03  0.28128363550E+04  0.27091159411E+04 0.  0.
        3    1    3    3  502    0 -0.27372336526E+03  0.12024115728E+04  0.20351419878E+03  0.12498544357E+04  0.10100000352E+00 0.  1.
       -3    1    3    3    0  502  0.27372336526E+03 -0.12024115728E+04 -0.96030953288E+03  0.15629819193E+04  0.10100000352E+00 0. -1.
</event>
<event>
 5   0  0.1276517E-05  0.2470106E+04  0.7818609E-02  0.8413714E-01
       -2   -1    0    0    0  501  0.00000000000E+00  0.00000000000E+00  0.97716779228E+03  0.97716779228E+03  0.25500000920E-02 0.  1.
        2   -1    0    0  501    0  0.00000000000E+00  0.00000000000E+00 -0.15609963630E+04  0.15609963630E+04  0.25500000920E-02 0. -1.
    10030    2    1    2    0    0  0.00000000000E+00  0.00000000000E+00 -0.58382857077E+03  0.25381641553E+04  0.24701055604E+04 0.  0.
        1    1    3    3  502    0  0.11509947214E+04 -0.42541228709E+03 -0.14809025133E+03  0.12359996704E+04  0.50400001928E-02 0. -1.
       -1    1    3    3    0  502 -0.11509947214E+04  0.42541228709E+03 -0.43573831944E+03  0.13021644849E+04  0.50400001928E-02 0.  1.
</event>
<event>
 5   0  0.1220908E-05  0.2718059E+04  0.7818609E-02  0.8329169E-01
        2   -1    0    0  501    0  0.00000000000E+00  0.00000000000E+00  0.14678939686E+04  0.14678939686E+04  0.25500000920E-02 0.  1.
       -2   -1    0    0    0  501  0.00000000000E+00  0.00000000000E+00 -0.12582389285E+04  0.12582389285E+04  0.25500000920E-02 0. -1.
    10030    2    1    2    0    0  0.00000000000E+00  0.00000000000E+00  0.20965504005E+03  0.27261328971E+04  0.27180591121E+04 0.  0.
        2    1    3    3  502    0  0.30425868450E+03  0.12090565996E+04 -0.43767669327E+03  0.13213448059E+04  0.25500000920E-02 0.  1.
       -2    1    3    3    0  502 -0.30425868450E+03 -0.12090565996E+04  0.64733173332E+03  0.14047880912E+04  0.25500000920E-02 0. -1.
</event>
<event>
 5   0  0.4846214E-06  0.3032129E+04  0.7818609E-02  0.8234615E-01
       -1   -1    0    0    0  501  0.00000000000E+00  0.00000000000E+00  0.11196965581E+04  0.11196965581E+04  0.50400001928E-02 0.  1.
        1   -1    0    0  501    0  0.00000000000E+00  0.00000000000E+00 -0.20527452195E+04  0.20527452195E+04  0.50400001928E-02 0. -1.
    10030    2    1    2    0    0  0.00000000000E+00  0.00000000000E+00 -0.93304866138E+03  0.31724417776E+04  0.30321291245E+04 0.  0.
        2    1    3    3  502    0 -0.55075286122E+02 -0.77426348392E+03  0.89601958716E+03  0.11854823197E+04  0.25500000920E-02 0.  1.
       -2    1    3    3    0  502  0.55075286122E+02  0.77426348392E+03 -0.18290682485E+04  0.19869594579E+04  0.25500000920E-02 0. -1.
</event>
<event>
 5   0  0.4756800E-06  0.2692317E+04  0.7818609E-02  0.8337502E-01
        1   -1    0    0  501    0  0.00000000000E+00  0.00000000000E+00  0.12472906894E+04  0.12472906894E+04  0.50400001928E-02 0.  1.
       -1   -1    0    0    0  501  0.00000000000E+00  0.00000000000E+00 -0.14528631278E+04  0.14528631278E+04  0.50400001928E-02 0. -1.
    10030    2    1    2    0    0  0.00000000000E+00  0.00000000000E+00 -0.20557243839E+03  0.27001538173E+04  0.26923169593E+04 0.  0.
        4    1    3    3  502    0 -0.13481894394E+03 -0.61876483416E+03  0.10885667189E+04  0.12593749172E+04  0.12699999809E+01 0.  1.
       -4    1    3    3    0  502  0.13481894394E+03  0.61876483416E+03 -0.12941391573E+04  0.14407789001E+04  0.12699999809E+01 0. -1.
</event>
<event>
 5   0  0.1261364E-05  0.2650259E+04  0.7818609E-02  0.8351327E-01
       -2   -1    0    0    0  501  0.00000000000E+00  0.00000000000E+00  0.12985880568E+04  0.12985880568E+04  0.25500000920E-02 0.  1.
        2   -1    0    0  501    0  0.00000000000E+00  0.00000000000E+00 -0.13522136347E+04  0.13522136347E+04  0.25500000920E-02 0. -1.
    10030    2    1    2    0    0  0.00000000000E+00  0.00000000000E+00 -0.53625577949E+02  0.26508016915E+04  0.26502592147E+04 0.  0.
        5    1    3    3  502    0 -0.73617445566E+02 -0.34269821048E+03  0.12513708478E+04  0.12995432584E+04  0.46999998093E+01 0.  1.
       -5    1    3    3    0  502  0.73617445566E+02  0.34269821048E+03 -0.13049964257E+04  0.13512584331E+04  0.46999998093E+01 0. -1.
</event>
<event>
 5   0  0.4846214E-06  0.2690303E+04  0.7818609E-02  0.8338158E-01
       -1   -1    0    0    0  501  0.00000000000E+00  0.00000000000E+00  0.90794690158E+03  0.90794690160E+03  0.50400001928E-02 0.  1.
        1   -1    0    0  501    0  0.00000000000E+00  0.00000000000E+00 -0.19928834915E+04  0.19928834915E+04  0.50400001928E-02 0. -1.
    10030    2    1    2    0    0  0.00000000000E+00  0.00000000000E+00 -0.10849365899E+04  0.29008303931E+04  0.26903028761E+04 0.  0.
        2    1    3    3  502    0  0.41914017363E+03  0.59462169317E+03  0.67752235352E+03  0.99412774967E+03  0.25500000920E-02 0.  1.
       -2    1    3    3    0  502 -0.41914017363E+03 -0.59462169317E+03 -0.17624589434E+04  0.19067026434E+04  0.25500000920E-02 0. -1.
</event>
<event>
 5   0  0.4824715E-06  0.2708936E+04  0.7818609E-02  0.8332111E-01
       -1   -1    0    0    0  501  0.00000000000E+00  0.00000000000E+00  0.17344162355E+04  0.17344162355E+04  0.50400001928E-02 0. -1.
        1   -1    0    0  501    0  0.00000000000E+00  0.00000000000E+00 -0.10577531326E+04  0.10577531326E+04  0.50400001928E-02 0.  1.
    10030    2    1    2    0    0  0.00000000000E+00  0.00000000000E+00  0.67666310292E+03  0.27921693682E+04  0.27089364750E+04 0.  0.
        5    1    3    3  502    0  0.41377166119E+03  0.33029085558E+03  0.16233376914E+04  0.17074971119E+04  0.46999998093E+01 0. -1.
       -5    1    3    3    0  502 -0.41377166119E+03 -0.33029085558E+03 -0.94667458851E+03  0.10846722562E+04  0.46999998093E+01 0.  1.
</event>
<event>
 5   0  0.4756800E-06  0.2709396E+04  0.7818609E-02  0.8331963E-01
        1   -1    0    0  501    0  0.00000000000E+00  0.00000000000E+00  0.18311425691E+04  0.18311425691E+04  0.50400001928E-02 0. -1.
       -1   -1    0    0    0  501  0.00000000000E+00  0.00000000000E+00 -0.10022197513E+04  0.10022197513E+04  0.50400001928E-02 0.  1.
    10030    2    1    2    0    0  0.00000000000E+00  0.00000000000E+00  0.82892281778E+03  0.28333623204E+04  0.27093964274E+04 0.  0.
        4    1    3    3  502    0 -0.32301413617E+03  0.91490244490E+03 -0.57421652774E+03  0.11274355190E+04  0.12699999809E+01 0.  1.
       -4    1    3    3    0  502  0.32301413617E+03 -0.91490244490E+03  0.14031393455E+04  0.17059268014E+04  0.12699999809E+01 0. -1.
</event>
<event>
 5   0  0.5152288E-06  0.2686840E+04  0.7818609E-02  0.8339287E-01
       -1   -1    0    0    0  501  0.00000000000E+00  0.00000000000E+00  0.65961270825E+03  0.65961270827E+03  0.50400001928E-02 0. -1.
        1   -1    0    0  501    0  0.00000000000E+00  0.00000000000E+00 -0.27361173441E+04  0.27361173441E+04  0.50400001928E-02 0.  1.
    10030    2    1    2    0    0  0.00000000000E+00  0.00000000000E+00 -0.20765046358E+04  0.33957300524E+04  0.26868403536E+04 0.  0.
        3    1    3    3  502    0 -0.44744992792E+03  0.19371962272E+03  0.54383774498E+03  0.73040963389E+03  0.10100000352E+00 0. -1.
       -3    1    3    3    0  502  0.44744992792E+03 -0.19371962272E+03 -0.26203423808E+04  0.26653204185E+04  0.10100000352E+00 0.  1.
</event>
<event>
 5   0  0.4824715E-06  0.2697653E+04  0.7818609E-02  0.8335767E-01
       -1   -1    0    0    0  501  0.00000000000E+00  0.00000000000E+00  0.80400799008E+03  0.80400799010E+03  0.50400001928E-02 0. -1.
        1   -1    0    0  501    0  0.00000000000E+00  0.00000000000E+00 -0.22628293250E+04  0.22628293250E+04  0.50400001928E-02 0.  1.
    10030    2    1    2    0    0  0.00000000000E+00  0.00000000000E+00 -0.14588213350E+04  0.30668373151E+04  0.26976529484E+04 0.  0.
        5    1    3    3  502    0 -0.13211030117E+04 -0.13706905111E+02 -0.10382705077E+04  0.16803359141E+04  0.46999998093E+01 0.  1.
       -5    1    3    3    0  502  0.13211030117E+04  0.13706905111E+02 -0.42055082722E+03  0.13865014011E+04  0.46999998093E+01 0. -1.
</event>
<event>
 5   0  0.4826140E-06  0.2711221E+04  0.7818609E-02  0.8331373E-01
        1   -1    0    0  501    0  0.00000000000E+00  0.00000000000E+00  0.72568946383E+03  0.72568946385E+03  0.50400001928E-02 0.  1.
       -1   -1    0    0    0  501  0.00000000000E+00  0.00000000000E+00 -0.25323220217E+04  0.25323220217E+04  0.50400001928E-02 0. -1.
    10030    2    1    2    0    0  0.00000000000E+00  0.00000000000E+00 -0.18066325579E+04  0.32580114856E+04  0.27112206920E+04 0.  0.
        1    1    3    3  502    0 -0.40107939295E+03  0.10863915419E+04 -0.56523452701E+02  0.11594421773E+04  0.50400001928E-02 0. -1.
       -1    1    3    3    0  502  0.40107939295E+03 -0.10863915419E+04 -0.17501091052E+04  0.20985693083E+04  0.50400001928E-02 0.  1.
</event>
<event>
 5   0  0.1276517E-05  0.2673961E+04  0.7818609E-02  0.8343503E-01
       -2   -1    0    0    0  501  0.00000000000E+00  0.00000000000E+00  0.12036296263E+04  0.12036296263E+04  0.25500000920E-02 0. -1.
        2   -1    0    0  501    0  0.00000000000E+00  0.00000000000E+00 -0.14851057310E+04  0.14851057310E+04  0.25500000920E-02 0.  1.
    10030    2    1    2    0    0  0.00000000000E+00  0.00000000000E+00 -0.28147610475E+03  0.26887353573E+04  0.26739612982E+04 0.  0.
        1    1    3    3  502    0  0.17061091355E+03  0.73665978734E+03  0.96796072177E+03  0.12283011378E+04  0.50400001928E-02 0. -1.
       -1    1    3    3    0  502 -0.17061091355E+03 -0.73665978734E+03 -0.12494368265E+04  0.14604342195E+04  0.50400001928E-02 0.  1.
</event>
<event>
 5   0  0.4826140E-06  0.2664188E+04  0.7818609E-02  0.8346719E-01
        1   -1    0    0  501    0  0.00000000000E+00  0.00000000000E+00  0.93807738015E+03  0.93807738016E+03  0.50400001928E-02 0. -1.
       -1   -1    0    0    0  501  0.00000000000E+00  0.00000000000E+00 -0.18916080349E+04  0.18916080349E+04  0.50400001928E-02 0.  1.
    10030    2    1    2    0    0  0.00000000000E+00  0.00000000000E+00 -0.95353065478E+03  0.28296854151E+04  0.26641882138E+04 0.  0.
        1    1    3    3  502    0  0.89734689049E+03  0.81560843173E+03  0.10887196813E+03  0.12174981155E+04  0.50400001928E-02 0. -1.
       -1    1    3    3    0  502 -0.89734689049E+03 -0.81560843173E+03 -0.10624026229E+04  0.16121872996E+04  0.50400001928E-02 0.  1.
</event>
<event>
 5   0  0.1286641E-05  0.2717097E+04  0.7818609E-02  0.8329479E-01
        2   -1    0    0  501    0  0.00000000000E+00  0.00000000000E+00  0.13079858294E+04  0.13079858294E+04  0.25500000920E-02 0.  1.
       -2   -1    0    0    0  501  0.00000000000E+00  0.00000000000E+00 -0.14110659762E+04  0.14110659762E+04  0.25500000920E-02 0. -1.
    10030    2    1    2    0    0  0.00000000000E+00  0.00000000000E+00 -0.10308014687E+03  0.27190518056E+04  0.27170972019E+04 0.  0.
        4    1    3    3  502    0 -0.93989331354E+03  0.62213589527E+03 -0.81050518380E+03  0.13882985194E+04  0.12699999809E+01 0. -1.
       -4    1    3    3    0  502  0.93989331354E+03 -0.62213589527E+03  0.70742503692E+03  0.13307532862E+04  0.12699999809E+01 0.  1.
</event>
<event>
 5   0  0.1261364E-05  0.2666598E+04  0.7818609E-02  0.8345925E-01
        2   -1    0    0  501    0  0.00000000000E+00  0.00000000000E+00  0.17186866284E+04  0.17186866284E+04  0.25500000920E-02 0. -1.
       -2   -1    0    0    0  501  0.00000000000E+00  0.00000000000E+00 -0.10343286222E+04  0.10343286222E+04  0.25500000920E-02 0.  1.
    10030    2    1    2    0    0  0.00000000000E+00  0.00000000000E+00  0.68435800623E+03  0.27530152506E+04  0.26665984117E+04 0.  0.
        5    1    3    3  502    0  0.12936343983E+04  0.31318018245E+03  0.42276563298E+03  0.13965402442E+04  0.46999998093E+01 0. -1.
       -5    1    3    3    0  502 -0.12936343983E+04 -0.31318018245E+03  0.26159237325E+03  0.13564750064E+04  0.46999998093E+01 0.  1.
</event>
<event>
 5   0  0.4846214E-06  0.2691982E+04  0.7818609E-02  0.8337611E-01
        1   -1    0    0  501    0  0.00000000000E+00  0.00000000000E+00  0.18211813559E+04  0.18211813559E+04  0.50400001928E-02 0. -1.
       -1   -1    0    0    0  501  0.00000000000E+00  0.00000000000E+00 -0.99478959668E+03  0.99478959669E+03  0.50400001928E-02 0.  1.
    10030    2    1    2    0    0  0.00000000000E+00  0.00000000000E+00  0.82639175923E+03  0.28159709526E+04  0.26919823674E+04 0.  0.
        2    1    3    3  502    0  0.29022272005E+03  0.11053250737E+04  0.11570894732E+04  0.16262929609E+04  0.25500000920E-02 0. -1.
       -2    1    3    3    0  502 -0.29022272005E+03 -0.11053250737E+04 -0.33069771397E+03  0.11896779917E+04  0.25500000920E-02 0.  1.
</event>
<event>
 5   0  0.4826140E-06  0.2663689E+04  0.7818609E-02  0.8346884E-01
       -1   -1    0    0    0  501  0.00000000000E+00  0.00000000000E+00  0.87879794161E+03  0.87879794163E+03  0.50400001928E-02 0. -1.
        1   -1    0    0  501    0  0.00000000000E+00  0.00000000000E+00 -0.20184497846E+04  0.20184497846E+04  0.50400001928E-02 0.  1.
    10030    2    1    2    0    0  0.00000000000E+00  0.00000000000E+00 -0.11396518429E+04  0.28972477262E+04  0.26636888076E+04 0.  0.
        1    1    3    3  502    0  0.11572602066E+04 -0.65685440529E+03 -0.63039158122E+03  0.14724477720E+04  0.50400001928E-02 0. -1.
       -1    1    3    3    0  502 -0.11572602066E+04  0.65685440529E+03 -0.50926026173E+03  0.14247999542E+04  0.50400001928E-02 0.  1.
</event>
<event>
 5   0  0.1220908E-05  0.2671707E+04  0.7818609E-02  0.8344244E-01
        2   -1    0    0  501    0  0.00000000000E+00  0.00000000000E+00  0.75805871591E+03  0.75805871592E+03  0.25500000920E-02 0.  1.
       -2   -1    0    0    0  501  0.00000000000E+00  0.00000000000E+00 -0.23540448735E+04  0.23540448735E+04  0.25500000920E-02 0. -1.
    10030    2    1    2    0    0  0.00000000000E+00  0.00000000000E+00 -0.15959861576E+04  0.31121035894E+04  0.26717067459E+04 0.  0.
        2    1    3    3  502    0 -0.96894375340E+03 -0.65903698500E+02 -0.18664155392E+04  0.21039729703E+04  0.25500000920E-02 0. -1.
       -2    1    3    3    0  502  0.96894375340E+03  0.65903698500E+02  0.27042938164E+03  0.10081306191E+04  0.25500000920E-02 0.  1.
</event>
<event>
 5   0  0.5152288E-06  0.2683338E+04  0.7818609E-02  0.8340431E-01
       -1   -1    0    0    0  501  0.00000000000E+00  0.00000000000E+00  0.14547985275E+04  0.14547985275E+04  0.50400001928E-02 0.  1.
        1   -1    0    0  501    0  0.00000000000E+00  0.00000000000E+00 -0.12373368385E+04  0.12373368385E+04  0.50400001928E-02 0. -1.
    10030    2    1    2    0    0  0.00000000000E+00  0.00000000000E+00  0.21746168894E+03  0.26921353660E+04  0.26833380784E+04 0.  0.
        3    1    3    3  502    0  0.24223127017E+03  0.87684983928E+03 -0.88067377710E+03  0.12661468875E+04  0.10100000352E+00 0. -1.
       -3    1    3    3    0  502 -0.24223127017E+03 -0.87684983928E+03  0.10981354660E+04  0.14259884785E+04  0.10100000352E+00 0.  1.
</event>
<event>
 5   0  0.5152288E-06  0.2689588E+04  0.7818609E-02  0.8338391E-01
       -1   -1    0    0    0  501  0.00000000000E+00  0.00000000000E+00  0.10206721147E+04  0.10206721147E+04  0.50400001928E-02 0.  1.
        1   -1    0    0  501    0  0.00000000000E+00  0.00000000000E+00 -0.17718434435E+04  0.17718434435E+04  0.50400001928E-02 0. -1.
    10030    2    1    2    0    0  0.00000000000E+00  0.00000000000E+00 -0.75117132879E+03  0.27925155582E+04  0.26895882171E+04 0.  0.
        3    1    3    3  502    0 -0.16763347182E+03  0.35544041143E+03 -0.17108947479E+04  0.17554485795E+04  0.10100000352E+00 0. -1.
       -3    1    3    3    0  502  0.16763347182E+03 -0.35544041143E+03  0.95972341908E+03  0.10370669787E+04  0.10100000352E+00 0.  1.
</event>
<event>
 5   0  0.1220908E-05  0.2675815E+04  0.7818609E-02  0.8342895E-01
        2   -1    0    0  501    0  0.00000000000E+00  0.00000000000E+00  0.10165496037E+04  0.10165496037E+04  0.25500000920E-02 0.  1.
       -2   -1    0    0    0  501  0.00000000000E+00  0.00000000000E+00 -0.17608551569E+04  0.17608551569E+04  0.25500000920E-02 0. -1.
    10030    2    1    2    0    0  0.00000000000E+00  0.00000000000E+00 -0.74430555314E+03  0.27774047606E+04  0.26758150997E+04 0.  0.
        2    1    3    3  502    0  0.83997358054E+03  0.94786718718E+03 -0.81979027651E+03  0.15086629571E+04  0.25500000920E-02 0. -1.
       -2    1    3    3    0  502 -0.83997358054E+03 -0.94786718718E+03  0.75484723373E+02  0.12687418035E+04  0.25500000920E-02 0.  1.
</event>
<event>
 5   0  0.4824715E-06  0.2702747E+04  0.7818609E-02  0.8334114E-01
        1   -1    0    0  501    0  0.00000000000E+00  0.00000000000E+00  0.15489407446E+04  0.15489407446E+04  0.50400001928E-02 0. -1.
       -1   -1    0    0    0  501  0.00000000000E+00  0.00000000000E+00 -0.11790061387E+04  0.11790061388E+04  0.50400001928E-02 0.  1.
    10030    2    1    2    0    0  0.00000000000E+00  0.00000000000E+00  0.36993460583E+03  0.27279468833E+04  0.27027472293E+04 0.  0.
        5    1    3    3  502    0 -0.96095170886E+03 -0.30732465167E+03 -0.72247698829E+03  0.12409156768E+04  0.46999998093E+01 0.  1.
       -5    1    3    3    0  502  0.96095170886E+03  0.30732465167E+03  0.10924115941E+04  0.14870312065E+04  0.46999998093E+01 0. -1.
</event>
<event>
 5   0  0.1232559E-05  0.2686867E+04  0.7818609E-02  0.8339279E-01
        2   -1    0    0  501    0  0.00000000000E+00  0.00000000000E+00  0.34435503022E+04  0.34435503022E+04  0.25500000920E-02 0.  1.
       -2   -1    0    0    0  501  0.00000000000E+00  0.00000000000E+00 -0.52411436322E+03  0.52411436322E+03  0.25500000920E-02 0. -1.
    10030    2    1    2    0    0  0.00000000000E+00  0.00000000000E+00  0.29194359390E+04  0.39676646654E+04  0.26868674503E+04 0.  0.
        3    1    3    3  502    0  0.44679936897E+03 -0.27544918146E+03  0.32858694484E+04  0.33275276061E+04  0.10100000352E+00 0.  1.
       -3    1    3    3    0  502 -0.44679936897E+03  0.27544918146E+03 -0.36643350938E+03  0.64013705929E+03  0.10100000352E+00 0. -1.
</event>
<event>
 5   0  0.1232559E-05  0.2712875E+04  0.7818609E-02  0.8330840E-01
        2   -1    0    0  501    0  0.00000000000E+00  0.00000000000E+00  0.23152338892E+04  0.23152338892E+04  0.25500000920E-02 0. -1.
       -2   -1    0    0    0  501  0.00000000000E+00  0.00000000000E+00 -0.79470246807E+03  0.79470246808E+03  0.25500000920E-02 0.  1.
    10030    2    1    2    0    0  0.00000000000E+00  0.00000000000E+00  0.15205314211E+04  0.31099363572E+04  0.27128745536E+04 0.  0.
        3    1    3    3  502    0  0.13252980140E+04 -0.53584945458E+02  0.43473945902E+03  0.13958096503E+04  0.10100000352E+00 0.  1.
       -3    1    3    3    0  502 -0.13252980140E+04  0.53584945458E+02  0.10857919621E+04  0.17141267070E+04  0.10100000352E+00 0. -1.
</event>
<event>
 5   0  0.1220908E-05  0.2667646E+04  0.7818609E-02  0.8345580E-01
        2   -1    0    0  501    0  0.00000000000E+00  0.00000000000E+00  0.10371664830E+04  0.10371664830E+04  0.25500000920E-02 0. -1.
       -2   -1    0    0    0  501  0.00000000000E+00  0.00000000000E+00 -0.17153313202E+04  0.17153313202E+04  0.25500000920E-02 0.  1.
    10030    2    1    2    0    0  0.00000000000E+00  0.00000000000E+00 -0.67816483721E+03  0.27524978031E+04  0.26676462677E+04 0.  0.
        2    1    3    3  502    0 -0.48860147162E+03 -0.11026477851E+04 -0.92686929579E+03  0.15210687780E+04  0.25500000920E-02 0. -1.
       -2    1    3    3    0  502  0.48860147162E+03  0.11026477851E+04  0.24870445859E+03  0.12314290251E+04  0.25500000920E-02 0.  1.
</event>
<event>
 5   0  0.4756800E-06  0.2662611E+04  0.7818609E-02  0.8347239E-01
        1   -1    0    0  501    0  0.00000000000E+00  0.00000000000E+00  0.83502622673E+03  0.83502622674E+03  0.50400001928E-02 0.  1.
       -1   -1    0    0    0  501  0.00000000000E+00  0.00000000000E+00 -0.21225374712E+04  0.21225374712E+04  0.50400001928E-02 0. -1.
    10030    2    1    2    0    0  0.00000000000E+00  0.00000000000E+00 -0.12875112445E+04  0.29575636980E+04  0.26626110912E+04 0.  0.
        4    1    3    3  502    0 -0.96117890990E+02 -0.95515741476E+03  0.38081590332E+03  0.10327568451E+04  0.12699999809E+01 0.  1.
       -4    1    3    3    0  502  0.96117890990E+02  0.95515741476E+03 -0.16683271478E+04  0.19248068529E+04  0.12699999809E+01 0. -1.
</event>
<event>
 5   0  0.1276517E-05  0.2681491E+04  0.7818609E-02  0.8341036E-01
       -2   -1    0    0    0  501  0.00000000000E+00  0.00000000000E+00  0.75983974807E+03  0.75983974808E+03  0.25500000920E-02 0. -1.
        2   -1    0    0  501    0  0.00000000000E+00  0.00000000000E+00 -0.23657598529E+04  0.23657598529E+04  0.25500000920E-02 0.  1.
    10030    2    1    2    0    0  0.00000000000E+00  0.00000000000E+00 -0.16059201049E+04  0.31255996010E+04  0.26814909067E+04 0.  0.
        1    1    3    3  502    0 -0.20261389869E+03 -0.75779580182E+03  0.46445627653E+03  0.91160655002E+03  0.50400001928E-02 0. -1.
       -1    1    3    3    0  502  0.20261389869E+03  0.75779580182E+03 -0.20703763814E+04  0.22139930510E+04  0.50400001928E-02 0.  1.
</event>
<event>
 5   0  0.1220908E-05  0.2672225E+04  0.7818609E-02  0.8344073E-01
       -2   -1    0    0    0  501  0.00000000000E+00  0.00000000000E+00  0.11751790104E+04  0.11751790104E+04  0.25500000920E-02 0. -1.
        2   -1    0    0  501    0  0.00000000000E+00  0.00000000000E+00 -0.15190852456E+04  0.15190852456E+04  0.25500000920E-02 0.  1.
    10030    2    1    2    0    0  0.00000000000E+00  0.00000000000E+00 -0.34390623518E+03  0.26942642561E+04  0.26722253616E+04 0.  0.
        2    1    3    3  502    0 -0.50473956318E+03 -0.18718414604E+03  0.10609966539E+04  0.11897536849E+04  0.25500000920E-02 0. -1.
       -2    1    3    3    0  502  0.50473956318E+03  0.18718414604E+03 -0.14049028890E+04  0.15045105712E+04  0.25500000920E-02 0.  1.
</event>
<event>
 5   0  0.1276517E-05  0.2661672E+04  0.7818609E-02  0.8347549E-01
       -2   -1    0    0    0  501  0.00000000000E+00  0.00000000000E+00  0.73902708164E+03  0.73902708164E+03  0.25500000920E-02 0.  1.
        2   -1    0    0  501    0  0.00000000000E+00  0.00000000000E+00 -0.23965615734E+04  0.23965615734E+04  0.25500000920E-02 0. -1.
    10030    2    1    2    0    0  0.00000000000E+00  0.00000000000E+00 -0.16575344918E+04  0.31355886551E+04  0.26616715842E+04 0.  0.
        1    1    3    3  502    0 -0.87235253130E+03  0.94599588801E+03 -0.12286405582E+04  0.17791753090E+04  0.50400001928E-02 0. -1.
       -1    1    3    3    0  502  0.87235253130E+03 -0.94599588801E+03 -0.42889393359E+03  0.13564133460E+04  0.50400001928E-02 0.  1.
</event>
<event>
 5   0  0.1232559E-05  0.2698703E+04  0.7818609E-02  0.8335426E-01
        2   -1    0    0  501    0  0.00000000000E+00  0.00000000000E+00  0.22428280911E+04  0.22428280911E+04  0.25500000920E-02 0.  1.
       -2   -1    0    0    0  501  0.00000000000E+00  0.00000000000E+00 -0.81180974053E+03  0.81180974053E+03  0.25500000920E-02 0. -1.
    10030    2    1    2    0    0  0.00000000000E+00  0.00000000000E+00  0.14310183506E+04  0.30546378317E+04  0.26987031632E+04 0.  0.
        3    1    3    3  502    0  0.12533633574E+04 -0.21982332711E+03  0.20740775453E+03  0.12892866196E+04  0.10100000352E+00 0. -1.
       -3    1    3    3    0  502 -0.12533633574E+04  0.21982332711E+03  0.12236105961E+04  0.17653512120E+04  0.10100000352E+00 0.  1.
</event>
<event>
 5   0  0.4846214E-06  0.2681208E+04  0.7818609E-02  0.8341128E-01
        1   -1    0    0  501    0  0.00000000000E+00  0.00000000000E+00  0.23894488954E+04  0.23894488954E+04  0.50400001928E-02 0.  1.
       -1   -1    0    0    0  501  0.00000000000E+00  0.00000000000E+00 -0.75214815368E+03  0.75214815370E+03  0.50400001928E-02 0. -1.
    10030    2    1    2    0    0  0.00000000000E+00  0.00000000000E+00  0.16373007417E+04  0.31415970491E+04  0.26812083657E+04 0.  0.
        2    1    3    3  502    0  0.12191644576E+03 -0.12926356205E+03  0.23755902441E+04  0.23822262059E+04  0.25500000920E-02 0.  1.
       -2    1    3    3    0  502 -0.12191644576E+03  0.12926356205E+03 -0.73828950236E+03  0.75937084322E+03  0.25500000920E-02 0. -1.
</event>
<event>
 5   0  0.1232559E-05  0.2711610E+04  0.7818609E-02  0.8331248E-01
       -2   -1    0    0    0  501  0.00000000000E+00  0.00000000000E+00  0.20122292961E+04  0.20122292961E+04  0.25500000920E-02 0. -1.
        2   -1    0    0  501    0  0.00000000000E+00  0.00000000000E+00 -0.91351782290E+03  0.91351782290E+03  0.25500000920E-02 0.  1.
    10030    2    1    2    0    0  0.00000000000E+00  0.00000000000E+00  0.10987114732E+04  0.29257471190E+04  0.27116100942E+04 0.  0.
        3    1    3    3  502    0  0.53089247214E+03 -0.37819306537E+03  0.18320743900E+04  0.19445753758E+04  0.10100000352E+00 0. -1.
       -3    1    3    3    0  502 -0.53089247214E+03  0.37819306537E+03 -0.73336291678E+03  0.98117174316E+03  0.10100000352E+00 0.  1.
</event>
<event>
 5   0  0.1286641E-05  0.2743454E+04  0.7818609E-02  0.8321042E-01
        2   -1    0    0  501    0  0.00000000000E+00  0.00000000000E+00  0.15813940008E+04  0.15813940008E+04  0.25500000920E-02 0.  1.
       -2   -1    0    0    0  501  0.00000000000E+00  0.00000000000E+00 -0.11898585922E+04  0.11898585922E+04  0.25500000920E-02 0. -1.
    10030    2    1    2    0    0  0.00000000000E+00  0.00000000000E+00  0.39153540861E+03  0.27712525931E+04  0.27434542020E+04 0.  0.
        4    1    3    3  502    0  0.54261643330E+03 -0.44199300202E+03  0.13874858627E+04  0.15539977605E+04  0.12699999809E+01 0.  1.
       -4    1    3    3    0  502 -0.54261643330E+03  0.44199300202E+03 -0.99595045410E+03  0.12172548326E+04  0.12699999809E+01 0. -1.
</event>
<event>
 5   0  0.4826140E-06  0.2703894E+04  0.7818609E-02  0.8333743E-01
       -1   -1    0    0    0  501  0.00000000000E+00  0.00000000000E+00  0.14441943556E+04  0.14441943556E+04  0.50400001928E-02 0. -1.
        1   -1    0    0  501    0  0.00000000000E+00  0.00000000000E+00 -0.12655922079E+04  0.12655922079E+04  0.50400001928E-02 0.  1.
    10030    2    1    2    0    0  0.00000000000E+00  0.00000000000E+00  0.17860214772E+03  0.27097865635E+04  0.27038943198E+04 0.  0.
        1    1    3    3  502    0 -0.83946750974E+03  0.39249534737E+03 -0.89722346699E+03  0.12898714073E+04  0.50400001928E-02 0.  1.
       -1    1    3    3    0  502  0.83946750974E+03 -0.39249534737E+03  0.10758256147E+04  0.14199151562E+04  0.50400001928E-02 0. -1.
</event>
<event>
 5   0  0.4846214E-06  0.2698314E+04  0.7818609E-02  0.8335552E-01
       -1   -1    0    0    0  501  0.00000000000E+00  0.00000000000E+00  0.12802207520E+04  0.12802207520E+04  0.50400001928E-02 0.  1.
        1   -1    0    0  501    0  0.00000000000E+00  0.00000000000E+00 -0.14218052473E+04  0.14218052473E+04  0.50400001928E-02 0. -1.
    10030    2    1    2    0    0  0.00000000000E+00  0.00000000000E+00 -0.14158449527E+03  0.27020259993E+04  0.26983139794E+04 0.  0.
        2    1    3    3  502    0  0.11409277823E+04 -0.51165988831E+03  0.43657283994E+03  0.13244273821E+04  0.25500000920E-02 0. -1.
       -2    1    3    3    0  502 -0.11409277823E+04  0.51165988831E+03 -0.57815733521E+03  0.13775986172E+04  0.25500000920E-02 0.  1.
</event>
<event>
 5   0  0.4824715E-06  0.2792387E+04  0.7818609E-02  0.8305636E-01
       -1   -1    0    0    0  501  0.00000000000E+00  0.00000000000E+00  0.10948086352E+04  0.10948086352E+04  0.50400001928E-02 0. -1.
        1   -1    0    0  501    0  0.00000000000E+00  0.00000000000E+00 -0.17805447369E+04  0.17805447369E+04  0.50400001928E-02 0.  1.
    10030    2    1    2    0    0  0.00000000000E+00  0.00000000000E+00 -0.68573610166E+03  0.28753533721E+04  0.27923866160E+04 0.  0.
        5    1    3    3  502    0 -0.24243960089E+03 -0.12084365197E+04  0.33254585982E+03  0.12765988489E+04  0.46999998093E+01 0. -1.
       -5    1    3    3    0  502  0.24243960089E+03  0.12084365197E+04 -0.10182819615E+04  0.15987545232E+04  0.46999998093E+01 0.  1.
</event>
<event>
 5   0  0.4188000E-06  0.2706802E+04  0.7818609E-02  0.8332801E-01
       -3   -1    0    0    0  501  0.00000000000E+00  0.00000000000E+00  0.17675559089E+04  0.17675559118E+04  0.10100000352E+00 0. -1.
        3   -1    0    0  501    0  0.00000000000E+00  0.00000000000E+00 -0.10362861035E+04  0.10362861084E+04  0.10100000352E+00 0.  1.
    10030    2    1    2    0    0  0.00000000000E+00  0.00000000000E+00  0.73126980538E+03  0.28038420202E+04  0.27068015343E+04 0.  0.
        5    1    3    3  502    0  0.10570297302E+04 -0.32958574970E+03  0.11718254804E+04  0.16121835080E+04  0.46999998093E+01 0. -1.
       -5    1    3    3    0  502 -0.10570297302E+04  0.32958574970E+03 -0.44055567501E+03  0.11916585122E+04  0.46999998093E+01 0.  1.
</event>
<event>
 5   0  0.5152288E-06  0.2722203E+04  0.7818609E-02  0.8327837E-01
       -1   -1    0    0    0  501  0.00000000000E+00  0.00000000000E+00  0.19010235052E+04  0.19010235053E+04  0.50400001928E-02 0.  1.
        1   -1    0    0  501    0  0.00000000000E+00  0.00000000000E+00 -0.97452591919E+03  0.97452591920E+03  0.50400001928E-02 0. -1.
    10030    2    1    2    0    0  0.00000000000E+00  0.00000000000E+00  0.92649758606E+03  0.28755494245E+04  0.27222025486E+04 0.  0.
        3    1    3    3  502    0 -0.10781865788E+04 -0.51154493569E+03  0.11546679788E+04  0.16605489066E+04  0.10100000352E+00 0.  1.
       -3    1    3    3    0  502  0.10781865788E+04  0.51154493569E+03 -0.22817039272E+03  0.12150005178E+04  0.10100000352E+00 0. -1.
</event>
<event>
 5   0  0.1286641E-05  0.2711407E+04  0.7818609E-02  0.8331313E-01
        2   -1    0    0  501    0  0.00000000000E+00  0.00000000000E+00  0.22634211132E+04  0.22634211132E+04  0.25500000920E-02 0. -1.
       -2   -1    0    0    0  501  0.00000000000E+00  0.00000000000E+00 -0.81201488871E+03  0.81201488871E+03  0.25500000920E-02 0.  1.
    10030    2    1    2    0    0  0.00000000000E+00  0.00000000000E+00  0.14514062245E+04  0.30754360019E+04  0.27114067517E+04 0.  0.
        4    1    3    3  502    0 -0.50358540818E+03 -0.50160823183E+03 -0.58372491698E+03  0.91975294138E+03  0.12699999809E+01 0.  1.
       -4    1    3    3    0  502  0.50358540818E+03  0.50160823183E+03  0.20351311415E+04  0.21556830605E+04  0.12699999809E+01 0. -1.
</event>
<event>
 5   0  0.4826140E-06  0.2688521E+04  0.7818609E-02  0.8338739E-01
        1   -1    0    0  501    0  0.00000000000E+00  0.00000000000E+00  0.13271993685E+04  0.13271993685E+04  0.50400001928E-02 0.  1.
       -1   -1    0    0    0  501  0.00000000000E+00  0.00000000000E+00 -0.13615413065E+04  0.13615413065E+04  0.50400001928E-02 0. -1.
    10030    2    1    2    0    0  0.00000000000E+00  0.00000000000E+00 -0.34341937978E+02  0.26887406750E+04  0.26885213499E+04 0.  0.
        1    1    3    3  502    0 -0.66497207770E+03 -0.94878558320E+03 -0.69888251342E+03  0.13530774976E+04  0.50400001928E-02 0. -1.
       -1    1    3    3    0  502  0.66497207770E+03  0.94878558320E+03  0.66454057544E+03  0.13356631774E+04  0.50400001928E-02 0.  1.
</event>
<event>
 5   0  0.1261364E-05  0.2706108E+04  0.7818609E-02  0.8333026E-01
       -2   -1    0    0    0  501  0.00000000000E+00  0.00000000000E+00  0.10912731282E+04  0.10912731282E+04  0.25500000920E-02 0. -1.
        2   -1    0    0  501    0  0.00000000000E+00  0.00000000000E+00 -0.16776329835E+04  0.16776329835E+04  0.25500000920E-02 0.  1.
    10030    2    1    2    0    0  0.00000000000E+00  0.00000000000E+00 -0.58635985527E+03  0.27689061117E+04  0.27061084930E+04 0.  0.
        5    1    3    3  502    0 -0.18293566427E+03  0.67781170459E+03  0.89031128945E+03  0.11338299900E+04  0.46999998093E+01 0. -1.
       -5    1    3    3    0  502  0.18293566427E+03 -0.67781170459E+03 -0.14766711447E+04  0.16350761217E+04  0.46999998093E+01 0.  1.
</event>
<event>
 5   0  0.1261364E-05  0.2691104E+04  0.7818609E-02  0.8337897E-01
       -2   -1    0    0    0  501  0.00000000000E+00  0.00000000000E+00  0.14013495584E+04  0.14013495584E+04  0.25500000920E-02 0. -1.
        2   -1    0    0  501    0  0.00000000000E+00  0.00000000000E+00 -0.12919758592E+04  0.12919758592E+04  0.25500000920E-02 0.  1.
    10030    2    1    2    0    0  0.00000000000E+00  0.00000000000E+00  0.10937369929E+03  0.26933254176E+04  0.26911037139E+04 0.  0.
        5    1    3    3  502    0 -0.70021333778E+03 -0.29686967719E+03 -0.10562103254E+04  0.13015501009E+04  0.46999998093E+01 0.  1.
       -5    1    3    3    0  502  0.70021333778E+03  0.29686967719E+03  0.11655840247E+04  0.13917753167E+04  0.46999998093E+01 0. -1.
</event>
<event>
 5   0  0.1261364E-05  0.2700191E+04  0.7818609E-02  0.8334943E-01
       -2   -1    0    0    0  501  0.00000000000E+00  0.00000000000E+00  0.97548475283E+03  0.97548475283E+03  0.25500000920E-02 0.  1.
        2   -1    0    0  501    0  0.00000000000E+00  0.00000000000E+00 -0.18685658040E+04  0.18685658040E+04  0.25500000920E-02 0. -1.
    10030    2    1    2    0    0  0.00000000000E+00  0.00000000000E+00 -0.89308105121E+03  0.28440505569E+04  0.27001906981E+04 0.  0.
        5    1    3    3  502    0 -0.22538353720E+00  0.73724181269E+03 -0.16378202986E+04  0.17961077255E+04  0.46999998093E+01 0. -1.
       -5    1    3    3    0  502  0.22538353720E+00 -0.73724181269E+03  0.74473924739E+03  0.10479428314E+04  0.46999998093E+01 0.  1.
</event>
<event>
 5   0  0.1220908E-05  0.2636517E+04  0.7818609E-02  0.8355902E-01
        2   -1    0    0  501    0  0.00000000000E+00  0.00000000000E+00  0.14784733801E+04  0.14784733801E+04  0.25500000920E-02 0.  1.
       -2   -1    0    0    0  501  0.00000000000E+00  0.00000000000E+00 -0.11754049550E+04  0.11754049550E+04  0.25500000920E-02 0. -1.
    10030    2    1    2    0    0  0.00000000000E+00  0.00000000000E+00  0.30306842515E+03  0.26538783351E+04  0.26365165934E+04 0.  0.
        2    1    3    3  502    0 -0.27403011123E+02  0.11128699052E+03 -0.11703804085E+04  0.11759787497E+04  0.25500000920E-02 0. -1.
       -2    1    3    3    0  502  0.27403011123E+02 -0.11128699052E+03  0.14734488336E+04  0.14778995854E+04  0.25500000920E-02 0.  1.
</event>
<event>
 5   0  0.4756800E-06  0.2734785E+04  0.7818609E-02  0.8323806E-01
       -1   -1    0    0    0  501  0.00000000000E+00  0.00000000000E+00  0.99636727999E+03  0.99636728001E+03  0.50400001928E-02 0.  1.
        1   -1    0    0  501    0  0.00000000000E+00  0.00000000000E+00 -0.18765789227E+04  0.18765789227E+04  0.50400001928E-02 0. -1.
    10030    2    1    2    0    0  0.00000000000E+00  0.00000000000E+00 -0.88021164275E+03  0.28729462028E+04  0.27347846986E+04 0.  0.
        4    1    3    3  502    0  0.17159130886E+03  0.13928723111E+03  0.97747971766E+03  0.10021540407E+04  0.12699999809E+01 0.  1.
       -4    1    3    3    0  502 -0.17159130886E+03 -0.13928723111E+03 -0.18576913604E+04  0.18707921620E+04  0.12699999809E+01 0. -1.
</event>
<event>
 5   0  0.1276517E-05  0.2765478E+04  0.7818609E-02  0.8314067E-01
       -2   -1    0    0    0  501  0.00000000000E+00  0.00000000000E+00  0.15348466759E+04  0.15348466759E+04  0.25500000920E-02 0. -1.
        2   -1    0    0  501    0  0.00000000000E+00  0.00000000000E+00 -0.12457051828E+04  0.12457051828E+04  0.25500000920E-02 0.  1.
    10030    2    1    2    0    0  0.00000000000E+00  0.00000000000E+00  0.28914149307E+03  0.27805518588E+04  0.27654775060E+04 0.  0.
        1    1    3    3  502    0 -0.25919937701E+03  0.81635191655E+03 -0.94686540191E+03  0.12767806617E+04  0.50400001928E-02 0.  1.
       -1    1    3    3    0  502  0.25919937701E+03 -0.81635191655E+03  0.12360068950E+04  0.15037711971E+04  0.50400001928E-02 0. -1.
</event>
<event>
 5   0  0.1261364E-05  0.2742429E+04  0.7818609E-02  0.8321368E-01
        2   -1    0    0  501    0  0.00000000000E+00  0.00000000000E+00  0.13503329580E+04  0.13503329580E+04  0.25500000920E-02 0.  1.
       -2   -1    0    0    0  501  0.00000000000E+00  0.00000000000E+00 -0.13924190567E+04  0.13924190567E+04  0.25500000920E-02 0. -1.
    10030    2    1    2    0    0  0.00000000000E+00  0.00000000000E+00 -0.42086098671E+02  0.27427520148E+04  0.27424291011E+04 0.  0.
        5    1    3    3  502    0 -0.41254588234E+03 -0.11921734580E+04 -0.55844754732E+03  0.13796221990E+04  0.46999998093E+01 0. -1.
       -5    1    3    3    0  502  0.41254588234E+03  0.11921734580E+04  0.51636144865E+03  0.13631298157E+04  0.46999998093E+01 0.  1.
</event>
<event>
 5   0  0.1286641E-05  0.2714763E+04  0.7818609E-02  0.8330231E-01
       -2   -1    0    0    0  501  0.00000000000E+00  0.00000000000E+00  0.96294253436E+03  0.96294253436E+03  0.25500000920E-02 0.  1.
        2   -1    0    0  501    0  0.00000000000E+00  0.00000000000E+00 -0.19133904621E+04  0.19133904621E+04  0.25500000920E-02 0. -1.
    10030    2    1    2    0    0  0.00000000000E+00  0.00000000000E+00 -0.95044792777E+03  0.28763329965E+04  0.27147633863E+04 0.  0.
        4    1    3    3  502    0  0.11699804350E+04 -0.65119922954E+03 -0.23933297395E+03  0.13602192985E+04  0.12699999809E+01 0. -1.
       -4    1    3    3    0  502 -0.11699804350E+04  0.65119922954E+03 -0.71111495382E+03  0.15161136980E+04  0.12699999809E+01 0.  1.
</event>
<event>
 5   0  0.1232559E-05  0.2759409E+04  0.7818609E-02  0.8315982E-01
        2   -1    0    0  501    0  0.00000000000E+00  0.00000000000E+00  0.22082344601E+04  0.22082344601E+04  0.25500000920E-02 0.  1.
       -2   -1    0    0    0  501  0.00000000000E+00  0.00000000000E+00 -0.86203933342E+03  0.86203933342E+03  0.25500000920E-02 0. -1.
    10030    2    1    2    0    0  0.00000000000E+00  0.00000000000E+00  0.13461951267E+04  0.30702737935E+04  0.27594093296E+04 0.  0.
        3    1    3    3  502    0  0.78928386700E+03 -0.97678864785E+02 -0.58133270979E+03  0.98511822286E+03  0.10100000352E+00 0. -1.
       -3    1    3    3    0  502 -0.78928386700E+03  0.97678864785E+02  0.19275278365E+04  0.20851555707E+04  0.10100000352E+00 0.  1.
</event>
<event>
 5   0  0.1261364E-05  0.2701331E+04  0.7818609E-02  0.8334573E-01
        2   -1    0    0  501    0  0.00000000000E+00  0.00000000000E+00  0.14475506787E+04  0.14475506787E+04  0.25500000920E-02 0. -1.
       -2   -1    0    0    0  501  0.00000000000E+00  0.00000000000E+00 -0.12602651913E+04  0.12602651913E+04  0.25500000920E-02 0.  1.
    10030    2    1    2    0    0  0.00000000000E+00  0.00000000000E+00  0.18728548739E+03  0.27078158700E+04  0.27013313259E+04 0.  0.
        5    1    3    3  502    0 -0.40126783371E+03 -0.12738058355E+04  0.29581592154E+03  0.13678911983E+04  0.46999998093E+01 0. -1.
       -5    1    3    3    0  502  0.40126783371E+03  0.12738058355E+04 -0.10853043415E+03  0.13399246718E+04  0.46999998093E+01 0.  1.
</event>
<event>
 5   0  0.4756800E-06  0.2494448E+04  0.7818609E-02  0.8404966E-01
        1   -1    0    0  501    0  0.00000000000E+00  0.00000000000E+00  0.15979863002E+04  0.15979863002E+04  0.50400001928E-02 0.  1.
       -1   -1    0    0    0  501  0.00000000000E+00  0.00000000000E+00 -0.97345493781E+03  0.97345493783E+03  0.50400001928E-02 0. -1.
    10030    2    1    2    0    0  0.00000000000E+00  0.00000000000E+00  0.62453136242E+03  0.25714412381E+04  0.24944479586E+04 0.  0.
        4    1    3    3  502    0 -0.18842698345E+02 -0.59523799302E+03 -0.81741596265E+03  0.10113524532E+04  0.12699999809E+01 0. -1.
       -4    1    3    3    0  502  0.18842698345E+02  0.59523799302E+03  0.14419473251E+04  0.15600887849E+04  0.12699999809E+01 0.  1.
</event>
<event>
 5   0  0.5152288E-06  0.2722677E+04  0.7818609E-02  0.8327685E-01
       -1   -1    0    0    0  501  0.00000000000E+00  0.00000000000E+00  0.13814452610E+04  0.13814452610E+04  0.50400001928E-02 0. -1.
        1   -1    0    0  501    0  0.00000000000E+00  0.00000000000E+00 -0.13415240092E+04  0.13415240092E+04  0.50400001928E-02 0.  1.
    10030    2    1    2    0    0  0.00000000000E+00  0.00000000000E+00  0.39921251794E+02  0.27229692701E+04  0.27226766132E+04 0.  0.
        3    1    3    3  502    0 -0.62196826918E+03 -0.21108496138E+03  0.12124983679E+04  0.13789683430E+04  0.10100000352E+00 0. -1.
       -3    1    3    3    0  502  0.62196826918E+03  0.21108496138E+03 -0.11725771161E+04  0.13440009271E+04  0.10100000352E+00 0.  1.
</event>
<event>
 5   0  0.4824715E-06  0.2170143E+04  0.7818609E-02  0.8530959E-01
        1   -1    0    0  501    0  0.00000000000E+00  0.00000000000E+00  0.15590160366E+04  0.15590160366E+04  0.50400001928E-02 0.  1.
       -1   -1    0    0    0  501  0.00000000000E+00  0.00000000000E+00 -0.75520731502E+03  0.75520731504E+03  0.50400001928E-02 0. -1.
    10030    2    1    2    0    0  0.00000000000E+00  0.00000000000E+00  0.80380872157E+03  0.23142233516E+04  0.21701431428E+04 0.  0.
        5    1    3    3  502    0  0.30895845822E+03  0.21304793361E+03 -0.68378196184E+03  0.78001577693E+03  0.46999998093E+01 0. -1.
       -5    1    3    3    0  502 -0.30895845822E+03 -0.21304793361E+03  0.14875906834E+04  0.15342075747E+04  0.46999998093E+01 0.  1.
</event>
<event>
 5   0  0.1276517E-05  0.2713403E+04  0.7818609E-02  0.8330669E-01
        2   -1    0    0  501    0  0.00000000000E+00  0.00000000000E+00  0.17777828733E+04  0.17777828733E+04  0.25500000920E-02 0.  1.
       -2   -1    0    0    0  501  0.00000000000E+00  0.00000000000E+00 -0.10353562724E+04  0.10353562725E+04  0.25500000920E-02 0. -1.
    10030    2    1    2    0    0  0.00000000000E+00  0.00000000000E+00  0.74242660090E+03  0.28131391458E+04  0.27134027707E+04 0.  0.
        1    1    3    3  502    0 -0.97507453698E+03  0.36124972856E+03 -0.53223392804E+03  0.11681372664E+04  0.50400001928E-02 0. -1.
       -1    1    3    3    0  502  0.97507453698E+03 -0.36124972856E+03  0.12746605289E+04  0.16450018794E+04  0.50400001928E-02 0.  1.
</event>
<event>
 5   0  0.1261364E-05  0.2699270E+04  0.7818609E-02  0.8335242E-01
       -2   -1    0    0    0  501  0.00000000000E+00  0.00000000000E+00  0.10128549710E+04  0.10128549710E+04  0.25500000920E-02 0.  1.
        2   -1    0    0  501    0  0.00000000000E+00  0.00000000000E+00 -0.17983969656E+04  0.17983969656E+04  0.25500000920E-02 0. -1.
    10030    2    1    2    0    0  0.00000000000E+00  0.00000000000E+00 -0.78554199465E+03  0.28112519366E+04  0.26992704988E+04 0.  0.
        5    1    3    3  502    0  0.78743180903E+03 -0.13727097491E+03  0.73981839067E+03  0.10891489869E+04  0.46999998093E+01 0.  1.
       -5    1    3    3    0  502 -0.78743180903E+03  0.13727097491E+03 -0.15253603853E+04  0.17221029498E+04  0.46999998093E+01 0. -1.
</event>
<event>
 5   0  0.4824715E-06  0.2691989E+04  0.7818609E-02  0.8337609E-01
       -1   -1    0    0    0  501  0.00000000000E+00  0.00000000000E+00  0.16780814680E+04  0.16780814680E+04  0.50400001928E-02 0. -1.
        1   -1    0    0  501    0  0.00000000000E+00  0.00000000000E+00 -0.10796268598E+04  0.10796268598E+04  0.50400001928E-02 0.  1.
    10030    2    1    2    0    0  0.00000000000E+00  0.00000000000E+00  0.59845460823E+03  0.27577083278E+04  0.26919894693E+04 0.  0.
        5    1    3    3  502    0  0.12181738258E+03 -0.28055003261E+03 -0.10435476427E+04  0.10874564672E+04  0.46999998093E+01 0.  1.
       -5    1    3    3    0  502 -0.12181738258E+03  0.28055003261E+03  0.16420022509E+04  0.16702518605E+04  0.46999998093E+01 0. -1.
</event>
<event>
 5   0  0.4826140E-06  0.2669646E+04  0.7818609E-02  0.8344921E-01
        1   -1    0    0  501    0  0.00000000000E+00  0.00000000000E+00  0.16811449325E+04  0.16811449325E+04  0.50400001928E-02 0. -1.
       -1   -1    0    0    0  501  0.00000000000E+00  0.00000000000E+00 -0.10598447035E+04  0.10598447035E+04  0.50400001928E-02 0.  1.
    10030    2    1    2    0    0  0.00000000000E+00  0.00000000000E+00  0.62130022898E+03  0.27409896360E+04  0.26696460833E+04 0.  0.
        1    1    3    3  502    0  0.12787551995E+04  0.27919117213E+03  0.41754297226E+02  0.13095441925E+04  0.50400001928E-02 0.  1.
       -1    1    3    3    0  502 -0.12787551995E+04 -0.27919117213E+03  0.57954593176E+03  0.14314454435E+04  0.50400001928E-02 0. -1.
</event>
<event>
 5   0  0.1220908E-05  0.2526864E+04  0.7818609E-02  0.8393477E-01
       -2   -1    0    0    0  501  0.00000000000E+00  0.00000000000E+00  0.15414330165E+04  0.15414330165E+04  0.25500000920E-02 0. -1.
        2   -1    0    0  501    0  0.00000000000E+00  0.00000000000E+00 -0.10355687579E+04  0.10355687579E+04  0.25500000920E-02 0.  1.
    10030    2    1    2    0    0  0.00000000000E+00  0.00000000000E+00  0.50586425853E+03  0.25770017744E+04  0.25268635692E+04 0.  0.
        2    1    3    3  502    0  0.61998401241E+03 -0.23028892180E+03  0.13507894946E+04  0.15040097812E+04  0.25500000920E-02 0. -1.
       -2    1    3    3    0  502 -0.61998401241E+03  0.23028892180E+03 -0.84492523604E+03  0.10729919933E+04  0.25500000920E-02 0.  1.
</event>
<event>
 5   0  0.4826140E-06  0.2642860E+04  0.7818609E-02  0.8353787E-01
       -1   -1    0    0    0  501  0.00000000000E+00  0.00000000000E+00  0.81773574193E+03  0.81773574195E+03  0.50400001928E-02 0. -1.
        1   -1    0    0  501    0  0.00000000000E+00  0.00000000000E+00 -0.21353809088E+04  0.21353809088E+04  0.50400001928E-02 0.  1.
    10030    2    1    2    0    0  0.00000000000E+00  0.00000000000E+00 -0.13176451668E+04  0.29531166507E+04  0.26428600355E+04 0.  0.
        1    1    3    3  502    0  0.21936810260E+03  0.67626417998E+03  0.58581704702E+03  0.92121507704E+03  0.50400001928E-02 0. -1.
       -1    1    3    3    0  502 -0.21936810260E+03 -0.67626417998E+03 -0.19034622138E+04  0.20319015737E+04  0.50400001928E-02 0.  1.
</event>
<event>
 5   0  0.1286641E-05  0.2730739E+04  0.7818609E-02  0.8325100E-01
       -2   -1    0    0    0  501  0.00000000000E+00  0.00000000000E+00  0.10690807382E+04  0.10690807382E+04  0.25500000920E-02 0. -1.
        2   -1    0    0  501    0  0.00000000000E+00  0.00000000000E+00 -0.17437724924E+04  0.17437724924E+04  0.25500000920E-02 0.  1.
    10030    2    1    2    0    0  0.00000000000E+00  0.00000000000E+00 -0.67469175427E+03  0.28128532306E+04  0.27307387890E+04 0.  0.
        4    1    3    3  502    0 -0.11788204959E+04  0.44205232982E+03  0.20694078146E+03  0.12758738667E+04  0.12699999809E+01 0. -1.
       -4    1    3    3    0  502  0.11788204959E+04 -0.44205232982E+03 -0.88163253574E+03  0.15369793638E+04  0.12699999809E+01 0.  1.
</event>
<event>
 5   0  0.1276517E-05  0.2222513E+04  0.7818609E-02  0.8509116E-01
        2   -1    0    0  501    0  0.00000000000E+00  0.00000000000E+00  0.18169885566E+04  0.18169885566E+04  0.25500000920E-02 0. -1.
       -2   -1    0    0    0  501  0.00000000000E+00  0.00000000000E+00 -0.67963613336E+03  0.67963613336E+03  0.25500000920E-02 0.  1.
    10030    2    1    2    0    0  0.00000000000E+00  0.00000000000E+00  0.11373524232E+04  0.24966246900E+04  0.22225130614E+04 0.  0.
        1    1    3    3  502    0 -0.23647311632E+03 -0.51085749171E+03  0.16449663789E+04  0.17386228169E+04  0.50400001928E-02 0. -1.
       -1    1    3    3    0  502  0.23647311632E+03  0.51085749171E+03 -0.50761395568E+03  0.75800187309E+03  0.50400001928E-02 0.  1.
</event>
<event>
 5   0  0.4846214E-06  0.2685494E+04  0.7818609E-02  0.8339727E-01
       -1   -1    0    0    0  501  0.00000000000E+00  0.00000000000E+00  0.11028495631E+04  0.11028495631E+04  0.50400001928E-02 0. -1.
        1   -1    0    0  501    0  0.00000000000E+00  0.00000000000E+00 -0.16348283540E+04  0.16348283540E+04  0.50400001928E-02 0.  1.
    10030    2    1    2    0    0  0.00000000000E+00  0.00000000000E+00 -0.53197879091E+03  0.27376779171E+04  0.26854941713E+04 0.  0.
        2    1    3    3  502    0 -0.18684179808E+03  0.67815137066E+03 -0.14319673267E+04  0.15954089017E+04  0.25500000920E-02 0.  1.
       -2    1    3    3    0  502  0.18684179808E+03 -0.67815137066E+03  0.89998853575E+03  0.11422690154E+04  0.25500000920E-02 0. -1.
</event>
<event>
 5   0  0.4826140E-06  0.2707612E+04  0.7818609E-02  0.8332539E-01
        1   -1    0    0  501    0  0.00000000000E+00  0.00000000000E+00  0.16155094712E+04  0.16155094712E+04  0.50400001928E-02 0.  1.
       -1   -1    0    0    0  501  0.00000000000E+00  0.00000000000E+00 -0.11344971805E+04  0.11344971806E+04  0.50400001928E-02 0. -1.
    10030    2    1    2    0    0  0.00000000000E+00  0.00000000000E+00  0.48101229067E+03  0.27500066518E+04  0.27076121881E+04 0.  0.
        1    1    3    3  502    0 -0.81770479516E+03 -0.10721801684E+04  0.36314229893E+03  0.13964540002E+04  0.50400001928E-02 0. -1.
       -1    1    3    3    0  502  0.81770479516E+03  0.10721801684E+04  0.11786999174E+03  0.13535526515E+04  0.50400001928E-02 0.  1.
</event>
<event>
 5   0  0.4188000E-06  0.2709274E+04  0.7818609E-02  0.8332002E-01
       -3   -1    0    0    0  501  0.00000000000E+00  0.00000000000E+00  0.16513549590E+04  0.16513549621E+04  0.10100000352E+00 0. -1.
        3   -1    0    0  501    0  0.00000000000E+00  0.00000000000E+00 -0.11112338621E+04  0.11112338667E+04  0.10100000352E+00 0.  1.
    10030    2    1    2    0    0  0.00000000000E+00  0.00000000000E+00  0.54012109686E+03  0.27625888288E+04  0.27092741164E+04 0.  0.
        1    1    3    3  502    0 -0.50104382724E+03 -0.82301636510E+03  0.12409748767E+04  0.15711204596E+04  0.50400001928E-02 0. -1.
       -1    1    3    3    0  502  0.50104382724E+03  0.82301636510E+03 -0.70085377982E+03  0.11914683692E+04  0.50400001928E-02 0.  1.
</event>
<event>
 5   0  0.1286641E-05  0.2679080E+04  0.7818609E-02  0.8341825E-01
       -2   -1    0    0    0  501  0.00000000000E+00  0.00000000000E+00  0.13211152027E+04  0.13211152027E+04  0.25500000920E-02 0.  1.
        2   -1    0    0  501    0  0.00000000000E+00  0.00000000000E+00 -0.13582220212E+04  0.13582220212E+04  0.25500000920E-02 0. -1.
    10030    2    1    2    0    0  0.00000000000E+00  0.00000000000E+00 -0.37106818517E+02  0.26793372239E+04  0.26790802607E+04 0.  0.
        4    1    3    3  502    0 -0.87423010761E+03 -0.86774658718E+03 -0.54501032721E+03  0.13469596469E+04  0.12699999809E+01 0. -1.
       -4    1    3    3    0  502  0.87423010761E+03  0.86774658718E+03  0.50790350870E+03  0.13323775770E+04  0.12699999809E+01 0.  1.
</event>
<event>
 5   0  0.4756800E-06  0.2721023E+04  0.7818609E-02  0.8328216E-01
       -1   -1    0    0    0  501  0.00000000000E+00  0.00000000000E+00  0.14847434444E+04  0.14847434444E+04  0.50400001928E-02 0.  1.
        1   -1    0    0  501    0  0.00000000000E+00  0.00000000000E+00 -0.12466745150E+04  0.12466745150E+04  0.50400001928E-02 0. -1.
    10030    2    1    2    0    0  0.00000000000E+00  0.00000000000E+00  0.23806892943E+03  0.27314179595E+04  0.27210231999E+04 0.  0.
        4    1    3    3  502    0  0.27422298121E+03  0.38227997132E+03 -0.11624212934E+04  0.12540179808E+04  0.12699999809E+01 0. -1.
       -4    1    3    3    0  502 -0.27422298121E+03 -0.38227997132E+03  0.14004902228E+04  0.14773999787E+04  0.12699999809E+01 0.  1.
</event>
<event>
 5   0  0.1286641E-05  0.2680957E+04  0.7818609E-02  0.8341210E-01
       -2   -1    0    0    0  501  0.00000000000E+00  0.00000000000E+00  0.13331912657E+04  0.13331912657E+04  0.25500000920E-02 0. -1.
        2   -1    0    0  501    0  0.00000000000E+00  0.00000000000E+00 -0.13478056874E+04  0.13478056874E+04  0.25500000920E-02 0.  1.
    10030    2    1    2    0    0  0.00000000000E+00  0.00000000000E+00 -0.14614421662E+02  0.26809969531E+04  0.26809571203E+04 0.  0.
        4    1    3    3  502    0  0.62980321635E+03 -0.49978661476E+03  0.10652955077E+04  0.13346515962E+04  0.12699999809E+01 0. -1.
       -4    1    3    3    0  502 -0.62980321635E+03  0.49978661476E+03 -0.10799099293E+04  0.13463453569E+04  0.12699999809E+01 0.  1.
</event>
<event>
 5   0  0.4846214E-06  0.2685799E+04  0.7818609E-02  0.8339627E-01
       -1   -1    0    0    0  501  0.00000000000E+00  0.00000000000E+00  0.20767538633E+04  0.20767538633E+04  0.50400001928E-02 0. -1.
        1   -1    0    0  501    0  0.00000000000E+00  0.00000000000E+00 -0.86836467543E+03  0.86836467544E+03  0.50400001928E-02 0.  1.
    10030    2    1    2    0    0  0.00000000000E+00  0.00000000000E+00  0.12083891879E+04  0.29451185388E+04  0.26857994672E+04 0.  0.
        2    1    3    3  502    0  0.10742801888E+04  0.51904348659E+03 -0.71672565860E+02  0.11952493555E+04  0.25500000920E-02 0.  1.
       -2    1    3    3    0  502 -0.10742801888E+04 -0.51904348659E+03  0.12800617537E+04  0.17498691833E+04  0.25500000920E-02 0. -1.
</event>
<event>
 5   0  0.1276517E-05  0.2226992E+04  0.7818609E-02  0.8507277E-01
        2   -1    0    0  501    0  0.00000000000E+00  0.00000000000E+00  0.19447760190E+04  0.19447760190E+04  0.25500000920E-02 0. -1.
       -2   -1    0    0    0  501  0.00000000000E+00  0.00000000000E+00 -0.63754025487E+03  0.63754025487E+03  0.25500000920E-02 0.  1.
    10030    2    1    2    0    0  0.00000000000E+00  0.00000000000E+00  0.13072357642E+04  0.25823162739E+04  0.22269916918E+04 0.  0.
        1    1    3    3  502    0 -0.97297465068E+02 -0.65740877162E+03 -0.38236388782E+03  0.76671717892E+03  0.50400001928E-02 0.  1.
       -1    1    3    3    0  502  0.97297465068E+02  0.65740877162E+03  0.16895996520E+04  0.18155990950E+04  0.50400001928E-02 0. -1.
</event>
<event>
 5   0  0.5152288E-06  0.2689050E+04  0.7818609E-02  0.8338567E-01
        1   -1    0    0  501    0  0.00000000000E+00  0.00000000000E+00  0.18414923253E+04  0.18414923253E+04  0.50400001928E-02 0.  1.
       -1   -1    0    0    0  501  0.00000000000E+00  0.00000000000E+00 -0.98167490860E+03  0.98167490861E+03  0.50400001928E-02 0. -1.
    10030    2    1    2    0    0  0.00000000000E+00  0.00000000000E+00  0.85981741673E+03  0.28231672339E+04  0.26890495051E+04 0.  0.
        3    1    3    3  502    0  0.30706472463E+03  0.13088903128E+04  0.44697375399E+03  0.14167809086E+04  0.10100000352E+00 0. -1.
       -3    1    3    3    0  502 -0.30706472463E+03 -0.13088903128E+04  0.41284366273E+03  0.14063863253E+04  0.10100000352E+00 0.  1.
</event>
<event>
 5   0  0.4826140E-06  0.2505028E+04  0.7818609E-02  0.8401196E-01
        1   -1    0    0  501    0  0.00000000000E+00  0.00000000000E+00  0.12510355763E+04  0.12510355763E+04  0.50400001928E-02 0. -1.
       -1   -1    0    0    0  501  0.00000000000E+00  0.00000000000E+00 -0.12539944587E+04  0.12539944587E+04  0.50400001928E-02 0.  1.
    10030    2    1    2    0    0  0.00000000000E+00  0.00000000000E+00 -0.29588824077E+01  0.25050300349E+04  0.25050282875E+04 0.  0.
        1    1    3    3  502    0  0.11306204433E+04 -0.53896869555E+03 -0.28353611985E+01  0.12525166191E+04  0.50400001928E-02 0.  1.
       -1    1    3    3    0  502 -0.11306204433E+04  0.53896869555E+03 -0.12352120927E+00  0.12525134159E+04  0.50400001928E-02 0. -1.
</event>
<event>
 5   0  0.5152288E-06  0.2657829E+04  0.7818609E-02  0.8348819E-01
        1   -1    0    0  501    0  0.00000000000E+00  0.00000000000E+00  0.14192558712E+04  0.14192558712E+04  0.50400001928E-02 0. -1.
       -1   -1    0    0    0  501  0.00000000000E+00  0.00000000000E+00 -0.12443235752E+04  0.12443235753E+04  0.50400001928E-02 0.  1.
    10030    2    1    2    0    0  0.00000000000E+00  0.00000000000E+00  0.17493229592E+03  0.26635794464E+04  0.26578288431E+04 0.  0.
        3    1    3    3  502    0 -0.27210591906E+03  0.59453357355E+03 -0.10719734084E+04  0.12556427835E+04  0.10100000352E+00 0.  1.
       -3    1    3    3    0  502  0.27210591906E+03 -0.59453357355E+03  0.12469057043E+04  0.14079366629E+04  0.10100000352E+00 0. -1.
</event>
<event>
 5   0  0.1232559E-05  0.2905507E+04  0.7818609E-02  0.8271241E-01
       -2   -1    0    0    0  501  0.00000000000E+00  0.00000000000E+00  0.90723237532E+03  0.90723237532E+03  0.25500000920E-02 0.  1.
        2   -1    0    0  501    0  0.00000000000E+00  0.00000000000E+00 -0.23262978534E+04  0.23262978534E+04  0.25500000920E-02 0. -1.
    10030    2    1    2    0    0  0.00000000000E+00  0.00000000000E+00 -0.14190654781E+04  0.32335302287E+04  0.29055069969E+04 0.  0.
        3    1    3    3  502    0  0.47778842280E+03 -0.10911708862E+04 -0.16350169250E+04  0.20229226468E+04  0.10100000352E+00 0. -1.
       -3    1    3    3    0  502 -0.47778842280E+03  0.10911708862E+04  0.21595144690E+03  0.12106075819E+04  0.10100000352E+00 0.  1.
</event>
<event>
 5   0  0.1220908E-05  0.2701413E+04  0.7818609E-02  0.8334547E-01
        2   -1    0    0  501    0  0.00000000000E+00  0.00000000000E+00  0.17038456460E+04  0.17038456460E+04  0.25500000920E-02 0. -1.
       -2   -1    0    0    0  501  0.00000000000E+00  0.00000000000E+00 -0.10707586506E+04  0.10707586506E+04  0.25500000920E-02 0.  1.
    10030    2    1    2    0    0  0.00000000000E+00  0.00000000000E+00  0.63308699536E+03  0.27746042966E+04  0.27014125673E+04 0.  0.
        2    1    3    3  502    0  0.46941273691E+03  0.35099971596E+03  0.15664194068E+04  0.16724888269E+04  0.25500000920E-02 0. -1.
       -2    1    3    3    0  502 -0.46941273691E+03 -0.35099971596E+03 -0.93333241145E+03  0.11021154697E+04  0.25500000920E-02 0.  1.
</event>
<event>
 5   0  0.4756800E-06  0.2660159E+04  0.7818609E-02  0.8348049E-01
       -1   -1    0    0    0  501  0.00000000000E+00  0.00000000000E+00  0.25285470712E+04  0.25285470712E+04  0.50400001928E-02 0. -1.
        1   -1    0    0  501    0  0.00000000000E+00  0.00000000000E+00 -0.69965538912E+03  0.69965538914E+03  0.50400001928E-02 0.  1.
    10030    2    1    2    0    0  0.00000000000E+00  0.00000000000E+00  0.18288916821E+04  0.32282024603E+04  0.26601590818E+04 0.  0.
        4    1    3    3  502    0 -0.10642573056E+04  0.67755896973E+03  0.14255456612E+04  0.19036574836E+04  0.12699999809E+01 0. -1.
       -4    1    3    3    0  502  0.10642573056E+04 -0.67755896973E+03  0.40334602092E+03  0.13245449767E+04  0.12699999809E+01 0.  1.
</event>
<event>
 5   0  0.1276517E-05  0.2673145E+04  0.7818609E-02  0.8343771E-01
        2   -1    0    0  501    0  0.00000000000E+00  0.00000000000E+00  0.20963614053E+04  0.20963614053E+04  0.25500000920E-02 0. -1.
       -2   -1    0    0    0  501  0.00000000000E+00  0.00000000000E+00 -0.85215560781E+03  0.85215560781E+03  0.25500000920E-02 0.  1.
    10030    2    1    2    0    0  0.00000000000E+00  0.00000000000E+00  0.12442057975E+04  0.29485170131E+04  0.26731450597E+04 0.  0.
        1    1    3    3  502    0  0.11343075128E+04 -0.67718368117E+03  0.84597635543E+03  0.15687279132E+04  0.50400001928E-02 0. -1.
       -1    1    3    3    0  502 -0.11343075128E+04  0.67718368117E+03  0.39822944204E+03  0.13797890999E+04  0.50400001928E-02 0.  1.
</event>
<event>
 5   0  0.1261364E-05  0.2633848E+04  0.7818609E-02  0.8356794E-01
        2   -1    0    0  501    0  0.00000000000E+00  0.00000000000E+00  0.62620701888E+03  0.62620701889E+03  0.25500000920E-02 0. -1.
       -2   -1    0    0    0  501  0.00000000000E+00  0.00000000000E+00 -0.27695137819E+04  0.27695137819E+04  0.25500000920E-02 0.  1.
    10030    2    1    2    0    0  0.00000000000E+00  0.00000000000E+00 -0.21433067630E+04  0.33957208008E+04  0.26338481119E+04 0.  0.
        5    1    3    3  502    0  0.85906454367E+03  0.99321985831E+03 -0.94409261748E+03  0.16173467586E+04  0.46999998093E+01 0.  1.
       -5    1    3    3    0  502 -0.85906454367E+03 -0.99321985831E+03 -0.11992141456E+04  0.17783740422E+04  0.46999998093E+01 0. -1.
</event>
<event>
 5   0  0.4756800E-06  0.2649789E+04  0.7818609E-02  0.8351483E-01
       -1   -1    0    0    0  501  0.00000000000E+00  0.00000000000E+00  0.13340772778E+04  0.13340772778E+04  0.50400001928E-02 0.  1.
        1   -1    0    0  501    0  0.00000000000E+00  0.00000000000E+00 -0.13157746181E+04  0.13157746182E+04  0.50400001928E-02 0. -1.
    10030    2    1    2    0    0  0.00000000000E+00  0.00000000000E+00  0.18302659690E+02  0.26498518960E+04  0.26497886865E+04 0.  0.
        4    1    3    3  502    0 -0.10480088082E+04 -0.78371715702E+03 -0.19775542679E+03  0.13234968327E+04  0.12699999809E+01 0.  1.
       -4    1    3    3    0  502  0.10480088082E+04  0.78371715702E+03  0.21605808648E+03  0.13263550633E+04  0.12699999809E+01 0. -1.
</event>
<event>
 5   0  0.1276517E-05  0.2755550E+04  0.7818609E-02  0.8317203E-01
        2   -1    0    0  501    0  0.00000000000E+00  0.00000000000E+00  0.13561186968E+04  0.13561186968E+04  0.25500000920E-02 0.  1.
       -2   -1    0    0    0  501  0.00000000000E+00  0.00000000000E+00 -0.13997774568E+04  0.13997774568E+04  0.25500000920E-02 0. -1.
    10030    2    1    2    0    0  0.00000000000E+00  0.00000000000E+00 -0.43658759961E+02  0.27558961535E+04  0.27555503120E+04 0.  0.
        1    1    3    3  502    0  0.88637045579E+03  0.93274590357E+03 -0.51443243932E+03  0.13857518682E+04  0.50400001928E-02 0. -1.
       -1    1    3    3    0  502 -0.88637045579E+03 -0.93274590357E+03  0.47077367936E+03  0.13701442854E+04  0.50400001928E-02 0.  1.
</event>
<event>
 5   0  0.4826140E-06  0.2693085E+04  0.7818609E-02  0.8337252E-01
        1   -1    0    0  501    0  0.00000000000E+00  0.00000000000E+00  0.18064085100E+04  0.18064085100E+04  0.50400001928E-02 0. -1.
       -1   -1    0    0    0  501  0.00000000000E+00  0.00000000000E+00 -0.10037465333E+04  0.10037465333E+04  0.50400001928E-02 0.  1.
    10030    2    1    2    0    0  0.00000000000E+00  0.00000000000E+00  0.80266197673E+03  0.28101550433E+04  0.26930846847E+04 0.  0.
        1    1    3    3  502    0 -0.95879615097E+03  0.93324490460E+03  0.24328678415E+03  0.13599355023E+04  0.50400001928E-02 0. -1.
       -1    1    3    3    0  502  0.95879615097E+03 -0.93324490460E+03  0.55937519258E+03  0.14502195410E+04  0.50400001928E-02 0.  1.
</event>
<event>
 5   0  0.1276517E-05  0.2714063E+04  0.7818609E-02  0.8330457E-01
       -2   -1    0    0    0  501  0.00000000000E+00  0.00000000000E+00  0.13214553690E+04  0.13214553690E+04  0.25500000920E-02 0.  1.
        2   -1    0    0  501    0  0.00000000000E+00  0.00000000000E+00 -0.13935650860E+04  0.13935650860E+04  0.25500000920E-02 0. -1.
    10030    2    1    2    0    0  0.00000000000E+00  0.00000000000E+00 -0.72109716933E+02  0.27150204550E+04  0.27140626853E+04 0.  0.
        1    1    3    3  502    0  0.54208129912E+03  0.91795447190E+03  0.80390895727E+03  0.13352011680E+04  0.50400001928E-02 0.  1.
       -1    1    3    3    0  502 -0.54208129912E+03 -0.91795447190E+03 -0.87601867420E+03  0.13798192870E+04  0.50400001928E-02 0. -1.
</event>
<event>
 5   0  0.4756800E-06  0.2417811E+04  0.7818609E-02  0.8432865E-01
        1   -1    0    0  501    0  0.00000000000E+00  0.00000000000E+00  0.26881045038E+04  0.26881045038E+04  0.50400001928E-02 0.  1.
       -1   -1    0    0    0  501  0.00000000000E+00  0.00000000000E+00 -0.54367417934E+03  0.54367417937E+03  0.50400001928E-02 0. -1.
    10030    2    1    2    0    0  0.00000000000E+00  0.00000000000E+00  0.21444303244E+04  0.32317786832E+04  0.24178114154E+04 0.  0.
        4    1    3    3  502    0  0.33130728501E+03  0.75459971550E+02 -0.47853036121E+03  0.58690002889E+03  0.12699999809E+01 0. -1.
       -4    1    3    3    0  502 -0.33130728501E+03 -0.75459971550E+02  0.26229606857E+04  0.26448786543E+04  0.12699999809E+01 0.  1.
</event>
<event>
 5   0  0.1220908E-05  0.2702227E+04  0.7818609E-02  0.8334283E-01
       -2   -1    0    0    0  501  0.00000000000E+00  0.00000000000E+00  0.15280056767E+04  0.15280056767E+04  0.25500000920E-02 0. -1.
        2   -1    0    0  501    0  0.00000000000E+00  0.00000000000E+00 -0.11946997146E+04  0.11946997146E+04  0.25500000920E-02 0.  1.
    10030    2    1    2    0    0  0.00000000000E+00  0.00000000000E+00  0.33330596209E+03  0.27227053913E+04  0.27022271895E+04 0.  0.
        2    1    3    3  502    0  0.32179128054E+03  0.48052489196E+03  0.13969939879E+04  0.15119675930E+04  0.25500000920E-02 0. -1.
       -2    1    3    3    0  502 -0.32179128054E+03 -0.48052489196E+03 -0.10636880258E+04  0.12107377983E+04  0.25500000920E-02 0.  1.
</event>
<event>
 5   0  0.1220908E-05  0.2650730E+04  0.7818609E-02  0.8351171E-01
        2   -1    0    0  501    0  0.00000000000E+00  0.00000000000E+00  0.18957433140E+04  0.18957433140E+04  0.25500000920E-02 0. -1.
       -2   -1    0    0    0  501  0.00000000000E+00  0.00000000000E+00 -0.92659789155E+03  0.92659789155E+03  0.25500000920E-02 0.  1.
    10030    2    1    2    0    0  0.00000000000E+00  0.00000000000E+00  0.96914542247E+03  0.28223412056E+04  0.26507295280E+04 0.  0.
        2    1    3    3  502    0  0.23957874746E+03  0.12880558331E+04  0.69780281458E+03  0.14843903036E+04  0.25500000920E-02 0. -1.
       -2    1    3    3    0  502 -0.23957874746E+03 -0.12880558331E+04  0.27134260789E+03  0.13379509020E+04  0.25500000920E-02 0.  1.
</event>
<event>
 5   0  0.4756800E-06  0.2725203E+04  0.7818609E-02  0.8326874E-01
       -1   -1    0    0    0  501  0.00000000000E+00  0.00000000000E+00  0.13670118760E+04  0.13670118760E+04  0.50400001928E-02 0. -1.
        1   -1    0    0  501    0  0.00000000000E+00  0.00000000000E+00 -0.13582053828E+04  0.13582053828E+04  0.50400001928E-02 0.  1.
    10030    2    1    2    0    0  0.00000000000E+00  0.00000000000E+00  0.88064932232E+01  0.27252172588E+04  0.27252030297E+04 0.  0.
        4    1    3    3  502    0  0.10354072809E+04 -0.56478593233E+03 -0.67797110156E+03  0.13604035483E+04  0.12699999809E+01 0.  1.
       -4    1    3    3    0  502 -0.10354072809E+04  0.56478593233E+03  0.68677759478E+03  0.13648137105E+04  0.12699999809E+01 0. -1.
</event>
<event>
 5   0  0.4824715E-06  0.2701786E+04  0.7818609E-02  0.8334426E-01
       -1   -1    0    0    0  501  0.00000000000E+00  0.00000000000E+00  0.19023244073E+04  0.19023244073E+04  0.50400001928E-02 0. -1.
        1   -1    0    0  501    0  0.00000000000E+00  0.00000000000E+00 -0.95930602896E+03  0.95930602897E+03  0.50400001928E-02 0.  1.
    10030    2    1    2    0    0  0.00000000000E+00  0.00000000000E+00  0.94301837829E+03  0.28616304362E+04  0.27017855377E+04 0.  0.
        5    1    3    3  502    0  0.13912930180E+03  0.77138653801E+03 -0.69380807051E+03  0.10467979186E+04  0.46999998093E+01 0.  1.
       -5    1    3    3    0  502 -0.13912930180E+03 -0.77138653801E+03  0.16368264488E+04  0.18148325177E+04  0.46999998093E+01 0. -1.
</event>
<event>
 5   0  0.4846214E-06  0.2665370E+04  0.7818609E-02  0.8346329E-01
        1   -1    0    0  501    0  0.00000000000E+00  0.00000000000E+00  0.21329248610E+04  0.21329248610E+04  0.50400001928E-02 0.  1.
       -1   -1    0    0    0  501  0.00000000000E+00  0.00000000000E+00 -0.83268278069E+03  0.83268278070E+03  0.50400001928E-02 0. -1.
    10030    2    1    2    0    0  0.00000000000E+00  0.00000000000E+00  0.13002420803E+04  0.29656076417E+04  0.26653703714E+04 0.  0.
        2    1    3    3  502    0 -0.25581709744E+03 -0.46781590359E+03  0.20090757368E+04  0.20786244064E+04  0.25500000920E-02 0.  1.
       -2    1    3    3    0  502  0.25581709744E+03  0.46781590359E+03 -0.70883365649E+03  0.88698323523E+03  0.25500000920E-02 0. -1.
</event>
<event>
 5   0  0.1232559E-05  0.2690517E+04  0.7818609E-02  0.8338088E-01
        2   -1    0    0  501    0  0.00000000000E+00  0.00000000000E+00  0.21991594667E+04  0.21991594667E+04  0.25500000920E-02 0. -1.
       -2   -1    0    0    0  501  0.00000000000E+00  0.00000000000E+00 -0.82291455859E+03  0.82291455860E+03  0.25500000920E-02 0.  1.
    10030    2    1    2    0    0  0.00000000000E+00  0.00000000000E+00  0.13762449081E+04  0.30220740253E+04  0.26905169331E+04 0.  0.
        3    1    3    3  502    0 -0.45451042114E+03  0.72059204108E+03  0.18575182178E+04  0.20435769014E+04  0.10100000352E+00 0.  1.
       -3    1    3    3    0  502  0.45451042114E+03 -0.72059204108E+03 -0.48127330966E+03  0.97849712385E+03  0.10100000352E+00 0. -1.
</event>
<event>
 5   0  0.4846214E-06  0.2672680E+04  0.7818609E-02  0.8343924E-01
        1   -1    0    0  501    0  0.00000000000E+00  0.00000000000E+00  0.24176502726E+04  0.24176502726E+04  0.50400001928E-02 0.  1.
       -1   -1    0    0    0  501  0.00000000000E+00  0.00000000000E+00 -0.73865304334E+03  0.73865304335E+03  0.50400001928E-02 0. -1.
    10030    2    1    2    0    0  0.00000000000E+00  0.00000000000E+00  0.16789972293E+04  0.31563033160E+04  0.26726801018E+04 0.  0.
        2    1    3    3  502    0  0.12844037414E+02 -0.30935502782E+03 -0.69570963334E+03  0.76149681316E+03  0.25500000920E-02 0. -1.
       -2    1    3    3    0  502 -0.12844037414E+02  0.30935502782E+03  0.23747068626E+04  0.23948065028E+04  0.25500000920E-02 0.  1.
</event>
<event>
 5   0  0.4826140E-06  0.2662986E+04  0.7818609E-02  0.8347116E-01
       -1   -1    0    0    0  501  0.00000000000E+00  0.00000000000E+00  0.87170393992E+03  0.87170393993E+03  0.50400001928E-02 0. -1.
        1   -1    0    0  501    0  0.00000000000E+00  0.00000000000E+00 -0.20338018595E+04  0.20338018595E+04  0.50400001928E-02 0.  1.
    10030    2    1    2    0    0  0.00000000000E+00  0.00000000000E+00 -0.11620979196E+04  0.29055057995E+04  0.26629856132E+04 0.  0.
        1    1    3    3  502    0  0.65400154373E+03 -0.91639904522E+02  0.68042762274E+03  0.94820759389E+03  0.50400001928E-02 0. -1.
       -1    1    3    3    0  502 -0.65400154373E+03  0.91639904522E+02 -0.18425255423E+04  0.19572982056E+04  0.50400001928E-02 0.  1.
</event>
<event>
 5   0  0.1276517E-05  0.2693889E+04  0.7818609E-02  0.8336991E-01
       -2   -1    0    0    0  501  0.00000000000E+00  0.00000000000E+00  0.11032938142E+04  0.11032938142E+04  0.25500000920E-02 0.  1.
        2   -1    0    0  501    0  0.00000000000E+00  0.00000000000E+00 -0.16444027519E+04  0.16444027519E+04  0.25500000920E-02 0. -1.
    10030    2    1    2    0    0  0.00000000000E+00  0.00000000000E+00 -0.54110893773E+03  0.27476965661E+04  0.26938889244E+04 0.  0.
        1    1    3    3  502    0 -0.40335064677E+02  0.63152175410E+03  0.94223392387E+03  0.11350116346E+04  0.50400001928E-02 0.  1.
       -1    1    3    3    0  502  0.40335064677E+02 -0.63152175410E+03 -0.14833428616E+04  0.16126849315E+04  0.50400001928E-02 0. -1.
</event>
<event>
 5   0  0.4824715E-06  0.2644817E+04  0.7818609E-02  0.8353135E-01
       -1   -1    0    0    0  501  0.00000000000E+00  0.00000000000E+00  0.78430537549E+03  0.78430537550E+03  0.50400001928E-02 0.  1.
        1   -1    0    0  501    0  0.00000000000E+00  0.00000000000E+00 -0.22296984185E+04  0.22296984185E+04  0.50400001928E-02 0. -1.
    10030    2    1    2    0    0  0.00000000000E+00  0.00000000000E+00 -0.14453930430E+04  0.30140037940E+04  0.26448171622E+04 0.  0.
        5    1    3    3  502    0 -0.12513729906E+04 -0.40839118760E+03 -0.57843772527E+03  0.14378212739E+04  0.46999998093E+01 0.  1.
       -5    1    3    3    0  502  0.12513729906E+04  0.40839118760E+03 -0.86695531771E+03  0.15761825201E+04  0.46999998093E+01 0. -1.
</event>
<event>
 5   0  0.4824715E-06  0.2710607E+04  0.7818609E-02  0.8331572E-01
       -1   -1    0    0    0  501  0.00000000000E+00  0.00000000000E+00  0.69430917855E+03  0.69430917856E+03  0.50400001928E-02 0.  1.
        1   -1    0    0  501    0  0.00000000000E+00  0.00000000000E+00 -0.26455762353E+04  0.26455762353E+04  0.50400001928E-02 0. -1.
    10030    2    1    2    0    0  0.00000000000E+00  0.00000000000E+00 -0.19512670567E+04  0.33398854138E+04  0.27106072107E+04 0.  0.
        5    1    3    3  502    0  0.11111114048E+04 -0.45541077139E+03 -0.17498913209E+04  0.21222886819E+04  0.46999998093E+01 0. -1.
       -5    1    3    3    0  502 -0.11111114048E+04  0.45541077139E+03 -0.20137573587E+03  0.12175967319E+04  0.46999998093E+01 0.  1.
</event>
<event>
 5   0  0.1220908E-05  0.2701532E+04  0.7818609E-02  0.8334508E-01
        2   -1    0    0  501    0  0.00000000000E+00  0.00000000000E+00  0.86745909774E+03  0.86745909774E+03  0.25500000920E-02 0.  1.
       -2   -1    0    0    0  501  0.00000000000E+00  0.00000000000E+00 -0.21033485240E+04  0.21033485240E+04  0.25500000920E-02 0. -1.
    10030    2    1    2    0    0  0.00000000000E+00  0.00000000000E+00 -0.12358894262E+04  0.29708076217E+04  0.27015320193E+04 0.  0.
        2    1    3    3  502    0 -0.10551310764E+04  0.22198466106E+03  0.27678144826E+03  0.11131876518E+04  0.25500000920E-02 0.  1.
       -2    1    3    3    0  502  0.10551310764E+04 -0.22198466106E+03 -0.15126708745E+04  0.18576199699E+04  0.25500000920E-02 0. -1.
</event>
<event>
 5   0  0.1220908E-05  0.2707144E+04  0.7818609E-02  0.8332691E-01
        2   -1    0    0  501    0  0.00000000000E+00  0.00000000000E+00  0.13656283068E+04  0.13656283068E+04  0.25500000920E-02 0.  1.
       -2   -1    0    0    0  501  0.00000000000E+00  0.00000000000E+00 -0.13416218944E+04  0.13416218944E+04  0.25500000920E-02 0. -1.
    10030    2    1    2    0    0  0.00000000000E+00  0.00000000000E+00  0.24006412425E+02  0.27072502013E+04  0.27071437613E+04 0.  0.
        2    1    3    3  502    0  0.24360848492E+03 -0.37243095913E+03  0.12903753843E+04  0.13649610051E+04  0.25500000920E-02 0.  1.
       -2    1    3    3    0  502 -0.24360848492E+03  0.37243095913E+03 -0.12663689718E+04  0.13422891961E+04  0.25500000920E-02 0. -1.
</event>
<event>
 5   0  0.5152288E-06  0.2562921E+04  0.7818609E-02  0.8380906E-01
        1   -1    0    0  501    0  0.00000000000E+00  0.00000000000E+00  0.13357341059E+04  0.13357341059E+04  0.50400001928E-02 0.  1.
       -1   -1    0    0    0  501  0.00000000000E+00  0.00000000000E+00 -0.12293924254E+04  0.12293924254E+04  0.50400001928E-02 0. -1.
    10030    2    1    2    0    0  0.00000000000E+00  0.00000000000E+00  0.10634168053E+03  0.25651265313E+04  0.25629212958E+04 0.  0.
        3    1    3    3  502    0 -0.36877247057E+03  0.55885288062E+03  0.11467370365E+04  0.13278989111E+04  0.10100000352E+00 0.  1.
       -3    1    3    3    0  502  0.36877247057E+03 -0.55885288062E+03 -0.10403953559E+04  0.12372276201E+04  0.10100000352E+00 0. -1.
</event>
<event>
 5   0  0.1261364E-05  0.2627426E+04  0.7818609E-02  0.8358944E-01
        2   -1    0    0  501    0  0.00000000000E+00  0.00000000000E+00  0.21761212707E+04  0.21761212707E+04  0.25500000920E-02 0.  1.
       -2   -1    0    0    0  501  0.00000000000E+00  0.00000000000E+00 -0.79308160768E+03  0.79308160768E+03  0.25500000920E-02 0. -1.
    10030    2    1    2    0    0  0.00000000000E+00  0.00000000000E+00  0.13830396631E+04  0.29692028784E+04  0.26274259311E+04 0.  0.
        5    1    3    3  502    0  0.29708746628E+03  0.12065342723E+04  0.11734084204E+04  0.17090627034E+04  0.46999998093E+01 0. -1.
       -5    1    3    3    0  502 -0.29708746628E+03 -0.12065342723E+04  0.20963124263E+03  0.12601401751E+04  0.46999998093E+01 0.  1.
</event>
<event>
 5   0  0.4756800E-06  0.2700992E+04  0.7818609E-02  0.8334683E-01
       -1   -1    0    0    0  501  0.00000000000E+00  0.00000000000E+00  0.88275968714E+03  0.88275968715E+03  0.50400001928E-02 0. -1.
        1   -1    0    0  501    0  0.00000000000E+00  0.00000000000E+00 -0.20660656602E+04  0.20660656602E+04  0.50400001928E-02 0.  1.
    10030    2    1    2    0    0  0.00000000000E+00  0.00000000000E+00 -0.11833059730E+04  0.29488253473E+04  0.27009920221E+04 0.  0.
        4    1    3    3  502    0  0.10498880096E+04  0.59986102468E+03 -0.12482877713E+04  0.17379073779E+04  0.12699999809E+01 0. -1.
       -4    1    3    3    0  502 -0.10498880096E+04 -0.59986102468E+03  0.64981798241E+02  0.12109179694E+04  0.12699999809E+01 0.  1.
</event>
<event>
 5   0  0.1220908E-05  0.2701225E+04  0.7818609E-02  0.8334608E-01
       -2   -1    0    0    0  501  0.00000000000E+00  0.00000000000E+00  0.98312328104E+03  0.98312328105E+03  0.25500000920E-02 0.  1.
        2   -1    0    0  501    0  0.00000000000E+00  0.00000000000E+00 -0.18554681306E+04  0.18554681306E+04  0.25500000920E-02 0. -1.
    10030    2    1    2    0    0  0.00000000000E+00  0.00000000000E+00 -0.87234484954E+03  0.28385914116E+04  0.27012248454E+04 0.  0.
        2    1    3    3  502    0 -0.11403497399E+04 -0.36037790301E+03 -0.10956900460E+04  0.16219760908E+04  0.25500000920E-02 0. -1.
       -2    1    3    3    0  502  0.11403497399E+04  0.36037790301E+03  0.22334519644E+03  0.12166153209E+04  0.25500000920E-02 0.  1.
</event>
<event>
 5   0  0.4824715E-06  0.2687905E+04  0.7818609E-02  0.8338940E-01
       -1   -1    0    0    0  501  0.00000000000E+00  0.00000000000E+00  0.16399703999E+04  0.16399704000E+04  0.50400001928E-02 0. -1.
        1   -1    0    0  501    0  0.00000000000E+00  0.00000000000E+00 -0.11013660334E+04  0.11013660334E+04  0.50400001928E-02 0.  1.
    10030    2    1    2    0    0  0.00000000000E+00  0.00000000000E+00  0.53860436659E+03  0.27413364333E+04  0.26879045327E+04 0.  0.
        5    1    3    3  502    0  0.58765598381E+03 -0.28262112546E+03 -0.92920552747E+03  0.11351912870E+04  0.46999998093E+01 0.  1.
       -5    1    3    3    0  502 -0.58765598381E+03  0.28262112546E+03  0.14678098941E+04  0.16061451463E+04  0.46999998093E+01 0. -1.
</event>
<event>
 5   0  0.4188000E-06  0.2386374E+04  0.7818609E-02  0.8444623E-01
       -3   -1    0    0    0  501  0.00000000000E+00  0.00000000000E+00  0.19183561297E+04  0.19183561324E+04  0.10100000352E+00 0. -1.
        3   -1    0    0  501    0  0.00000000000E+00  0.00000000000E+00 -0.74214347653E+03  0.74214348340E+03  0.10100000352E+00 0.  1.
    10030    2    1    2    0    0  0.00000000000E+00  0.00000000000E+00  0.11762126532E+04  0.26604996158E+04  0.23863742372E+04 0.  0.
        2    1    3    3  502    0  0.35406027892E+03 -0.11051026691E+04  0.89764101961E+03  0.14670957673E+04  0.25500000920E-02 0.  1.
       -2    1    3    3    0  502 -0.35406027892E+03  0.11051026691E+04  0.27857163357E+03  0.11934038484E+04  0.25500000920E-02 0. -1.
</event>
<event>
 5   0  0.4846214E-06  0.2694382E+04  0.7818609E-02  0.8336830E-01
        1   -1    0    0  501    0  0.00000000000E+00  0.00000000000E+00  0.15195075310E+04  0.15195075310E+04  0.50400001928E-02 0. -1.
       -1   -1    0    0    0  501  0.00000000000E+00  0.00000000000E+00 -0.11944153032E+04  0.11944153032E+04  0.50400001928E-02 0.  1.
    10030    2    1    2    0    0  0.00000000000E+00  0.00000000000E+00  0.32509222777E+03  0.27139228342E+04  0.26943815976E+04 0.  0.
        2    1    3    3  502    0 -0.50585160029E+03 -0.10257239861E+04  0.87969829237E+03  0.14428668070E+04  0.25500000920E-02 0. -1.
       -2    1    3    3    0  502  0.50585160029E+03  0.10257239861E+04 -0.55460606461E+03  0.12710560272E+04  0.25500000920E-02 0.  1.
</event>
<event>
 5   0  0.4824715E-06  0.2690683E+04  0.7818609E-02  0.8338034E-01
        1   -1    0    0  501    0  0.00000000000E+00  0.00000000000E+00  0.20293448081E+04  0.20293448081E+04  0.50400001928E-02 0.  1.
       -1   -1    0    0    0  501  0.00000000000E+00  0.00000000000E+00 -0.89188571554E+03  0.89188571556E+03  0.50400001928E-02 0. -1.
    10030    2    1    2    0    0  0.00000000000E+00  0.00000000000E+00  0.11374590925E+04  0.29212305237E+04  0.26906829217E+04 0.  0.
        5    1    3    3  502    0 -0.29009952716E+02 -0.63970139221E+03 -0.71580543778E+03  0.96044727253E+03  0.46999998093E+01 0. -1.
       -5    1    3    3    0  502  0.29009952716E+02  0.63970139221E+03  0.18532645303E+04  0.19607832511E+04  0.46999998093E+01 0.  1.
</event>
<event>
 5   0  0.1220908E-05  0.2691411E+04  0.7818609E-02  0.8337797E-01
       -2   -1    0    0    0  501  0.00000000000E+00  0.00000000000E+00  0.11698804223E+04  0.11698804223E+04  0.25500000920E-02 0. -1.
        2   -1    0    0  501    0  0.00000000000E+00  0.00000000000E+00 -0.15479559278E+04  0.15479559278E+04  0.25500000920E-02 0.  1.
    10030    2    1    2    0    0  0.00000000000E+00  0.00000000000E+00 -0.37807550553E+03  0.27178363502E+04  0.26914110311E+04 0.  0.
        2    1    3    3  502    0 -0.62286408292E+03  0.11224407207E+04 -0.59684750131E+03  0.14156481827E+04  0.25500000920E-02 0. -1.
       -2    1    3    3    0  502  0.62286408292E+03 -0.11224407207E+04  0.21877199578E+03  0.13021881675E+04  0.25500000920E-02 0.  1.
</event>
<event>
 5   0  0.1220908E-05  0.2618667E+04  0.7818609E-02  0.8361888E-01
        2   -1    0    0  501    0  0.00000000000E+00  0.00000000000E+00  0.18834399030E+04  0.18834399030E+04  0.25500000920E-02 0.  1.
       -2   -1    0    0    0  501  0.00000000000E+00  0.00000000000E+00 -0.91022511487E+03  0.91022511488E+03  0.25500000920E-02 0. -1.
    10030    2    1    2    0    0  0.00000000000E+00  0.00000000000E+00  0.97321478812E+03  0.27936650179E+04  0.26186670671E+04 0.  0.
        2    1    3    3  502    0  0.47951255274E+03  0.12019186700E+04  0.69947489212E+03  0.14709880701E+04  0.25500000920E-02 0.  1.
       -2    1    3    3    0  502 -0.47951255274E+03 -0.12019186700E+04  0.27373989600E+03  0.13226769478E+04  0.25500000920E-02 0. -1.
</event>
<event>
 5   0  0.4756800E-06  0.2679894E+04  0.7818609E-02  0.8341558E-01
        1   -1    0    0  501    0  0.00000000000E+00  0.00000000000E+00  0.19408872650E+04  0.19408872650E+04  0.50400001928E-02 0. -1.
       -1   -1    0    0    0  501  0.00000000000E+00  0.00000000000E+00 -0.92507068119E+03  0.92507068120E+03  0.50400001928E-02 0.  1.
    10030    2    1    2    0    0  0.00000000000E+00  0.00000000000E+00  0.10158165838E+04  0.28659579462E+04  0.26798939564E+04 0.  0.
        4    1    3    3  502    0  0.12843244539E+04 -0.17649456351E+03  0.14553627401E+03  0.13045390196E+04  0.12699999809E+01 0.  1.
       -4    1    3    3    0  502 -0.12843244539E+04  0.17649456351E+03  0.87028030982E+03  0.15614189266E+04  0.12699999809E+01 0. -1.
</event>
<event>
 5   0  0.1286641E-05  0.2711336E+04  0.7818609E-02  0.8331336E-01
       -2   -1    0    0    0  501  0.00000000000E+00  0.00000000000E+00  0.30432905325E+04  0.30432905325E+04  0.25500000920E-02 0.  1.
        2   -1    0    0  501    0  0.00000000000E+00  0.00000000000E+00 -0.60389737541E+03  0.60389737542E+03  0.25500000920E-02 0. -1.
    10030    2    1    2    0    0  0.00000000000E+00  0.00000000000E+00  0.24393931571E+04  0.36471879079E+04  0.27113355862E+04 0.  0.
        4    1    3    3  502    0  0.62188465454E+03  0.11036379345E+04  0.18691140350E+04  0.22579517494E+04  0.12699999809E+01 0.  1.
       -4    1    3    3    0  502 -0.62188465454E+03 -0.11036379345E+04  0.57027912202E+03  0.13892361584E+04  0.12699999809E+01 0. -1.
</event>
<event>
 5   0  0.4188000E-06  0.2704329E+04  0.7818609E-02  0.8333602E-01
        3   -1    0    0  501    0  0.00000000000E+00  0.00000000000E+00  0.27861120288E+04  0.27861120307E+04  0.10100000352E+00 0.  1.
       -3   -1    0    0    0  501  0.00000000000E+00  0.00000000000E+00 -0.65623660259E+03  0.65623661036E+03  0.10100000352E+00 0. -1.
    10030    2    1    2    0    0  0.00000000000E+00  0.00000000000E+00  0.21298754263E+04  0.34423486410E+04  0.27043289066E+04 0.  0.
        3    1    3    3  502    0 -0.30848016356E+03  0.73113490917E+03  0.24585372491E+04  0.25834325388E+04  0.10100000352E+00 0.  1.
       -3    1    3    3    0  502  0.30848016356E+03 -0.73113490917E+03 -0.32866182289E+03  0.85891610227E+03  0.10100000352E+00 0. -1.
</event>
<event>
 5   0  0.4188000E-06  0.2698784E+04  0.7818609E-02  0.8335400E-01
       -3   -1    0    0    0  501  0.00000000000E+00  0.00000000000E+00  0.86712171284E+03  0.86712171872E+03  0.10100000352E+00 0.  1.
        3   -1    0    0  501    0  0.00000000000E+00  0.00000000000E+00 -0.20998879489E+04  0.20998879513E+04  0.10100000352E+00 0. -1.
    10030    2    1    2    0    0  0.00000000000E+00  0.00000000000E+00 -0.12327662360E+04  0.29670096700E+04  0.26987837611E+04 0.  0.
        2    1    3    3  502    0  0.10044677599E+03  0.23780825145E+03  0.83972097699E+03  0.87850648175E+03  0.25500000920E-02 0.  1.
       -2    1    3    3    0  502 -0.10044677599E+03 -0.23780825145E+03 -0.20724872130E+04  0.20885031883E+04  0.25500000920E-02 0. -1.
</event>
<event>
 5   0  0.5152288E-06  0.2697826E+04  0.7818609E-02  0.8335711E-01
        1   -1    0    0  501    0  0.00000000000E+00  0.00000000000E+00  0.15811201568E+04  0.15811201568E+04  0.50400001928E-02 0. -1.
       -1   -1    0    0    0  501  0.00000000000E+00  0.00000000000E+00 -0.11508081863E+04  0.11508081863E+04  0.50400001928E-02 0.  1.
    10030    2    1    2    0    0  0.00000000000E+00  0.00000000000E+00  0.43031197043E+03  0.27319283431E+04  0.26978258061E+04 0.  0.
        3    1    3    3  502    0 -0.50134240466E+03  0.12449922345E+03  0.14769899613E+04  0.15647183834E+04  0.10100000352E+00 0. -1.
       -3    1    3    3    0  502  0.50134240466E+03 -0.12449922345E+03 -0.10466779909E+04  0.11672099597E+04  0.10100000352E+00 0.  1.
</event>
<event>
 5   0  0.1220908E-05  0.2601800E+04  0.7818609E-02  0.8367590E-01
        2   -1    0    0  501    0  0.00000000000E+00  0.00000000000E+00  0.20323497205E+04  0.20323497205E+04  0.25500000920E-02 0.  1.
       -2   -1    0    0    0  501  0.00000000000E+00  0.00000000000E+00 -0.83270158905E+03  0.83270158906E+03  0.25500000920E-02 0. -1.
    10030    2    1    2    0    0  0.00000000000E+00  0.00000000000E+00  0.11996481314E+04  0.28650513095E+04  0.26018000244E+04 0.  0.
        2    1    3    3  502    0  0.56744283913E+03 -0.86507529024E+03  0.14682877467E+04  0.17961669022E+04  0.25500000920E-02 0.  1.
       -2    1    3    3    0  502 -0.56744283913E+03  0.86507529024E+03 -0.26863961522E+03  0.10688844074E+04  0.25500000920E-02 0. -1.
</event>
<event>
 5   0  0.4826140E-06  0.2681193E+04  0.7818609E-02  0.8341133E-01
       -1   -1    0    0    0  501  0.00000000000E+00  0.00000000000E+00  0.11949162730E+04  0.11949162730E+04  0.50400001928E-02 0. -1.
        1   -1    0    0  501    0  0.00000000000E+00  0.00000000000E+00 -0.15040380158E+04  0.15040380158E+04  0.50400001928E-02 0.  1.
    10030    2    1    2    0    0  0.00000000000E+00  0.00000000000E+00 -0.30912174280E+03  0.26989542888E+04  0.26811933912E+04 0.  0.
        1    1    3    3  502    0  0.28613720958E+03 -0.10837671525E+04 -0.89480537709E+03  0.14342602297E+04  0.50400001928E-02 0.  1.
       -1    1    3    3    0  502 -0.28613720958E+03  0.10837671525E+04  0.58568363429E+03  0.12646940591E+04  0.50400001928E-02 0. -1.
</event>
<event>
 5   0  0.1220908E-05  0.2671392E+04  0.7818609E-02  0.8344347E-01
        2   -1    0    0  501    0  0.00000000000E+00  0.00000000000E+00  0.13339378885E+04  0.13339378885E+04  0.25500000920E-02 0.  1.
       -2   -1    0    0    0  501  0.00000000000E+00  0.00000000000E+00 -0.13374566856E+04  0.13374566856E+04  0.25500000920E-02 0. -1.
    10030    2    1    2    0    0  0.00000000000E+00  0.00000000000E+00 -0.35187971000E+01  0.26713945742E+04  0.26713922567E+04 0.  0.
        2    1    3    3  502    0 -0.32136486549E+03  0.79291030260E+03 -0.10274805341E+04  0.13370483809E+04  0.25500000920E-02 0. -1.
       -2    1    3    3    0  502  0.32136486549E+03 -0.79291030260E+03  0.10239617370E+04  0.13343461933E+04  0.25500000920E-02 0.  1.
</event>
<event>
 5   0  0.1220908E-05  0.2711101E+04  0.7818609E-02  0.8331412E-01
       -2   -1    0    0    0  501  0.00000000000E+00  0.00000000000E+00  0.19105873373E+04  0.19105873373E+04  0.25500000920E-02 0. -1.
        2   -1    0    0  501    0  0.00000000000E+00  0.00000000000E+00 -0.96175532926E+03  0.96175532926E+03  0.25500000920E-02 0.  1.
    10030    2    1    2    0    0  0.00000000000E+00  0.00000000000E+00  0.94883200807E+03  0.28723426666E+04  0.27111012919E+04 0.  0.
        2    1    3    3  502    0 -0.12487179633E+04 -0.48185856972E+03  0.24710175631E+03  0.13610817430E+04  0.25500000920E-02 0.  1.
       -2    1    3    3    0  502  0.12487179633E+04  0.48185856972E+03  0.70173025175E+03  0.15112609236E+04  0.25500000920E-02 0. -1.
</event>
<event>
 5   0  0.5152288E-06  0.2462966E+04  0.7818609E-02  0.8416299E-01
       -1   -1    0    0    0  501  0.00000000000E+00  0.00000000000E+00  0.87826929689E+03  0.87826929691E+03  0.50400001928E-02 0.  1.
        1   -1    0    0  501    0  0.00000000000E+00  0.00000000000E+00 -0.17267482568E+04  0.17267482568E+04  0.50400001928E-02 0. -1.
    10030    2    1    2    0    0  0.00000000000E+00  0.00000000000E+00 -0.84847895992E+03  0.26050175537E+04  0.24629656737E+04 0.  0.
        3    1    3    3  502    0 -0.11008749403E+04 -0.57002559826E+02 -0.10048781237E+04  0.14916282981E+04  0.10100000352E+00 0. -1.
       -3    1    3    3    0  502  0.11008749403E+04  0.57002559826E+02  0.15639916376E+03  0.11133892556E+04  0.10100000352E+00 0.  1.
</event>
<event>
 5   0  0.4826140E-06  0.2691504E+04  0.7818609E-02  0.8337767E-01
       -1   -1    0    0    0  501  0.00000000000E+00  0.00000000000E+00  0.94048059379E+03  0.94048059381E+03  0.50400001928E-02 0.  1.
        1   -1    0    0  501    0  0.00000000000E+00  0.00000000000E+00 -0.19256624154E+04  0.19256624155E+04  0.50400001928E-02 0. -1.
    10030    2    1    2    0    0  0.00000000000E+00  0.00000000000E+00 -0.98518182165E+03  0.28661430093E+04  0.26915037670E+04 0.  0.
        1    1    3    3  502    0 -0.59932112117E+03 -0.11525019038E+04 -0.11820882131E+03  0.13043848244E+04  0.50400001928E-02 0.  1.
       -1    1    3    3    0  502  0.59932112117E+03  0.11525019038E+04 -0.86697300034E+03  0.15617581849E+04  0.50400001928E-02 0. -1.
</event>
<event>
 5   0  0.5152288E-06  0.2770689E+04  0.7818609E-02  0.8312426E-01
       -1   -1    0    0    0  501  0.00000000000E+00  0.00000000000E+00  0.11331876015E+04  0.11331876015E+04  0.50400001928E-02 0. -1.
        1   -1    0    0  501    0  0.00000000000E+00  0.00000000000E+00 -0.16936114525E+04  0.16936114525E+04  0.50400001928E-02 0.  1.
    10030    2    1    2    0    0  0.00000000000E+00  0.00000000000E+00 -0.56042385104E+03  0.28267990540E+04  0.27706890838E+04 0.  0.
        3    1    3    3  502    0  0.68083642179E+03  0.78241748330E+03  0.65678993841E+03  0.12276352817E+04  0.10100000352E+00 0. -1.
       -3    1    3    3    0  502 -0.68083642179E+03 -0.78241748330E+03 -0.12172137894E+04  0.15991637724E+04  0.10100000352E+00 0.  1.
</event>
<event>
 5   0  0.4188000E-06  0.2639471E+04  0.7818609E-02  0.8354916E-01
       -3   -1    0    0    0  501  0.00000000000E+00  0.00000000000E+00  0.17152274397E+04  0.17152274427E+04  0.10100000352E+00 0. -1.
        3   -1    0    0  501    0  0.00000000000E+00  0.00000000000E+00 -0.10154350575E+04  0.10154350625E+04  0.10100000352E+00 0.  1.
    10030    2    1    2    0    0  0.00000000000E+00  0.00000000000E+00  0.69979238226E+03  0.27306625052E+04  0.26394712234E+04 0.  0.
        4    1    3    3  502    0  0.62175177488E+03 -0.91214017954E+03 -0.39836640903E+03  0.11735724884E+04  0.12699999809E+01 0.  1.
       -4    1    3    3    0  502 -0.62175177488E+03  0.91214017954E+03  0.10981587913E+04  0.15570900168E+04  0.12699999809E+01 0. -1.
</event>
<event>
 5   0  0.4756800E-06  0.2690028E+04  0.7818609E-02  0.8338248E-01
       -1   -1    0    0    0  501  0.00000000000E+00  0.00000000000E+00  0.20611058120E+04  0.20611058120E+04  0.50400001928E-02 0.  1.
        1   -1    0    0  501    0  0.00000000000E+00  0.00000000000E+00 -0.87771468934E+03  0.87771468935E+03  0.50400001928E-02 0. -1.
    10030    2    1    2    0    0  0.00000000000E+00  0.00000000000E+00  0.11833911226E+04  0.29388205013E+04  0.26900281393E+04 0.  0.
        4    1    3    3  502    0 -0.11951567802E+04  0.35618240339E+03  0.41321087965E+02  0.12477879142E+04  0.12699999809E+01 0. -1.
       -4    1    3    3    0  502  0.11951567802E+04 -0.35618240339E+03  0.11420700347E+04  0.16910325871E+04  0.12699999809E+01 0.  1.
</event>
<event>
 5   0  0.4756800E-06  0.2703963E+04  0.7818609E-02  0.8333720E-01
       -1   -1    0    0    0  501  0.00000000000E+00  0.00000000000E+00  0.14360412106E+04  0.14360412106E+04  0.50400001928E-02 0. -1.
        1   -1    0    0  501    0  0.00000000000E+00  0.00000000000E+00 -0.12728422919E+04  0.12728422919E+04  0.50400001928E-02 0.  1.
    10030    2    1    2    0    0  0.00000000000E+00  0.00000000000E+00  0.16319891869E+03  0.27088835024E+04  0.27039630069E+04 0.  0.
        4    1    3    3  502    0 -0.25524730800E+03 -0.92565828919E+03  0.10350971039E+04  0.14118860025E+04  0.12699999809E+01 0. -1.
       -4    1    3    3    0  502  0.25524730800E+03  0.92565828919E+03 -0.87189818523E+03  0.12969975000E+04  0.12699999809E+01 0.  1.
</event>
<event>
 5   0  0.1276517E-05  0.2736227E+04  0.7818609E-02  0.8323345E-01
        2   -1    0    0  501    0  0.00000000000E+00  0.00000000000E+00  0.16033248711E+04  0.16033248711E+04  0.25500000920E-02 0. -1.
       -2   -1    0    0    0  501  0.00000000000E+00  0.00000000000E+00 -0.11674084842E+04  0.11674084842E+04  0.25500000920E-02 0.  1.
    10030    2    1    2    0    0  0.00000000000E+00  0.00000000000E+00  0.43591638698E+03  0.27707333553E+04  0.27362273717E+04 0.  0.
        1    1    3    3  502    0  0.11576002640E+04  0.67513064056E+03  0.49692337654E+03  0.14292559586E+04  0.50400001928E-02 0.  1.
       -1    1    3    3    0  502 -0.11576002640E+04 -0.67513064056E+03 -0.61006989562E+02  0.13414773967E+04  0.50400001928E-02 0. -1.
</event>
<event>
 5   0  0.1232559E-05  0.2725811E+04  0.7818609E-02  0.8326678E-01
       -2   -1    0    0    0  501  0.00000000000E+00  0.00000000000E+00  0.11868942790E+04  0.11868942790E+04  0.25500000920E-02 0. -1.
        2   -1    0    0  501    0  0.00000000000E+00  0.00000000000E+00 -0.15650187991E+04  0.15650187991E+04  0.25500000920E-02 0.  1.
    10030    2    1    2    0    0  0.00000000000E+00  0.00000000000E+00 -0.37812452008E+03  0.27519130781E+04  0.27258113355E+04 0.  0.
        3    1    3    3  502    0  0.18598794385E+03  0.77556139622E+03  0.92670161310E+03  0.12226458541E+04  0.10100000352E+00 0. -1.
       -3    1    3    3    0  502 -0.18598794385E+03 -0.77556139622E+03 -0.13048261332E+04  0.15292672241E+04  0.10100000352E+00 0.  1.
</event>
<event>
 5   0  0.4188000E-06  0.2690402E+04  0.7818609E-02  0.8338126E-01
       -3   -1    0    0    0  501  0.00000000000E+00  0.00000000000E+00  0.15636804861E+04  0.15636804893E+04  0.10100000352E+00 0.  1.
        3   -1    0    0  501    0  0.00000000000E+00  0.00000000000E+00 -0.11572480022E+04  0.11572480066E+04  0.10100000352E+00 0. -1.
    10030    2    1    2    0    0  0.00000000000E+00  0.00000000000E+00  0.40643248391E+03  0.27209284959E+04  0.26904022963E+04 0.  0.
        2    1    3    3  502    0  0.31490764123E+03  0.26347425658E+03  0.14987586401E+04  0.15539829368E+04  0.25500000920E-02 0.  1.
       -2    1    3    3    0  502 -0.31490764123E+03 -0.26347425658E+03 -0.10923261562E+04  0.11669455591E+04  0.25500000920E-02 0. -1.
</event>
<event>
 5   0  0.1220908E-05  0.2773675E+04  0.7818609E-02  0.8311488E-01
        2   -1    0    0  501    0  0.00000000000E+00  0.00000000000E+00  0.33344711285E+04  0.33344711285E+04  0.25500000920E-02 0. -1.
       -2   -1    0    0    0  501  0.00000000000E+00  0.00000000000E+00 -0.57679848641E+03  0.57679848642E+03  0.25500000920E-02 0.  1.
    10030    2    1    2    0    0  0.00000000000E+00  0.00000000000E+00  0.27576726421E+04  0.39112696149E+04  0.27736747466E+04 0.  0.
        2    1    3    3  502    0  0.43742114392E+03  0.10785034692E+04  0.24423575922E+04  0.27054791809E+04  0.25500000920E-02 0. -1.
       -2    1    3    3    0  502 -0.43742114392E+03 -0.10785034692E+04  0.31531504993E+03  0.12057904340E+04  0.25500000920E-02 0.  1.
</event>
<event>
 5   0  0.1286641E-05  0.2696457E+04  0.7818609E-02  0.8336155E-01
       -2   -1    0    0    0  501  0.00000000000E+00  0.00000000000E+00  0.23965345007E+04  0.23965345007E+04  0.25500000920E-02 0. -1.
        2   -1    0    0  501    0  0.00000000000E+00  0.00000000000E+00 -0.75847851404E+03  0.75847851405E+03  0.25500000920E-02 0.  1.
    10030    2    1    2    0    0  0.00000000000E+00  0.00000000000E+00  0.16380559866E+04  0.31550130147E+04  0.26964568804E+04 0.  0.
        4    1    3    3  502    0  0.11585517539E+04  0.19490818628E+03  0.45118409241E+02  0.11756992180E+04  0.12699999809E+01 0.  1.
       -4    1    3    3    0  502 -0.11585517539E+04 -0.19490818628E+03  0.15929375774E+04  0.19793137967E+04  0.12699999809E+01 0. -1.
</event>
<event>
 5   0  0.4756800E-06  0.2698624E+04  0.7818609E-02  0.8335452E-01
        1   -1    0    0  501    0  0.00000000000E+00  0.00000000000E+00  0.29109266782E+04  0.29109266782E+04  0.50400001928E-02 0.  1.
       -1   -1    0    0    0  501  0.00000000000E+00  0.00000000000E+00 -0.62545128821E+03  0.62545128823E+03  0.50400001928E-02 0. -1.
    10030    2    1    2    0    0  0.00000000000E+00  0.00000000000E+00  0.22854753900E+04  0.35363779664E+04  0.26986239759E+04 0.  0.
        4    1    3    3  502    0  0.12474688923E+03  0.66972419279E+03 -0.38354168098E+03  0.78179160569E+03  0.12699999809E+01 0. -1.
       -4    1    3    3    0  502 -0.12474688923E+03 -0.66972419279E+03  0.26690170710E+04  0.27545863608E+04  0.12699999809E+01 0.  1.
</event>
<event>
 5   0  0.1261364E-05  0.2675838E+04  0.7818609E-02  0.8342887E-01
        2   -1    0    0  501    0  0.00000000000E+00  0.00000000000E+00  0.19089988367E+04  0.19089988367E+04  0.25500000920E-02 0.  1.
       -2   -1    0    0    0  501  0.00000000000E+00  0.00000000000E+00 -0.93767863717E+03  0.93767863718E+03  0.25500000920E-02 0. -1.
    10030    2    1    2    0    0  0.00000000000E+00  0.00000000000E+00  0.97132019957E+03  0.28466774739E+04  0.26758381323E+04 0.  0.
        5    1    3    3  502    0  0.19148637212E+03 -0.40127698266E+03  0.18280940649E+04  0.18813931667E+04  0.46999998093E+01 0.  1.
       -5    1    3    3    0  502 -0.19148637212E+03  0.40127698266E+03 -0.85677386532E+03  0.96528430725E+03  0.46999998093E+01 0. -1.
</event>
<event>
 5   0  0.1232559E-05  0.2669598E+04  0.7818609E-02  0.8344937E-01
        2   -1    0    0  501    0  0.00000000000E+00  0.00000000000E+00  0.18402579616E+04  0.18402579616E+04  0.25500000920E-02 0. -1.
       -2   -1    0    0    0  501  0.00000000000E+00  0.00000000000E+00 -0.96817326178E+03  0.96817326178E+03  0.25500000920E-02 0.  1.
    10030    2    1    2    0    0  0.00000000000E+00  0.00000000000E+00  0.87208469984E+03  0.28084312234E+04  0.26695981370E+04 0.  0.
        3    1    3    3  502    0  0.33478084426E+03 -0.27677585918E+02 -0.92297752948E+03  0.98220761174E+03  0.10100000352E+00 0.  1.
       -3    1    3    3    0  502 -0.33478084426E+03  0.27677585918E+02  0.17950622293E+04  0.18262236117E+04  0.10100000352E+00 0. -1.
</event>
<event>
 5   0  0.4756800E-06  0.2679688E+04  0.7818609E-02  0.8341626E-01
        1   -1    0    0  501    0  0.00000000000E+00  0.00000000000E+00  0.91523338622E+03  0.91523338623E+03  0.50400001928E-02 0. -1.
       -1   -1    0    0    0  501  0.00000000000E+00  0.00000000000E+00 -0.19614468364E+04  0.19614468365E+04  0.50400001928E-02 0.  1.
    10030    2    1    2    0    0  0.00000000000E+00  0.00000000000E+00 -0.10462134502E+04  0.28766802227E+04  0.26796877654E+04 0.  0.
        4    1    3    3  502    0 -0.74686254989E+03 -0.10319153549E+04 -0.96900520423E+03  0.16005079403E+04  0.12699999809E+01 0. -1.
       -4    1    3    3    0  502  0.74686254989E+03  0.10319153549E+04 -0.77208246000E+02  0.12761722824E+04  0.12699999809E+01 0.  1.
</event>
<event>
 5   0  0.5152288E-06  0.2695631E+04  0.7818609E-02  0.8336424E-01
       -1   -1    0    0    0  501  0.00000000000E+00  0.00000000000E+00  0.12194369429E+04  0.12194369429E+04  0.50400001928E-02 0.  1.
        1   -1    0    0  501    0  0.00000000000E+00  0.00000000000E+00 -0.14897098814E+04  0.14897098814E+04  0.50400001928E-02 0. -1.
    10030    2    1    2    0    0  0.00000000000E+00  0.00000000000E+00 -0.27027293852E+03  0.27091468243E+04  0.26956314760E+04 0.  0.
        3    1    3    3  502    0  0.36906594993E+03 -0.12938622813E+04 -0.21502068554E+03  0.13625429108E+04  0.10100000352E+00 0. -1.
       -3    1    3    3    0  502 -0.36906594993E+03  0.12938622813E+04 -0.55252252973E+02  0.13466039135E+04  0.10100000352E+00 0.  1.
</event>
<event>
 5   0  0.1286641E-05  0.2663486E+04  0.7818609E-02  0.8346951E-01
       -2   -1    0    0    0  501  0.00000000000E+00  0.00000000000E+00  0.12241046572E+04  0.12241046572E+04  0.25500000920E-02 0.  1.
        2   -1    0    0  501    0  0.00000000000E+00  0.00000000000E+00 -0.14488461964E+04  0.14488461964E+04  0.25500000920E-02 0. -1.
    10030    2    1    2    0    0  0.00000000000E+00  0.00000000000E+00 -0.22474153918E+03  0.26729508536E+04  0.26634859688E+04 0.  0.
        4    1    3    3  502    0 -0.90031662358E+03  0.81725322817E+03  0.43275829384E+03  0.12906410095E+04  0.12699999809E+01 0.  1.
       -4    1    3    3    0  502  0.90031662358E+03 -0.81725322817E+03 -0.65749983302E+03  0.13823098441E+04  0.12699999809E+01 0. -1.
</event>
<event>
 5   0  0.1232559E-05  0.2704144E+04  0.7818609E-02  0.8333662E-01
        2   -1    0    0  501    0  0.00000000000E+00  0.00000000000E+00  0.26883275861E+04  0.26883275861E+04  0.25500000920E-02 0.  1.
       -2   -1    0    0    0  501  0.00000000000E+00  0.00000000000E+00 -0.68001324691E+03  0.68001324692E+03  0.25500000920E-02 0. -1.
    10030    2    1    2    0    0  0.00000000000E+00  0.00000000000E+00  0.20083143392E+04  0.33683408331E+04  0.27041437614E+04 0.  0.
        3    1    3    3  502    0 -0.94162617185E+03 -0.84400742590E+02  0.22081750062E+04  0.24020450040E+04  0.10100000352E+00 0.  1.
       -3    1    3    3    0  502  0.94162617185E+03  0.84400742590E+02 -0.19986066700E+03  0.96629582907E+03  0.10100000352E+00 0. -1.
</event>
<event>
 5   0  0.1220908E-05  0.3103194E+04  0.7818609E-02  0.8214862E-01
        2   -1    0    0  501    0  0.00000000000E+00  0.00000000000E+00  0.24778645625E+04  0.24778645625E+04  0.25500000920E-02 0. -1.
       -2   -1    0    0    0  501  0.00000000000E+00  0.00000000000E+00 -0.97158374272E+03  0.97158374272E+03  0.25500000920E-02 0.  1.
    10030    2    1    2    0    0  0.00000000000E+00  0.00000000000E+00  0.15062808198E+04  0.34494483052E+04  0.31031937906E+04 0.  0.
        2    1    3    3  502    0  0.11437817700E+04  0.90515147084E+03  0.13412461022E+04  0.19815340091E+04  0.25500000920E-02 0. -1.
       -2    1    3    3    0  502 -0.11437817700E+04 -0.90515147084E+03  0.16503471756E+03  0.14679142961E+04  0.25500000920E-02 0.  1.
</event>
<event>
 5   0  0.1220908E-05  0.2715160E+04  0.7818609E-02  0.8330103E-01
        2   -1    0    0  501    0  0.00000000000E+00  0.00000000000E+00  0.18224912482E+04  0.18224912482E+04  0.25500000920E-02 0.  1.
       -2   -1    0    0    0  501  0.00000000000E+00  0.00000000000E+00 -0.10112662414E+04  0.10112662414E+04  0.25500000920E-02 0. -1.
    10030    2    1    2    0    0  0.00000000000E+00  0.00000000000E+00  0.81122500676E+03  0.28337574896E+04  0.27151603080E+04 0.  0.
        2    1    3    3  502    0 -0.54901341617E+03 -0.12416150111E+04  0.40503353605E+03  0.14167130028E+04  0.25500000920E-02 0.  1.
       -2    1    3    3    0  502  0.54901341617E+03  0.12416150111E+04  0.40619147071E+03  0.14170444869E+04  0.25500000920E-02 0. -1.
</event>
<event>
 5   0  0.1286641E-05  0.2666292E+04  0.7818609E-02  0.8346026E-01
        2   -1    0    0  501    0  0.00000000000E+00  0.00000000000E+00  0.88878949282E+03  0.88878949282E+03  0.25500000920E-02 0.  1.
       -2   -1    0    0    0  501  0.00000000000E+00  0.00000000000E+00 -0.19996615102E+04  0.19996615102E+04  0.25500000920E-02 0. -1.
    10030    2    1    2    0    0  0.00000000000E+00  0.00000000000E+00 -0.11108720174E+04  0.28884510031E+04  0.26662919116E+04 0.  0.
        4    1    3    3  502    0 -0.42728056570E+03 -0.80865533596E+03 -0.16061931776E+04  0.18483371637E+04  0.12699999809E+01 0. -1.
       -4    1    3    3    0  502  0.42728056570E+03  0.80865533596E+03  0.49532116015E+03  0.10401138393E+04  0.12699999809E+01 0.  1.
</event>
<event>
 5   0  0.1261364E-05  0.2679849E+04  0.7818609E-02  0.8341573E-01
       -2   -1    0    0    0  501  0.00000000000E+00  0.00000000000E+00  0.75967091604E+03  0.75967091604E+03  0.25500000920E-02 0.  1.
        2   -1    0    0  501    0  0.00000000000E+00  0.00000000000E+00 -0.23633892436E+04  0.23633892436E+04  0.25500000920E-02 0. -1.
    10030    2    1    2    0    0  0.00000000000E+00  0.00000000000E+00 -0.16037183275E+04  0.31230601596E+04  0.26798493029E+04 0.  0.
        5    1    3    3  502    0 -0.69117954035E+02 -0.10690606041E+04 -0.17397658812E+04  0.20431532684E+04  0.46999998093E+01 0. -1.
       -5    1    3    3    0  502  0.69117954035E+02  0.10690606041E+04  0.13604755367E+03  0.10799068912E+04  0.46999998093E+01 0.  1.
</event>
<event>
 5   0  0.1261364E-05  0.2698619E+04  0.7818609E-02  0.8335453E-01
       -2   -1    0    0    0  501  0.00000000000E+00  0.00000000000E+00  0.10004562093E+04  0.10004562093E+04  0.25500000920E-02 0.  1.
        2   -1    0    0  501    0  0.00000000000E+00  0.00000000000E+00 -0.18198064842E+04  0.18198064842E+04  0.25500000920E-02 0. -1.
    10030    2    1    2    0    0  0.00000000000E+00  0.00000000000E+00 -0.81935027481E+03  0.28202626935E+04  0.26986194225E+04 0.  0.
        5    1    3    3  502    0 -0.12569264649E+04 -0.48100711934E+03 -0.51090531137E+03  0.14395410081E+04  0.46999998093E+01 0.  1.
       -5    1    3    3    0  502  0.12569264649E+04  0.48100711934E+03 -0.30844496344E+03  0.13807216854E+04  0.46999998093E+01 0. -1.
</event>
<event>
 5   0  0.1232559E-05  0.2713831E+04  0.7818609E-02  0.8330531E-01
       -2   -1    0    0    0  501  0.00000000000E+00  0.00000000000E+00  0.97493228682E+03  0.97493228683E+03  0.25500000920E-02 0. -1.
        2   -1    0    0  501    0  0.00000000000E+00  0.00000000000E+00 -0.18885615899E+04  0.18885615899E+04  0.25500000920E-02 0.  1.
    10030    2    1    2    0    0  0.00000000000E+00  0.00000000000E+00 -0.91362930305E+03  0.28634938767E+04  0.27138309967E+04 0.  0.
        3    1    3    3  502    0  0.45152989393E+03 -0.10579470204E+04 -0.12162930803E+04  0.16740669074E+04  0.10100000352E+00 0. -1.
       -3    1    3    3    0  502 -0.45152989393E+03  0.10579470204E+04  0.30266377721E+03  0.11894269693E+04  0.10100000352E+00 0.  1.
</event>
<event>
 5   0  0.4826140E-06  0.2723363E+04  0.7818609E-02  0.8327464E-01
       -1   -1    0    0    0  501  0.00000000000E+00  0.00000000000E+00  0.10577551227E+04  0.10577551227E+04  0.50400001928E-02 0. -1.
        1   -1    0    0  501    0  0.00000000000E+00  0.00000000000E+00 -0.17529360653E+04  0.17529360654E+04  0.50400001928E-02 0.  1.
    10030    2    1    2    0    0  0.00000000000E+00  0.00000000000E+00 -0.69518094262E+03  0.28106911881E+04  0.27233634373E+04 0.  0.
        1    1    3    3  502    0  0.56689616717E+03 -0.37119903202E+03  0.87139154316E+03  0.11038492684E+04  0.50400001928E-02 0. -1.
       -1    1    3    3    0  502 -0.56689616717E+03  0.37119903202E+03 -0.15665724858E+04  0.17068419197E+04  0.50400001928E-02 0.  1.
</event>
<event>
 5   0  0.4826140E-06  0.2692946E+04  0.7818609E-02  0.8337297E-01
        1   -1    0    0  501    0  0.00000000000E+00  0.00000000000E+00  0.17013261951E+04  0.17013261951E+04  0.50400001928E-02 0. -1.
       -1   -1    0    0    0  501  0.00000000000E+00  0.00000000000E+00 -0.10656334919E+04  0.10656334919E+04  0.50400001928E-02 0.  1.
    10030    2    1    2    0    0  0.00000000000E+00  0.00000000000E+00  0.63569270320E+03  0.27669596870E+04  0.26929464712E+04 0.  0.
        1    1    3    3  502    0  0.10498084361E+04  0.20423657298E+03 -0.52267071576E+03  0.11903759941E+04  0.50400001928E-02 0.  1.
       -1    1    3    3    0  502 -0.10498084361E+04 -0.20423657298E+03  0.11583634190E+04  0.15765836929E+04  0.50400001928E-02 0. -1.
</event>
<event>
 5   0  0.1220908E-05  0.2715888E+04  0.7818609E-02  0.8329868E-01
       -2   -1    0    0    0  501  0.00000000000E+00  0.00000000000E+00  0.10809901615E+04  0.10809901615E+04  0.25500000920E-02 0.  1.
        2   -1    0    0  501    0  0.00000000000E+00  0.00000000000E+00 -0.17058538690E+04  0.17058538690E+04  0.25500000920E-02 0. -1.
    10030    2    1    2    0    0  0.00000000000E+00  0.00000000000E+00 -0.62486370751E+03  0.27868440305E+04  0.27158875156E+04 0.  0.
        2    1    3    3  502    0 -0.11980281967E+04  0.27061534198E+03  0.28193104823E+03  0.12601544903E+04  0.25500000920E-02 0.  1.
       -2    1    3    3    0  502  0.11980281967E+04 -0.27061534198E+03 -0.90679475574E+03  0.15266895403E+04  0.25500000920E-02 0. -1.
</event>
<event>
 5   0  0.1286641E-05  0.2472486E+04  0.7818609E-02  0.8412853E-01
        2   -1    0    0  501    0  0.00000000000E+00  0.00000000000E+00  0.22504575827E+04  0.22504575827E+04  0.25500000920E-02 0. -1.
       -2   -1    0    0    0  501  0.00000000000E+00  0.00000000000E+00 -0.67910512886E+03  0.67910512887E+03  0.25500000920E-02 0.  1.
    10030    2    1    2    0    0  0.00000000000E+00  0.00000000000E+00  0.15713524538E+04  0.29295627116E+04  0.24724864301E+04 0.  0.
        4    1    3    3  502    0  0.26224325311E+02 -0.11534045299E+04  0.25942278968E+03  0.11825106856E+04  0.12699999809E+01 0.  1.
       -4    1    3    3    0  502 -0.26224325311E+02  0.11534045299E+04  0.13119296642E+04  0.17470520260E+04  0.12699999809E+01 0. -1.
</event>
<event>
 5   0  0.4824715E-06  0.2691578E+04  0.7818609E-02  0.8337743E-01
        1   -1    0    0  501    0  0.00000000000E+00  0.00000000000E+00  0.13974761657E+04  0.13974761657E+04  0.50400001928E-02 0. -1.
       -1   -1    0    0    0  501  0.00000000000E+00  0.00000000000E+00 -0.12960135626E+04  0.12960135626E+04  0.50400001928E-02 0.  1.
    10030    2    1    2    0    0  0.00000000000E+00  0.00000000000E+00  0.10146260305E+03  0.26934897283E+04  0.26915780235E+04 0.  0.
        5    1    3    3  502    0 -0.11947344966E+04  0.51704113190E+03  0.39215382002E+03  0.13596061040E+04  0.46999998093E+01 0. -1.
       -5    1    3    3    0  502  0.11947344966E+04 -0.51704113190E+03 -0.29069121697E+03  0.13338836243E+04  0.46999998093E+01 0.  1.
</event>
<event>
 5   0  0.1276517E-05  0.2676500E+04  0.7818609E-02  0.8342670E-01
        2   -1    0    0  501    0  0.00000000000E+00  0.00000000000E+00  0.17220791085E+04  0.17220791085E+04  0.25500000920E-02 0. -1.
       -2   -1    0    0    0  501  0.00000000000E+00  0.00000000000E+00 -0.10399715384E+04  0.10399715384E+04  0.25500000920E-02 0.  1.
    10030    2    1    2    0    0  0.00000000000E+00  0.00000000000E+00  0.68210757011E+03  0.27620506468E+04  0.26765001473E+04 0.  0.
        1    1    3    3  502    0 -0.60774373814E+03  0.21035592738E+02 -0.88915686961E+03  0.10772162671E+04  0.50400001928E-02 0.  1.
       -1    1    3    3    0  502  0.60774373814E+03 -0.21035592738E+02  0.15712644397E+04  0.16848343797E+04  0.50400001928E-02 0. -1.
</event>
<event>
 5   0  0.4824715E-06  0.2714955E+04  0.7818609E-02  0.8330169E-01
       -1   -1    0    0    0  501  0.00000000000E+00  0.00000000000E+00  0.12243873446E+04  0.12243873446E+04  0.50400001928E-02 0.  1.
        1   -1    0    0  501    0  0.00000000000E+00  0.00000000000E+00 -0.15050342599E+04  0.15050342599E+04  0.50400001928E-02 0. -1.
    10030    2    1    2    0    0  0.00000000000E+00  0.00000000000E+00 -0.28064691529E+03  0.27294216046E+04  0.27149548070E+04 0.  0.
        5    1    3    3  502    0  0.47705631021E+03 -0.58485035519E+03 -0.12746487065E+04  0.14813453601E+04  0.46999998093E+01 0. -1.
       -5    1    3    3    0  502 -0.47705631021E+03  0.58485035519E+03  0.99400179117E+03  0.12480762444E+04  0.46999998093E+01 0.  1.
</event>
<event>
 5   0  0.4756800E-06  0.2703134E+04  0.7818609E-02  0.8333989E-01
        1   -1    0    0  501    0  0.00000000000E+00  0.00000000000E+00  0.13524383790E+04  0.13524383790E+04  0.50400001928E-02 0.  1.
       -1   -1    0    0    0  501  0.00000000000E+00  0.00000000000E+00 -0.13506966496E+04  0.13506966496E+04  0.50400001928E-02 0. -1.
    10030    2    1    2    0    0  0.00000000000E+00  0.00000000000E+00  0.17417293924E+01  0.27031350286E+04  0.27031344675E+04 0.  0.
        4    1    3    3  502    0  0.16762162085E+03 -0.74829917551E+03  0.11138327800E+04  0.13522846366E+04  0.12699999809E+01 0.  1.
       -4    1    3    3    0  502 -0.16762162085E+03  0.74829917551E+03 -0.11120910506E+04  0.13508503920E+04  0.12699999809E+01 0. -1.
</event>
<event>
 5   0  0.4826140E-06  0.2705756E+04  0.7818609E-02  0.8333140E-01
        1   -1    0    0  501    0  0.00000000000E+00  0.00000000000E+00  0.15246593360E+04  0.15246593360E+04  0.50400001928E-02 0.  1.
       -1   -1    0    0    0  501  0.00000000000E+00  0.00000000000E+00 -0.12004513758E+04  0.12004513758E+04  0.50400001928E-02 0. -1.
    10030    2    1    2    0    0  0.00000000000E+00  0.00000000000E+00  0.32420796022E+03  0.27251107119E+04  0.27057563805E+04 0.  0.
        1    1    3    3  502    0  0.18484161386E+03  0.11517477152E+04 -0.52806424525E+03  0.12804456524E+04  0.50400001928E-02 0. -1.
       -1    1    3    3    0  502 -0.18484161386E+03 -0.11517477152E+04  0.85227220547E+03  0.14446650594E+04  0.50400001928E-02 0.  1.
</event>
<event>
 5   0  0.4826140E-06  0.2696086E+04  0.7818609E-02  0.8336276E-01
        1   -1    0    0  501    0  0.00000000000E+00  0.00000000000E+00  0.23898691194E+04  0.23898691194E+04  0.50400001928E-02 0. -1.
       -1   -1    0    0    0  501  0.00000000000E+00  0.00000000000E+00 -0.76038491696E+03  0.76038491698E+03  0.50400001928E-02 0.  1.
    10030    2    1    2    0    0  0.00000000000E+00  0.00000000000E+00  0.16294842024E+04  0.31502540364E+04  0.26960863725E+04 0.  0.
        1    1    3    3  502    0  0.10326337482E+04  0.15684227623E+03 -0.18104466793E+03  0.10600514749E+04  0.50400001928E-02 0.  1.
       -1    1    3    3    0  502 -0.10326337482E+04 -0.15684227623E+03  0.18105288704E+04  0.20902025615E+04  0.50400001928E-02 0. -1.
</event>
<event>
 5   0  0.4826140E-06  0.2699397E+04  0.7818609E-02  0.8335200E-01
        1   -1    0    0  501    0  0.00000000000E+00  0.00000000000E+00  0.13887867187E+04  0.13887867187E+04  0.50400001928E-02 0. -1.
       -1   -1    0    0    0  501  0.00000000000E+00  0.00000000000E+00 -0.13117108777E+04  0.13117108777E+04  0.50400001928E-02 0.  1.
    10030    2    1    2    0    0  0.00000000000E+00  0.00000000000E+00  0.77075840993E+02  0.27004975964E+04  0.26993974481E+04 0.  0.
        1    1    3    3  502    0  0.11885515584E+04 -0.82052078764E+02 -0.59599125831E+03  0.13321384803E+04  0.50400001928E-02 0.  1.
       -1    1    3    3    0  502 -0.11885515584E+04  0.82052078764E+02  0.67306709930E+03  0.13683591162E+04  0.50400001928E-02 0. -1.
</event>
<event>
 5   0  0.4846214E-06  0.2631969E+04  0.7818609E-02  0.8357422E-01
       -1   -1    0    0    0  501  0.00000000000E+00  0.00000000000E+00  0.13672906926E+04  0.13672906926E+04  0.50400001928E-02 0.  1.
        1   -1    0    0  501    0  0.00000000000E+00  0.00000000000E+00 -0.12666038262E+04  0.12666038262E+04  0.50400001928E-02 0. -1.
    10030    2    1    2    0    0  0.00000000000E+00  0.00000000000E+00  0.10068686642E+03  0.26338945188E+04  0.26319693181E+04 0.  0.
        2    1    3    3  502    0  0.62157526800E+03  0.80114956938E+03 -0.78909024643E+03  0.12848579156E+04  0.25500000920E-02 0. -1.
       -2    1    3    3    0  502 -0.62157526800E+03 -0.80114956938E+03  0.88977711285E+03  0.13490366032E+04  0.25500000920E-02 0.  1.
</event>
<event>
 5   0  0.4824715E-06  0.2690220E+04  0.7818609E-02  0.8338185E-01
       -1   -1    0    0    0  501  0.00000000000E+00  0.00000000000E+00  0.96916126612E+03  0.96916126613E+03  0.50400001928E-02 0. -1.
        1   -1    0    0  501    0  0.00000000000E+00  0.00000000000E+00 -0.18668934096E+04  0.18668934096E+04  0.50400001928E-02 0.  1.
    10030    2    1    2    0    0  0.00000000000E+00  0.00000000000E+00 -0.89773214352E+03  0.28360546758E+04  0.26902199023E+04 0.  0.
        5    1    3    3  502    0 -0.13099528724E+04  0.56663127926E+02 -0.13240753674E+03  0.13178547279E+04  0.46999998093E+01 0.  1.
       -5    1    3    3    0  502  0.13099528724E+04 -0.56663127926E+02 -0.76532460678E+03  0.15181999479E+04  0.46999998093E+01 0. -1.
</event>
<event>
 5   0  0.1232559E-05  0.2680045E+04  0.7818609E-02  0.8341509E-01
       -2   -1    0    0    0  501  0.00000000000E+00  0.00000000000E+00  0.12526920811E+04  0.12526920811E+04  0.25500000920E-02 0.  1.
        2   -1    0    0  501    0  0.00000000000E+00  0.00000000000E+00 -0.14334409694E+04  0.14334409694E+04  0.25500000920E-02 0. -1.
    10030    2    1    2    0    0  0.00000000000E+00  0.00000000000E+00 -0.18074888834E+03  0.26861330505E+04  0.26800448885E+04 0.  0.
        3    1    3    3  502    0  0.36706306601E+03  0.12697245709E+04  0.13086294599E+03  0.13281795440E+04  0.10100000352E+00 0.  1.
       -3    1    3    3    0  502 -0.36706306601E+03 -0.12697245709E+04 -0.31161183432E+03  0.13579535065E+04  0.10100000352E+00 0. -1.
</event>
<event>
 5   0  0.5152288E-06  0.2700574E+04  0.7818609E-02  0.8334819E-01
        1   -1    0    0  501    0  0.00000000000E+00  0.00000000000E+00  0.22210973720E+04  0.22210973720E+04  0.50400001928E-02 0.  1.
       -1   -1    0    0    0  501  0.00000000000E+00  0.00000000000E+00 -0.82088902814E+03  0.82088902815E+03  0.50400001928E-02 0. -1.
    10030    2    1    2    0    0  0.00000000000E+00  0.00000000000E+00  0.14002083439E+04  0.30419864002E+04  0.27005736155E+04 0.  0.
        3    1    3    3  502    0 -0.48040841848E+03  0.19554503022E+03 -0.70419906158E+03  0.87460072943E+03  0.10100000352E+00 0. -1.
       -3    1    3    3    0  502  0.48040841848E+03 -0.19554503022E+03  0.21044074055E+04  0.21673856708E+04  0.10100000352E+00 0.  1.
</event>
<event>
 5   0  0.4846214E-06  0.2634661E+04  0.7818609E-02  0.8356522E-01
        1   -1    0    0  501    0  0.00000000000E+00  0.00000000000E+00  0.12886899345E+04  0.12886899345E+04  0.50400001928E-02 0.  1.
       -1   -1    0    0    0  501  0.00000000000E+00  0.00000000000E+00 -0.13466080501E+04  0.13466080501E+04  0.50400001928E-02 0. -1.
    10030    2    1    2    0    0  0.00000000000E+00  0.00000000000E+00 -0.57918115591E+02  0.26352979845E+04  0.26346614506E+04 0.  0.
        2    1    3    3  502    0  0.29607480607E+03 -0.68919511765E+02  0.12531267502E+04  0.12894715359E+04  0.25500000920E-02 0.  1.
       -2    1    3    3    0  502 -0.29607480607E+03  0.68919511765E+02 -0.13110448658E+04  0.13458264487E+04  0.25500000920E-02 0. -1.
</event>
<event>
 5   0  0.1261364E-05  0.2684076E+04  0.7818609E-02  0.8340190E-01
        2   -1    0    0  501    0  0.00000000000E+00  0.00000000000E+00  0.17794937189E+04  0.17794937189E+04  0.25500000920E-02 0.  1.
       -2   -1    0    0    0  501  0.00000000000E+00  0.00000000000E+00 -0.10121229270E+04  0.10121229270E+04  0.25500000920E-02 0. -1.
    10030    2    1    2    0    0  0.00000000000E+00  0.00000000000E+00  0.76737079189E+03  0.27916166460E+04  0.26840762966E+04 0.  0.
        5    1    3    3  502    0  0.70152233136E+03  0.99272989686E+03  0.97515119320E+03  0.15583928161E+04  0.46999998093E+01 0.  1.
       -5    1    3    3    0  502 -0.70152233136E+03 -0.99272989686E+03 -0.20778040131E+03  0.12332238299E+04  0.46999998093E+01 0. -1.
</event>
<event>
 5   0  0.1232559E-05  0.2664683E+04  0.7818609E-02  0.8346556E-01
        2   -1    0    0  501    0  0.00000000000E+00  0.00000000000E+00  0.16129794055E+04  0.16129794055E+04  0.25500000920E-02 0. -1.
       -2   -1    0    0    0  501  0.00000000000E+00  0.00000000000E+00 -0.11005306467E+04  0.11005306467E+04  0.25500000920E-02 0.  1.
    10030    2    1    2    0    0  0.00000000000E+00  0.00000000000E+00  0.51244875874E+03  0.27135100522E+04  0.26646825464E+04 0.  0.
        3    1    3    3  502    0 -0.36852768716E+03  0.85790731363E+03  0.12240691838E+04  0.15395333682E+04  0.10100000352E+00 0. -1.
       -3    1    3    3    0  502  0.36852768716E+03 -0.85790731363E+03 -0.71162042502E+03  0.11739766840E+04  0.10100000352E+00 0.  1.
</event>
<event>
 5   0  0.4826140E-06  0.2690222E+04  0.7818609E-02  0.8338185E-01
       -1   -1    0    0    0  501  0.00000000000E+00  0.00000000000E+00  0.25441728495E+04  0.25441728495E+04  0.50400001928E-02 0.  1.
        1   -1    0    0  501    0  0.00000000000E+00  0.00000000000E+00 -0.71116386365E+03  0.71116386367E+03  0.50400001928E-02 0. -1.
    10030    2    1    2    0    0  0.00000000000E+00  0.00000000000E+00  0.18330089859E+04  0.32553367132E+04  0.26902221421E+04 0.  0.
        1    1    3    3  502    0 -0.46160488938E+03 -0.18529861413E+03  0.24287965003E+04  0.24792069478E+04  0.50400001928E-02 0.  1.
       -1    1    3    3    0  502  0.46160488938E+03  0.18529861413E+03 -0.59578751443E+03  0.77612976536E+03  0.50400001928E-02 0. -1.
</event>
<event>
 5   0  0.1286641E-05  0.2707384E+04  0.7818609E-02  0.8332613E-01
       -2   -1    0    0    0  501  0.00000000000E+00  0.00000000000E+00  0.79146991152E+03  0.79146991153E+03  0.25500000920E-02 0.  1.
        2   -1    0    0  501    0  0.00000000000E+00  0.00000000000E+00 -0.23152890912E+04  0.23152890912E+04  0.25500000920E-02 0. -1.
    10030    2    1    2    0    0  0.00000000000E+00  0.00000000000E+00 -0.15238191797E+04  0.31067590028E+04  0.27073837203E+04 0.  0.
        4    1    3    3  502    0 -0.10329330140E+03  0.13140017121E+04 -0.40783145237E+03  0.13797094302E+04  0.12699999809E+01 0.  1.
       -4    1    3    3    0  502  0.10329330140E+03 -0.13140017121E+04 -0.11159877273E+04  0.17270495725E+04  0.12699999809E+01 0. -1.
</event>
<event>
 5   0  0.1276517E-05  0.2692707E+04  0.7818609E-02  0.8337375E-01
       -2   -1    0    0    0  501  0.00000000000E+00  0.00000000000E+00  0.13608081438E+04  0.13608081438E+04  0.25500000920E-02 0.  1.
        2   -1    0    0  501    0  0.00000000000E+00  0.00000000000E+00 -0.13320526832E+04  0.13320526832E+04  0.25500000920E-02 0. -1.
    10030    2    1    2    0    0  0.00000000000E+00  0.00000000000E+00  0.28755460655E+02  0.26928608270E+04  0.26927072914E+04 0.  0.
        1    1    3    3  502    0  0.89100992448E+03 -0.90801209894E+03  0.45517886260E+03  0.13511374668E+04  0.50400001928E-02 0.  1.
       -1    1    3    3    0  502 -0.89100992448E+03  0.90801209894E+03 -0.42642340194E+03  0.13417233601E+04  0.50400001928E-02 0. -1.
</event>
<event>
 5   0  0.1232559E-05  0.2694800E+04  0.7818609E-02  0.8336694E-01
       -2   -1    0    0    0  501  0.00000000000E+00  0.00000000000E+00  0.13129532287E+04  0.13129532287E+04  0.25500000920E-02 0.  1.
        2   -1    0    0  501    0  0.00000000000E+00  0.00000000000E+00 -0.13827505640E+04  0.13827505640E+04  0.25500000920E-02 0. -1.
    10030    2    1    2    0    0  0.00000000000E+00  0.00000000000E+00 -0.69797335348E+02  0.26957037927E+04  0.26948000426E+04 0.  0.
        3    1    3    3  502    0 -0.98399143212E+03 -0.64090407464E+03 -0.69579385935E+03  0.13649638370E+04  0.10100000352E+00 0. -1.
       -3    1    3    3    0  502  0.98399143212E+03  0.64090407464E+03  0.62599652400E+03  0.13307399557E+04  0.10100000352E+00 0.  1.
</event>
<event>
 5   0  0.4824715E-06  0.2741178E+04  0.7818609E-02  0.8321766E-01
        1   -1    0    0  501    0  0.00000000000E+00  0.00000000000E+00  0.21607021828E+04  0.21607021828E+04  0.50400001928E-02 0.  1.
       -1   -1    0    0    0  501  0.00000000000E+00  0.00000000000E+00 -0.86940007144E+03  0.86940007145E+03  0.50400001928E-02 0. -1.
    10030    2    1    2    0    0  0.00000000000E+00  0.00000000000E+00  0.12913021114E+04  0.30301022543E+04  0.27411783102E+04 0.  0.
        5    1    3    3  502    0  0.18428897377E+03 -0.27500090169E+03  0.21158367953E+04  0.21415824420E+04  0.46999998093E+01 0.  1.
       -5    1    3    3    0  502 -0.18428897377E+03  0.27500090169E+03 -0.82453468390E+03  0.88851981224E+03  0.46999998093E+01 0. -1.
</event>
<event>
 5   0  0.4846214E-06  0.2639942E+04  0.7818609E-02  0.8354759E-01
        1   -1    0    0  501    0  0.00000000000E+00  0.00000000000E+00  0.14071725411E+04  0.14071725411E+04  0.50400001928E-02 0. -1.
       -1   -1    0    0    0  501  0.00000000000E+00  0.00000000000E+00 -0.12381729825E+04  0.12381729826E+04  0.50400001928E-02 0.  1.
    10030    2    1    2    0    0  0.00000000000E+00  0.00000000000E+00  0.16899955858E+03  0.26453455237E+04  0.26399416829E+04 0.  0.
        2    1    3    3  502    0  0.94186802736E+03 -0.44715983250E+03 -0.72663586193E+03  0.12708528525E+04  0.25500000920E-02 0.  1.
       -2    1    3    3    0  502 -0.94186802736E+03  0.44715983250E+03  0.89563542051E+03  0.13744926712E+04  0.25500000920E-02 0. -1.
</event>
<event>
 5   0  0.4826140E-06  0.2725831E+04  0.7818609E-02  0.8326672E-01
       -1   -1    0    0    0  501  0.00000000000E+00  0.00000000000E+00  0.99446747263E+03  0.99446747264E+03  0.50400001928E-02 0. -1.
        1   -1    0    0  501    0  0.00000000000E+00  0.00000000000E+00 -0.18678723531E+04  0.18678723531E+04  0.50400001928E-02 0.  1.
    10030    2    1    2    0    0  0.00000000000E+00  0.00000000000E+00 -0.87340488047E+03  0.28623398257E+04  0.27258307344E+04 0.  0.
        1    1    3    3  502    0  0.17695663352E+03  0.55571979446E+03  0.85681524762E+03  0.10364702160E+04  0.50400001928E-02 0. -1.
       -1    1    3    3    0  502 -0.17695663352E+03 -0.55571979446E+03 -0.17302201281E+04  0.18258696097E+04  0.50400001928E-02 0.  1.
</event>
<event>
 5   0  0.1220908E-05  0.2657010E+04  0.7818609E-02  0.8349090E-01
        2   -1    0    0  501    0  0.00000000000E+00  0.00000000000E+00  0.12990325636E+04  0.12990325636E+04  0.25500000920E-02 0.  1.
       -2   -1    0    0    0  501  0.00000000000E+00  0.00000000000E+00 -0.13586456009E+04  0.13586456009E+04  0.25500000920E-02 0. -1.
    10030    2    1    2    0    0  0.00000000000E+00  0.00000000000E+00 -0.59613037336E+02  0.26576781645E+04  0.26570095055E+04 0.  0.
        2    1    3    3  502    0 -0.10767015757E+04  0.37404980758E+03 -0.71241898071E+03  0.13441504178E+04  0.25500000920E-02 0. -1.
       -2    1    3    3    0  502  0.10767015757E+04 -0.37404980758E+03  0.65280594338E+03  0.13135277467E+04  0.25500000920E-02 0.  1.
</event>
<event>
 5   0  0.1286641E-05  0.2609330E+04  0.7818609E-02  0.8365039E-01
       -2   -1    0    0    0  501  0.00000000000E+00  0.00000000000E+00  0.82167324480E+03  0.82167324480E+03  0.25500000920E-02 0. -1.
        2   -1    0    0  501    0  0.00000000000E+00  0.00000000000E+00 -0.20715658177E+04  0.20715658177E+04  0.25500000920E-02 0.  1.
    10030    2    1    2    0    0  0.00000000000E+00  0.00000000000E+00 -0.12498925729E+04  0.28932390625E+04  0.26093295746E+04 0.  0.
        4    1    3    3  502    0  0.54968243023E+03  0.93506833403E+03 -0.14288456132E+04  0.17939077353E+04  0.12699999809E+01 0.  1.
       -4    1    3    3    0  502 -0.54968243023E+03 -0.93506833403E+03  0.17895304032E+03  0.10993313272E+04  0.12699999809E+01 0. -1.
</event>
<event>
 5   0  0.4846214E-06  0.2736437E+04  0.7818609E-02  0.8323278E-01
        1   -1    0    0  501    0  0.00000000000E+00  0.00000000000E+00  0.28467219774E+04  0.28467219774E+04  0.50400001928E-02 0.  1.
       -1   -1    0    0    0  501  0.00000000000E+00  0.00000000000E+00 -0.65760599822E+03  0.65760599824E+03  0.50400001928E-02 0. -1.
    10030    2    1    2    0    0  0.00000000000E+00  0.00000000000E+00  0.21891159792E+04  0.35043279756E+04  0.27364366959E+04 0.  0.
        2    1    3    3  502    0  0.93375911989E+02  0.13643815798E+04  0.11483635968E+04  0.17857757717E+04  0.25500000920E-02 0.  1.
       -2    1    3    3    0  502 -0.93375911989E+02 -0.13643815798E+04  0.10407523823E+04  0.17185522039E+04  0.25500000920E-02 0. -1.
</event>
<event>
 5   0  0.4824715E-06  0.2717024E+04  0.7818609E-02  0.8329502E-01
        1   -1    0    0  501    0  0.00000000000E+00  0.00000000000E+00  0.17978045782E+04  0.17978045782E+04  0.50400001928E-02 0.  1.
       -1   -1    0    0    0  501  0.00000000000E+00  0.00000000000E+00 -0.10265605960E+04  0.10265605960E+04  0.50400001928E-02 0. -1.
    10030    2    1    2    0    0  0.00000000000E+00  0.00000000000E+00  0.77124398218E+03  0.28243651742E+04  0.27170243571E+04 0.  0.
        5    1    3    3  502    0  0.52892553027E+03  0.86588241515E+03  0.13246474461E+04  0.16686004674E+04  0.46999998093E+01 0.  1.
       -5    1    3    3    0  502 -0.52892553027E+03 -0.86588241515E+03 -0.55340346393E+03  0.11557647067E+04  0.46999998093E+01 0. -1.
</event>
<event>
 5   0  0.4846214E-06  0.2688829E+04  0.7818609E-02  0.8338639E-01
       -1   -1    0    0    0  501  0.00000000000E+00  0.00000000000E+00  0.84212748653E+03  0.84212748655E+03  0.50400001928E-02 0.  1.
        1   -1    0    0  501    0  0.00000000000E+00  0.00000000000E+00 -0.21462912783E+04  0.21462912783E+04  0.50400001928E-02 0. -1.
    10030    2    1    2    0    0  0.00000000000E+00  0.00000000000E+00 -0.13041637918E+04  0.29884187649E+04  0.26888293956E+04 0.  0.
        2    1    3    3  502    0  0.59295013448E+03  0.84249706732E+03 -0.16120681195E+04  0.19131531022E+04  0.25500000920E-02 0. -1.
       -2    1    3    3    0  502 -0.59295013448E+03 -0.84249706732E+03  0.30790432769E+03  0.10752656627E+04  0.25500000920E-02 0.  1.
</event>
<event>
 5   0  0.1220908E-05  0.2695415E+04  0.7818609E-02  0.8336494E-01
       -2   -1    0    0    0  501  0.00000000000E+00  0.00000000000E+00  0.10105070919E+04  0.10105070919E+04  0.25500000920E-02 0. -1.
        2   -1    0    0  501    0  0.00000000000E+00  0.00000000000E+00 -0.17974303266E+04  0.17974303266E+04  0.25500000920E-02 0.  1.
    10030    2    1    2    0    0  0.00000000000E+00  0.00000000000E+00 -0.78692323468E+03  0.28079374185E+04  0.26954154354E+04 0.  0.
        2    1    3    3  502    0  0.10574306309E+04 -0.15826441971E+03  0.46122004948E+03  0.11644445456E+04  0.25500000920E-02 0.  1.
       -2    1    3    3    0  502 -0.10574306309E+04  0.15826441971E+03 -0.12481432842E+04  0.16434928730E+04  0.25500000920E-02 0. -1.
</event>
<event>
 5   0  0.1232559E-05  0.2688422E+04  0.7818609E-02  0.8338771E-01
        2   -1    0    0  501    0  0.00000000000E+00  0.00000000000E+00  0.11584927865E+04  0.11584927865E+04  0.25500000920E-02 0. -1.
       -2   -1    0    0    0  501  0.00000000000E+00  0.00000000000E+00 -0.15597016710E+04  0.15597016710E+04  0.25500000920E-02 0.  1.
    10030    2    1    2    0    0  0.00000000000E+00  0.00000000000E+00 -0.40120888450E+03  0.27181944575E+04  0.26884219423E+04 0.  0.
        3    1    3    3  502    0 -0.40036836068E+03 -0.11622832841E+03  0.10914754991E+04  0.11683846215E+04  0.10100000352E+00 0. -1.
       -3    1    3    3    0  502  0.40036836068E+03  0.11622832841E+03 -0.14926843836E+04  0.15498098360E+04  0.10100000352E+00 0.  1.
</event>
<event>
 5   0  0.1220908E-05  0.2708602E+04  0.7818609E-02  0.8332219E-01
        2   -1    0    0  501    0  0.00000000000E+00  0.00000000000E+00  0.23708094857E+04  0.23708094857E+04  0.25500000920E-02 0.  1.
       -2   -1    0    0    0  501  0.00000000000E+00  0.00000000000E+00 -0.77363060456E+03  0.77363060457E+03  0.25500000920E-02 0. -1.
    10030    2    1    2    0    0  0.00000000000E+00  0.00000000000E+00  0.15971788811E+04  0.31444400903E+04  0.27086016878E+04 0.  0.
        2    1    3    3  502    0 -0.71173669615E+03  0.35058272089E+03 -0.47558601954E+03  0.92501861107E+03  0.25500000920E-02 0. -1.
       -2    1    3    3    0  502  0.71173669615E+03 -0.35058272089E+03  0.20727649007E+04  0.22194214792E+04  0.25500000920E-02 0.  1.
</event>
<event>
 5   0  0.5152288E-06  0.2717261E+04  0.7818609E-02  0.8329426E-01
       -1   -1    0    0    0  501  0.00000000000E+00  0.00000000000E+00  0.86720875593E+03  0.86720875595E+03  0.50400001928E-02 0.  1.
        1   -1    0    0  501    0  0.00000000000E+00  0.00000000000E+00 -0.21285265668E+04  0.21285265668E+04  0.50400001928E-02 0. -1.
    10030    2    1    2    0    0  0.00000000000E+00  0.00000000000E+00 -0.12613178108E+04  0.29957353227E+04  0.27172610298E+04 0.  0.
        3    1    3    3  502    0  0.11192314215E+04  0.76864135997E+03 -0.68453810422E+03  0.15205528407E+04  0.10100000352E+00 0.  1.
       -3    1    3    3    0  502 -0.11192314215E+04 -0.76864135997E+03 -0.57677970662E+03  0.14751824820E+04  0.10100000352E+00 0. -1.
</event>
<event>
 5   0  0.4824715E-06  0.2713339E+04  0.7818609E-02  0.8330690E-01
       -1   -1    0    0    0  501  0.00000000000E+00  0.00000000000E+00  0.10736927902E+04  0.10736927902E+04  0.50400001928E-02 0. -1.
        1   -1    0    0  501    0  0.00000000000E+00  0.00000000000E+00 -0.17142262481E+04  0.17142262481E+04  0.50400001928E-02 0.  1.
    10030    2    1    2    0    0  0.00000000000E+00  0.00000000000E+00 -0.64053345793E+03  0.27879190383E+04  0.27133391703E+04 0.  0.
        5    1    3    3  502    0  0.47293331527E+03  0.29768616117E+02  0.98588557142E+03  0.10938667840E+04  0.46999998093E+01 0. -1.
       -5    1    3    3    0  502 -0.47293331527E+03 -0.29768616117E+02 -0.16264190293E+04  0.16940522543E+04  0.46999998093E+01 0.  1.
</event>
<event>
 5   0  0.1261364E-05  0.2684547E+04  0.7818609E-02  0.8340036E-01
        2   -1    0    0  501    0  0.00000000000E+00  0.00000000000E+00  0.14539946622E+04  0.14539946622E+04  0.25500000920E-02 0.  1.
       -2   -1    0    0    0  501  0.00000000000E+00  0.00000000000E+00 -0.12391365708E+04  0.12391365708E+04  0.25500000920E-02 0. -1.
    10030    2    1    2    0    0  0.00000000000E+00  0.00000000000E+00  0.21485809145E+03  0.26931312330E+04  0.26845468591E+04 0.  0.
        5    1    3    3  502    0 -0.34736614373E+03 -0.11468800644E+04  0.71407651364E+03  0.13949639699E+04  0.46999998093E+01 0.  1.
       -5    1    3    3    0  502  0.34736614373E+03  0.11468800644E+04 -0.49921842219E+03  0.12981672631E+04  0.46999998093E+01 0. -1.
</event>
<event>
 5   0  0.4824715E-06  0.2716537E+04  0.7818609E-02  0.8329659E-01
        1   -1    0    0  501    0  0.00000000000E+00  0.00000000000E+00  0.13565681614E+04  0.13565681614E+04  0.50400001928E-02 0.  1.
       -1   -1    0    0    0  501  0.00000000000E+00  0.00000000000E+00 -0.13599709841E+04  0.13599709842E+04  0.50400001928E-02 0. -1.
    10030    2    1    2    0    0  0.00000000000E+00  0.00000000000E+00 -0.34028227824E+01  0.27165391455E+04  0.27165370143E+04 0.  0.
        5    1    3    3  502    0  0.38765273552E+03  0.85224066486E+03 -0.98571562502E+03  0.13595021801E+04  0.46999998093E+01 0. -1.
       -5    1    3    3    0  502 -0.38765273552E+03 -0.85224066486E+03  0.98231280224E+03  0.13570369655E+04  0.46999998093E+01 0.  1.
</event>
<event>
 5   0  0.4846214E-06  0.2685289E+04  0.7818609E-02  0.8339794E-01
       -1   -1    0    0    0  501  0.00000000000E+00  0.00000000000E+00  0.86680825682E+03  0.86680825683E+03  0.50400001928E-02 0. -1.
        1   -1    0    0  501    0  0.00000000000E+00  0.00000000000E+00 -0.20796927059E+04  0.20796927059E+04  0.50400001928E-02 0.  1.
    10030    2    1    2    0    0  0.00000000000E+00  0.00000000000E+00 -0.12128844490E+04  0.29465009627E+04  0.26852894139E+04 0.  0.
        2    1    3    3  502    0  0.12134392788E+04  0.22068953544E+03 -0.11886767075E+04  0.17129188741E+04  0.25500000920E-02 0. -1.
       -2    1    3    3    0  502 -0.12134392788E+04 -0.22068953544E+03 -0.24207741557E+02  0.12335820886E+04  0.25500000920E-02 0.  1.
</event>
<event>
 5   0  0.1261364E-05  0.2697852E+04  0.7818609E-02  0.8335702E-01
        2   -1    0    0  501    0  0.00000000000E+00  0.00000000000E+00  0.21920447374E+04  0.21920447374E+04  0.25500000920E-02 0. -1.
       -2   -1    0    0    0  501  0.00000000000E+00  0.00000000000E+00 -0.83009344834E+03  0.83009344834E+03  0.25500000920E-02 0.  1.
    10030    2    1    2    0    0  0.00000000000E+00  0.00000000000E+00  0.13619512891E+04  0.30221381857E+04  0.26978524607E+04 0.  0.
        5    1    3    3  502    0  0.78735854257E+03  0.10667262913E+04  0.40262997762E+03  0.13856303417E+04  0.46999998093E+01 0.  1.
       -5    1    3    3    0  502 -0.78735854257E+03 -0.10667262913E+04  0.95932131144E+03  0.16365078440E+04  0.46999998093E+01 0. -1.
</event>
<event>
 5   0  0.4826140E-06  0.2823679E+04  0.7818609E-02  0.8295955E-01
       -1   -1    0    0    0  501  0.00000000000E+00  0.00000000000E+00  0.96858571914E+03  0.96858571916E+03  0.50400001928E-02 0.  1.
        1   -1    0    0  501    0  0.00000000000E+00  0.00000000000E+00 -0.20579389215E+04  0.20579389215E+04  0.50400001928E-02 0. -1.
    10030    2    1    2    0    0  0.00000000000E+00  0.00000000000E+00 -0.10893532024E+04  0.30265246407E+04  0.28236786292E+04 0.  0.
        1    1    3    3  502    0 -0.67778140436E+03  0.98791435160E+03  0.25592779084E+03  0.12250964992E+04  0.50400001928E-02 0.  1.
       -1    1    3    3    0  502  0.67778140436E+03 -0.98791435160E+03 -0.13452809932E+04  0.18014281415E+04  0.50400001928E-02 0. -1.
</event>
<event>
 5   0  0.1232559E-05  0.2679438E+04  0.7818609E-02  0.8341708E-01
       -2   -1    0    0    0  501  0.00000000000E+00  0.00000000000E+00  0.12261198657E+04  0.12261198657E+04  0.25500000920E-02 0.  1.
        2   -1    0    0  501    0  0.00000000000E+00  0.00000000000E+00 -0.14638428541E+04  0.14638428541E+04  0.25500000920E-02 0. -1.
    10030    2    1    2    0    0  0.00000000000E+00  0.00000000000E+00 -0.23772298837E+03  0.26899627198E+04  0.26794378542E+04 0.  0.
        3    1    3    3  502    0 -0.50764444018E+03  0.26606826199E+03  0.10968251083E+04  0.12375461713E+04  0.10100000352E+00 0.  1.
       -3    1    3    3    0  502  0.50764444018E+03 -0.26606826199E+03 -0.13345480967E+04  0.14524165485E+04  0.10100000352E+00 0. -1.
</event>
<event>
 5   0  0.1276517E-05  0.2685032E+04  0.7818609E-02  0.8339878E-01
       -2   -1    0    0    0  501  0.00000000000E+00  0.00000000000E+00  0.18846063740E+04  0.18846063740E+04  0.25500000920E-02 0. -1.
        2   -1    0    0  501    0  0.00000000000E+00  0.00000000000E+00 -0.95635310494E+03  0.95635310494E+03  0.25500000920E-02 0.  1.
    10030    2    1    2    0    0  0.00000000000E+00  0.00000000000E+00  0.92825326906E+03  0.28409594789E+04  0.26850319606E+04 0.  0.
        1    1    3    3  502    0 -0.11258232200E+04 -0.18043324080E+03 -0.28577394294E+03  0.11754577081E+04  0.50400001928E-02 0.  1.
       -1    1    3    3    0  502  0.11258232200E+04  0.18043324080E+03  0.12140272120E+04  0.16655017708E+04  0.50400001928E-02 0. -1.
</event>
<event>
 5   0  0.1232559E-05  0.2718116E+04  0.7818609E-02  0.8329151E-01
       -2   -1    0    0    0  501  0.00000000000E+00  0.00000000000E+00  0.85422562571E+03  0.85422562571E+03  0.25500000920E-02 0.  1.
        2   -1    0    0  501    0  0.00000000000E+00  0.00000000000E+00 -0.21622373546E+04  0.21622373546E+04  0.25500000920E-02 0. -1.
    10030    2    1    2    0    0  0.00000000000E+00  0.00000000000E+00 -0.13080117289E+04  0.30164629803E+04  0.27181159336E+04 0.  0.
        3    1    3    3  502    0 -0.49113928696E+03 -0.16877109869E+03  0.73976787504E+03  0.90385729078E+03  0.10100000352E+00 0.  1.
       -3    1    3    3    0  502  0.49113928696E+03  0.16877109869E+03 -0.20477796039E+04  0.21126056895E+04  0.10100000352E+00 0. -1.
</event>
<event>
 5   0  0.4846214E-06  0.2591403E+04  0.7818609E-02  0.8371127E-01
       -1   -1    0    0    0  501  0.00000000000E+00  0.00000000000E+00  0.97736303819E+03  0.97736303820E+03  0.50400001928E-02 0. -1.
        1   -1    0    0  501    0  0.00000000000E+00  0.00000000000E+00 -0.17177263476E+04  0.17177263476E+04  0.50400001928E-02 0.  1.
    10030    2    1    2    0    0  0.00000000000E+00  0.00000000000E+00 -0.74036330943E+03  0.26950893858E+04  0.25914028957E+04 0.  0.
        2    1    3    3  502    0  0.10117117557E+04 -0.70396918893E+03 -0.78580779683E+03  0.14617206263E+04  0.25500000920E-02 0.  1.
       -2    1    3    3    0  502 -0.10117117557E+04  0.70396918893E+03  0.45444487394E+02  0.12333687596E+04  0.25500000920E-02 0. -1.
</event>
<event>
 5   0  0.1286641E-05  0.2694854E+04  0.7818609E-02  0.8336677E-01
        2   -1    0    0  501    0  0.00000000000E+00  0.00000000000E+00  0.11391012690E+04  0.11391012690E+04  0.25500000920E-02 0.  1.
       -2   -1    0    0    0  501  0.00000000000E+00  0.00000000000E+00 -0.15938529025E+04  0.15938529025E+04  0.25500000920E-02 0. -1.
    10030    2    1    2    0    0  0.00000000000E+00  0.00000000000E+00 -0.45475163350E+03  0.27329541715E+04  0.26948542550E+04 0.  0.
        4    1    3    3  502    0  0.18396552009E+03  0.99775349910E+03  0.67184092840E+03  0.12168513482E+04  0.12699999809E+01 0.  1.
       -4    1    3    3    0  502 -0.18396552009E+03 -0.99775349910E+03 -0.11265925619E+04  0.15161028234E+04  0.12699999809E+01 0. -1.
</event>
<event>
 5   0  0.4824715E-06  0.2711429E+04  0.7818609E-02  0.8331306E-01
       -1   -1    0    0    0  501  0.00000000000E+00  0.00000000000E+00  0.15594629313E+04  0.15594629313E+04  0.50400001928E-02 0. -1.
        1   -1    0    0  501    0  0.00000000000E+00  0.00000000000E+00 -0.11785862622E+04  0.11785862622E+04  0.50400001928E-02 0.  1.
    10030    2    1    2    0    0  0.00000000000E+00  0.00000000000E+00  0.38087666914E+03  0.27380491935E+04  0.27114288390E+04 0.  0.
        5    1    3    3  502    0  0.90362203875E+03 -0.45271320050E+03 -0.72201322588E+03  0.12420979105E+04  0.46999998093E+01 0. -1.
       -5    1    3    3    0  502 -0.90362203875E+03  0.45271320050E+03  0.11028898950E+04  0.14959512831E+04  0.46999998093E+01 0.  1.
</event>
<event>
 5   0  0.4846214E-06  0.2749312E+04  0.7818609E-02  0.8319180E-01
       -1   -1    0    0    0  501  0.00000000000E+00  0.00000000000E+00  0.17085260829E+04  0.17085260829E+04  0.50400001928E-02 0.  1.
        1   -1    0    0  501    0  0.00000000000E+00  0.00000000000E+00 -0.11060290312E+04  0.11060290312E+04  0.50400001928E-02 0. -1.
    10030    2    1    2    0    0  0.00000000000E+00  0.00000000000E+00  0.60249705163E+03  0.28145551141E+04  0.27493122400E+04 0.  0.
        2    1    3    3  502    0  0.79201496800E+03 -0.85678806437E+03 -0.44284657202E+03  0.12479930221E+04  0.25500000920E-02 0. -1.
       -2    1    3    3    0  502 -0.79201496800E+03  0.85678806437E+03  0.10453436236E+04  0.15665620921E+04  0.25500000920E-02 0.  1.
</event>
<event>
 5   0  0.4188000E-06  0.2540804E+04  0.7818609E-02  0.8388591E-01
       -3   -1    0    0    0  501  0.00000000000E+00  0.00000000000E+00  0.10614626460E+04  0.10614626508E+04  0.10100000352E+00 0. -1.
        3   -1    0    0  501    0  0.00000000000E+00  0.00000000000E+00 -0.15204694654E+04  0.15204694688E+04  0.10100000352E+00 0.  1.
    10030    2    1    2    0    0  0.00000000000E+00  0.00000000000E+00 -0.45900681942E+03  0.25819321196E+04  0.25408042447E+04 0.  0.
        5    1    3    3  502    0  0.10197864520E+04 -0.56197010567E+03  0.28678022426E+03  0.11991829695E+04  0.46999998093E+01 0. -1.
       -5    1    3    3    0  502 -0.10197864520E+04  0.56197010567E+03 -0.74578704368E+03  0.13827491500E+04  0.46999998093E+01 0.  1.
</event>
<event>
 5   0  0.4846214E-06  0.2248325E+04  0.7818609E-02  0.8498579E-01
        1   -1    0    0  501    0  0.00000000000E+00  0.00000000000E+00  0.17067835399E+04  0.17067835399E+04  0.50400001928E-02 0.  1.
       -1   -1    0    0    0  501  0.00000000000E+00  0.00000000000E+00 -0.74042280929E+03  0.74042280930E+03  0.50400001928E-02 0. -1.
    10030    2    1    2    0    0  0.00000000000E+00  0.00000000000E+00  0.96636073064E+03  0.24472063492E+04  0.22483251220E+04 0.  0.
        2    1    3    3  502    0  0.42672732318E+03 -0.65178840483E+03 -0.39895191180E+03  0.87526393788E+03  0.25500000920E-02 0. -1.
       -2    1    3    3    0  502 -0.42672732318E+03  0.65178840483E+03  0.13653126424E+04  0.15719424114E+04  0.25500000920E-02 0.  1.
</event>
<event>
 5   0  0.5152288E-06  0.2689771E+04  0.7818609E-02  0.8338332E-01
       -1   -1    0    0    0  501  0.00000000000E+00  0.00000000000E+00  0.10472637417E+04  0.10472637417E+04  0.50400001928E-02 0.  1.
        1   -1    0    0  501    0  0.00000000000E+00  0.00000000000E+00 -0.17270878466E+04  0.17270878466E+04  0.50400001928E-02 0. -1.
    10030    2    1    2    0    0  0.00000000000E+00  0.00000000000E+00 -0.67982410492E+03  0.27743515883E+04  0.26897706076E+04 0.  0.
        3    1    3    3  502    0  0.10726609496E+04  0.63137867313E+03  0.18549366121E+03  0.12584309478E+04  0.10100000352E+00 0.  1.
       -3    1    3    3    0  502 -0.10726609496E+04 -0.63137867313E+03 -0.86531776613E+03  0.15159206405E+04  0.10100000352E+00 0. -1.
</event>
<event>
 5   0  0.4824715E-06  0.2702134E+04  0.7818609E-02  0.8334313E-01
       -1   -1    0    0    0  501  0.00000000000E+00  0.00000000000E+00  0.11917622619E+04  0.11917622619E+04  0.50400001928E-02 0. -1.
        1   -1    0    0  501    0  0.00000000000E+00  0.00000000000E+00 -0.15316666746E+04  0.15316666746E+04  0.50400001928E-02 0.  1.
    10030    2    1    2    0    0  0.00000000000E+00  0.00000000000E+00 -0.33990441276E+03  0.27234289365E+04  0.27021343716E+04 0.  0.
        5    1    3    3  502    0 -0.10568580346E+04  0.19297573694E+03 -0.99565925475E+03  0.14647689176E+04  0.46999998093E+01 0.  1.
       -5    1    3    3    0  502  0.10568580346E+04 -0.19297573694E+03  0.65575484200E+03  0.12586600189E+04  0.46999998093E+01 0. -1.
</event>
<event>
 5   0  0.1261364E-05  0.2707112E+04  0.7818609E-02  0.8332701E-01
        2   -1    0    0  501    0  0.00000000000E+00  0.00000000000E+00  0.12386575274E+04  0.12386575274E+04  0.25500000920E-02 0.  1.
       -2   -1    0    0    0  501  0.00000000000E+00  0.00000000000E+00 -0.14791123433E+04  0.14791123433E+04  0.25500000920E-02 0. -1.
    10030    2    1    2    0    0  0.00000000000E+00  0.00000000000E+00 -0.24045481597E+03  0.27177698707E+04  0.27071118469E+04 0.  0.
        5    1    3    3  502    0 -0.48813686508E+03 -0.97983594761E+03  0.67898181308E+03  0.12881748623E+04  0.46999998093E+01 0.  1.
       -5    1    3    3    0  502  0.48813686508E+03  0.97983594761E+03 -0.91943662906E+03  0.14295950084E+04  0.46999998093E+01 0. -1.
</event>
<event>
 5   0  0.4826140E-06  0.2707906E+04  0.7818609E-02  0.8332444E-01
        1   -1    0    0  501    0  0.00000000000E+00  0.00000000000E+00  0.23872297445E+04  0.23872297445E+04  0.50400001928E-02 0.  1.
       -1   -1    0    0    0  501  0.00000000000E+00  0.00000000000E+00 -0.76791441701E+03  0.76791441703E+03  0.50400001928E-02 0. -1.
    10030    2    1    2    0    0  0.00000000000E+00  0.00000000000E+00  0.16193153275E+04  0.31551441615E+04  0.27079055652E+04 0.  0.
        1    1    3    3  502    0  0.22632197553E+03 -0.88687031347E+03  0.19721511291E+04  0.21741988560E+04  0.50400001928E-02 0.  1.
       -1    1    3    3    0  502 -0.22632197553E+03  0.88687031347E+03 -0.35283580159E+03  0.98094530552E+03  0.50400001928E-02 0. -1.
</event>
<event>
 5   0  0.4824715E-06  0.2711474E+04  0.7818609E-02  0.8331291E-01
        1   -1    0    0  501    0  0.00000000000E+00  0.00000000000E+00  0.14485547172E+04  0.14485547172E+04  0.50400001928E-02 0.  1.
       -1   -1    0    0    0  501  0.00000000000E+00  0.00000000000E+00 -0.12688671176E+04  0.12688671176E+04  0.50400001928E-02 0. -1.
    10030    2    1    2    0    0  0.00000000000E+00  0.00000000000E+00  0.17968759963E+03  0.27174218348E+04  0.27114744688E+04 0.  0.
        5    1    3    3  502    0 -0.77898993473E+03 -0.16808656408E+03  0.11890279213E+04  0.14313936911E+04  0.46999998093E+01 0.  1.
       -5    1    3    3    0  502  0.77898993473E+03  0.16808656408E+03 -0.10093403216E+04  0.12860281437E+04  0.46999998093E+01 0. -1.
</event>
<event>
 5   0  0.4756800E-06  0.2691417E+04  0.7818609E-02  0.8337795E-01
       -1   -1    0    0    0  501  0.00000000000E+00  0.00000000000E+00  0.10666258575E+04  0.10666258575E+04  0.50400001928E-02 0.  1.
        1   -1    0    0  501    0  0.00000000000E+00  0.00000000000E+00 -0.16978134207E+04  0.16978134207E+04  0.50400001928E-02 0. -1.
    10030    2    1    2    0    0  0.00000000000E+00  0.00000000000E+00 -0.63118756319E+03  0.27644392782E+04  0.26914172443E+04 0.  0.
        4    1    3    3  502    0  0.46017110749E+03  0.10936478727E+04 -0.96772677847E+03  0.15311171896E+04  0.12699999809E+01 0. -1.
       -4    1    3    3    0  502 -0.46017110749E+03 -0.10936478727E+04  0.33653921528E+03  0.12333220885E+04  0.12699999809E+01 0.  1.
</event>
<event>
 5   0  0.4846214E-06  0.2714483E+04  0.7818609E-02  0.8330321E-01
       -1   -1    0    0    0  501  0.00000000000E+00  0.00000000000E+00  0.11596529968E+04  0.11596529968E+04  0.50400001928E-02 0.  1.
        1   -1    0    0  501    0  0.00000000000E+00  0.00000000000E+00 -0.15884967973E+04  0.15884967973E+04  0.50400001928E-02 0. -1.
    10030    2    1    2    0    0  0.00000000000E+00  0.00000000000E+00 -0.42884380055E+03  0.27481497941E+04  0.27144834289E+04 0.  0.
        2    1    3    3  502    0 -0.84947393908E+03  0.81219357655E+03  0.47285004583E+03  0.12668273540E+04  0.25500000920E-02 0.  1.
       -2    1    3    3    0  502  0.84947393908E+03 -0.81219357655E+03 -0.90169384637E+03  0.14813224401E+04  0.25500000920E-02 0. -1.
</event>
<event>
 5   0  0.1220908E-05  0.2687451E+04  0.7818609E-02  0.8339088E-01
        2   -1    0    0  501    0  0.00000000000E+00  0.00000000000E+00  0.26287928833E+04  0.26287928833E+04  0.25500000920E-02 0.  1.
       -2   -1    0    0    0  501  0.00000000000E+00  0.00000000000E+00 -0.68685456145E+03  0.68685456146E+03  0.25500000920E-02 0. -1.
    10030    2    1    2    0    0  0.00000000000E+00  0.00000000000E+00  0.19419383219E+04  0.33156474448E+04  0.26874511218E+04 0.  0.
        2    1    3    3  502    0  0.53584043765E+03  0.59760344246E+03 -0.35859140097E+03  0.87911469213E+03  0.25500000920E-02 0. -1.
       -2    1    3    3    0  502 -0.53584043765E+03 -0.59760344246E+03  0.23005297228E+04  0.24365327526E+04  0.25500000920E-02 0.  1.
</event>
<event>
 5   0  0.1232559E-05  0.2706508E+04  0.7818609E-02  0.8332896E-01
       -2   -1    0    0    0  501  0.00000000000E+00  0.00000000000E+00  0.92432675306E+03  0.92432675307E+03  0.25500000920E-02 0.  1.
        2   -1    0    0  501    0  0.00000000000E+00  0.00000000000E+00 -0.19812221234E+04  0.19812221234E+04  0.25500000920E-02 0. -1.
    10030    2    1    2    0    0  0.00000000000E+00  0.00000000000E+00 -0.10568953704E+04  0.29055488765E+04  0.27065081655E+04 0.  0.
        3    1    3    3  502    0 -0.14107041337E+03  0.10237617648E+04  0.40947844242E+03  0.11116031745E+04  0.10100000352E+00 0.  1.
       -3    1    3    3    0  502  0.14107041337E+03 -0.10237617648E+04 -0.14663738128E+04  0.17939457020E+04  0.10100000352E+00 0. -1.
</event>
<event>
 5   0  0.1286641E-05  0.2702416E+04  0.7818609E-02  0.8334222E-01
       -2   -1    0    0    0  501  0.00000000000E+00  0.00000000000E+00  0.15035114790E+04  0.15035114790E+04  0.25500000920E-02 0.  1.
        2   -1    0    0  501    0  0.00000000000E+00  0.00000000000E+00 -0.12143325477E+04  0.12143325477E+04  0.25500000920E-02 0. -1.
    10030    2    1    2    0    0  0.00000000000E+00  0.00000000000E+00  0.28917893132E+03  0.27178440267E+04  0.27024159005E+04 0.  0.
        4    1    3    3  502    0 -0.11599821604E+04  0.24570335064E+03 -0.50705453614E+03  0.12895870132E+04  0.12699999809E+01 0. -1.
       -4    1    3    3    0  502  0.11599821604E+04 -0.24570335064E+03  0.79623346747E+03  0.14282570135E+04  0.12699999809E+01 0.  1.
</event>
<event>
 5   0  0.4824715E-06  0.2688304E+04  0.7818609E-02  0.8338810E-01
        1   -1    0    0  501    0  0.00000000000E+00  0.00000000000E+00  0.21490750454E+04  0.21490750454E+04  0.50400001928E-02 0.  1.
       -1   -1    0    0    0  501  0.00000000000E+00  0.00000000000E+00 -0.84070784272E+03  0.84070784274E+03  0.50400001928E-02 0. -1.
    10030    2    1    2    0    0  0.00000000000E+00  0.00000000000E+00  0.13083672027E+04  0.29897828882E+04  0.26883037368E+04 0.  0.
        5    1    3    3  502    0 -0.41104225511E+03  0.45290771251E+03 -0.67697562831E+03  0.91235915234E+03  0.46999998093E+01 0. -1.
       -5    1    3    3    0  502  0.41104225511E+03 -0.45290771251E+03  0.19853428310E+04  0.20774237358E+04  0.46999998093E+01 0.  1.
</event>
<event>
 5   0  0.1276517E-05  0.2717675E+04  0.7818609E-02  0.8329293E-01
       -2   -1    0    0    0  501  0.00000000000E+00  0.00000000000E+00  0.15377022206E+04  0.15377022206E+04  0.25500000920E-02 0.  1.
        2   -1    0    0  501    0  0.00000000000E+00  0.00000000000E+00 -0.12007779156E+04  0.12007779156E+04  0.25500000920E-02 0. -1.
    10030    2    1    2    0    0  0.00000000000E+00  0.00000000000E+00  0.33692430499E+03  0.27384801362E+04  0.27176746437E+04 0.  0.
        1    1    3    3  502    0 -0.35447224278E+03  0.56229999702E+03 -0.10257721692E+04  0.12223094537E+04  0.50400001928E-02 0. -1.
       -1    1    3    3    0  502  0.35447224278E+03 -0.56229999702E+03  0.13626964742E+04  0.15161706825E+04  0.50400001928E-02 0.  1.
</event>
<event>
 5   0  0.1261364E-05  0.2689057E+04  0.7818609E-02  0.8338564E-01
        2   -1    0    0  501    0  0.00000000000E+00  0.00000000000E+00  0.17460455313E+04  0.17460455313E+04  0.25500000920E-02 0.  1.
       -2   -1    0    0    0  501  0.00000000000E+00  0.00000000000E+00 -0.10353433497E+04  0.10353433497E+04  0.25500000920E-02 0. -1.
    10030    2    1    2    0    0  0.00000000000E+00  0.00000000000E+00  0.71070218168E+03  0.27813888810E+04  0.26890568080E+04 0.  0.
        5    1    3    3  502    0  0.21330113657E+02  0.76016048015E+03  0.15022222490E+04  0.16837436577E+04  0.46999998093E+01 0.  1.
       -5    1    3    3    0  502 -0.21330113657E+02 -0.76016048015E+03 -0.79152006734E+03  0.10976452233E+04  0.46999998093E+01 0. -1.
</event>
<event>
 5   0  0.4756800E-06  0.2716146E+04  0.7818609E-02  0.8329785E-01
        1   -1    0    0  501    0  0.00000000000E+00  0.00000000000E+00  0.19052391143E+04  0.19052391143E+04  0.50400001928E-02 0. -1.
       -1   -1    0    0    0  501  0.00000000000E+00  0.00000000000E+00 -0.96804745709E+03  0.96804745711E+03  0.50400001928E-02 0.  1.
    10030    2    1    2    0    0  0.00000000000E+00  0.00000000000E+00  0.93719165717E+03  0.28732865714E+04  0.27161457102E+04 0.  0.
        4    1    3    3  502    0  0.96888464039E+02 -0.35028910366E+03 -0.91564628507E+03  0.98513936215E+03  0.12699999809E+01 0.  1.
       -4    1    3    3    0  502 -0.96888464039E+02  0.35028910366E+03  0.18528379422E+04  0.18881472092E+04  0.12699999809E+01 0. -1.
</event>
<event>
 5   0  0.4846214E-06  0.2700651E+04  0.7818609E-02  0.8334794E-01
       -1   -1    0    0    0  501  0.00000000000E+00  0.00000000000E+00  0.14811284737E+04  0.14811284737E+04  0.50400001928E-02 0. -1.
        1   -1    0    0  501    0  0.00000000000E+00  0.00000000000E+00 -0.12310736979E+04  0.12310736979E+04  0.50400001928E-02 0.  1.
    10030    2    1    2    0    0  0.00000000000E+00  0.00000000000E+00  0.25005477582E+03  0.27122021716E+04  0.27006505195E+04 0.  0.
        2    1    3    3  502    0  0.51067808314E+03 -0.32342353068E+03  0.13376620133E+04  0.14679014090E+04  0.25500000920E-02 0. -1.
       -2    1    3    3    0  502 -0.51067808314E+03  0.32342353068E+03 -0.10876072374E+04  0.12443007626E+04  0.25500000920E-02 0.  1.
</event>
<event>
 5   0  0.4846214E-06  0.2663286E+04  0.7818609E-02  0.8347017E-01
       -1   -1    0    0    0  501  0.00000000000E+00  0.00000000000E+00  0.29482892805E+04  0.29482892805E+04  0.50400001928E-02 0.  1.
        1   -1    0    0  501    0  0.00000000000E+00  0.00000000000E+00 -0.60145811513E+03  0.60145811515E+03  0.50400001928E-02 0. -1.
    10030    2    1    2    0    0  0.00000000000E+00  0.00000000000E+00  0.23468311654E+04  0.35497473957E+04  0.26632855750E+04 0.  0.
        2    1    3    3  502    0 -0.60598294942E+03 -0.39692501808E+03  0.26626920478E+04  0.27594734546E+04  0.25500000920E-02 0.  1.
       -2    1    3    3    0  502  0.60598294942E+03  0.39692501808E+03 -0.31586088241E+03  0.79027394112E+03  0.25500000920E-02 0. -1.
</event>
<event>
 5   0  0.4824715E-06  0.2700312E+04  0.7818609E-02  0.8334904E-01
       -1   -1    0    0    0  501  0.00000000000E+00  0.00000000000E+00  0.16010996115E+04  0.16010996115E+04  0.50400001928E-02 0.  1.
        1   -1    0    0  501    0  0.00000000000E+00  0.00000000000E+00 -0.11385437071E+04  0.11385437072E+04  0.50400001928E-02 0. -1.
    10030    2    1    2    0    0  0.00000000000E+00  0.00000000000E+00  0.46255590438E+03  0.27396433187E+04  0.27003124910E+04 0.  0.
        5    1    3    3  502    0 -0.82056312343E+03 -0.87702445387E+03  0.85703042397E+03  0.14754724565E+04  0.46999998093E+01 0. -1.
       -5    1    3    3    0  502  0.82056312343E+03  0.87702445387E+03 -0.39447451960E+03  0.12641708622E+04  0.46999998093E+01 0.  1.
</event>
<event>
 5   0  0.4846214E-06  0.2681753E+04  0.7818609E-02  0.8340950E-01
        1   -1    0    0  501    0  0.00000000000E+00  0.00000000000E+00  0.13723719831E+04  0.13723719831E+04  0.50400001928E-02 0. -1.
       -1   -1    0    0    0  501  0.00000000000E+00  0.00000000000E+00 -0.13101035390E+04  0.13101035390E+04  0.50400001928E-02 0.  1.
    10030    2    1    2    0    0  0.00000000000E+00  0.00000000000E+00  0.62268444073E+02  0.26824755221E+04  0.26817527044E+04 0.  0.
        2    1    3    3  502    0  0.42493272300E+03 -0.70601353583E+03  0.10892125338E+04  0.13657989880E+04  0.25500000920E-02 0. -1.
       -2    1    3    3    0  502 -0.42493272300E+03  0.70601353583E+03 -0.10269440897E+04  0.13166765340E+04  0.25500000920E-02 0.  1.
</event>
<event>
 5   0  0.1220908E-05  0.2707438E+04  0.7818609E-02  0.8332596E-01
        2   -1    0    0  501    0  0.00000000000E+00  0.00000000000E+00  0.15630868248E+04  0.15630868248E+04  0.25500000920E-02 0.  1.
       -2   -1    0    0    0  501  0.00000000000E+00  0.00000000000E+00 -0.11723952024E+04  0.11723952024E+04  0.25500000920E-02 0. -1.
    10030    2    1    2    0    0  0.00000000000E+00  0.00000000000E+00  0.39069162234E+03  0.27354820272E+04  0.27074382684E+04 0.  0.
        2    1    3    3  502    0  0.17886195294E+03  0.14484900263E+03 -0.11524819135E+04  0.11752392917E+04  0.25500000920E-02 0. -1.
       -2    1    3    3    0  502 -0.17886195294E+03 -0.14484900263E+03  0.15431735359E+04  0.15602427355E+04  0.25500000920E-02 0.  1.
</event>
<event>
 5   0  0.1220908E-05  0.2637232E+04  0.7818609E-02  0.8355663E-01
        2   -1    0    0  501    0  0.00000000000E+00  0.00000000000E+00  0.22820959194E+04  0.22820959194E+04  0.25500000920E-02 0.  1.
       -2   -1    0    0    0  501  0.00000000000E+00  0.00000000000E+00 -0.76190849135E+03  0.76190849135E+03  0.25500000920E-02 0. -1.
    10030    2    1    2    0    0  0.00000000000E+00  0.00000000000E+00  0.15201874280E+04  0.30440044107E+04  0.26372320786E+04 0.  0.
        2    1    3    3  502    0  0.64923010291E+03 -0.11468584584E+04  0.81124902968E+03  0.15475493654E+04  0.25500000920E-02 0. -1.
       -2    1    3    3    0  502 -0.64923010291E+03  0.11468584584E+04  0.70893839834E+03  0.14964550454E+04  0.25500000920E-02 0.  1.
</event>
<event>
 5   0  0.1232559E-05  0.2718281E+04  0.7818609E-02  0.8329098E-01
       -2   -1    0    0    0  501  0.00000000000E+00  0.00000000000E+00  0.15439752658E+04  0.15439752658E+04  0.25500000920E-02 0.  1.
        2   -1    0    0  501    0  0.00000000000E+00  0.00000000000E+00 -0.11964328348E+04  0.11964328348E+04  0.25500000920E-02 0. -1.
    10030    2    1    2    0    0  0.00000000000E+00  0.00000000000E+00  0.34754243093E+03  0.27404081006E+04  0.27182808568E+04 0.  0.
        3    1    3    3  502    0  0.41848581682E+02  0.14014766553E+03  0.15360181681E+04  0.15429661354E+04  0.10100000352E+00 0.  1.
       -3    1    3    3    0  502 -0.41848581682E+02 -0.14014766553E+03 -0.11884757372E+04  0.11974419652E+04  0.10100000352E+00 0. -1.
</event>
<event>
 5   0  0.4826140E-06  0.2700104E+04  0.7818609E-02  0.8334971E-01
        1   -1    0    0  501    0  0.00000000000E+00  0.00000000000E+00  0.24188532532E+04  0.24188532532E+04  0.50400001928E-02 0. -1.
       -1   -1    0    0    0  501  0.00000000000E+00  0.00000000000E+00 -0.75351429697E+03  0.75351429699E+03  0.50400001928E-02 0.  1.
    10030    2    1    2    0    0  0.00000000000E+00  0.00000000000E+00  0.16653389562E+04  0.31723675502E+04  0.27001040784E+04 0.  0.
        1    1    3    3  502    0  0.40964824062E+03 -0.11920229184E+04  0.14009039339E+04  0.18844792785E+04  0.50400001928E-02 0.  1.
       -1    1    3    3    0  502 -0.40964824062E+03  0.11920229184E+04  0.26443502227E+03  0.12878882716E+04  0.50400001928E-02 0. -1.
</event>
<event>
 5   0  0.4846214E-06  0.2696357E+04  0.7818609E-02  0.8336188E-01
       -1   -1    0    0    0  501  0.00000000000E+00  0.00000000000E+00  0.77623784008E+03  0.77623784009E+03  0.50400001928E-02 0. -1.
        1   -1    0    0  501    0  0.00000000000E+00  0.00000000000E+00 -0.23415310318E+04  0.23415310318E+04  0.50400001928E-02 0.  1.
    10030    2    1    2    0    0  0.00000000000E+00  0.00000000000E+00 -0.15652931917E+04  0.31177688719E+04  0.26963567944E+04 0.  0.
        2    1    3    3  502    0 -0.83033299965E+03 -0.99630097456E+03 -0.35698683685E+03  0.13451795880E+04  0.25500000920E-02 0. -1.
       -2    1    3    3    0  502  0.83033299965E+03  0.99630097456E+03 -0.12083063548E+04  0.17725892839E+04  0.25500000920E-02 0.  1.
</event>
<event>
 5   0  0.4846214E-06  0.2684926E+04  0.7818609E-02  0.8339913E-01
        1   -1    0    0  501    0  0.00000000000E+00  0.00000000000E+00  0.83662812745E+03  0.83662812747E+03  0.50400001928E-02 0. -1.
       -1   -1    0    0    0  501  0.00000000000E+00  0.00000000000E+00 -0.21541308342E+04  0.21541308342E+04  0.50400001928E-02 0.  1.
    10030    2    1    2    0    0  0.00000000000E+00  0.00000000000E+00 -0.13175027067E+04  0.29907589616E+04  0.26849256572E+04 0.  0.
        2    1    3    3  502    0  0.10675978893E+03  0.10671812551E+04 -0.15581466616E+04  0.18915851825E+04  0.25500000920E-02 0.  1.
       -2    1    3    3    0  502 -0.10675978893E+03 -0.10671812551E+04  0.24064395488E+03  0.10991737791E+04  0.25500000920E-02 0. -1.
</event>
<event>
 5   0  0.1232559E-05  0.2710180E+04  0.7818609E-02  0.8331709E-01
        2   -1    0    0  501    0  0.00000000000E+00  0.00000000000E+00  0.17287779544E+04  0.17287779544E+04  0.25500000920E-02 0.  1.
       -2   -1    0    0    0  501  0.00000000000E+00  0.00000000000E+00 -0.10621777648E+04  0.10621777648E+04  0.25500000920E-02 0. -1.
    10030    2    1    2    0    0  0.00000000000E+00  0.00000000000E+00  0.66660018955E+03  0.27909557192E+04  0.27101804393E+04 0.  0.
        3    1    3    3  502    0 -0.35990947802E+03  0.64855087464E+03 -0.83457092511E+03  0.11165400614E+04  0.10100000352E+00 0. -1.
       -3    1    3    3    0  502  0.35990947802E+03 -0.64855087464E+03  0.15011711147E+04  0.16744156578E+04  0.10100000352E+00 0.  1.
</event>
<event>
 5   0  0.1220908E-05  0.2617875E+04  0.7818609E-02  0.8362155E-01
        2   -1    0    0  501    0  0.00000000000E+00  0.00000000000E+00  0.14162826541E+04  0.14162826541E+04  0.25500000920E-02 0. -1.
       -2   -1    0    0    0  501  0.00000000000E+00  0.00000000000E+00 -0.12097287329E+04  0.12097287329E+04  0.25500000920E-02 0.  1.
    10030    2    1    2    0    0  0.00000000000E+00  0.00000000000E+00  0.20655392119E+03  0.26260113870E+04  0.26178753374E+04 0.  0.
        2    1    3    3  502    0  0.60079014637E+03  0.11575493030E+04  0.21519715368E+03  0.13218089892E+04  0.25500000920E-02 0. -1.
       -2    1    3    3    0  502 -0.60079014637E+03 -0.11575493030E+04 -0.86432324823E+01  0.13042023978E+04  0.25500000920E-02 0.  1.
</event>
<event>
 5   0  0.1220908E-05  0.2723808E+04  0.7818609E-02  0.8327321E-01
       -2   -1    0    0    0  501  0.00000000000E+00  0.00000000000E+00  0.71002928748E+03  0.71002928749E+03  0.25500000920E-02 0.  1.
        2   -1    0    0  501    0  0.00000000000E+00  0.00000000000E+00 -0.26122610809E+04  0.26122610809E+04  0.25500000920E-02 0. -1.
    10030    2    1    2    0    0  0.00000000000E+00  0.00000000000E+00 -0.19022317934E+04  0.33222903684E+04  0.27238075365E+04 0.  0.
        2    1    3    3  502    0 -0.59173047092E+03  0.10000763167E+04 -0.18174491623E+04  0.21571784922E+04  0.25500000920E-02 0. -1.
       -2    1    3    3    0  502  0.59173047092E+03 -0.10000763167E+04 -0.84782631085E+02  0.11651118762E+04  0.25500000920E-02 0.  1.
</event>
<event>
 5   0  0.4756800E-06  0.2674796E+04  0.7818609E-02  0.8343229E-01
        1   -1    0    0  501    0  0.00000000000E+00  0.00000000000E+00  0.12512387218E+04  0.12512387219E+04  0.50400001928E-02 0. -1.
       -1   -1    0    0    0  501  0.00000000000E+00  0.00000000000E+00 -0.14294903766E+04  0.14294903766E+04  0.50400001928E-02 0.  1.
    10030    2    1    2    0    0  0.00000000000E+00  0.00000000000E+00 -0.17825165476E+03  0.26807290985E+04  0.26747962253E+04 0.  0.
        4    1    3    3  502    0 -0.38753780781E+03  0.48400268807E+02 -0.13710657562E+04  0.14256055062E+04  0.12699999809E+01 0.  1.
       -4    1    3    3    0  502  0.38753780781E+03 -0.48400268807E+02  0.11928141014E+04  0.12551235923E+04  0.12699999809E+01 0. -1.
</event>
<event>
 5   0  0.4188000E-06  0.2611269E+04  0.7818609E-02  0.8364384E-01
       -3   -1    0    0    0  501  0.00000000000E+00  0.00000000000E+00  0.15525334784E+04  0.15525334817E+04  0.10100000352E+00 0. -1.
        3   -1    0    0  501    0  0.00000000000E+00  0.00000000000E+00 -0.10979994851E+04  0.10979994897E+04  0.10100000352E+00 0.  1.
    10030    2    1    2    0    0  0.00000000000E+00  0.00000000000E+00  0.45453399330E+03  0.26505329714E+04  0.26112686345E+04 0.  0.
        1    1    3    3  502    0 -0.12871159026E+04  0.15768753331E+03  0.38170027334E+03  0.13517499042E+04  0.50400001928E-02 0.  1.
       -1    1    3    3    0  502  0.12871159026E+04 -0.15768753331E+03  0.72833719957E+02  0.12987830672E+04  0.50400001928E-02 0. -1.
</event>
<event>
 5   0  0.1276517E-05  0.2724296E+04  0.7818609E-02  0.8327165E-01
       -2   -1    0    0    0  501  0.00000000000E+00  0.00000000000E+00  0.11721981670E+04  0.11721981670E+04  0.25500000920E-02 0. -1.
        2   -1    0    0  501    0  0.00000000000E+00  0.00000000000E+00 -0.15828778717E+04  0.15828778717E+04  0.25500000920E-02 0.  1.
    10030    2    1    2    0    0  0.00000000000E+00  0.00000000000E+00 -0.41067970474E+03  0.27550760387E+04  0.27242955345E+04 0.  0.
        1    1    3    3  502    0 -0.26260264864E+03 -0.10029817636E+04 -0.10987887383E+04  0.15107181275E+04  0.50400001928E-02 0.  1.
       -1    1    3    3    0  502  0.26260264864E+03  0.10029817636E+04  0.68810903359E+03  0.12443579112E+04  0.50400001928E-02 0. -1.
</event>
<event>
 5   0  0.1232559E-05  0.2692084E+04  0.7818609E-02  0.8337578E-01
       -2   -1    0    0    0  501  0.00000000000E+00  0.00000000000E+00  0.99707828233E+03  0.99707828233E+03  0.25500000920E-02 0. -1.
        2   -1    0    0  501    0  0.00000000000E+00  0.00000000000E+00 -0.18171385895E+04  0.18171385895E+04  0.25500000920E-02 0.  1.
    10030    2    1    2    0    0  0.00000000000E+00  0.00000000000E+00 -0.82006030713E+03  0.28142168718E+04  0.26920842658E+04 0.  0.
        3    1    3    3  502    0 -0.76838641244E+02  0.22672319224E+03  0.97464627991E+03  0.10036149480E+04  0.10100000352E+00 0. -1.
       -3    1    3    3    0  502  0.76838641244E+02 -0.22672319224E+03 -0.17947065870E+04  0.18106019238E+04  0.10100000352E+00 0.  1.
</event>
<event>
 5   0  0.4846214E-06  0.2690045E+04  0.7818609E-02  0.8338242E-01
        1   -1    0    0  501    0  0.00000000000E+00  0.00000000000E+00  0.19451034307E+04  0.19451034307E+04  0.50400001928E-02 0. -1.
       -1   -1    0    0    0  501  0.00000000000E+00  0.00000000000E+00 -0.93007186991E+03  0.93007186992E+03  0.50400001928E-02 0.  1.
    10030    2    1    2    0    0  0.00000000000E+00  0.00000000000E+00  0.10150315608E+04  0.28751753006E+04  0.26900453416E+04 0.  0.
        2    1    3    3  502    0  0.12311106292E+04 -0.32944825418E+03  0.47902568784E+02  0.12753290515E+04  0.25500000920E-02 0.  1.
       -2    1    3    3    0  502 -0.12311106292E+04  0.32944825418E+03  0.96712899197E+03  0.15998462491E+04  0.25500000920E-02 0. -1.
</event>
<event>
 5   0  0.1232559E-05  0.2743555E+04  0.7818609E-02  0.8321010E-01
        2   -1    0    0  501    0  0.00000000000E+00  0.00000000000E+00  0.96480987076E+03  0.96480987076E+03  0.25500000920E-02 0.  1.
       -2   -1    0    0    0  501  0.00000000000E+00  0.00000000000E+00 -0.19504088965E+04  0.19504088965E+04  0.25500000920E-02 0. -1.
    10030    2    1    2    0    0  0.00000000000E+00  0.00000000000E+00 -0.98559902576E+03  0.29152187673E+04  0.27435551792E+04 0.  0.
        3    1    3    3  502    0  0.78940817942E+03 -0.51632156393E+03  0.56552237558E+03  0.10998039819E+04  0.10100000352E+00 0.  1.
       -3    1    3    3    0  502 -0.78940817942E+03  0.51632156393E+03 -0.15511214013E+04  0.18154147854E+04  0.10100000352E+00 0. -1.
</event>
<event>
 5   0  0.1220908E-05  0.2712754E+04  0.7818609E-02  0.8330879E-01
       -2   -1    0    0    0  501  0.00000000000E+00  0.00000000000E+00  0.64152506159E+03  0.64152506160E+03  0.25500000920E-02 0. -1.
        2   -1    0    0  501    0  0.00000000000E+00  0.00000000000E+00 -0.28677880859E+04  0.28677880859E+04  0.25500000920E-02 0.  1.
    10030    2    1    2    0    0  0.00000000000E+00  0.00000000000E+00 -0.22262630243E+04  0.35093131475E+04  0.27127535299E+04 0.  0.
        2    1    3    3  502    0  0.11851577868E+04  0.83474549686E+02 -0.26662456359E+03  0.12176434774E+04  0.25500000920E-02 0. -1.
       -2    1    3    3    0  502 -0.11851577868E+04 -0.83474549686E+02 -0.19596384607E+04  0.22916696701E+04  0.25500000920E-02 0.  1.
</event>
<event>
 5   0  0.1261364E-05  0.2715133E+04  0.7818609E-02  0.8330112E-01
       -2   -1    0    0    0  501  0.00000000000E+00  0.00000000000E+00  0.82834950933E+03  0.82834950933E+03  0.25500000920E-02 0.  1.
        2   -1    0    0  501    0  0.00000000000E+00  0.00000000000E+00 -0.22248895772E+04  0.22248895772E+04  0.25500000920E-02 0. -1.
    10030    2    1    2    0    0  0.00000000000E+00  0.00000000000E+00 -0.13965400678E+04  0.30532390865E+04  0.27151325489E+04 0.  0.
        5    1    3    3  502    0 -0.16976206103E+03 -0.13213149386E+04 -0.99209613709E+03  0.16610144971E+04  0.46999998093E+01 0. -1.
       -5    1    3    3    0  502  0.16976206103E+03  0.13213149386E+04 -0.40444393076E+03  0.13922245894E+04  0.46999998093E+01 0.  1.
</event>
<event>
 5   0  0.4824715E-06  0.2778866E+04  0.7818609E-02  0.8309860E-01
       -1   -1    0    0    0  501  0.00000000000E+00  0.00000000000E+00  0.12082721576E+04  0.12082721576E+04  0.50400001928E-02 0. -1.
        1   -1    0    0  501    0  0.00000000000E+00  0.00000000000E+00 -0.15977564535E+04  0.15977564535E+04  0.50400001928E-02 0.  1.
    10030    2    1    2    0    0  0.00000000000E+00  0.00000000000E+00 -0.38948429598E+03  0.28060286111E+04  0.27788664145E+04 0.  0.
        5    1    3    3  502    0 -0.10917393274E+04 -0.61109363954E+03 -0.80494378645E+03  0.14877119293E+04  0.46999998093E+01 0.  1.
       -5    1    3    3    0  502  0.10917393274E+04  0.61109363954E+03  0.41545949047E+03  0.13183166818E+04  0.46999998093E+01 0. -1.
</event>
<event>
 5   0  0.4824715E-06  0.2717717E+04  0.7818609E-02  0.8329279E-01
       -1   -1    0    0    0  501  0.00000000000E+00  0.00000000000E+00  0.11079061690E+04  0.11079061691E+04  0.50400001928E-02 0. -1.
        1   -1    0    0  501    0  0.00000000000E+00  0.00000000000E+00 -0.16666543206E+04  0.16666543206E+04  0.50400001928E-02 0.  1.
    10030    2    1    2    0    0  0.00000000000E+00  0.00000000000E+00 -0.55874815152E+03  0.27745604896E+04  0.27177171328E+04 0.  0.
        5    1    3    3  502    0 -0.66473918937E+03  0.46791937983E+03  0.83227520438E+03  0.11634134440E+04  0.46999998093E+01 0. -1.
       -5    1    3    3    0  502  0.66473918937E+03 -0.46791937983E+03 -0.13910233559E+04  0.16111470456E+04  0.46999998093E+01 0.  1.
</event>
<event>
 5   0  0.1276517E-05  0.2681580E+04  0.7818609E-02  0.8341006E-01
       -2   -1    0    0    0  501  0.00000000000E+00  0.00000000000E+00  0.14061797844E+04  0.14061797844E+04  0.25500000920E-02 0.  1.
        2   -1    0    0  501    0  0.00000000000E+00  0.00000000000E+00 -0.12784412048E+04  0.12784412048E+04  0.25500000920E-02 0. -1.
    10030    2    1    2    0    0  0.00000000000E+00  0.00000000000E+00  0.12773857956E+03  0.26846209892E+04  0.26815802638E+04 0.  0.
        1    1    3    3  502    0 -0.48153994538E+03 -0.10725991476E+03  0.13120118211E+04  0.14016991214E+04  0.50400001928E-02 0.  1.
       -1    1    3    3    0  502  0.48153994538E+03  0.10725991476E+03 -0.11842732415E+04  0.12829218678E+04  0.50400001928E-02 0. -1.
</event>
<event>
 5   0  0.4756800E-06  0.2628863E+04  0.7818609E-02  0.8358463E-01
        1   -1    0    0  501    0  0.00000000000E+00  0.00000000000E+00  0.12603604854E+04  0.12603604854E+04  0.50400001928E-02 0.  1.
       -1   -1    0    0    0  501  0.00000000000E+00  0.00000000000E+00 -0.13708225777E+04  0.13708225777E+04  0.50400001928E-02 0. -1.
    10030    2    1    2    0    0  0.00000000000E+00  0.00000000000E+00 -0.11046209227E+03  0.26311830631E+04  0.26288633357E+04 0.  0.
        4    1    3    3  502    0 -0.82993384589E+03  0.97520098976E+03  0.24154676931E+03  0.13031322318E+04  0.12699999809E+01 0. -1.
       -4    1    3    3    0  502  0.82993384589E+03 -0.97520098976E+03 -0.35200886158E+03  0.13280508313E+04  0.12699999809E+01 0.  1.
</event>
<event>
 5   0  0.1220908E-05  0.2720427E+04  0.7818609E-02  0.8328407E-01
        2   -1    0    0  501    0  0.00000000000E+00  0.00000000000E+00  0.13385236964E+04  0.13385236964E+04  0.25500000920E-02 0. -1.
       -2   -1    0    0    0  501  0.00000000000E+00  0.00000000000E+00 -0.13822550132E+04  0.13822550132E+04  0.25500000920E-02 0.  1.
    10030    2    1    2    0    0  0.00000000000E+00  0.00000000000E+00 -0.43731316835E+02  0.27207787097E+04  0.27204272383E+04 0.  0.
        2    1    3    3  502    0  0.39904165026E+03 -0.47719713191E+03  0.11879309621E+04  0.13409441867E+04  0.25500000920E-02 0. -1.
       -2    1    3    3    0  502 -0.39904165026E+03  0.47719713191E+03 -0.12316622789E+04  0.13798345229E+04  0.25500000920E-02 0.  1.
</event>
<event>
 5   0  0.4826140E-06  0.2647400E+04  0.7818609E-02  0.8352276E-01
       -1   -1    0    0    0  501  0.00000000000E+00  0.00000000000E+00  0.13555851491E+04  0.13555851491E+04  0.50400001928E-02 0. -1.
        1   -1    0    0  501    0  0.00000000000E+00  0.00000000000E+00 -0.12925647696E+04  0.12925647696E+04  0.50400001928E-02 0.  1.
    10030    2    1    2    0    0  0.00000000000E+00  0.00000000000E+00  0.63020379463E+02  0.26481499187E+04  0.26473999365E+04 0.  0.
        1    1    3    3  502    0  0.11831708982E+04  0.42779134494E+03  0.44306665310E+03  0.13338691346E+04  0.50400001928E-02 0. -1.
       -1    1    3    3    0  502 -0.11831708982E+04 -0.42779134494E+03 -0.38004627364E+03  0.13142807841E+04  0.50400001928E-02 0.  1.
</event>
<event>
 5   0  0.1286641E-05  0.2695439E+04  0.7818609E-02  0.8336486E-01
        2   -1    0    0  501    0  0.00000000000E+00  0.00000000000E+00  0.18867598007E+04  0.18867598007E+04  0.25500000920E-02 0. -1.
       -2   -1    0    0    0  501  0.00000000000E+00  0.00000000000E+00 -0.96268102235E+03  0.96268102235E+03  0.25500000920E-02 0.  1.
    10030    2    1    2    0    0  0.00000000000E+00  0.00000000000E+00  0.92407877836E+03  0.28494408231E+04  0.26954390024E+04 0.  0.
        4    1    3    3  502    0  0.19943778891E+03 -0.52961669199E+03 -0.83098614859E+03  0.10053899065E+04  0.12699999809E+01 0.  1.
       -4    1    3    3    0  502 -0.19943778891E+03  0.52961669199E+03  0.17550649270E+04  0.18440509165E+04  0.12699999809E+01 0. -1.
</event>
<event>
 5   0  0.4756800E-06  0.2683798E+04  0.7818609E-02  0.8340281E-01
       -1   -1    0    0    0  501  0.00000000000E+00  0.00000000000E+00  0.92551381840E+03  0.92551381841E+03  0.50400001928E-02 0.  1.
        1   -1    0    0  501    0  0.00000000000E+00  0.00000000000E+00 -0.19456143265E+04  0.19456143265E+04  0.50400001928E-02 0. -1.
    10030    2    1    2    0    0  0.00000000000E+00  0.00000000000E+00 -0.10201005081E+04  0.28711281449E+04  0.26837980136E+04 0.  0.
        4    1    3    3  502    0 -0.68228786127E+03 -0.39479556548E+03  0.65171112913E+03  0.10227948342E+04  0.12699999809E+01 0.  1.
       -4    1    3    3    0  502  0.68228786127E+03  0.39479556548E+03 -0.16718116372E+04  0.18483333107E+04  0.12699999809E+01 0. -1.
</event>
<event>
 5   0  0.4188000E-06  0.2595235E+04  0.7818609E-02  0.8369822E-01
       -4   -1    0    0    0  501  0.00000000000E+00  0.00000000000E+00  0.13399722577E+04  0.13399728595E+04  0.12699999809E+01 0.  1.
        4   -1    0    0  501    0  0.00000000000E+00  0.00000000000E+00 -0.12565999346E+04  0.12566005764E+04  0.12699999809E+01 0. -1.
    10030    2    1    2    0    0  0.00000000000E+00  0.00000000000E+00  0.83372323040E+02  0.25965734359E+04  0.25952346067E+04 0.  0.
        2    1    3    3  502    0  0.30104050657E+03 -0.28119417369E+03 -0.11894424759E+04  0.12587569080E+04  0.25500000920E-02 0. -1.
       -2    1    3    3    0  502 -0.30104050657E+03  0.28119417369E+03  0.12728147989E+04  0.13378165279E+04  0.25500000920E-02 0.  1.
</event>
<event>
 5   0  0.4756800E-06  0.2684056E+04  0.7818609E-02  0.8340197E-01
        1   -1    0    0  501    0  0.00000000000E+00  0.00000000000E+00  0.12925071774E+04  0.12925071774E+04  0.50400001928E-02 0.  1.
       -1   -1    0    0    0  501  0.00000000000E+00  0.00000000000E+00 -0.13934460681E+04  0.13934460681E+04  0.50400001928E-02 0. -1.
    10030    2    1    2    0    0  0.00000000000E+00  0.00000000000E+00 -0.10093889069E+03  0.26859532455E+04  0.26840559192E+04 0.  0.
        4    1    3    3  502    0 -0.11767683625E+03 -0.63883496898E+03  0.11247028288E+04  0.12988133128E+04  0.12699999809E+01 0.  1.
       -4    1    3    3    0  502  0.11767683625E+03  0.63883496898E+03 -0.12256417195E+04  0.13871399327E+04  0.12699999809E+01 0. -1.
</event>
<event>
 5   0  0.4824715E-06  0.2795052E+04  0.7818609E-02  0.8304806E-01
        1   -1    0    0  501    0  0.00000000000E+00  0.00000000000E+00  0.26063839722E+04  0.26063839722E+04  0.50400001928E-02 0.  1.
       -1   -1    0    0    0  501  0.00000000000E+00  0.00000000000E+00 -0.74934419205E+03  0.74934419207E+03  0.50400001928E-02 0. -1.
    10030    2    1    2    0    0  0.00000000000E+00  0.00000000000E+00  0.18570397802E+04  0.33557281643E+04  0.27950518363E+04 0.  0.
        5    1    3    3  502    0  0.94693210755E+03  0.10146191790E+04  0.11255204958E+04  0.17868830323E+04  0.46999998093E+01 0. -1.
       -5    1    3    3    0  502 -0.94693210755E+03 -0.10146191790E+04  0.73151928444E+03  0.15688451320E+04  0.46999998093E+01 0.  1.
</event>
<event>
 5   0  0.1276517E-05  0.2695904E+04  0.7818609E-02  0.8336335E-01
       -2   -1    0    0    0  501  0.00000000000E+00  0.00000000000E+00  0.65386131981E+03  0.65386131981E+03  0.25500000920E-02 0. -1.
        2   -1    0    0  501    0  0.00000000000E+00  0.00000000000E+00 -0.27788370408E+04  0.27788370408E+04  0.25500000920E-02 0.  1.
    10030    2    1    2    0    0  0.00000000000E+00  0.00000000000E+00 -0.21249757210E+04  0.34326983606E+04  0.26959035999E+04 0.  0.
        1    1    3    3  502    0 -0.61750912513E+03 -0.11968955848E+04 -0.99162208384E+03  0.16724804686E+04  0.50400001928E-02 0. -1.
       -1    1    3    3    0  502  0.61750912513E+03  0.11968955848E+04 -0.11333536371E+04  0.17602178920E+04  0.50400001928E-02 0.  1.
</event>
<event>
 5   0  0.4824715E-06  0.2679509E+04  0.7818609E-02  0.8341684E-01
       -1   -1    0    0    0  501  0.00000000000E+00  0.00000000000E+00  0.97622064782E+03  0.97622064783E+03  0.50400001928E-02 0.  1.
        1   -1    0    0  501    0  0.00000000000E+00  0.00000000000E+00 -0.18386645613E+04  0.18386645613E+04  0.50400001928E-02 0. -1.
    10030    2    1    2    0    0  0.00000000000E+00  0.00000000000E+00 -0.86244391349E+03  0.28148852091E+04  0.26795091410E+04 0.  0.
        5    1    3    3  502    0  0.31542925075E+03  0.34323365699E+03  0.88826771709E+03  0.10031682724E+04  0.46999998093E+01 0.  1.
       -5    1    3    3    0  502 -0.31542925075E+03 -0.34323365699E+03 -0.17507116306E+04  0.18117169368E+04  0.46999998093E+01 0. -1.
</event>
<event>
 5   0  0.1276517E-05  0.2709807E+04  0.7818609E-02  0.8331830E-01
        2   -1    0    0  501    0  0.00000000000E+00  0.00000000000E+00  0.20508125402E+04  0.20508125402E+04  0.25500000920E-02 0.  1.
       -2   -1    0    0    0  501  0.00000000000E+00  0.00000000000E+00 -0.89513982253E+03  0.89513982254E+03  0.25500000920E-02 0. -1.
    10030    2    1    2    0    0  0.00000000000E+00  0.00000000000E+00  0.11556727177E+04  0.29459523628E+04  0.27098073535E+04 0.  0.
        1    1    3    3  502    0  0.10205569822E+04  0.11362295696E+03 -0.38311411965E+03  0.10960032659E+04  0.50400001928E-02 0. -1.
       -1    1    3    3    0  502 -0.10205569822E+04 -0.11362295696E+03  0.15387868373E+04  0.18499490968E+04  0.50400001928E-02 0.  1.
</event>
<event>
 5   0  0.5152288E-06  0.2710036E+04  0.7818609E-02  0.8331756E-01
        1   -1    0    0  501    0  0.00000000000E+00  0.00000000000E+00  0.16676322063E+04  0.16676322063E+04  0.50400001928E-02 0.  1.
       -1   -1    0    0    0  501  0.00000000000E+00  0.00000000000E+00 -0.11010066266E+04  0.11010066266E+04  0.50400001928E-02 0. -1.
    10030    2    1    2    0    0  0.00000000000E+00  0.00000000000E+00  0.56662557969E+03  0.27686388329E+04  0.27100362432E+04 0.  0.
        3    1    3    3  502    0 -0.10960408041E+04 -0.77302312962E+02  0.10934247778E+04  0.15501157527E+04  0.10100000352E+00 0.  1.
       -3    1    3    3    0  502  0.10960408041E+04  0.77302312962E+02 -0.52679919813E+03  0.12185230803E+04  0.10100000352E+00 0. -1.
</event>
<event>
 5   0  0.4824715E-06  0.2703906E+04  0.7818609E-02  0.8333739E-01
        1   -1    0    0  501    0  0.00000000000E+00  0.00000000000E+00  0.12531086281E+04  0.12531086281E+04  0.50400001928E-02 0.  1.
       -1   -1    0    0    0  501  0.00000000000E+00  0.00000000000E+00 -0.14585938764E+04  0.14585938764E+04  0.50400001928E-02 0. -1.
    10030    2    1    2    0    0  0.00000000000E+00  0.00000000000E+00 -0.20548524832E+03  0.27117025045E+04  0.27039057465E+04 0.  0.
        5    1    3    3  502    0 -0.20155737629E+03  0.11797969973E+04 -0.73321119248E+03  0.14036264009E+04  0.46999998093E+01 0.  1.
       -5    1    3    3    0  502  0.20155737629E+03 -0.11797969973E+04  0.52772594416E+03  0.13080761036E+04  0.46999998093E+01 0. -1.
</event>
<event>
 5   0  0.1286641E-05  0.2678374E+04  0.7818609E-02  0.8342056E-01
        2   -1    0    0  501    0  0.00000000000E+00  0.00000000000E+00  0.25140438324E+04  0.25140438324E+04  0.25500000920E-02 0.  1.
       -2   -1    0    0    0  501  0.00000000000E+00  0.00000000000E+00 -0.71336120301E+03  0.71336120302E+03  0.25500000920E-02 0. -1.
    10030    2    1    2    0    0  0.00000000000E+00  0.00000000000E+00  0.18006826293E+04  0.32274050354E+04  0.26783736354E+04 0.  0.
        4    1    3    3  502    0  0.32494127887E+03 -0.12767367424E+04  0.11899800930E+04  0.17753021654E+04  0.12699999809E+01 0.  1.
       -4    1    3    3    0  502 -0.32494127887E+03  0.12767367424E+04  0.61070253639E+03  0.14521028699E+04  0.12699999809E+01 0. -1.
</event>
<event>
 5   0  0.1220908E-05  0.2448754E+04  0.7818609E-02  0.8421473E-01
       -2   -1    0    0    0  501  0.00000000000E+00  0.00000000000E+00  0.96185478258E+03  0.96185478259E+03  0.25500000920E-02 0. -1.
        2   -1    0    0  501    0  0.00000000000E+00  0.00000000000E+00 -0.15585504118E+04  0.15585504118E+04  0.25500000920E-02 0.  1.
    10030    2    1    2    0    0  0.00000000000E+00  0.00000000000E+00 -0.59669562918E+03  0.25204051944E+04  0.24487541056E+04 0.  0.
        2    1    3    3  502    0  0.51387235445E+02  0.67685768079E+03 -0.13471443850E+04  0.15085008989E+04  0.25500000920E-02 0.  1.
       -2    1    3    3    0  502 -0.51387235445E+02 -0.67685768079E+03  0.75044875581E+03  0.10119042954E+04  0.25500000920E-02 0. -1.
</event>
<event>
 5   0  0.4756800E-06  0.2695260E+04  0.7818609E-02  0.8336545E-01
       -1   -1    0    0    0  501  0.00000000000E+00  0.00000000000E+00  0.68667680756E+03  0.68667680757E+03  0.50400001928E-02 0. -1.
        1   -1    0    0  501    0  0.00000000000E+00  0.00000000000E+00 -0.26447755616E+04  0.26447755616E+04  0.50400001928E-02 0.  1.
    10030    2    1    2    0    0  0.00000000000E+00  0.00000000000E+00 -0.19580987540E+04  0.33314523692E+04  0.26952595714E+04 0.  0.
        4    1    3    3  502    0 -0.79664255324E+03 -0.86620659087E+03 -0.16743857902E+03  0.11886927721E+04  0.12699999809E+01 0. -1.
       -4    1    3    3    0  502  0.79664255324E+03  0.86620659087E+03 -0.17906601750E+04  0.21427595971E+04  0.12699999809E+01 0.  1.
</event>
<event>
 5   0  0.1261364E-05  0.2771669E+04  0.7818609E-02  0.8312118E-01
       -2   -1    0    0    0  501  0.00000000000E+00  0.00000000000E+00  0.85986441532E+03  0.85986441532E+03  0.25500000920E-02 0.  1.
        2   -1    0    0  501    0  0.00000000000E+00  0.00000000000E+00 -0.22335346457E+04  0.22335346457E+04  0.25500000920E-02 0. -1.
    10030    2    1    2    0    0  0.00000000000E+00  0.00000000000E+00 -0.13736702304E+04  0.30933990610E+04  0.27716687841E+04 0.  0.
        5    1    3    3  502    0  0.15417648855E+03 -0.40611821529E+03 -0.21555755489E+04  0.21989157400E+04  0.46999998093E+01 0. -1.
       -5    1    3    3    0  502 -0.15417648855E+03  0.40611821529E+03  0.78190531856E+03  0.89448332103E+03  0.46999998093E+01 0.  1.
</event>
<event>
 5   0  0.4826140E-06  0.2729022E+04  0.7818609E-02  0.8325649E-01
        1   -1    0    0  501    0  0.00000000000E+00  0.00000000000E+00  0.17959523951E+04  0.17959523951E+04  0.50400001928E-02 0. -1.
       -1   -1    0    0    0  501  0.00000000000E+00  0.00000000000E+00 -0.10367150773E+04  0.10367150773E+04  0.50400001928E-02 0.  1.
    10030    2    1    2    0    0  0.00000000000E+00  0.00000000000E+00  0.75923731783E+03  0.28326674725E+04  0.27290224815E+04 0.  0.
        1    1    3    3  502    0 -0.32660053123E+03  0.71419503104E+03  0.15378599757E+04  0.17267761158E+04  0.50400001928E-02 0. -1.
       -1    1    3    3    0  502  0.32660053123E+03 -0.71419503104E+03 -0.77862265784E+03  0.11058913566E+04  0.50400001928E-02 0.  1.
</event>
<event>
 5   0  0.1286641E-05  0.2460885E+04  0.7818609E-02  0.8417055E-01
       -2   -1    0    0    0  501  0.00000000000E+00  0.00000000000E+00  0.12048971298E+04  0.12048971298E+04  0.25500000920E-02 0. -1.
        2   -1    0    0  501    0  0.00000000000E+00  0.00000000000E+00 -0.12565289721E+04  0.12565289721E+04  0.25500000920E-02 0.  1.
    10030    2    1    2    0    0  0.00000000000E+00  0.00000000000E+00 -0.51631842318E+02  0.24614261019E+04  0.24608845174E+04 0.  0.
        4    1    3    3  502    0 -0.30418037626E+03 -0.10418259207E+04 -0.60564996911E+03  0.12428758780E+04  0.12699999809E+01 0.  1.
       -4    1    3    3    0  502  0.30418037626E+03  0.10418259207E+04  0.55401812679E+03  0.12185502238E+04  0.12699999809E+01 0. -1.
</event>
<event>
 5   0  0.4846214E-06  0.2707002E+04  0.7818609E-02  0.8332737E-01
       -1   -1    0    0    0  501  0.00000000000E+00  0.00000000000E+00  0.18173045056E+04  0.18173045056E+04  0.50400001928E-02 0.  1.
        1   -1    0    0  501    0  0.00000000000E+00  0.00000000000E+00 -0.10080674366E+04  0.10080674366E+04  0.50400001928E-02 0. -1.
    10030    2    1    2    0    0  0.00000000000E+00  0.00000000000E+00  0.80923706898E+03  0.28253719422E+04  0.27070023971E+04 0.  0.
        2    1    3    3  502    0 -0.10702505439E+03 -0.92046327066E+03 -0.62505865111E+03  0.11177680047E+04  0.25500000920E-02 0. -1.
       -2    1    3    3    0  502  0.10702505439E+03  0.92046327066E+03  0.14342957201E+04  0.17076039376E+04  0.25500000920E-02 0.  1.
</event>
<event>
 5   0  0.4846214E-06  0.2695315E+04  0.7818609E-02  0.8336527E-01
       -1   -1    0    0    0  501  0.00000000000E+00  0.00000000000E+00  0.24565182778E+04  0.24565182778E+04  0.50400001928E-02 0. -1.
        1   -1    0    0  501    0  0.00000000000E+00  0.00000000000E+00 -0.73933136651E+03  0.73933136652E+03  0.50400001928E-02 0.  1.
    10030    2    1    2    0    0  0.00000000000E+00  0.00000000000E+00  0.17171869113E+04  0.31958496443E+04  0.26953152062E+04 0.  0.
        2    1    3    3  502    0  0.18176244330E+03  0.70994111591E+03 -0.48242148793E+03  0.87737361818E+03  0.25500000920E-02 0.  1.
       -2    1    3    3    0  502 -0.18176244330E+03 -0.70994111591E+03  0.21996083992E+04  0.23184760261E+04  0.25500000920E-02 0. -1.
</event>
<event>
 5   0  0.1220908E-05  0.2672964E+04  0.7818609E-02  0.8343831E-01
        2   -1    0    0  501    0  0.00000000000E+00  0.00000000000E+00  0.12131034711E+04  0.12131034711E+04  0.25500000920E-02 0. -1.
       -2   -1    0    0    0  501  0.00000000000E+00  0.00000000000E+00 -0.14724083177E+04  0.14724083177E+04  0.25500000920E-02 0.  1.
    10030    2    1    2    0    0  0.00000000000E+00  0.00000000000E+00 -0.25930484656E+03  0.26855117889E+04  0.26729636295E+04 0.  0.
        2    1    3    3  502    0  0.10266806644E+04  0.79004531314E+03 -0.45973524461E+03  0.13746276872E+04  0.25500000920E-02 0. -1.
       -2    1    3    3    0  502 -0.10266806644E+04 -0.79004531314E+03  0.20043039805E+03  0.13108841016E+04  0.25500000920E-02 0.  1.
</event>
<event>
 5   0  0.4824715E-06  0.2705501E+04  0.7818609E-02  0.8333222E-01
        1   -1    0    0  501    0  0.00000000000E+00  0.00000000000E+00  0.12819090682E+04  0.12819090682E+04  0.50400001928E-02 0.  1.
       -1   -1    0    0    0  501  0.00000000000E+00  0.00000000000E+00 -0.14275071876E+04  0.14275071876E+04  0.50400001928E-02 0. -1.
    10030    2    1    2    0    0  0.00000000000E+00  0.00000000000E+00 -0.14559811942E+03  0.27094162558E+04  0.27055013647E+04 0.  0.
        5    1    3    3  502    0  0.36977961015E+03 -0.11329683004E+04  0.56809431449E+03  0.13202679160E+04  0.46999998093E+01 0.  1.
       -5    1    3    3    0  502 -0.36977961015E+03  0.11329683004E+04 -0.71369243391E+03  0.13891483398E+04  0.46999998093E+01 0. -1.
</event>
<event>
 5   0  0.4826140E-06  0.2686263E+04  0.7818609E-02  0.8339476E-01
        1   -1    0    0  501    0  0.00000000000E+00  0.00000000000E+00  0.19753108436E+04  0.19753108436E+04  0.50400001928E-02 0. -1.
       -1   -1    0    0    0  501  0.00000000000E+00  0.00000000000E+00 -0.91327513950E+03  0.91327513951E+03  0.50400001928E-02 0.  1.
    10030    2    1    2    0    0  0.00000000000E+00  0.00000000000E+00  0.10620357041E+04  0.28885859831E+04  0.26862630446E+04 0.  0.
        1    1    3    3  502    0 -0.89896560338E+03 -0.26184385708E+03  0.15665107115E+04  0.18250088139E+04  0.50400001928E-02 0. -1.
       -1    1    3    3    0  502  0.89896560338E+03  0.26184385708E+03 -0.50447500747E+03  0.10635771692E+04  0.50400001928E-02 0.  1.
</event>
<event>
 5   0  0.4824715E-06  0.2490371E+04  0.7818609E-02  0.8406424E-01
       -1   -1    0    0    0  501  0.00000000000E+00  0.00000000000E+00  0.83131500863E+03  0.83131500864E+03  0.50400001928E-02 0.  1.
        1   -1    0    0  501    0  0.00000000000E+00  0.00000000000E+00 -0.18651018043E+04  0.18651018043E+04  0.50400001928E-02 0. -1.
    10030    2    1    2    0    0  0.00000000000E+00  0.00000000000E+00 -0.10337867957E+04  0.26964168129E+04  0.24903711551E+04 0.  0.
        5    1    3    3  502    0  0.10422452236E+04 -0.52645459080E+03 -0.98515113297E+03  0.15277350513E+04  0.46999998093E+01 0. -1.
       -5    1    3    3    0  502 -0.10422452236E+04  0.52645459080E+03 -0.48635662687E+02  0.11686817616E+04  0.46999998093E+01 0.  1.
</event>
<event>
 5   0  0.1220908E-05  0.2386923E+04  0.7818609E-02  0.8444416E-01
        2   -1    0    0  501    0  0.00000000000E+00  0.00000000000E+00  0.17701988082E+04  0.17701988082E+04  0.25500000920E-02 0. -1.
       -2   -1    0    0    0  501  0.00000000000E+00  0.00000000000E+00 -0.80462707524E+03  0.80462707524E+03  0.25500000920E-02 0.  1.
    10030    2    1    2    0    0  0.00000000000E+00  0.00000000000E+00  0.96557173299E+03  0.25748258835E+04  0.23869226126E+04 0.  0.
        2    1    3    3  502    0 -0.78599606545E+03  0.78556256160E+03  0.13261004795E+02  0.11113389255E+04  0.25500000920E-02 0.  1.
       -2    1    3    3    0  502  0.78599606545E+03 -0.78556256160E+03  0.95231072819E+03  0.14634869580E+04  0.25500000920E-02 0. -1.
</event>
<event>
 5   0  0.1220908E-05  0.2699526E+04  0.7818609E-02  0.8335159E-01
        2   -1    0    0  501    0  0.00000000000E+00  0.00000000000E+00  0.16480192514E+04  0.16480192514E+04  0.25500000920E-02 0. -1.
       -2   -1    0    0    0  501  0.00000000000E+00  0.00000000000E+00 -0.11054849084E+04  0.11054849084E+04  0.25500000920E-02 0.  1.
    10030    2    1    2    0    0  0.00000000000E+00  0.00000000000E+00  0.54253434302E+03  0.27535041598E+04  0.26995261889E+04 0.  0.
        2    1    3    3  502    0 -0.24552029797E+02  0.11892200010E+04  0.92199974225E+03  0.15049686168E+04  0.25500000920E-02 0. -1.
       -2    1    3    3    0  502  0.24552029797E+02 -0.11892200010E+04 -0.37946539924E+03  0.12485355430E+04  0.25500000920E-02 0.  1.
</event>
<event>
 5   0  0.4826140E-06  0.2691270E+04  0.7818609E-02  0.8337843E-01
       -1   -1    0    0    0  501  0.00000000000E+00  0.00000000000E+00  0.11821219007E+04  0.11821219008E+04  0.50400001928E-02 0.  1.
        1   -1    0    0  501    0  0.00000000000E+00  0.00000000000E+00 -0.15317657661E+04  0.15317657661E+04  0.50400001928E-02 0. -1.
    10030    2    1    2    0    0  0.00000000000E+00  0.00000000000E+00 -0.34964386535E+03  0.27138876668E+04  0.26912702272E+04 0.  0.
        1    1    3    3  502    0 -0.25806545259E+03 -0.12186949224E+04  0.33829497543E+03  0.12908363886E+04  0.50400001928E-02 0.  1.
       -1    1    3    3    0  502  0.25806545259E+03  0.12186949224E+04 -0.68793884078E+03  0.14230512782E+04  0.50400001928E-02 0. -1.
</event>
<event>
 5   0  0.1232559E-05  0.2680792E+04  0.7818609E-02  0.8341264E-01
        2   -1    0    0  501    0  0.00000000000E+00  0.00000000000E+00  0.13705598411E+04  0.13705598411E+04  0.25500000920E-02 0.  1.
       -2   -1    0    0    0  501  0.00000000000E+00  0.00000000000E+00 -0.13108958535E+04  0.13108958535E+04  0.25500000920E-02 0. -1.
    10030    2    1    2    0    0  0.00000000000E+00  0.00000000000E+00  0.59663987597E+02  0.26814556945E+04  0.26807918327E+04 0.  0.
        3    1    3    3  502    0 -0.11035499050E+04  0.24021200425E+03 -0.69224496854E+03  0.13246612044E+04  0.10100000352E+00 0. -1.
       -3    1    3    3    0  502  0.11035499050E+04 -0.24021200425E+03  0.75190895614E+03  0.13567944901E+04  0.10100000352E+00 0.  1.
</event>
<event>
 5   0  0.1232559E-05  0.2704753E+04  0.7818609E-02  0.8333465E-01
        2   -1    0    0  501    0  0.00000000000E+00  0.00000000000E+00  0.18903623641E+04  0.18903623641E+04  0.25500000920E-02 0. -1.
       -2   -1    0    0    0  501  0.00000000000E+00  0.00000000000E+00 -0.96749802003E+03  0.96749802003E+03  0.25500000920E-02 0.  1.
    10030    2    1    2    0    0  0.00000000000E+00  0.00000000000E+00  0.92286434402E+03  0.28578603841E+04  0.27047527387E+04 0.  0.
        3    1    3    3  502    0 -0.31522872941E+03  0.11871505725E+04 -0.13648616185E+03  0.12358495524E+04  0.10100000352E+00 0.  1.
       -3    1    3    3    0  502  0.31522872941E+03 -0.11871505725E+04  0.10593505059E+04  0.16220108317E+04  0.10100000352E+00 0. -1.
</event>
<event>
 5   0  0.1286641E-05  0.2706104E+04  0.7818609E-02  0.8333027E-01
        2   -1    0    0  501    0  0.00000000000E+00  0.00000000000E+00  0.17275033160E+04  0.17275033160E+04  0.25500000920E-02 0.  1.
       -2   -1    0    0    0  501  0.00000000000E+00  0.00000000000E+00 -0.10597662782E+04  0.10597662783E+04  0.25500000920E-02 0. -1.
    10030    2    1    2    0    0  0.00000000000E+00  0.00000000000E+00  0.66773703776E+03  0.27872695943E+04  0.27061040334E+04 0.  0.
        4    1    3    3  502    0 -0.12310150138E+04  0.44994835378E+03 -0.12210314828E+02  0.13107258257E+04  0.12699999809E+01 0.  1.
       -4    1    3    3    0  502  0.12310150138E+04 -0.44994835378E+03  0.67994735258E+03  0.14765437686E+04  0.12699999809E+01 0. -1.
</event>
<event>
 5   0  0.4756800E-06  0.2508019E+04  0.7818609E-02  0.8400134E-01
        1   -1    0    0  501    0  0.00000000000E+00  0.00000000000E+00  0.73597065833E+03  0.73597065835E+03  0.50400001928E-02 0.  1.
       -1   -1    0    0    0  501  0.00000000000E+00  0.00000000000E+00 -0.21366879018E+04  0.21366879018E+04  0.50400001928E-02 0. -1.
    10030    2    1    2    0    0  0.00000000000E+00  0.00000000000E+00 -0.14007172434E+04  0.28726585601E+04  0.25080188211E+04 0.  0.
        4    1    3    3  502    0  0.33022521475E+03 -0.31891047120E+03  0.63626015042E+03  0.78458981195E+03  0.12699999809E+01 0.  1.
       -4    1    3    3    0  502 -0.33022521475E+03  0.31891047120E+03 -0.20369773938E+04  0.20880687482E+04  0.12699999809E+01 0. -1.
</event>
<event>
 5   0  0.4756800E-06  0.2705072E+04  0.7818609E-02  0.8333361E-01
        1   -1    0    0  501    0  0.00000000000E+00  0.00000000000E+00  0.13700698933E+04  0.13700698933E+04  0.50400001928E-02 0. -1.
       -1   -1    0    0    0  501  0.00000000000E+00  0.00000000000E+00 -0.13352263909E+04  0.13352263909E+04  0.50400001928E-02 0.  1.
    10030    2    1    2    0    0  0.00000000000E+00  0.00000000000E+00  0.34843502447E+02  0.27052962842E+04  0.27050718873E+04 0.  0.
        4    1    3    3  502    0 -0.24239661010E+03 -0.43780622958E+03  0.12740774008E+04  0.13688335353E+04  0.12699999809E+01 0. -1.
       -4    1    3    3    0  502  0.24239661010E+03  0.43780622958E+03 -0.12392338984E+04  0.13364627488E+04  0.12699999809E+01 0.  1.
</event>
<event>
 5   0  0.1261364E-05  0.2702733E+04  0.7818609E-02  0.8334119E-01
       -2   -1    0    0    0  501  0.00000000000E+00  0.00000000000E+00  0.14740871871E+04  0.14740871871E+04  0.25500000920E-02 0. -1.
        2   -1    0    0  501    0  0.00000000000E+00  0.00000000000E+00 -0.12388621818E+04  0.12388621818E+04  0.25500000920E-02 0.  1.
    10030    2    1    2    0    0  0.00000000000E+00  0.00000000000E+00  0.23522500522E+03  0.27129493689E+04  0.27027325941E+04 0.  0.
        5    1    3    3  502    0  0.11621557243E+04 -0.27102449108E+03 -0.51890489383E+03  0.13012857415E+04  0.46999998093E+01 0. -1.
       -5    1    3    3    0  502 -0.11621557243E+04  0.27102449108E+03  0.75412989905E+03  0.14116636274E+04  0.46999998093E+01 0.  1.
</event>
<event>
 5   0  0.4756800E-06  0.2704782E+04  0.7818609E-02  0.8333455E-01
       -1   -1    0    0    0  501  0.00000000000E+00  0.00000000000E+00  0.76008792989E+03  0.76008792991E+03  0.50400001928E-02 0.  1.
        1   -1    0    0  501    0  0.00000000000E+00  0.00000000000E+00 -0.24062501069E+04  0.24062501070E+04  0.50400001928E-02 0. -1.
    10030    2    1    2    0    0  0.00000000000E+00  0.00000000000E+00 -0.16461621771E+04  0.31663380369E+04  0.27047821817E+04 0.  0.
        4    1    3    3  502    0 -0.87393911473E+02  0.10476388596E+04  0.17284434305E+03  0.10653927237E+04  0.12699999809E+01 0.  1.
       -4    1    3    3    0  502  0.87393911473E+02 -0.10476388596E+04 -0.18190065201E+04  0.21009453132E+04  0.12699999809E+01 0. -1.
</event>
<event>
 5   0  0.1232559E-05  0.2701062E+04  0.7818609E-02  0.8334661E-01
        2   -1    0    0  501    0  0.00000000000E+00  0.00000000000E+00  0.12308461514E+04  0.12308461514E+04  0.25500000920E-02 0. -1.
       -2   -1    0    0    0  501  0.00000000000E+00  0.00000000000E+00 -0.14818535788E+04  0.14818535788E+04  0.25500000920E-02 0.  1.
    10030    2    1    2    0    0  0.00000000000E+00  0.00000000000E+00 -0.25100742737E+03  0.27126997301E+04  0.27010618463E+04 0.  0.
        3    1    3    3  502    0  0.12779649405E+04 -0.30644149095E+03  0.18701703902E+03  0.13274321676E+04  0.10100000352E+00 0. -1.
       -3    1    3    3    0  502 -0.12779649405E+04  0.30644149095E+03 -0.43802446639E+03  0.13852675625E+04  0.10100000352E+00 0.  1.
</event>
<event>
 5   0  0.1261364E-05  0.2748727E+04  0.7818609E-02  0.8319366E-01
        2   -1    0    0  501    0  0.00000000000E+00  0.00000000000E+00  0.22007578406E+04  0.22007578406E+04  0.25500000920E-02 0.  1.
       -2   -1    0    0    0  501  0.00000000000E+00  0.00000000000E+00 -0.85828383742E+03  0.85828383742E+03  0.25500000920E-02 0. -1.
    10030    2    1    2    0    0  0.00000000000E+00  0.00000000000E+00  0.13424740032E+04  0.30590416780E+04  0.27487268942E+04 0.  0.
        5    1    3    3  502    0  0.82528623958E+03 -0.10764460248E+04  0.91763528543E+03  0.16376538183E+04  0.46999998093E+01 0.  1.
       -5    1    3    3    0  502 -0.82528623958E+03  0.10764460248E+04  0.42483871776E+03  0.14213878597E+04  0.46999998093E+01 0. -1.
</event>
<event>
 5   0  0.4756800E-06  0.2713815E+04  0.7818609E-02  0.8330536E-01
       -1   -1    0    0    0  501  0.00000000000E+00  0.00000000000E+00  0.13355873320E+04  0.13355873320E+04  0.50400001928E-02 0.  1.
        1   -1    0    0  501    0  0.00000000000E+00  0.00000000000E+00 -0.13785679827E+04  0.13785679827E+04  0.50400001928E-02 0. -1.
    10030    2    1    2    0    0  0.00000000000E+00  0.00000000000E+00 -0.42980650694E+02  0.27141553147E+04  0.27138149782E+04 0.  0.
        4    1    3    3  502    0  0.10509016878E+04  0.85687835176E+03 -0.72107480010E+02  0.13578792173E+04  0.12699999809E+01 0.  1.
       -4    1    3    3    0  502 -0.10509016878E+04 -0.85687835176E+03  0.29126829316E+02  0.13562760974E+04  0.12699999809E+01 0. -1.
</event>
<event>
 5   0  0.5152288E-06  0.2696647E+04  0.7818609E-02  0.8336094E-01
        1   -1    0    0  501    0  0.00000000000E+00  0.00000000000E+00  0.20962320399E+04  0.20962320399E+04  0.50400001928E-02 0. -1.
       -1   -1    0    0    0  501  0.00000000000E+00  0.00000000000E+00 -0.86725936563E+03  0.86725936564E+03  0.50400001928E-02 0.  1.
    10030    2    1    2    0    0  0.00000000000E+00  0.00000000000E+00  0.12289726742E+04  0.29634914055E+04  0.26966474513E+04 0.  0.
        3    1    3    3  502    0 -0.47225023072E+03  0.28639478561E+02 -0.77304318862E+03  0.90633122082E+03  0.10100000352E+00 0.  1.
       -3    1    3    3    0  502  0.47225023072E+03 -0.28639478561E+02  0.20020158629E+04  0.20571601847E+04  0.10100000352E+00 0. -1.
</event>
<event>
 5   0  0.4756800E-06  0.2680091E+04  0.7818609E-02  0.8341494E-01
       -1   -1    0    0    0  501  0.00000000000E+00  0.00000000000E+00  0.10272781895E+04  0.10272781896E+04  0.50400001928E-02 0.  1.
        1   -1    0    0  501    0  0.00000000000E+00  0.00000000000E+00 -0.17480386236E+04  0.17480386236E+04  0.50400001928E-02 0. -1.
    10030    2    1    2    0    0  0.00000000000E+00  0.00000000000E+00 -0.72076043407E+03  0.27753168132E+04  0.26800910078E+04 0.  0.
        4    1    3    3  502    0 -0.94779656003E+03 -0.29488481728E+03  0.57185346321E+03  0.11455537399E+04  0.12699999809E+01 0.  1.
       -4    1    3    3    0  502  0.94779656003E+03  0.29488481728E+03 -0.12926138973E+04  0.16297630733E+04  0.12699999809E+01 0. -1.
</event>
<event>
 5   0  0.1261364E-05  0.2675845E+04  0.7818609E-02  0.8342885E-01
       -2   -1    0    0    0  501  0.00000000000E+00  0.00000000000E+00  0.13155390372E+04  0.13155390372E+04  0.25500000920E-02 0. -1.
        2   -1    0    0  501    0  0.00000000000E+00  0.00000000000E+00 -0.13606871506E+04  0.13606871506E+04  0.25500000920E-02 0.  1.
    10030    2    1    2    0    0  0.00000000000E+00  0.00000000000E+00 -0.45148113470E+02  0.26762261878E+04  0.26758453349E+04 0.  0.
        5    1    3    3  502    0 -0.55751485858E+03 -0.92113584784E+03 -0.81685389052E+03  0.13515126474E+04  0.46999998093E+01 0.  1.
       -5    1    3    3    0  502  0.55751485858E+03  0.92113584784E+03  0.77170577705E+03  0.13247135404E+04  0.46999998093E+01 0. -1.
</event>
<event>
 5   0  0.4756800E-06  0.2445292E+04  0.7818609E-02  0.8422739E-01
       -1   -1    0    0    0  501  0.00000000000E+00  0.00000000000E+00  0.98465640152E+03  0.98465640154E+03  0.50400001928E-02 0. -1.
        1   -1    0    0  501    0  0.00000000000E+00  0.00000000000E+00 -0.15181574677E+04  0.15181574677E+04  0.50400001928E-02 0.  1.
    10030    2    1    2    0    0  0.00000000000E+00  0.00000000000E+00 -0.53350106620E+03  0.25028138693E+04  0.24452921863E+04 0.  0.
        4    1    3    3  502    0  0.31671090145E+02 -0.93715615506E+03 -0.10698070103E+04  0.14225868582E+04  0.12699999809E+01 0.  1.
       -4    1    3    3    0  502 -0.31671090145E+02  0.93715615506E+03  0.53630594409E+03  0.10802270111E+04  0.12699999809E+01 0. -1.
</event>
<event>
 5   0  0.4846214E-06  0.2730418E+04  0.7818609E-02  0.8325202E-01
       -1   -1    0    0    0  501  0.00000000000E+00  0.00000000000E+00  0.99994031683E+03  0.99994031685E+03  0.50400001928E-02 0.  1.
        1   -1    0    0  501    0  0.00000000000E+00  0.00000000000E+00 -0.18639063059E+04  0.18639063059E+04  0.50400001928E-02 0. -1.
    10030    2    1    2    0    0  0.00000000000E+00  0.00000000000E+00 -0.86396598908E+03  0.28638466228E+04  0.27304175960E+04 0.  0.
        2    1    3    3  502    0  0.12141104830E+04  0.21617253942E+03 -0.10462651320E+04  0.16172401053E+04  0.25500000920E-02 0. -1.
       -2    1    3    3    0  502 -0.12141104830E+04 -0.21617253942E+03  0.18229914293E+03  0.12466065174E+04  0.25500000920E-02 0.  1.
</event>
<event>
 5   0  0.4824715E-06  0.2683525E+04  0.7818609E-02  0.8340370E-01
       -1   -1    0    0    0  501  0.00000000000E+00  0.00000000000E+00  0.15067188235E+04  0.15067188235E+04  0.50400001928E-02 0.  1.
        1   -1    0    0  501    0  0.00000000000E+00  0.00000000000E+00 -0.11948659476E+04  0.11948659476E+04  0.50400001928E-02 0. -1.
    10030    2    1    2    0    0  0.00000000000E+00  0.00000000000E+00  0.31185287587E+03  0.27015847711E+04  0.26835253044E+04 0.  0.
        5    1    3    3  502    0 -0.88537051253E+03 -0.10264790914E+03  0.11656153474E+04  0.14673441198E+04  0.46999998093E+01 0.  1.
       -5    1    3    3    0  502  0.88537051253E+03  0.10264790914E+03 -0.85376247153E+03  0.12342406514E+04  0.46999998093E+01 0. -1.
</event>
<event>
 5   0  0.1220908E-05  0.2677338E+04  0.7818609E-02  0.8342396E-01
       -2   -1    0    0    0  501  0.00000000000E+00  0.00000000000E+00  0.12309392885E+04  0.12309392885E+04  0.25500000920E-02 0.  1.
        2   -1    0    0  501    0  0.00000000000E+00  0.00000000000E+00 -0.14558271804E+04  0.14558271804E+04  0.25500000920E-02 0. -1.
    10030    2    1    2    0    0  0.00000000000E+00  0.00000000000E+00 -0.22488789190E+03  0.26867664689E+04  0.26773381360E+04 0.  0.
        2    1    3    3  502    0  0.20299371263E+03  0.10634329699E+04 -0.90257855569E+03  0.14095191301E+04  0.25500000920E-02 0. -1.
       -2    1    3    3    0  502 -0.20299371263E+03 -0.10634329699E+04  0.67769066379E+03  0.12772473389E+04  0.25500000920E-02 0.  1.
</event>
<event>
 5   0  0.1286641E-05  0.2650350E+04  0.7818609E-02  0.8351297E-01
        2   -1    0    0  501    0  0.00000000000E+00  0.00000000000E+00  0.96182458761E+03  0.96182458762E+03  0.25500000920E-02 0.  1.
       -2   -1    0    0    0  501  0.00000000000E+00  0.00000000000E+00 -0.18257897103E+04  0.18257897103E+04  0.25500000920E-02 0. -1.
    10030    2    1    2    0    0  0.00000000000E+00  0.00000000000E+00 -0.86396512270E+03  0.27876142979E+04  0.26503504940E+04 0.  0.
        4    1    3    3  502    0 -0.56766016168E+03  0.28226547797E+03 -0.16559417104E+04  0.17731487305E+04  0.12699999809E+01 0. -1.
       -4    1    3    3    0  502  0.56766016168E+03 -0.28226547797E+03  0.79197658770E+03  0.10144655675E+04  0.12699999809E+01 0.  1.
</event>
<event>
 5   0  0.1232559E-05  0.2188391E+04  0.7818609E-02  0.8523276E-01
       -2   -1    0    0    0  501  0.00000000000E+00  0.00000000000E+00  0.49544884705E+03  0.49544884706E+03  0.25500000920E-02 0. -1.
        2   -1    0    0  501    0  0.00000000000E+00  0.00000000000E+00 -0.24165233613E+04  0.24165233613E+04  0.25500000920E-02 0.  1.
    10030    2    1    2    0    0  0.00000000000E+00  0.00000000000E+00 -0.19210745143E+04  0.29119722084E+04  0.21883909278E+04 0.  0.
        3    1    3    3  502    0 -0.48949282347E+03  0.63296793742E+03  0.32566495014E+02  0.80081971806E+03  0.10100000352E+00 0. -1.
       -3    1    3    3    0  502  0.48949282347E+03 -0.63296793742E+03 -0.19536410093E+04  0.21111524903E+04  0.10100000352E+00 0.  1.
</event>
<event>
 5   0  0.4826140E-06  0.2697795E+04  0.7818609E-02  0.8335721E-01
       -1   -1    0    0    0  501  0.00000000000E+00  0.00000000000E+00  0.17901408485E+04  0.17901408485E+04  0.50400001928E-02 0. -1.
        1   -1    0    0  501    0  0.00000000000E+00  0.00000000000E+00 -0.10164141681E+04  0.10164141681E+04  0.50400001928E-02 0.  1.
    10030    2    1    2    0    0  0.00000000000E+00  0.00000000000E+00  0.77372668044E+03  0.28065550167E+04  0.26977950414E+04 0.  0.
        1    1    3    3  502    0 -0.20554840285E+01  0.12272385822E+04 -0.19553227172E+03  0.12427194502E+04  0.50400001928E-02 0.  1.
       -1    1    3    3    0  502  0.20554840285E+01 -0.12272385822E+04  0.96925895215E+03  0.15638355665E+04  0.50400001928E-02 0. -1.
</event>
<event>
 5   0  0.5152288E-06  0.2691770E+04  0.7818609E-02  0.8337680E-01
       -1   -1    0    0    0  501  0.00000000000E+00  0.00000000000E+00  0.13061012558E+04  0.13061012558E+04  0.50400001928E-02 0. -1.
        1   -1    0    0  501    0  0.00000000000E+00  0.00000000000E+00 -0.13868802604E+04  0.13868802604E+04  0.50400001928E-02 0.  1.
    10030    2    1    2    0    0  0.00000000000E+00  0.00000000000E+00 -0.80779004629E+02  0.26929815162E+04  0.26917697151E+04 0.  0.
        3    1    3    3  502    0 -0.94143901605E+03  0.84336713135E+03 -0.50301577841E+03  0.13603677527E+04  0.10100000352E+00 0.  1.
       -3    1    3    3    0  502  0.94143901605E+03 -0.84336713135E+03  0.42223677378E+03  0.13326137634E+04  0.10100000352E+00 0. -1.
</event>
<event>
 5   0  0.4824715E-06  0.2706362E+04  0.7818609E-02  0.8332944E-01
       -1   -1    0    0    0  501  0.00000000000E+00  0.00000000000E+00  0.26012370715E+04  0.26012370715E+04  0.50400001928E-02 0.  1.
        1   -1    0    0  501    0  0.00000000000E+00  0.00000000000E+00 -0.70393409982E+03  0.70393409984E+03  0.50400001928E-02 0. -1.
    10030    2    1    2    0    0  0.00000000000E+00  0.00000000000E+00  0.18973029717E+04  0.33051711714E+04  0.27063624860E+04 0.  0.
        5    1    3    3  502    0 -0.12391890014E+04  0.54263311851E+03  0.90931813039E+03  0.16300066364E+04  0.46999998093E+01 0. -1.
       -5    1    3    3    0  502  0.12391890014E+04 -0.54263311851E+03  0.98798484131E+03  0.16751645350E+04  0.46999998093E+01 0.  1.
</event>
<event>
 5   0  0.4824715E-06  0.2707992E+04  0.7818609E-02  0.8332416E-01
       -1   -1    0    0    0  501  0.00000000000E+00  0.00000000000E+00  0.96084981602E+03  0.96084981603E+03  0.50400001928E-02 0. -1.
        1   -1    0    0  501    0  0.00000000000E+00  0.00000000000E+00 -0.19080043594E+04  0.19080043594E+04  0.50400001928E-02 0.  1.
    10030    2    1    2    0    0  0.00000000000E+00  0.00000000000E+00 -0.94715454341E+03  0.28688541755E+04  0.27079923469E+04 0.  0.
        5    1    3    3  502    0 -0.36402232947E+03 -0.11384129807E+04  0.20044525884E+03  0.12118980001E+04  0.46999998093E+01 0. -1.
       -5    1    3    3    0  502  0.36402232947E+03  0.11384129807E+04 -0.11475998023E+04  0.16569561753E+04  0.46999998093E+01 0.  1.
</event>
<event>
 5   0  0.1220908E-05  0.2529625E+04  0.7818609E-02  0.8392507E-01
       -2   -1    0    0    0  501  0.00000000000E+00  0.00000000000E+00  0.83319140794E+03  0.83319140795E+03  0.25500000920E-02 0. -1.
        2   -1    0    0  501    0  0.00000000000E+00  0.00000000000E+00 -0.19200279466E+04  0.19200279466E+04  0.25500000920E-02 0.  1.
    10030    2    1    2    0    0  0.00000000000E+00  0.00000000000E+00 -0.10868365387E+04  0.27532193546E+04  0.25296251012E+04 0.  0.
        2    1    3    3  502    0 -0.84896433621E+03  0.58001012395E+03 -0.13451406110E+04  0.16930905030E+04  0.25500000920E-02 0.  1.
       -2    1    3    3    0  502  0.84896433621E+03 -0.58001012395E+03  0.25830407234E+03  0.10601288515E+04  0.25500000920E-02 0. -1.
</event>
<event>
 5   0  0.1220908E-05  0.2739815E+04  0.7818609E-02  0.8322201E-01
       -2   -1    0    0    0  501  0.00000000000E+00  0.00000000000E+00  0.82207304893E+03  0.82207304894E+03  0.25500000920E-02 0.  1.
        2   -1    0    0  501    0  0.00000000000E+00  0.00000000000E+00 -0.22828216091E+04  0.22828216091E+04  0.25500000920E-02 0. -1.
    10030    2    1    2    0    0  0.00000000000E+00  0.00000000000E+00 -0.14607485602E+04  0.31048946580E+04  0.27398146801E+04 0.  0.
        2    1    3    3  502    0 -0.76677749654E+03  0.11276098231E+04 -0.58177381074E+03  0.14825358037E+04  0.25500000920E-02 0. -1.
       -2    1    3    3    0  502  0.76677749654E+03 -0.11276098231E+04 -0.87897474943E+03  0.16223588544E+04  0.25500000920E-02 0.  1.
</event>
<event>
 5   0  0.5152288E-06  0.2721737E+04  0.7818609E-02  0.8327986E-01
       -1   -1    0    0    0  501  0.00000000000E+00  0.00000000000E+00  0.25549035982E+04  0.25549035982E+04  0.50400001928E-02 0.  1.
        1   -1    0    0  501    0  0.00000000000E+00  0.00000000000E+00 -0.72486624486E+03  0.72486624488E+03  0.50400001928E-02 0. -1.
    10030    2    1    2    0    0  0.00000000000E+00  0.00000000000E+00  0.18300373533E+04  0.32797698430E+04  0.27217372226E+04 0.  0.
        3    1    3    3  502    0  0.38731752046E+03 -0.35574498384E+02  0.24864986677E+04  0.25167351950E+04  0.10100000352E+00 0.  1.
       -3    1    3    3    0  502 -0.38731752046E+03  0.35574498384E+02 -0.65646131446E+03  0.76303464808E+03  0.10100000352E+00 0. -1.
</event>
<event>
 5   0  0.4826140E-06  0.2701494E+04  0.7818609E-02  0.8334520E-01
       -1   -1    0    0    0  501  0.00000000000E+00  0.00000000000E+00  0.12529674631E+04  0.12529674631E+04  0.50400001928E-02 0. -1.
        1   -1    0    0  501    0  0.00000000000E+00  0.00000000000E+00 -0.14561570591E+04  0.14561570591E+04  0.50400001928E-02 0.  1.
    10030    2    1    2    0    0  0.00000000000E+00  0.00000000000E+00 -0.20318959593E+03  0.27091245222E+04  0.27014939691E+04 0.  0.
        1    1    3    3  502    0 -0.10516982581E+03  0.59051582322E+03 -0.13152809319E+04  0.14455910762E+04  0.50400001928E-02 0.  1.
       -1    1    3    3    0  502  0.10516982581E+03 -0.59051582322E+03  0.11120913360E+04  0.12635334460E+04  0.50400001928E-02 0. -1.
</event>
<event>
 5   0  0.1276517E-05  0.2667305E+04  0.7818609E-02  0.8345692E-01
       -2   -1    0    0    0  501  0.00000000000E+00  0.00000000000E+00  0.96003811448E+03  0.96003811449E+03  0.25500000920E-02 0.  1.
        2   -1    0    0  501    0  0.00000000000E+00  0.00000000000E+00 -0.18526647344E+04  0.18526647344E+04  0.25500000920E-02 0. -1.
    10030    2    1    2    0    0  0.00000000000E+00  0.00000000000E+00 -0.89262661990E+03  0.28127028489E+04  0.26673048258E+04 0.  0.
        1    1    3    3  502    0  0.10085323389E+03 -0.28073676293E+03  0.92440697604E+03  0.97134585099E+03  0.50400001928E-02 0.  1.
       -1    1    3    3    0  502 -0.10085323389E+03  0.28073676293E+03 -0.18170335959E+04  0.18413569979E+04  0.50400001928E-02 0. -1.
</event>
<event>
 5   0  0.1261364E-05  0.2710301E+04  0.7818609E-02  0.8331670E-01
       -2   -1    0    0    0  501  0.00000000000E+00  0.00000000000E+00  0.20512870384E+04  0.20512870384E+04  0.25500000920E-02 0. -1.
        2   -1    0    0  501    0  0.00000000000E+00  0.00000000000E+00 -0.89525908602E+03  0.89525908602E+03  0.25500000920E-02 0.  1.
    10030    2    1    2    0    0  0.00000000000E+00  0.00000000000E+00  0.11560279523E+04  0.29465461244E+04  0.27103013553E+04 0.  0.
        5    1    3    3  502    0  0.21404167642E+03 -0.12548158646E+04  0.72704673195E+02  0.12750234322E+04  0.46999998093E+01 0. -1.
       -5    1    3    3    0  502 -0.21404167642E+03  0.12548158646E+04  0.10833232792E+04  0.16715226922E+04  0.46999998093E+01 0.  1.
</event>
<event>
 5   0  0.4846214E-06  0.2688468E+04  0.7818609E-02  0.8338756E-01
       -1   -1    0    0    0  501  0.00000000000E+00  0.00000000000E+00  0.98532221597E+03  0.98532221598E+03  0.50400001928E-02 0.  1.
        1   -1    0    0  501    0  0.00000000000E+00  0.00000000000E+00 -0.18338826557E+04  0.18338826557E+04  0.50400001928E-02 0. -1.
    10030    2    1    2    0    0  0.00000000000E+00  0.00000000000E+00 -0.84856043976E+03  0.28192048717E+04  0.26884682049E+04 0.  0.
        2    1    3    3  502    0  0.84043738985E+02 -0.16273661370E+03 -0.18207366255E+04  0.18299257950E+04  0.25500000920E-02 0. -1.
       -2    1    3    3    0  502 -0.84043738985E+02  0.16273661370E+03  0.97217618577E+03  0.98927907675E+03  0.25500000920E-02 0.  1.
</event>
<event>
 5   0  0.4846214E-06  0.2587986E+04  0.7818609E-02  0.8372293E-01
        1   -1    0    0  501    0  0.00000000000E+00  0.00000000000E+00  0.17709738944E+04  0.17709738944E+04  0.50400001928E-02 0. -1.
       -1   -1    0    0    0  501  0.00000000000E+00  0.00000000000E+00 -0.94547881386E+03  0.94547881387E+03  0.50400001928E-02 0.  1.
    10030    2    1    2    0    0  0.00000000000E+00  0.00000000000E+00  0.82549508056E+03  0.27164527083E+04  0.25879863192E+04 0.  0.
        2    1    3    3  502    0 -0.18415883637E+03 -0.23761037717E+02 -0.93142200179E+03  0.94975049848E+03  0.25500000920E-02 0.  1.
       -2    1    3    3    0  502  0.18415883637E+03  0.23761037717E+02  0.17569170824E+04  0.17667022098E+04  0.25500000920E-02 0. -1.
</event>
<event>
 5   0  0.5152288E-06  0.2691202E+04  0.7818609E-02  0.8337865E-01
       -1   -1    0    0    0  501  0.00000000000E+00  0.00000000000E+00  0.14012692017E+04  0.14012692017E+04  0.50400001928E-02 0. -1.
        1   -1    0    0  501    0  0.00000000000E+00  0.00000000000E+00 -0.12921440588E+04  0.12921440588E+04  0.50400001928E-02 0.  1.
    10030    2    1    2    0    0  0.00000000000E+00  0.00000000000E+00  0.10912514289E+03  0.26934132606E+04  0.26912017196E+04 0.  0.
        3    1    3    3  502    0  0.10041782884E+04 -0.89366012096E+03 -0.58129247141E+01  0.13442604833E+04  0.10100000352E+00 0.  1.
       -3    1    3    3    0  502 -0.10041782884E+04  0.89366012096E+03  0.11493806761E+03  0.13491527772E+04  0.10100000352E+00 0. -1.
</event>
<event>
 5   0  0.1232559E-05  0.2617178E+04  0.7818609E-02  0.8362389E-01
       -2   -1    0    0    0  501  0.00000000000E+00  0.00000000000E+00  0.21364708845E+04  0.21364708845E+04  0.25500000920E-02 0.  1.
        2   -1    0    0  501    0  0.00000000000E+00  0.00000000000E+00 -0.80151122056E+03  0.80151122056E+03  0.25500000920E-02 0. -1.
    10030    2    1    2    0    0  0.00000000000E+00  0.00000000000E+00  0.13349596640E+04  0.29379821051E+04  0.26171781646E+04 0.  0.
        3    1    3    3  502    0 -0.90354371401E+03  0.33741164376E+03  0.16602889236E+04  0.19201034297E+04  0.10100000352E+00 0.  1.
       -3    1    3    3    0  502  0.90354371401E+03 -0.33741164376E+03 -0.32532925967E+03  0.10178786754E+04  0.10100000352E+00 0. -1.
</event>
<event>
 5   0  0.4824715E-06  0.2685274E+04  0.7818609E-02  0.8339799E-01
       -1   -1    0    0    0  501  0.00000000000E+00  0.00000000000E+00  0.65307228812E+03  0.65307228814E+03  0.50400001928E-02 0. -1.
        1   -1    0    0  501    0  0.00000000000E+00  0.00000000000E+00 -0.27602973127E+04  0.27602973127E+04  0.50400001928E-02 0.  1.
    10030    2    1    2    0    0  0.00000000000E+00  0.00000000000E+00 -0.21072250246E+04  0.34133696009E+04  0.26852736784E+04 0.  0.
        5    1    3    3  502    0  0.11272946896E+03  0.79074891564E+03  0.31819856787E+03  0.85980474489E+03  0.46999998093E+01 0. -1.
       -5    1    3    3    0  502 -0.11272946896E+03 -0.79074891564E+03 -0.24254235925E+04  0.25535648560E+04  0.46999998093E+01 0.  1.
</event>
<event>
 5   0  0.4756800E-06  0.2682630E+04  0.7818609E-02  0.8340663E-01
        1   -1    0    0  501    0  0.00000000000E+00  0.00000000000E+00  0.29929471730E+04  0.29929471730E+04  0.50400001928E-02 0. -1.
       -1   -1    0    0    0  501  0.00000000000E+00  0.00000000000E+00 -0.60112172901E+03  0.60112172903E+03  0.50400001928E-02 0.  1.
    10030    2    1    2    0    0  0.00000000000E+00  0.00000000000E+00  0.23918254440E+04  0.35940689020E+04  0.26826297393E+04 0.  0.
        4    1    3    3  502    0 -0.10763270632E+04  0.69484868634E+03  0.17281674284E+04  0.21512458988E+04  0.12699999809E+01 0. -1.
       -4    1    3    3    0  502  0.10763270632E+04 -0.69484868634E+03  0.66365801560E+03  0.14428230032E+04  0.12699999809E+01 0.  1.
</event>
<event>
 5   0  0.1232559E-05  0.2698513E+04  0.7818609E-02  0.8335487E-01
       -2   -1    0    0    0  501  0.00000000000E+00  0.00000000000E+00  0.72865922138E+03  0.72865922138E+03  0.25500000920E-02 0. -1.
        2   -1    0    0  501    0  0.00000000000E+00  0.00000000000E+00 -0.24984156865E+04  0.24984156865E+04  0.25500000920E-02 0.  1.
    10030    2    1    2    0    0  0.00000000000E+00  0.00000000000E+00 -0.17697564651E+04  0.32270749079E+04  0.26985133899E+04 0.  0.
        3    1    3    3  502    0  0.15444186556E+03  0.31314968138E+03  0.67369528978E+03  0.75880192834E+03  0.10100000352E+00 0. -1.
       -3    1    3    3    0  502 -0.15444186556E+03 -0.31314968138E+03 -0.24434517549E+04  0.24682729795E+04  0.10100000352E+00 0.  1.
</event>
<event>
 5   0  0.1261364E-05  0.2726952E+04  0.7818609E-02  0.8326313E-01
       -2   -1    0    0    0  501  0.00000000000E+00  0.00000000000E+00  0.13377963270E+04  0.13377963270E+04  0.25500000920E-02 0.  1.
        2   -1    0    0  501    0  0.00000000000E+00  0.00000000000E+00 -0.13896488806E+04  0.13896488806E+04  0.25500000920E-02 0. -1.
    10030    2    1    2    0    0  0.00000000000E+00  0.00000000000E+00 -0.51852553565E+02  0.27274452076E+04  0.27269522683E+04 0.  0.
        5    1    3    3  502    0  0.12681730495E+04  0.18579768221E+03 -0.49104949551E+03  0.13725652477E+04  0.46999998093E+01 0. -1.
       -5    1    3    3    0  502 -0.12681730495E+04 -0.18579768221E+03  0.43919694194E+03  0.13548799600E+04  0.46999998093E+01 0.  1.
</event>
<event>
 5   0  0.1261364E-05  0.2707273E+04  0.7818609E-02  0.8332649E-01
       -2   -1    0    0    0  501  0.00000000000E+00  0.00000000000E+00  0.13874976349E+04  0.13874976349E+04  0.25500000920E-02 0.  1.
        2   -1    0    0  501    0  0.00000000000E+00  0.00000000000E+00 -0.13206017126E+04  0.13206017126E+04  0.25500000920E-02 0. -1.
    10030    2    1    2    0    0  0.00000000000E+00  0.00000000000E+00  0.66895922279E+02  0.27080993476E+04  0.27072729844E+04 0.  0.
        5    1    3    3  502    0 -0.43251923145E+03 -0.61545754429E+03 -0.10922616123E+04  0.13262422079E+04  0.46999998093E+01 0. -1.
       -5    1    3    3    0  502  0.43251923145E+03  0.61545754429E+03  0.11591575346E+04  0.13818571396E+04  0.46999998093E+01 0.  1.
</event>
<event>
 5   0  0.1261364E-05  0.2342530E+04  0.7818609E-02  0.8461339E-01
        2   -1    0    0  501    0  0.00000000000E+00  0.00000000000E+00  0.12575805059E+04  0.12575805059E+04  0.25500000920E-02 0. -1.
       -2   -1    0    0    0  501  0.00000000000E+00  0.00000000000E+00 -0.10908734001E+04  0.10908734001E+04  0.25500000920E-02 0.  1.
    10030    2    1    2    0    0  0.00000000000E+00  0.00000000000E+00  0.16670710581E+03  0.23484539060E+04  0.23425295067E+04 0.  0.
        5    1    3    3  502    0 -0.30106418688E+02  0.26224811806E+03 -0.10606540369E+04  0.10930185487E+04  0.46999998093E+01 0.  1.
       -5    1    3    3    0  502  0.30106418688E+02 -0.26224811806E+03  0.12273611427E+04  0.12554353573E+04  0.46999998093E+01 0. -1.
</event>
<event>
 5   0  0.1220908E-05  0.2710721E+04  0.7818609E-02  0.8331535E-01
        2   -1    0    0  501    0  0.00000000000E+00  0.00000000000E+00  0.99872197257E+03  0.99872197257E+03  0.25500000920E-02 0.  1.
       -2   -1    0    0    0  501  0.00000000000E+00  0.00000000000E+00 -0.18393528072E+04  0.18393528072E+04  0.25500000920E-02 0. -1.
    10030    2    1    2    0    0  0.00000000000E+00  0.00000000000E+00 -0.84063083461E+03  0.28380747798E+04  0.27107209844E+04 0.  0.
        2    1    3    3  502    0  0.11283069232E+04 -0.26418709153E+03 -0.11562851416E+04  0.16370298290E+04  0.25500000920E-02 0. -1.
       -2    1    3    3    0  502 -0.11283069232E+04  0.26418709153E+03  0.31565430700E+03  0.12010449508E+04  0.25500000920E-02 0.  1.
</event>
<event>
 5   0  0.1286641E-05  0.2712669E+04  0.7818609E-02  0.8330906E-01
       -2   -1    0    0    0  501  0.00000000000E+00  0.00000000000E+00  0.76328653892E+03  0.76328653893E+03  0.25500000920E-02 0. -1.
        2   -1    0    0  501    0  0.00000000000E+00  0.00000000000E+00 -0.24101609904E+04  0.24101609904E+04  0.25500000920E-02 0.  1.
    10030    2    1    2    0    0  0.00000000000E+00  0.00000000000E+00 -0.16468744515E+04  0.31734475293E+04  0.27126691215E+04 0.  0.
        4    1    3    3  502    0  0.85218424073E+03 -0.10970886871E+03  0.40429775852E+03  0.94958533396E+03  0.12699999809E+01 0. -1.
       -4    1    3    3    0  502 -0.85218424073E+03  0.10970886871E+03 -0.20511722100E+04  0.22238621954E+04  0.12699999809E+01 0.  1.
</event>
<event>
 5   0  0.1232559E-05  0.2694677E+04  0.7818609E-02  0.8336734E-01
        2   -1    0    0  501    0  0.00000000000E+00  0.00000000000E+00  0.15453636973E+04  0.15453636973E+04  0.25500000920E-02 0.  1.
       -2   -1    0    0    0  501  0.00000000000E+00  0.00000000000E+00 -0.11746885404E+04  0.11746885404E+04  0.25500000920E-02 0. -1.
    10030    2    1    2    0    0  0.00000000000E+00  0.00000000000E+00  0.37067515699E+03  0.27200522377E+04  0.26946769944E+04 0.  0.
        3    1    3    3  502    0  0.24570997208E+03 -0.69517948435E+03  0.13236416101E+04  0.15151485168E+04  0.10100000352E+00 0.  1.
       -3    1    3    3    0  502 -0.24570997208E+03  0.69517948435E+03 -0.95296645307E+03  0.12049037209E+04  0.10100000352E+00 0. -1.
</event>
<event>
 5   0  0.1261364E-05  0.2651097E+04  0.7818609E-02  0.8351049E-01
       -2   -1    0    0    0  501  0.00000000000E+00  0.00000000000E+00  0.66070240280E+03  0.66070240281E+03  0.25500000920E-02 0.  1.
        2   -1    0    0  501    0  0.00000000000E+00  0.00000000000E+00 -0.26594113275E+04  0.26594113275E+04  0.25500000920E-02 0. -1.
    10030    2    1    2    0    0  0.00000000000E+00  0.00000000000E+00 -0.19987089247E+04  0.33201137303E+04  0.26510974740E+04 0.  0.
        5    1    3    3  502    0  0.17399925669E+03 -0.79047076036E+03  0.31528227932E+03  0.86864536490E+03  0.46999998093E+01 0.  1.
       -5    1    3    3    0  502 -0.17399925669E+03  0.79047076036E+03 -0.23139912040E+04  0.24514683654E+04  0.46999998093E+01 0. -1.
</event>
<event>
 5   0  0.1276517E-05  0.2699513E+04  0.7818609E-02  0.8335163E-01
       -2   -1    0    0    0  501  0.00000000000E+00  0.00000000000E+00  0.93108213043E+03  0.93108213043E+03  0.25500000920E-02 0. -1.
        2   -1    0    0  501    0  0.00000000000E+00  0.00000000000E+00 -0.19566937093E+04  0.19566937093E+04  0.25500000920E-02 0.  1.
    10030    2    1    2    0    0  0.00000000000E+00  0.00000000000E+00 -0.10256115788E+04  0.28877758397E+04  0.26995129542E+04 0.  0.
        1    1    3    3  502    0 -0.66291228982E+03  0.66898958584E+03 -0.15471077579E+04  0.18112267071E+04  0.50400001928E-02 0.  1.
       -1    1    3    3    0  502  0.66291228982E+03 -0.66898958584E+03  0.52149617911E+03  0.10765491326E+04  0.50400001928E-02 0. -1.
</event>
<event>
 5   0  0.4188000E-06  0.2705137E+04  0.7818609E-02  0.8333340E-01
        3   -1    0    0  501    0  0.00000000000E+00  0.00000000000E+00  0.10523816076E+04  0.10523816125E+04  0.10100000352E+00 0. -1.
       -3   -1    0    0    0  501  0.00000000000E+00  0.00000000000E+00 -0.17383826341E+04  0.17383826370E+04  0.10100000352E+00 0.  1.
    10030    2    1    2    0    0  0.00000000000E+00  0.00000000000E+00 -0.68600102648E+03  0.27907642495E+04  0.27051372771E+04 0.  0.
        5    1    3    3  502    0 -0.12319891212E+04 -0.46160317454E+03 -0.66685615105E+03  0.14749894581E+04  0.46999998093E+01 0.  1.
       -5    1    3    3    0  502  0.12319891212E+04  0.46160317454E+03 -0.19144875431E+02  0.13157747914E+04  0.46999998093E+01 0. -1.
</event>
<event>
 5   0  0.1276517E-05  0.2678090E+04  0.7818609E-02  0.8342149E-01
       -2   -1    0    0    0  501  0.00000000000E+00  0.00000000000E+00  0.21996780871E+04  0.21996780871E+04  0.25500000920E-02 0.  1.
        2   -1    0    0  501    0  0.00000000000E+00  0.00000000000E+00 -0.81513796109E+03  0.81513796109E+03  0.25500000920E-02 0. -1.
    10030    2    1    2    0    0  0.00000000000E+00  0.00000000000E+00  0.13845401260E+04  0.30148160482E+04  0.26780897005E+04 0.  0.
        1    1    3    3  502    0  0.40224745752E+03 -0.37727775726E+03  0.20658957512E+04  0.21382391770E+04  0.50400001928E-02 0.  1.
       -1    1    3    3    0  502 -0.40224745752E+03  0.37727775726E+03 -0.68135562516E+03  0.87657687122E+03  0.50400001928E-02 0. -1.
</event>
<event>
 5   0  0.4846214E-06  0.2705039E+04  0.7818609E-02  0.8333372E-01
        1   -1    0    0  501    0  0.00000000000E+00  0.00000000000E+00  0.12657905131E+04  0.12657905131E+04  0.50400001928E-02 0.  1.
       -1   -1    0    0    0  501  0.00000000000E+00  0.00000000000E+00 -0.14451914665E+04  0.14451914665E+04  0.50400001928E-02 0. -1.
    10030    2    1    2    0    0  0.00000000000E+00  0.00000000000E+00 -0.17940095335E+03  0.27109819796E+04  0.27050394806E+04 0.  0.
        2    1    3    3  502    0 -0.53204071578E+02  0.11532594323E+04  0.61645487132E+03  0.13087607114E+04  0.25500000920E-02 0.  1.
       -2    1    3    3    0  502  0.53204071578E+02 -0.11532594323E+04 -0.79585582467E+03  0.14022212682E+04  0.25500000920E-02 0. -1.
</event>
<event>
 5   0  0.1232559E-05  0.2740486E+04  0.7818609E-02  0.8321987E-01
        2   -1    0    0  501    0  0.00000000000E+00  0.00000000000E+00  0.16463775650E+04  0.16463775650E+04  0.25500000920E-02 0.  1.
       -2   -1    0    0    0  501  0.00000000000E+00  0.00000000000E+00 -0.11404228309E+04  0.11404228309E+04  0.25500000920E-02 0. -1.
    10030    2    1    2    0    0  0.00000000000E+00  0.00000000000E+00  0.50595473409E+03  0.27868003959E+04  0.27404864995E+04 0.  0.
        3    1    3    3  502    0  0.30547168265E+03  0.77008338221E+03 -0.85690034620E+03  0.11918974696E+04  0.10100000352E+00 0. -1.
       -3    1    3    3    0  502 -0.30547168265E+03 -0.77008338221E+03  0.13628550803E+04  0.15949029264E+04  0.10100000352E+00 0.  1.
</event>
<event>
 5   0  0.4756800E-06  0.2696490E+04  0.7818609E-02  0.8336145E-01
       -1   -1    0    0    0  501  0.00000000000E+00  0.00000000000E+00  0.10781629784E+04  0.10781629784E+04  0.50400001928E-02 0.  1.
        1   -1    0    0  501    0  0.00000000000E+00  0.00000000000E+00 -0.16859832305E+04  0.16859832305E+04  0.50400001928E-02 0. -1.
    10030    2    1    2    0    0  0.00000000000E+00  0.00000000000E+00 -0.60782025212E+03  0.27641462088E+04  0.26964900899E+04 0.  0.
        4    1    3    3  502    0 -0.43010964814E+03  0.26211277382E+03 -0.15859149960E+04  0.16639787868E+04  0.12699999809E+01 0. -1.
       -4    1    3    3    0  502  0.43010964814E+03 -0.26211277382E+03  0.97809474385E+03  0.11001674220E+04  0.12699999809E+01 0.  1.
</event>
<event>
 5   0  0.4826140E-06  0.2666690E+04  0.7818609E-02  0.8345894E-01
        1   -1    0    0  501    0  0.00000000000E+00  0.00000000000E+00  0.15010862770E+04  0.15010862770E+04  0.50400001928E-02 0. -1.
       -1   -1    0    0    0  501  0.00000000000E+00  0.00000000000E+00 -0.11843485323E+04  0.11843485323E+04  0.50400001928E-02 0.  1.
    10030    2    1    2    0    0  0.00000000000E+00  0.00000000000E+00  0.31673774472E+03  0.26854348094E+04  0.26666903301E+04 0.  0.
        1    1    3    3  502    0 -0.32923678510E+03 -0.94621858883E+03  0.10443730119E+04  0.14472185275E+04  0.50400001928E-02 0. -1.
       -1    1    3    3    0  502  0.32923678510E+03  0.94621858883E+03 -0.72763526716E+03  0.12382162818E+04  0.50400001928E-02 0.  1.
</event>
<event>
 5   0  0.4824715E-06  0.2176487E+04  0.7818609E-02  0.8528279E-01
       -1   -1    0    0    0  501  0.00000000000E+00  0.00000000000E+00  0.71514755763E+03  0.71514755765E+03  0.50400001928E-02 0. -1.
        1   -1    0    0  501    0  0.00000000000E+00  0.00000000000E+00 -0.16559860099E+04  0.16559860099E+04  0.50400001928E-02 0.  1.
    10030    2    1    2    0    0  0.00000000000E+00  0.00000000000E+00 -0.94083845230E+03  0.23711335676E+04  0.21764873999E+04 0.  0.
        5    1    3    3  502    0 -0.90801505368E+03  0.59892584094E+01 -0.11238283633E+04  0.14448319934E+04  0.46999998093E+01 0.  1.
       -5    1    3    3    0  502  0.90801505368E+03 -0.59892584094E+01  0.18298991097E+03  0.92630157424E+03  0.46999998093E+01 0. -1.
</event>
<event>
 5   0  0.1286641E-05  0.2710323E+04  0.7818609E-02  0.8331663E-01
        2   -1    0    0  501    0  0.00000000000E+00  0.00000000000E+00  0.13867171920E+04  0.13867171920E+04  0.25500000920E-02 0. -1.
       -2   -1    0    0    0  501  0.00000000000E+00  0.00000000000E+00 -0.13243234807E+04  0.13243234807E+04  0.25500000920E-02 0.  1.
    10030    2    1    2    0    0  0.00000000000E+00  0.00000000000E+00  0.62393711306E+02  0.27110406728E+04  0.27103225923E+04 0.  0.
        4    1    3    3  502    0 -0.95480401150E+03 -0.84566972578E+03 -0.42680275870E+03  0.13449796256E+04  0.12699999809E+01 0. -1.
       -4    1    3    3    0  502  0.95480401150E+03  0.84566972578E+03  0.48919647000E+03  0.13660610472E+04  0.12699999809E+01 0.  1.
</event>
<event>
 5   0  0.4846214E-06  0.2740431E+04  0.7818609E-02  0.8322004E-01
       -1   -1    0    0    0  501  0.00000000000E+00  0.00000000000E+00  0.10019834741E+04  0.10019834741E+04  0.50400001928E-02 0.  1.
        1   -1    0    0  501    0  0.00000000000E+00  0.00000000000E+00 -0.18737743534E+04  0.18737743534E+04  0.50400001928E-02 0. -1.
    10030    2    1    2    0    0  0.00000000000E+00  0.00000000000E+00 -0.87179087928E+03  0.28757578275E+04  0.27404313064E+04 0.  0.
        2    1    3    3  502    0 -0.32627718284E+03 -0.37261552833E+03 -0.17765564732E+04  0.18443025876E+04  0.25500000920E-02 0. -1.
       -2    1    3    3    0  502  0.32627718284E+03  0.37261552833E+03  0.90476559392E+03  0.10314552399E+04  0.25500000920E-02 0.  1.
</event>
<event>
 5   0  0.1220908E-05  0.2699763E+04  0.7818609E-02  0.8335082E-01
       -2   -1    0    0    0  501  0.00000000000E+00  0.00000000000E+00  0.15025399131E+04  0.15025399131E+04  0.25500000920E-02 0.  1.
        2   -1    0    0  501    0  0.00000000000E+00  0.00000000000E+00 -0.12127332512E+04  0.12127332512E+04  0.25500000920E-02 0. -1.
    10030    2    1    2    0    0  0.00000000000E+00  0.00000000000E+00  0.28980666187E+03  0.27152731643E+04  0.26997630369E+04 0.  0.
        2    1    3    3  502    0 -0.10584907186E+04 -0.54316424170E+03 -0.49653029719E+03  0.12891750582E+04  0.25500000920E-02 0.  1.
       -2    1    3    3    0  502  0.10584907186E+04  0.54316424170E+03  0.78633695906E+03  0.14260981060E+04  0.25500000920E-02 0. -1.
</event>
<event>
 5   0  0.1276517E-05  0.2704761E+04  0.7818609E-02  0.8333462E-01
        2   -1    0    0  501    0  0.00000000000E+00  0.00000000000E+00  0.14779208917E+04  0.14779208917E+04  0.25500000920E-02 0. -1.
       -2   -1    0    0    0  501  0.00000000000E+00  0.00000000000E+00 -0.12375042040E+04  0.12375042040E+04  0.25500000920E-02 0.  1.
    10030    2    1    2    0    0  0.00000000000E+00  0.00000000000E+00  0.24041668769E+03  0.27154250957E+04  0.27047612217E+04 0.  0.
        1    1    3    3  502    0  0.67662741926E+03 -0.71420858789E+03  0.10517755475E+04  0.14401910894E+04  0.50400001928E-02 0. -1.
       -1    1    3    3    0  502 -0.67662741926E+03  0.71420858789E+03 -0.81135885980E+03  0.12752340063E+04  0.50400001928E-02 0.  1.
</event>
<event>
 5   0  0.1261364E-05  0.2698201E+04  0.7818609E-02  0.8335589E-01
        2   -1    0    0  501    0  0.00000000000E+00  0.00000000000E+00  0.17210591975E+04  0.17210591975E+04  0.25500000920E-02 0.  1.
       -2   -1    0    0    0  501  0.00000000000E+00  0.00000000000E+00 -0.10575302844E+04  0.10575302844E+04  0.25500000920E-02 0. -1.
    10030    2    1    2    0    0  0.00000000000E+00  0.00000000000E+00  0.66352891304E+03  0.27785894819E+04  0.26982010471E+04 0.  0.
        5    1    3    3  502    0 -0.13242529731E+04 -0.25766675696E+03  0.33533741835E+03  0.13901479665E+04  0.46999998093E+01 0.  1.
       -5    1    3    3    0  502  0.13242529731E+04  0.25766675696E+03  0.32819149469E+03  0.13884415154E+04  0.46999998093E+01 0. -1.
</event>
<event>
 5   0  0.4846214E-06  0.2690254E+04  0.7818609E-02  0.8338174E-01
       -1   -1    0    0    0  501  0.00000000000E+00  0.00000000000E+00  0.56844696269E+03  0.56844696271E+03  0.50400001928E-02 0. -1.
        1   -1    0    0  501    0  0.00000000000E+00  0.00000000000E+00 -0.31829997075E+04  0.31829997075E+04  0.50400001928E-02 0.  1.
    10030    2    1    2    0    0  0.00000000000E+00  0.00000000000E+00 -0.26145527448E+04  0.37514466702E+04  0.26902539033E+04 0.  0.
        2    1    3    3  502    0  0.47906875433E+03  0.10834504699E+04 -0.21957932907E+04  0.24949709353E+04  0.25500000920E-02 0.  1.
       -2    1    3    3    0  502 -0.47906875433E+03 -0.10834504699E+04 -0.41875945408E+03  0.12564757350E+04  0.25500000920E-02 0. -1.
</event>
<event>
 5   0  0.4756800E-06  0.2715063E+04  0.7818609E-02  0.8330134E-01
        1   -1    0    0  501    0  0.00000000000E+00  0.00000000000E+00  0.12612224486E+04  0.12612224486E+04  0.50400001928E-02 0. -1.
       -1   -1    0    0    0  501  0.00000000000E+00  0.00000000000E+00 -0.14611951940E+04  0.14611951940E+04  0.50400001928E-02 0.  1.
    10030    2    1    2    0    0  0.00000000000E+00  0.00000000000E+00 -0.19997274534E+03  0.27224176426E+04  0.27150632998E+04 0.  0.
        4    1    3    3  502    0  0.39724385331E+03 -0.12781316226E+04 -0.32746525803E+03  0.13779180787E+04  0.12699999809E+01 0.  1.
       -4    1    3    3    0  502 -0.39724385331E+03  0.12781316226E+04  0.12749251269E+03  0.13444995639E+04  0.12699999809E+01 0. -1.
</event>
<event>
 5   0  0.1286641E-05  0.2686365E+04  0.7818609E-02  0.8339443E-01
        2   -1    0    0  501    0  0.00000000000E+00  0.00000000000E+00  0.13890746029E+04  0.13890746029E+04  0.25500000920E-02 0. -1.
       -2   -1    0    0    0  501  0.00000000000E+00  0.00000000000E+00 -0.12988061818E+04  0.12988061818E+04  0.25500000920E-02 0.  1.
    10030    2    1    2    0    0  0.00000000000E+00  0.00000000000E+00  0.90268421059E+02  0.26878807847E+04  0.26863645927E+04 0.  0.
        4    1    3    3  502    0 -0.69205870091E+02 -0.10942693900E+04  0.82140849385E+03  0.13700103930E+04  0.12699999809E+01 0.  1.
       -4    1    3    3    0  502  0.69205870091E+02  0.10942693900E+04 -0.73114007279E+03  0.13178703917E+04  0.12699999809E+01 0. -1.
</event>
<event>
 5   0  0.1232559E-05  0.2671013E+04  0.7818609E-02  0.8344472E-01
        2   -1    0    0  501    0  0.00000000000E+00  0.00000000000E+00  0.19318621028E+04  0.19318621028E+04  0.25500000920E-02 0. -1.
       -2   -1    0    0    0  501  0.00000000000E+00  0.00000000000E+00 -0.92324294697E+03  0.92324294698E+03  0.25500000920E-02 0.  1.
    10030    2    1    2    0    0  0.00000000000E+00  0.00000000000E+00  0.10086191559E+04  0.28551050498E+04  0.26710133365E+04 0.  0.
        3    1    3    3  502    0  0.22827848984E+03 -0.11661070402E+04  0.11559675870E+04  0.16577628813E+04  0.10100000352E+00 0. -1.
       -3    1    3    3    0  502 -0.22827848984E+03  0.11661070402E+04 -0.14734843110E+03  0.11973421685E+04  0.10100000352E+00 0.  1.
</event>
<event>
 5   0  0.4826140E-06  0.2708706E+04  0.7818609E-02  0.8332186E-01
       -1   -1    0    0    0  501  0.00000000000E+00  0.00000000000E+00  0.12815584689E+04  0.12815584689E+04  0.50400001928E-02 0.  1.
        1   -1    0    0  501    0  0.00000000000E+00  0.00000000000E+00 -0.14312821605E+04  0.14312821605E+04  0.50400001928E-02 0. -1.
    10030    2    1    2    0    0  0.00000000000E+00  0.00000000000E+00 -0.14972369166E+03  0.27128406294E+04  0.27087057974E+04 0.  0.
        1    1    3    3  502    0 -0.38423470546E+03  0.73576043737E+03 -0.11466786600E+04  0.14155746817E+04  0.50400001928E-02 0. -1.
       -1    1    3    3    0  502  0.38423470546E+03 -0.73576043737E+03  0.99695496836E+03  0.12972659477E+04  0.50400001928E-02 0.  1.
</event>
<event>
 5   0  0.5152288E-06  0.2726454E+04  0.7818609E-02  0.8326472E-01
       -1   -1    0    0    0  501  0.00000000000E+00  0.00000000000E+00  0.16768126178E+04  0.16768126178E+04  0.50400001928E-02 0. -1.
        1   -1    0    0  501    0  0.00000000000E+00  0.00000000000E+00 -0.11082857183E+04  0.11082857183E+04  0.50400001928E-02 0.  1.
    10030    2    1    2    0    0  0.00000000000E+00  0.00000000000E+00  0.56852689949E+03  0.27850983361E+04  0.27264537235E+04 0.  0.
        3    1    3    3  502    0  0.12557945059E+02 -0.10719256585E+04  0.11445207020E+04  0.15681549562E+04  0.10100000352E+00 0. -1.
       -3    1    3    3    0  502 -0.12557945059E+02  0.10719256585E+04 -0.57599380248E+03  0.12169433799E+04  0.10100000352E+00 0.  1.
</event>
<event>
 5   0  0.4846214E-06  0.2707250E+04  0.7818609E-02  0.8332656E-01
        1   -1    0    0  501    0  0.00000000000E+00  0.00000000000E+00  0.25151034228E+04  0.25151034229E+04  0.50400001928E-02 0. -1.
       -1   -1    0    0    0  501  0.00000000000E+00  0.00000000000E+00 -0.72851897964E+03  0.72851897966E+03  0.50400001928E-02 0.  1.
    10030    2    1    2    0    0  0.00000000000E+00  0.00000000000E+00  0.17865844432E+04  0.32436224025E+04  0.27072499547E+04 0.  0.
        2    1    3    3  502    0 -0.72992573527E+03  0.20582673235E+03  0.22366587132E+04  0.23617363151E+04  0.25500000920E-02 0. -1.
       -2    1    3    3    0  502  0.72992573527E+03 -0.20582673235E+03 -0.45007426995E+03  0.88188608745E+03  0.25500000920E-02 0.  1.
</event>
<event>
 5   0  0.4846214E-06  0.2637496E+04  0.7818609E-02  0.8355575E-01
       -1   -1    0    0    0  501  0.00000000000E+00  0.00000000000E+00  0.97694021528E+03  0.97694021529E+03  0.50400001928E-02 0.  1.
        1   -1    0    0  501    0  0.00000000000E+00  0.00000000000E+00 -0.17801455074E+04  0.17801455074E+04  0.50400001928E-02 0. -1.
    10030    2    1    2    0    0  0.00000000000E+00  0.00000000000E+00 -0.80320529208E+03  0.27570857227E+04  0.26374955812E+04 0.  0.
        2    1    3    3  502    0 -0.30990869079E+03 -0.12821707950E+03 -0.17348189332E+04  0.17669407876E+04  0.25500000920E-02 0. -1.
       -2    1    3    3    0  502  0.30990869079E+03  0.12821707950E+03  0.93161364109E+03  0.99014493503E+03  0.25500000920E-02 0.  1.
</event>
<event>
 5   0  0.1261364E-05  0.2716984E+04  0.7818609E-02  0.8329515E-01
       -2   -1    0    0    0  501  0.00000000000E+00  0.00000000000E+00  0.15101790313E+04  0.15101790313E+04  0.25500000920E-02 0.  1.
        2   -1    0    0  501    0  0.00000000000E+00  0.00000000000E+00 -0.12220412895E+04  0.12220412896E+04  0.25500000920E-02 0. -1.
    10030    2    1    2    0    0  0.00000000000E+00  0.00000000000E+00  0.28813774176E+03  0.27322203209E+04  0.27169844540E+04 0.  0.
        5    1    3    3  502    0  0.12598880383E+04 -0.36912735604E+03  0.49517741783E+03  0.14031377834E+04  0.46999998093E+01 0. -1.
       -5    1    3    3    0  502 -0.12598880383E+04  0.36912735604E+03 -0.20703967608E+03  0.13290825375E+04  0.46999998093E+01 0.  1.
</event>
<event>
 5   0  0.4824715E-06  0.2662600E+04  0.7818609E-02  0.8347243E-01
        1   -1    0    0  501    0  0.00000000000E+00  0.00000000000E+00  0.15860393998E+04  0.15860393998E+04  0.50400001928E-02 0.  1.
       -1   -1    0    0    0  501  0.00000000000E+00  0.00000000000E+00 -0.11174756072E+04  0.11174756072E+04  0.50400001928E-02 0. -1.
    10030    2    1    2    0    0  0.00000000000E+00  0.00000000000E+00  0.46856379261E+03  0.27035150070E+04  0.26626004892E+04 0.  0.
        5    1    3    3  502    0 -0.20247290991E+03 -0.28883162105E+03 -0.10691571984E+04  0.11258499853E+04  0.46999998093E+01 0. -1.
       -5    1    3    3    0  502  0.20247290991E+03  0.28883162105E+03  0.15377209910E+04  0.15776650217E+04  0.46999998093E+01 0.  1.
</event>
<event>
 5   0  0.5152288E-06  0.2699731E+04  0.7818609E-02  0.8335092E-01
        1   -1    0    0  501    0  0.00000000000E+00  0.00000000000E+00  0.15046456161E+04  0.15046456161E+04  0.50400001928E-02 0.  1.
       -1   -1    0    0    0  501  0.00000000000E+00  0.00000000000E+00 -0.12110077753E+04  0.12110077753E+04  0.50400001928E-02 0. -1.
    10030    2    1    2    0    0  0.00000000000E+00  0.00000000000E+00  0.29363784080E+03  0.27156533915E+04  0.26997314980E+04 0.  0.
        3    1    3    3  502    0  0.12153901512E+04 -0.52776455780E+03 -0.11243912175E+03  0.13297936736E+04  0.10100000352E+00 0. -1.
       -3    1    3    3    0  502 -0.12153901512E+04  0.52776455780E+03  0.40607696255E+03  0.13858597179E+04  0.10100000352E+00 0.  1.
</event>
<event>
 5   0  0.4824715E-06  0.2768576E+04  0.7818609E-02  0.8313091E-01
        1   -1    0    0  501    0  0.00000000000E+00  0.00000000000E+00  0.15469889072E+04  0.15469889072E+04  0.50400001928E-02 0.  1.
       -1   -1    0    0    0  501  0.00000000000E+00  0.00000000000E+00 -0.12386990670E+04  0.12386990670E+04  0.50400001928E-02 0. -1.
    10030    2    1    2    0    0  0.00000000000E+00  0.00000000000E+00  0.30828984014E+03  0.27856879742E+04  0.27685763244E+04 0.  0.
        5    1    3    3  502    0  0.34456721149E+03 -0.26433487508E+03  0.14766629627E+04  0.15392059916E+04  0.46999998093E+01 0.  1.
       -5    1    3    3    0  502 -0.34456721149E+03  0.26433487508E+03 -0.11683731225E+04  0.12464819826E+04  0.46999998093E+01 0. -1.
</event>
<event>
 5   0  0.4826140E-06  0.2646491E+04  0.7818609E-02  0.8352579E-01
       -1   -1    0    0    0  501  0.00000000000E+00  0.00000000000E+00  0.15333032075E+04  0.15333032075E+04  0.50400001928E-02 0. -1.
        1   -1    0    0  501    0  0.00000000000E+00  0.00000000000E+00 -0.11419647810E+04  0.11419647810E+04  0.50400001928E-02 0.  1.
    10030    2    1    2    0    0  0.00000000000E+00  0.00000000000E+00  0.39133842654E+03  0.26752679885E+04  0.26464907040E+04 0.  0.
        1    1    3    3  502    0 -0.93945053947E+03 -0.71210313526E+03  0.80330446736E+03  0.14265189304E+04  0.50400001928E-02 0. -1.
       -1    1    3    3    0  502  0.93945053947E+03  0.71210313526E+03 -0.41196604082E+03  0.12487490581E+04  0.50400001928E-02 0.  1.
</event>
<event>
 5   0  0.1220908E-05  0.2672013E+04  0.7818609E-02  0.8344143E-01
       -2   -1    0    0    0  501  0.00000000000E+00  0.00000000000E+00  0.69828924557E+03  0.69828924557E+03  0.25500000920E-02 0. -1.
        2   -1    0    0  501    0  0.00000000000E+00  0.00000000000E+00 -0.25561227456E+04  0.25561227456E+04  0.25500000920E-02 0.  1.
    10030    2    1    2    0    0  0.00000000000E+00  0.00000000000E+00 -0.18578335000E+04  0.32544119912E+04  0.26720127422E+04 0.  0.
        2    1    3    3  502    0 -0.12785778433E+04  0.20191535290E+03 -0.52610070321E+03  0.13972519676E+04  0.25500000920E-02 0. -1.
       -2    1    3    3    0  502  0.12785778433E+04 -0.20191535290E+03 -0.13317327968E+04  0.18571600236E+04  0.25500000920E-02 0.  1.
</event>
<event>
 5   0  0.1276517E-05  0.2674585E+04  0.7818609E-02  0.8343299E-01
        2   -1    0    0  501    0  0.00000000000E+00  0.00000000000E+00  0.10070727281E+04  0.10070727281E+04  0.25500000920E-02 0.  1.
       -2   -1    0    0    0  501  0.00000000000E+00  0.00000000000E+00 -0.17757911750E+04  0.17757911750E+04  0.25500000920E-02 0. -1.
    10030    2    1    2    0    0  0.00000000000E+00  0.00000000000E+00 -0.76871844697E+03  0.27828639031E+04  0.26745847252E+04 0.  0.
        1    1    3    3  502    0 -0.83237958486E+03 -0.93931955914E+03  0.96040310727E+02  0.12587298156E+04  0.50400001928E-02 0. -1.
       -1    1    3    3    0  502  0.83237958486E+03  0.93931955914E+03 -0.86475875770E+03  0.15241340874E+04  0.50400001928E-02 0.  1.
</event>
<event>
 5   0  0.4824715E-06  0.2435204E+04  0.7818609E-02  0.8426440E-01
        1   -1    0    0  501    0  0.00000000000E+00  0.00000000000E+00  0.16303882170E+04  0.16303882171E+04  0.50400001928E-02 0. -1.
       -1   -1    0    0    0  501  0.00000000000E+00  0.00000000000E+00 -0.90932578109E+03  0.90932578110E+03  0.50400001928E-02 0.  1.
    10030    2    1    2    0    0  0.00000000000E+00  0.00000000000E+00  0.72106243595E+03  0.25397139982E+04  0.24352035143E+04 0.  0.
        5    1    3    3  502    0 -0.32333583049E+03  0.10704955867E+04 -0.14183106384E+03  0.11272289036E+04  0.46999998093E+01 0.  1.
       -5    1    3    3    0  502  0.32333583049E+03 -0.10704955867E+04  0.86289349979E+03  0.14124850946E+04  0.46999998093E+01 0. -1.
</event>
<event>
 5   0  0.4846214E-06  0.2698108E+04  0.7818609E-02  0.8335619E-01
       -1   -1    0    0    0  501  0.00000000000E+00  0.00000000000E+00  0.13521428136E+04  0.13521428136E+04  0.50400001928E-02 0. -1.
        1   -1    0    0  501    0  0.00000000000E+00  0.00000000000E+00 -0.13459723304E+04  0.13459723305E+04  0.50400001928E-02 0.  1.
    10030    2    1    2    0    0  0.00000000000E+00  0.00000000000E+00  0.61704831730E+01  0.26981151441E+04  0.26981080883E+04 0.  0.
        2    1    3    3  502    0  0.70465163889E+02 -0.10767410734E+04  0.81278491712E+03  0.13509093233E+04  0.25500000920E-02 0. -1.
       -2    1    3    3    0  502 -0.70465163889E+02  0.10767410734E+04 -0.80661443395E+03  0.13472058207E+04  0.25500000920E-02 0.  1.
</event>
<event>
 5   0  0.5152288E-06  0.2678312E+04  0.7818609E-02  0.8342076E-01
       -1   -1    0    0    0  501  0.00000000000E+00  0.00000000000E+00  0.90065583389E+03  0.90065583390E+03  0.50400001928E-02 0.  1.
        1   -1    0    0  501    0  0.00000000000E+00  0.00000000000E+00 -0.19911481902E+04  0.19911481902E+04  0.50400001928E-02 0. -1.
    10030    2    1    2    0    0  0.00000000000E+00  0.00000000000E+00 -0.10904923563E+04  0.28918040241E+04  0.26783123296E+04 0.  0.
        3    1    3    3  502    0  0.27669228055E+03  0.93940520170E+03  0.44096145893E+03  0.10740054793E+04  0.10100000352E+00 0.  1.
       -3    1    3    3    0  502 -0.27669228055E+03 -0.93940520170E+03 -0.15314538153E+04  0.18177985448E+04  0.10100000352E+00 0. -1.
</event>
<event>
 5   0  0.1220908E-05  0.2692805E+04  0.7818609E-02  0.8337343E-01
       -2   -1    0    0    0  501  0.00000000000E+00  0.00000000000E+00  0.99056795014E+03  0.99056795014E+03  0.25500000920E-02 0. -1.
        2   -1    0    0  501    0  0.00000000000E+00  0.00000000000E+00 -0.18300603519E+04  0.18300603519E+04  0.25500000920E-02 0.  1.
    10030    2    1    2    0    0  0.00000000000E+00  0.00000000000E+00 -0.83949240175E+03  0.28206283020E+04  0.26928045836E+04 0.  0.
        2    1    3    3  502    0  0.65457204313E+03 -0.36090981926E+03  0.75326838588E+03  0.10611944772E+04  0.25500000920E-02 0. -1.
       -2    1    3    3    0  502 -0.65457204313E+03  0.36090981926E+03 -0.15927607876E+04  0.17594338248E+04  0.25500000920E-02 0.  1.
</event>
<event>
 5   0  0.1276517E-05  0.2669652E+04  0.7818609E-02  0.8344919E-01
        2   -1    0    0  501    0  0.00000000000E+00  0.00000000000E+00  0.11700907669E+04  0.11700907669E+04  0.25500000920E-02 0.  1.
       -2   -1    0    0    0  501  0.00000000000E+00  0.00000000000E+00 -0.15227545043E+04  0.15227545043E+04  0.25500000920E-02 0. -1.
    10030    2    1    2    0    0  0.00000000000E+00  0.00000000000E+00 -0.35266373743E+03  0.26928452711E+04  0.26696524011E+04 0.  0.
        1    1    3    3  502    0 -0.12746748909E+03 -0.34914131820E+03 -0.14695045269E+04  0.15157807148E+04  0.50400001928E-02 0. -1.
       -1    1    3    3    0  502  0.12746748909E+03  0.34914131820E+03  0.11168407894E+04  0.11770645563E+04  0.50400001928E-02 0.  1.
</event>
<event>
 5   0  0.4826140E-06  0.2643779E+04  0.7818609E-02  0.8353481E-01
       -1   -1    0    0    0  501  0.00000000000E+00  0.00000000000E+00  0.83628190491E+03  0.83628190493E+03  0.50400001928E-02 0.  1.
        1   -1    0    0  501    0  0.00000000000E+00  0.00000000000E+00 -0.20894775807E+04  0.20894775807E+04  0.50400001928E-02 0. -1.
    10030    2    1    2    0    0  0.00000000000E+00  0.00000000000E+00 -0.12531956758E+04  0.29257594856E+04  0.26437793338E+04 0.  0.
        1    1    3    3  502    0 -0.12477268934E+04  0.20268634370E+03 -0.19872296489E+03  0.12796073504E+04  0.50400001928E-02 0.  1.
       -1    1    3    3    0  502  0.12477268934E+04 -0.20268634370E+03 -0.10544727109E+04  0.16461521353E+04  0.50400001928E-02 0. -1.
</event>
<event>
 5   0  0.1220908E-05  0.2650870E+04  0.7818609E-02  0.8351124E-01
        2   -1    0    0  501    0  0.00000000000E+00  0.00000000000E+00  0.17271143056E+04  0.17271143056E+04  0.25500000920E-02 0. -1.
       -2   -1    0    0    0  501  0.00000000000E+00  0.00000000000E+00 -0.10171754170E+04  0.10171754170E+04  0.25500000920E-02 0.  1.
    10030    2    1    2    0    0  0.00000000000E+00  0.00000000000E+00  0.70993888863E+03  0.27442897226E+04  0.26508702073E+04 0.  0.
        2    1    3    3  502    0  0.81836985505E+03 -0.15074347731E+03  0.14229877782E+04  0.16484377551E+04  0.25500000920E-02 0. -1.
       -2    1    3    3    0  502 -0.81836985505E+03  0.15074347731E+03 -0.71304888959E+03  0.10958519674E+04  0.25500000920E-02 0.  1.
</event>
<event>
 5   0  0.4756800E-06  0.2724642E+04  0.7818609E-02  0.8327054E-01
       -1   -1    0    0    0  501  0.00000000000E+00  0.00000000000E+00  0.91166596944E+03  0.91166596946E+03  0.50400001928E-02 0. -1.
        1   -1    0    0  501    0  0.00000000000E+00  0.00000000000E+00 -0.20357440970E+04  0.20357440970E+04  0.50400001928E-02 0.  1.
    10030    2    1    2    0    0  0.00000000000E+00  0.00000000000E+00 -0.11240781276E+04  0.29474100665E+04  0.27246420798E+04 0.  0.
        4    1    3    3  502    0 -0.47587177879E+03 -0.41710106778E+03 -0.18671146901E+04  0.19714325069E+04  0.12699999809E+01 0.  1.
       -4    1    3    3    0  502  0.47587177879E+03  0.41710106778E+03  0.74303656251E+03  0.97597755954E+03  0.12699999809E+01 0. -1.
</event>
<event>
 5   0  0.5152288E-06  0.2737736E+04  0.7818609E-02  0.8322864E-01
        1   -1    0    0  501    0  0.00000000000E+00  0.00000000000E+00  0.11983607398E+04  0.11983607398E+04  0.50400001928E-02 0.  1.
       -1   -1    0    0    0  501  0.00000000000E+00  0.00000000000E+00 -0.15636361903E+04  0.15636361903E+04  0.50400001928E-02 0. -1.
    10030    2    1    2    0    0  0.00000000000E+00  0.00000000000E+00 -0.36527545052E+03  0.27619969300E+04  0.27377364531E+04 0.  0.
        3    1    3    3  502    0  0.90838109990E+03  0.42495295920E+03 -0.11225907890E+04  0.15053077193E+04  0.10100000352E+00 0. -1.
       -3    1    3    3    0  502 -0.90838109990E+03 -0.42495295920E+03  0.75731533848E+03  0.12566892107E+04  0.10100000352E+00 0.  1.
</event>
<event>
 5   0  0.1261364E-05  0.2704906E+04  0.7818609E-02  0.8333415E-01
       -2   -1    0    0    0  501  0.00000000000E+00  0.00000000000E+00  0.96604531025E+03  0.96604531026E+03  0.25500000920E-02 0. -1.
        2   -1    0    0  501    0  0.00000000000E+00  0.00000000000E+00 -0.18934199555E+04  0.18934199555E+04  0.25500000920E-02 0.  1.
    10030    2    1    2    0    0  0.00000000000E+00  0.00000000000E+00 -0.92737464527E+03  0.28594652658E+04  0.27049062597E+04 0.  0.
        5    1    3    3  502    0  0.30030851716E+03 -0.15358702579E+03  0.92085696789E+03  0.98070068078E+03  0.46999998093E+01 0. -1.
       -5    1    3    3    0  502 -0.30030851716E+03  0.15358702579E+03 -0.18482316132E+04  0.18787645850E+04  0.46999998093E+01 0.  1.
</event>
<event>
 5   0  0.1220908E-05  0.2689891E+04  0.7818609E-02  0.8338292E-01
       -2   -1    0    0    0  501  0.00000000000E+00  0.00000000000E+00  0.18384276665E+04  0.18384276665E+04  0.25500000920E-02 0.  1.
        2   -1    0    0  501    0  0.00000000000E+00  0.00000000000E+00 -0.98392685127E+03  0.98392685127E+03  0.25500000920E-02 0. -1.
    10030    2    1    2    0    0  0.00000000000E+00  0.00000000000E+00  0.85450081518E+03  0.28223545177E+04  0.26898909607E+04 0.  0.
        2    1    3    3  502    0 -0.43371920070E+03  0.86692134494E+03  0.14054784114E+04  0.17073472196E+04  0.25500000920E-02 0.  1.
       -2    1    3    3    0  502  0.43371920070E+03 -0.86692134494E+03 -0.55097759620E+03  0.11150072981E+04  0.25500000920E-02 0. -1.
</event>
<event>
 5   0  0.4188000E-06  0.2714723E+04  0.7818609E-02  0.8330244E-01
        3   -1    0    0  501    0  0.00000000000E+00  0.00000000000E+00  0.18543739068E+04  0.18543739096E+04  0.10100000352E+00 0. -1.
       -3   -1    0    0    0  501  0.00000000000E+00  0.00000000000E+00 -0.99355937067E+03  0.99355937581E+03  0.10100000352E+00 0.  1.
    10030    2    1    2    0    0  0.00000000000E+00  0.00000000000E+00  0.86081453614E+03  0.28479332854E+04  0.27147232515E+04 0.  0.
        3    1    3    3  502    0  0.11377860511E+04 -0.47661515554E+03 -0.16369538773E+03  0.12443935450E+04  0.10100000352E+00 0.  1.
       -3    1    3    3    0  502 -0.11377860511E+04  0.47661515554E+03  0.10245099239E+04  0.16035397404E+04  0.10100000352E+00 0. -1.
</event>
<event>
 5   0  0.4824715E-06  0.2718316E+04  0.7818609E-02  0.8329086E-01
        1   -1    0    0  501    0  0.00000000000E+00  0.00000000000E+00  0.19924722115E+04  0.19924722115E+04  0.50400001928E-02 0.  1.
       -1   -1    0    0    0  501  0.00000000000E+00  0.00000000000E+00 -0.92714520150E+03  0.92714520152E+03  0.50400001928E-02 0. -1.
    10030    2    1    2    0    0  0.00000000000E+00  0.00000000000E+00  0.10653270100E+04  0.29196174131E+04  0.27183164276E+04 0.  0.
        5    1    3    3  502    0 -0.78848984488E+03 -0.13742369260E+03  0.17125040976E+04  0.18903158152E+04  0.46999998093E+01 0.  1.
       -5    1    3    3    0  502  0.78848984488E+03  0.13742369260E+03 -0.64717708757E+03  0.10293015979E+04  0.46999998093E+01 0. -1.
</event>
<event>
 5   0  0.4846214E-06  0.2730332E+04  0.7818609E-02  0.8325230E-01
        1   -1    0    0  501    0  0.00000000000E+00  0.00000000000E+00  0.17229933762E+04  0.17229933762E+04  0.50400001928E-02 0. -1.
       -1   -1    0    0    0  501  0.00000000000E+00  0.00000000000E+00 -0.10816517973E+04  0.10816517974E+04  0.50400001928E-02 0.  1.
    10030    2    1    2    0    0  0.00000000000E+00  0.00000000000E+00  0.64134157887E+03  0.28046451736E+04  0.27303324942E+04 0.  0.
        2    1    3    3  502    0  0.89440451079E+03 -0.50494785070E+03  0.12444512266E+04  0.16135645684E+04  0.25500000920E-02 0.  1.
       -2    1    3    3    0  502 -0.89440451079E+03  0.50494785070E+03 -0.60310964776E+03  0.11910806052E+04  0.25500000920E-02 0. -1.
</event>
<event>
 5   0  0.4826140E-06  0.2663953E+04  0.7818609E-02  0.8346797E-01
        1   -1    0    0  501    0  0.00000000000E+00  0.00000000000E+00  0.17102993694E+04  0.17102993694E+04  0.50400001928E-02 0. -1.
       -1   -1    0    0    0  501  0.00000000000E+00  0.00000000000E+00 -0.10373395801E+04  0.10373395801E+04  0.50400001928E-02 0.  1.
    10030    2    1    2    0    0  0.00000000000E+00  0.00000000000E+00  0.67295978927E+03  0.27476389495E+04  0.26639528747E+04 0.  0.
        1    1    3    3  502    0  0.12835836699E+04 -0.71847743205E+02  0.69586833211E+03  0.14618419448E+04  0.50400001928E-02 0. -1.
       -1    1    3    3    0  502 -0.12835836699E+04  0.71847743205E+02 -0.22908542838E+02  0.12857970047E+04  0.50400001928E-02 0.  1.
</event>
<event>
 5   0  0.1220908E-05  0.2690423E+04  0.7818609E-02  0.8338119E-01
        2   -1    0    0  501    0  0.00000000000E+00  0.00000000000E+00  0.15424882541E+04  0.15424882541E+04  0.25500000920E-02 0.  1.
       -2   -1    0    0    0  501  0.00000000000E+00  0.00000000000E+00 -0.11731658015E+04  0.11731658015E+04  0.25500000920E-02 0. -1.
    10030    2    1    2    0    0  0.00000000000E+00  0.00000000000E+00  0.36932245256E+03  0.27156540556E+04  0.26904233636E+04 0.  0.
        2    1    3    3  502    0 -0.13012865999E+04  0.31536811460E+03  0.53867472348E+02  0.13400393903E+04  0.25500000920E-02 0.  1.
       -2    1    3    3    0  502  0.13012865999E+04 -0.31536811460E+03  0.31545498021E+03  0.13756146653E+04  0.25500000920E-02 0. -1.
</event>
<event>
 5   0  0.4826140E-06  0.2717478E+04  0.7818609E-02  0.8329356E-01
       -1   -1    0    0    0  501  0.00000000000E+00  0.00000000000E+00  0.15562491459E+04  0.15562491459E+04  0.50400001928E-02 0.  1.
        1   -1    0    0  501    0  0.00000000000E+00  0.00000000000E+00 -0.11862960929E+04  0.11862960929E+04  0.50400001928E-02 0. -1.
    10030    2    1    2    0    0  0.00000000000E+00  0.00000000000E+00  0.36995305296E+03  0.27425452388E+04  0.27174784499E+04 0.  0.
        1    1    3    3  502    0  0.87928394940E+03  0.86977767224E+03 -0.38281310736E+03  0.12946811723E+04  0.50400001928E-02 0. -1.
       -1    1    3    3    0  502 -0.87928394940E+03 -0.86977767224E+03  0.75276616032E+03  0.14478640665E+04  0.50400001928E-02 0.  1.
</event>
<event>
 5   0  0.1261364E-05  0.2759790E+04  0.7818609E-02  0.8315862E-01
        2   -1    0    0  501    0  0.00000000000E+00  0.00000000000E+00  0.22344487404E+04  0.22344487404E+04  0.25500000920E-02 0. -1.
       -2   -1    0    0    0  501  0.00000000000E+00  0.00000000000E+00 -0.85216133300E+03  0.85216133301E+03  0.25500000920E-02 0.  1.
    10030    2    1    2    0    0  0.00000000000E+00  0.00000000000E+00  0.13822874074E+04  0.30866100734E+04  0.27597904392E+04 0.  0.
        5    1    3    3  502    0  0.10510272484E+04  0.11931708258E+03  0.16821903985E+04  0.19871289515E+04  0.46999998093E+01 0. -1.
       -5    1    3    3    0  502 -0.10510272484E+04 -0.11931708258E+03 -0.29990299118E+03  0.10994811218E+04  0.46999998093E+01 0.  1.
</event>
<event>
 5   0  0.5152288E-06  0.2701786E+04  0.7818609E-02  0.8334426E-01
        1   -1    0    0  501    0  0.00000000000E+00  0.00000000000E+00  0.10084228960E+04  0.10084228960E+04  0.50400001928E-02 0. -1.
       -1   -1    0    0    0  501  0.00000000000E+00  0.00000000000E+00 -0.18096693731E+04  0.18096693731E+04  0.50400001928E-02 0.  1.
    10030    2    1    2    0    0  0.00000000000E+00  0.00000000000E+00 -0.80124647714E+03  0.28180922691E+04  0.27017860981E+04 0.  0.
        3    1    3    3  502    0  0.87804470081E+03  0.59283546280E+03  0.47360747789E+03  0.11604828460E+04  0.10100000352E+00 0. -1.
       -3    1    3    3    0  502 -0.87804470081E+03 -0.59283546280E+03 -0.12748539550E+04  0.16576094231E+04  0.10100000352E+00 0.  1.
</event>
<event>
 5   0  0.4188000E-06  0.2690601E+04  0.7818609E-02  0.8338061E-01
       -3   -1    0    0    0  501  0.00000000000E+00  0.00000000000E+00  0.10296473050E+04  0.10296473100E+04  0.10100000352E+00 0.  1.
        3   -1    0    0  501    0  0.00000000000E+00  0.00000000000E+00 -0.17577223234E+04  0.17577223263E+04  0.10100000352E+00 0. -1.
    10030    2    1    2    0    0  0.00000000000E+00  0.00000000000E+00 -0.72807501835E+03  0.27873696363E+04  0.26906014675E+04 0.  0.
        4    1    3    3  502    0 -0.72390565927E+03 -0.10315028031E+04  0.12385155135E+03  0.12662457329E+04  0.12699999809E+01 0. -1.
       -4    1    3    3    0  502  0.72390565927E+03  0.10315028031E+04 -0.85192656970E+03  0.15211239034E+04  0.12699999809E+01 0.  1.
</event>
<event>
 5   0  0.4824715E-06  0.2683031E+04  0.7818609E-02  0.8340532E-01
        1   -1    0    0  501    0  0.00000000000E+00  0.00000000000E+00  0.14192550575E+04  0.14192550575E+04  0.50400001928E-02 0. -1.
       -1   -1    0    0    0  501  0.00000000000E+00  0.00000000000E+00 -0.12680340101E+04  0.12680340101E+04  0.50400001928E-02 0.  1.
    10030    2    1    2    0    0  0.00000000000E+00  0.00000000000E+00  0.15122104743E+03  0.26872890676E+04  0.26830308846E+04 0.  0.
        5    1    3    3  502    0  0.11259006069E+04  0.65028314004E+03  0.40646985354E+03  0.13622628860E+04  0.46999998093E+01 0. -1.
       -5    1    3    3    0  502 -0.11259006069E+04 -0.65028314004E+03 -0.25524880611E+03  0.13250261816E+04  0.46999998093E+01 0.  1.
</event>
<event>
 5   0  0.1220908E-05  0.2260073E+04  0.7818609E-02  0.8493832E-01
        2   -1    0    0  501    0  0.00000000000E+00  0.00000000000E+00  0.13769867802E+04  0.13769867802E+04  0.25500000920E-02 0.  1.
       -2   -1    0    0    0  501  0.00000000000E+00  0.00000000000E+00 -0.92737419274E+03  0.92737419275E+03  0.25500000920E-02 0. -1.
    10030    2    1    2    0    0  0.00000000000E+00  0.00000000000E+00  0.44961258743E+03  0.23043609729E+04  0.22600725685E+04 0.  0.
        2    1    3    3  502    0 -0.28083721504E+00 -0.66121745245E+03 -0.70954283661E+03  0.96987609275E+03  0.25500000920E-02 0. -1.
       -2    1    3    3    0  502  0.28083721504E+00  0.66121745245E+03  0.11591554240E+04  0.13344848802E+04  0.25500000920E-02 0.  1.
</event>
<event>
 5   0  0.4188000E-06  0.2729019E+04  0.7818609E-02  0.8325650E-01
       -3   -1    0    0    0  501  0.00000000000E+00  0.00000000000E+00  0.13838528054E+04  0.13838528091E+04  0.10100000352E+00 0. -1.
        3   -1    0    0  501    0  0.00000000000E+00  0.00000000000E+00 -0.13454362369E+04  0.13454362407E+04  0.10100000352E+00 0.  1.
    10030    2    1    2    0    0  0.00000000000E+00  0.00000000000E+00  0.38416568549E+02  0.27292890498E+04  0.27290186669E+04 0.  0.
        1    1    3    3  502    0  0.37562382963E+03  0.12072316367E+04  0.53246886930E+03  0.13718690109E+04  0.50400001928E-02 0. -1.
       -1    1    3    3    0  502 -0.37562382963E+03 -0.12072316367E+04 -0.49405230076E+03  0.13574200389E+04  0.50400001928E-02 0.  1.
</event>
<event>
 5   0  0.4826140E-06  0.2707875E+04  0.7818609E-02  0.8332454E-01
       -1   -1    0    0    0  501  0.00000000000E+00  0.00000000000E+00  0.85869260798E+03  0.85869260799E+03  0.50400001928E-02 0.  1.
        1   -1    0    0  501    0  0.00000000000E+00  0.00000000000E+00 -0.21348112120E+04  0.21348112120E+04  0.50400001928E-02 0. -1.
    10030    2    1    2    0    0  0.00000000000E+00  0.00000000000E+00 -0.12761186040E+04  0.29935038200E+04  0.27078748916E+04 0.  0.
        1    1    3    3  502    0  0.97604073084E+03  0.25669472092E+03 -0.16358125175E+04  0.19220900813E+04  0.50400001928E-02 0.  1.
       -1    1    3    3    0  502 -0.97604073084E+03 -0.25669472092E+03  0.35969391353E+03  0.10714137387E+04  0.50400001928E-02 0. -1.
</event>
<event>
 5   0  0.1220908E-05  0.2544495E+04  0.7818609E-02  0.8387303E-01
        2   -1    0    0  501    0  0.00000000000E+00  0.00000000000E+00  0.59517714782E+03  0.59517714783E+03  0.25500000920E-02 0. -1.
       -2   -1    0    0    0  501  0.00000000000E+00  0.00000000000E+00 -0.27195502715E+04  0.27195502715E+04  0.25500000920E-02 0.  1.
    10030    2    1    2    0    0  0.00000000000E+00  0.00000000000E+00 -0.21243731237E+04  0.33147274194E+04  0.25444953716E+04 0.  0.
        2    1    3    3  502    0  0.75161718071E+02 -0.11027516595E+04 -0.24147847716E+03  0.11313807322E+04  0.25500000920E-02 0. -1.
       -2    1    3    3    0  502 -0.75161718071E+02  0.11027516595E+04 -0.18828946466E+04  0.21833466872E+04  0.25500000920E-02 0.  1.
</event>
<event>
 5   0  0.4846214E-06  0.2714098E+04  0.7818609E-02  0.8330445E-01
        1   -1    0    0  501    0  0.00000000000E+00  0.00000000000E+00  0.66184608018E+03  0.66184608019E+03  0.50400001928E-02 0. -1.
       -1   -1    0    0    0  501  0.00000000000E+00  0.00000000000E+00 -0.27824926896E+04  0.27824926896E+04  0.50400001928E-02 0.  1.
    10030    2    1    2    0    0  0.00000000000E+00  0.00000000000E+00 -0.21206466094E+04  0.34443387698E+04  0.27140979199E+04 0.  0.
        2    1    3    3  502    0 -0.16435740461E+03 -0.13145369177E+04 -0.68695106874E+03  0.14922876517E+04  0.25500000920E-02 0. -1.
       -2    1    3    3    0  502  0.16435740461E+03  0.13145369177E+04 -0.14336955407E+04  0.19520511181E+04  0.25500000920E-02 0.  1.
</event>
<event>
 5   0  0.4846214E-06  0.2767791E+04  0.7818609E-02  0.8313338E-01
       -1   -1    0    0    0  501  0.00000000000E+00  0.00000000000E+00  0.11244662251E+04  0.11244662251E+04  0.50400001928E-02 0. -1.
        1   -1    0    0  501    0  0.00000000000E+00  0.00000000000E+00 -0.17031780786E+04  0.17031780786E+04  0.50400001928E-02 0.  1.
    10030    2    1    2    0    0  0.00000000000E+00  0.00000000000E+00 -0.57871185351E+03  0.28276443037E+04  0.27677906169E+04 0.  0.
        2    1    3    3  502    0 -0.13342648844E+04  0.34451021945E+03 -0.41945237675E+03  0.14404479752E+04  0.25500000920E-02 0.  1.
       -2    1    3    3    0  502  0.13342648844E+04 -0.34451021945E+03 -0.15925947677E+03  0.13871963285E+04  0.25500000920E-02 0. -1.
</event>
<event>
 5   0  0.4756800E-06  0.2694313E+04  0.7818609E-02  0.8336852E-01
        1   -1    0    0  501    0  0.00000000000E+00  0.00000000000E+00  0.16880698925E+04  0.16880698925E+04  0.50400001928E-02 0. -1.
       -1   -1    0    0    0  501  0.00000000000E+00  0.00000000000E+00 -0.10750924662E+04  0.10750924662E+04  0.50400001928E-02 0.  1.
    10030    2    1    2    0    0  0.00000000000E+00  0.00000000000E+00  0.61297742626E+03  0.27631623587E+04  0.26943134368E+04 0.  0.
        4    1    3    3  502    0  0.88018351727E+03 -0.62765803424E+03 -0.51788783123E+03  0.11987022360E+04  0.12699999809E+01 0.  1.
       -4    1    3    3    0  502 -0.88018351727E+03  0.62765803424E+03  0.11308652575E+04  0.15644601227E+04  0.12699999809E+01 0. -1.
</event>
<event>
 5   0  0.4756800E-06  0.2709927E+04  0.7818609E-02  0.8331791E-01
       -1   -1    0    0    0  501  0.00000000000E+00  0.00000000000E+00  0.78452210518E+03  0.78452210520E+03  0.50400001928E-02 0. -1.
        1   -1    0    0  501    0  0.00000000000E+00  0.00000000000E+00 -0.23401840900E+04  0.23401840900E+04  0.50400001928E-02 0.  1.
    10030    2    1    2    0    0  0.00000000000E+00  0.00000000000E+00 -0.15556619848E+04  0.31247061952E+04  0.27099270461E+04 0.  0.
        4    1    3    3  502    0  0.61771637021E+03  0.84859779837E+03  0.21019524917E+03  0.10704556941E+04  0.12699999809E+01 0. -1.
       -4    1    3    3    0  502 -0.61771637021E+03 -0.84859779837E+03 -0.17658572340E+04  0.20542505011E+04  0.12699999809E+01 0.  1.
</event>
<event>
 5   0  0.4824715E-06  0.2678409E+04  0.7818609E-02  0.8342045E-01
       -1   -1    0    0    0  501  0.00000000000E+00  0.00000000000E+00  0.94714990010E+03  0.94714990012E+03  0.50400001928E-02 0. -1.
        1   -1    0    0  501    0  0.00000000000E+00  0.00000000000E+00 -0.18935424755E+04  0.18935424755E+04  0.50400001928E-02 0.  1.
    10030    2    1    2    0    0  0.00000000000E+00  0.00000000000E+00 -0.94639257538E+03  0.28406923756E+04  0.26784089057E+04 0.  0.
        5    1    3    3  502    0  0.32406036741E+03  0.66201801635E+03  0.71265637461E+03  0.10252727315E+04  0.46999998093E+01 0. -1.
       -5    1    3    3    0  502 -0.32406036741E+03 -0.66201801635E+03 -0.16590489500E+04  0.18154196441E+04  0.46999998093E+01 0.  1.
</event>
<event>
 5   0  0.5152288E-06  0.2712636E+04  0.7818609E-02  0.8330917E-01
        1   -1    0    0  501    0  0.00000000000E+00  0.00000000000E+00  0.14357214172E+04  0.14357214172E+04  0.50400001928E-02 0.  1.
       -1   -1    0    0    0  501  0.00000000000E+00  0.00000000000E+00 -0.12813060919E+04  0.12813060919E+04  0.50400001928E-02 0. -1.
    10030    2    1    2    0    0  0.00000000000E+00  0.00000000000E+00  0.15441532524E+03  0.27170275091E+04  0.27126360597E+04 0.  0.
        3    1    3    3  502    0  0.57190625896E+03 -0.10148921406E+04 -0.61855041515E+03  0.13189721196E+04  0.10100000352E+00 0.  1.
       -3    1    3    3    0  502 -0.57190625896E+03  0.10148921406E+04  0.77296574039E+03  0.13980553895E+04  0.10100000352E+00 0. -1.
</event>
<event>
 5   0  0.1261364E-05  0.2727202E+04  0.7818609E-02  0.8326232E-01
        2   -1    0    0  501    0  0.00000000000E+00  0.00000000000E+00  0.15373333165E+04  0.15373333165E+04  0.25500000920E-02 0. -1.
       -2   -1    0    0    0  501  0.00000000000E+00  0.00000000000E+00 -0.12095021863E+04  0.12095021863E+04  0.25500000920E-02 0.  1.
    10030    2    1    2    0    0  0.00000000000E+00  0.00000000000E+00  0.32783113028E+03  0.27468355028E+04  0.27272022348E+04 0.  0.
        5    1    3    3  502    0  0.33707492799E+03  0.67620079810E+03 -0.97938574974E+03  0.12369662741E+04  0.46999998093E+01 0.  1.
       -5    1    3    3    0  502 -0.33707492799E+03 -0.67620079810E+03  0.13072168800E+04  0.15098692287E+04  0.46999998093E+01 0. -1.
</event>
<event>
 5   0  0.4824715E-06  0.2666766E+04  0.7818609E-02  0.8345869E-01
        1   -1    0    0  501    0  0.00000000000E+00  0.00000000000E+00  0.16440162639E+04  0.16440162639E+04  0.50400001928E-02 0.  1.
       -1   -1    0    0    0  501  0.00000000000E+00  0.00000000000E+00 -0.10814435740E+04  0.10814435741E+04  0.50400001928E-02 0. -1.
    10030    2    1    2    0    0  0.00000000000E+00  0.00000000000E+00  0.56257268987E+03  0.27254598380E+04  0.26667664497E+04 0.  0.
        5    1    3    3  502    0 -0.36113283307E+03  0.35397807891E+03  0.15422035569E+04  0.16230007099E+04  0.46999998093E+01 0.  1.
       -5    1    3    3    0  502  0.36113283307E+03 -0.35397807891E+03 -0.97963086702E+03  0.11024591281E+04  0.46999998093E+01 0. -1.
</event>
<event>
 5   0  0.1276517E-05  0.2692830E+04  0.7818609E-02  0.8337335E-01
        2   -1    0    0  501    0  0.00000000000E+00  0.00000000000E+00  0.20242801702E+04  0.20242801702E+04  0.25500000920E-02 0.  1.
       -2   -1    0    0    0  501  0.00000000000E+00  0.00000000000E+00 -0.89554490312E+03  0.89554490312E+03  0.25500000920E-02 0. -1.
    10030    2    1    2    0    0  0.00000000000E+00  0.00000000000E+00  0.11287352671E+04  0.29198250733E+04  0.26928303243E+04 0.  0.
        1    1    3    3  502    0  0.13064298806E+04 -0.42098387502E+02  0.91455071937E+03  0.15952850295E+04  0.50400001928E-02 0.  1.
       -1    1    3    3    0  502 -0.13064298806E+04  0.42098387502E+02  0.21418454770E+03  0.13245400438E+04  0.50400001928E-02 0. -1.
</event>
<event>
 5   0  0.5152288E-06  0.2722708E+04  0.7818609E-02  0.8327675E-01
        1   -1    0    0  501    0  0.00000000000E+00  0.00000000000E+00  0.16122575552E+04  0.16122575552E+04  0.50400001928E-02 0.  1.
       -1   -1    0    0    0  501  0.00000000000E+00  0.00000000000E+00 -0.11494963013E+04  0.11494963013E+04  0.50400001928E-02 0. -1.
    10030    2    1    2    0    0  0.00000000000E+00  0.00000000000E+00  0.46276125394E+03  0.27617538565E+04  0.27227075469E+04 0.  0.
        3    1    3    3  502    0 -0.88044029476E+03 -0.10094186231E+04  0.47814503748E+03  0.14222249317E+04  0.10100000352E+00 0.  1.
       -3    1    3    3    0  502  0.88044029476E+03  0.10094186231E+04 -0.15383783540E+02  0.13395289248E+04  0.10100000352E+00 0. -1.
</event>
<event>
 5   0  0.4756800E-06  0.2621048E+04  0.7818609E-02  0.8361087E-01
        1   -1    0    0  501    0  0.00000000000E+00  0.00000000000E+00  0.22312102671E+04  0.22312102671E+04  0.50400001928E-02 0.  1.
       -1   -1    0    0    0  501  0.00000000000E+00  0.00000000000E+00 -0.76974962036E+03  0.76974962038E+03  0.50400001928E-02 0. -1.
    10030    2    1    2    0    0  0.00000000000E+00  0.00000000000E+00  0.14614606467E+04  0.30009598875E+04  0.26210480775E+04 0.  0.
        4    1    3    3  502    0  0.90896948891E+03  0.15752410664E+03  0.17964733805E+04  0.20194943911E+04  0.12699999809E+01 0.  1.
       -4    1    3    3    0  502 -0.90896948891E+03 -0.15752410664E+03 -0.33501273374E+03  0.98146549640E+03  0.12699999809E+01 0. -1.
</event>
<event>
 5   0  0.1276517E-05  0.2702321E+04  0.7818609E-02  0.8334252E-01
       -2   -1    0    0    0  501  0.00000000000E+00  0.00000000000E+00  0.17028151337E+04  0.17028151337E+04  0.25500000920E-02 0.  1.
        2   -1    0    0  501    0  0.00000000000E+00  0.00000000000E+00 -0.10721270597E+04  0.10721270598E+04  0.25500000920E-02 0. -1.
    10030    2    1    2    0    0  0.00000000000E+00  0.00000000000E+00  0.63068807392E+03  0.27749421934E+04  0.27023206194E+04 0.  0.
        1    1    3    3  502    0 -0.32509540694E+03  0.11541457705E+04  0.95489327799E+03  0.15328276666E+04  0.50400001928E-02 0.  1.
       -1    1    3    3    0  502  0.32509540694E+03 -0.11541457705E+04 -0.32420520407E+03  0.12421145268E+04  0.50400001928E-02 0. -1.
</event>
<event>
 5   0  0.1232559E-05  0.2668656E+04  0.7818609E-02  0.8345247E-01
       -2   -1    0    0    0  501  0.00000000000E+00  0.00000000000E+00  0.15308097738E+04  0.15308097738E+04  0.25500000920E-02 0.  1.
        2   -1    0    0  501    0  0.00000000000E+00  0.00000000000E+00 -0.11630653784E+04  0.11630653784E+04  0.25500000920E-02 0. -1.
    10030    2    1    2    0    0  0.00000000000E+00  0.00000000000E+00  0.36774439542E+03  0.26938751522E+04  0.26686564775E+04 0.  0.
        3    1    3    3  502    0 -0.12420949862E+04 -0.46295797176E+03  0.29780397831E+02  0.13259023044E+04  0.10100000352E+00 0. -1.
       -3    1    3    3    0  502  0.12420949862E+04  0.46295797176E+03  0.33796399759E+03  0.13679728478E+04  0.10100000352E+00 0.  1.
</event>
<event>
 5   0  0.1276517E-05  0.2696397E+04  0.7818609E-02  0.8336175E-01
       -2   -1    0    0    0  501  0.00000000000E+00  0.00000000000E+00  0.11262650977E+04  0.11262650977E+04  0.25500000920E-02 0.  1.
        2   -1    0    0  501    0  0.00000000000E+00  0.00000000000E+00 -0.16138640968E+04  0.16138640968E+04  0.25500000920E-02 0. -1.
    10030    2    1    2    0    0  0.00000000000E+00  0.00000000000E+00 -0.48759899904E+03  0.27401291945E+04  0.26963967102E+04 0.  0.
        1    1    3    3  502    0  0.12587771697E+03 -0.62246859223E+03  0.96474343587E+03  0.11550074654E+04  0.50400001928E-02 0.  1.
       -1    1    3    3    0  502 -0.12587771697E+03  0.62246859223E+03 -0.14523424349E+04  0.15851217291E+04  0.50400001928E-02 0. -1.
</event>
<event>
 5   0  0.1232559E-05  0.2706404E+04  0.7818609E-02  0.8332930E-01
       -2   -1    0    0    0  501  0.00000000000E+00  0.00000000000E+00  0.14739670720E+04  0.14739670720E+04  0.25500000920E-02 0.  1.
        2   -1    0    0  501    0  0.00000000000E+00  0.00000000000E+00 -0.12423318119E+04  0.12423318119E+04  0.25500000920E-02 0. -1.
    10030    2    1    2    0    0  0.00000000000E+00  0.00000000000E+00  0.23163526008E+03  0.27162988840E+04  0.27064043921E+04 0.  0.
        3    1    3    3  502    0 -0.13218867486E+04  0.21838968983E+03 -0.74817671500E+02  0.13418928150E+04  0.10100000352E+00 0. -1.
       -3    1    3    3    0  502  0.13218867486E+04 -0.21838968983E+03  0.30645293158E+03  0.13744060689E+04  0.10100000352E+00 0.  1.
</event>
<event>
 5   0  0.1220908E-05  0.2688126E+04  0.7818609E-02  0.8338868E-01
        2   -1    0    0  501    0  0.00000000000E+00  0.00000000000E+00  0.11181293983E+04  0.11181293983E+04  0.25500000920E-02 0. -1.
       -2   -1    0    0    0  501  0.00000000000E+00  0.00000000000E+00 -0.16156498943E+04  0.16156498943E+04  0.25500000920E-02 0.  1.
    10030    2    1    2    0    0  0.00000000000E+00  0.00000000000E+00 -0.49752049607E+03  0.27337792926E+04  0.26881262204E+04 0.  0.
        2    1    3    3  502    0  0.87666829363E+02  0.74586156415E+03  0.88485025463E+03  0.11605838699E+04  0.25500000920E-02 0. -1.
       -2    1    3    3    0  502 -0.87666829363E+02 -0.74586156415E+03 -0.13823707507E+04  0.15731954228E+04  0.25500000920E-02 0.  1.
</event>
<event>
 5   0  0.1276517E-05  0.2759298E+04  0.7818609E-02  0.8316017E-01
       -2   -1    0    0    0  501  0.00000000000E+00  0.00000000000E+00  0.12942219088E+04  0.12942219088E+04  0.25500000920E-02 0. -1.
        2   -1    0    0  501    0  0.00000000000E+00  0.00000000000E+00 -0.14707150219E+04  0.14707150219E+04  0.25500000920E-02 0.  1.
    10030    2    1    2    0    0  0.00000000000E+00  0.00000000000E+00 -0.17649311310E+03  0.27649369307E+04  0.27592981738E+04 0.  0.
        1    1    3    3  502    0  0.43611324298E+03  0.13075058119E+04 -0.27580337191E+02  0.13785959828E+04  0.50400001928E-02 0.  1.
       -1    1    3    3    0  502 -0.43611324298E+03 -0.13075058119E+04 -0.14891277591E+03  0.13863409479E+04  0.50400001928E-02 0. -1.
</event>
<event>
 5   0  0.4824715E-06  0.2703237E+04  0.7818609E-02  0.8333955E-01
       -1   -1    0    0    0  501  0.00000000000E+00  0.00000000000E+00  0.85793150883E+03  0.85793150885E+03  0.50400001928E-02 0.  1.
        1   -1    0    0  501    0  0.00000000000E+00  0.00000000000E+00 -0.21293924373E+04  0.21293924373E+04  0.50400001928E-02 0. -1.
    10030    2    1    2    0    0  0.00000000000E+00  0.00000000000E+00 -0.12714609285E+04  0.29873239461E+04  0.27032372198E+04 0.  0.
        5    1    3    3  502    0 -0.78407347874E+03  0.73552368457E+01  0.58088696143E+03  0.97584684840E+03  0.46999998093E+01 0.  1.
       -5    1    3    3    0  502  0.78407347874E+03 -0.73552368457E+01 -0.18523478899E+04  0.20114770977E+04  0.46999998093E+01 0. -1.
</event>
<event>
 5   0  0.4824715E-06  0.2691782E+04  0.7818609E-02  0.8337676E-01
        1   -1    0    0  501    0  0.00000000000E+00  0.00000000000E+00  0.78595895434E+03  0.78595895435E+03  0.50400001928E-02 0. -1.
       -1   -1    0    0    0  501  0.00000000000E+00  0.00000000000E+00 -0.23047297828E+04  0.23047297828E+04  0.50400001928E-02 0.  1.
    10030    2    1    2    0    0  0.00000000000E+00  0.00000000000E+00 -0.15187708284E+04  0.30906887371E+04  0.26917823167E+04 0.  0.
        5    1    3    3  502    0 -0.35809207218E+03  0.45727824349E+03  0.63465072757E+03  0.86031212948E+03  0.46999998093E+01 0. -1.
       -5    1    3    3    0  502  0.35809207218E+03 -0.45727824349E+03 -0.21534215560E+04  0.22303766076E+04  0.46999998093E+01 0.  1.
</event>
<event>
 5   0  0.1220908E-05  0.2709562E+04  0.7818609E-02  0.8331909E-01
       -2   -1    0    0    0  501  0.00000000000E+00  0.00000000000E+00  0.15901106390E+04  0.15901106390E+04  0.25500000920E-02 0.  1.
        2   -1    0    0  501    0  0.00000000000E+00  0.00000000000E+00 -0.11542787991E+04  0.11542787991E+04  0.25500000920E-02 0. -1.
    10030    2    1    2    0    0  0.00000000000E+00  0.00000000000E+00  0.43583183995E+03  0.27443894381E+04  0.27095615873E+04 0.  0.
        2    1    3    3  502    0  0.31263838600E+03  0.75412850463E+03 -0.87717445677E+03  0.11982852705E+04  0.25500000920E-02 0. -1.
       -2    1    3    3    0  502 -0.31263838600E+03 -0.75412850463E+03  0.13130062967E+04  0.15461041676E+04  0.25500000920E-02 0.  1.
</event>
<event>
 5   0  0.5152288E-06  0.2683877E+04  0.7818609E-02  0.8340255E-01
       -1   -1    0    0    0  501  0.00000000000E+00  0.00000000000E+00  0.11913835455E+04  0.11913835455E+04  0.50400001928E-02 0.  1.
        1   -1    0    0  501    0  0.00000000000E+00  0.00000000000E+00 -0.15115185745E+04  0.15115185745E+04  0.50400001928E-02 0. -1.
    10030    2    1    2    0    0  0.00000000000E+00  0.00000000000E+00 -0.32013502896E+03  0.27029021200E+04  0.26838765683E+04 0.  0.
        3    1    3    3  502    0  0.12321633356E+04 -0.22838830679E+03 -0.64348131998E+03  0.14087071817E+04  0.10100000352E+00 0. -1.
       -3    1    3    3    0  502 -0.12321633356E+04  0.22838830679E+03  0.32334629103E+03  0.12941949384E+04  0.10100000352E+00 0.  1.
</event>
<event>
 5   0  0.4824715E-06  0.2715021E+04  0.7818609E-02  0.8330147E-01
       -1   -1    0    0    0  501  0.00000000000E+00  0.00000000000E+00  0.13423764229E+04  0.13423764229E+04  0.50400001928E-02 0.  1.
        1   -1    0    0  501    0  0.00000000000E+00  0.00000000000E+00 -0.13728155844E+04  0.13728155844E+04  0.50400001928E-02 0. -1.
    10030    2    1    2    0    0  0.00000000000E+00  0.00000000000E+00 -0.30439161524E+02  0.27151920074E+04  0.27150213801E+04 0.  0.
        5    1    3    3  502    0 -0.11029877974E+04 -0.78678340627E+03 -0.10009525149E+03  0.13585475181E+04  0.46999998093E+01 0.  1.
       -5    1    3    3    0  502  0.11029877974E+04  0.78678340627E+03  0.69656089963E+02  0.13566444893E+04  0.46999998093E+01 0. -1.
</event>
<event>
 5   0  0.4188000E-06  0.2724078E+04  0.7818609E-02  0.8327235E-01
       -4   -1    0    0    0  501  0.00000000000E+00  0.00000000000E+00  0.11413510677E+04  0.11413517743E+04  0.12699999809E+01 0. -1.
        4   -1    0    0  501    0  0.00000000000E+00  0.00000000000E+00 -0.16253967611E+04  0.16253972573E+04  0.12699999809E+01 0.  1.
    10030    2    1    2    0    0  0.00000000000E+00  0.00000000000E+00 -0.48404569342E+03  0.27667490315E+04  0.27240778201E+04 0.  0.
        3    1    3    3  502    0 -0.64443958362E+03 -0.11776511904E+04 -0.82318027860E+01  0.13424725233E+04  0.10100000352E+00 0. -1.
       -3    1    3    3    0  502  0.64443958362E+03  0.11776511904E+04 -0.47581389064E+03  0.14242765082E+04  0.10100000352E+00 0.  1.
</event>
<event>
 5   0  0.1232559E-05  0.2816191E+04  0.7818609E-02  0.8298259E-01
        2   -1    0    0  501    0  0.00000000000E+00  0.00000000000E+00  0.26372433739E+04  0.26372433739E+04  0.25500000920E-02 0. -1.
       -2   -1    0    0    0  501  0.00000000000E+00  0.00000000000E+00 -0.75182031015E+03  0.75182031016E+03  0.25500000920E-02 0.  1.
    10030    2    1    2    0    0  0.00000000000E+00  0.00000000000E+00  0.18854230637E+04  0.33890636840E+04  0.28161911379E+04 0.  0.
        3    1    3    3  502    0  0.11980766307E+04  0.72581410202E+03  0.77024237087E+03  0.15985828236E+04  0.10100000352E+00 0. -1.
       -3    1    3    3    0  502 -0.11980766307E+04 -0.72581410202E+03  0.11151806929E+04  0.17904808605E+04  0.10100000352E+00 0.  1.
</event>
<event>
 5   0  0.4824715E-06  0.2716609E+04  0.7818609E-02  0.8329636E-01
       -1   -1    0    0    0  501  0.00000000000E+00  0.00000000000E+00  0.16593428340E+04  0.16593428340E+04  0.50400001928E-02 0. -1.
        1   -1    0    0  501    0  0.00000000000E+00  0.00000000000E+00 -0.11118805372E+04  0.11118805372E+04  0.50400001928E-02 0.  1.
    10030    2    1    2    0    0  0.00000000000E+00  0.00000000000E+00  0.54746229687E+03  0.27712233712E+04  0.27166089168E+04 0.  0.
        5    1    3    3  502    0  0.89628760334E+03  0.97134705471E+03 -0.45811158508E+02  0.13224852819E+04  0.46999998093E+01 0. -1.
       -5    1    3    3    0  502 -0.89628760334E+03 -0.97134705471E+03  0.59327345538E+03  0.14487380893E+04  0.46999998093E+01 0.  1.
</event>
<event>
 5   0  0.1220908E-05  0.2700906E+04  0.7818609E-02  0.8334711E-01
       -2   -1    0    0    0  501  0.00000000000E+00  0.00000000000E+00  0.11839715892E+04  0.11839715892E+04  0.25500000920E-02 0. -1.
        2   -1    0    0  501    0  0.00000000000E+00  0.00000000000E+00 -0.15403441773E+04  0.15403441773E+04  0.25500000920E-02 0.  1.
    10030    2    1    2    0    0  0.00000000000E+00  0.00000000000E+00 -0.35637258808E+03  0.27243157666E+04  0.27009063246E+04 0.  0.
        2    1    3    3  502    0  0.96942876977E+02 -0.23540493595E+03 -0.15159203170E+04  0.15371492487E+04  0.25500000920E-02 0.  1.
       -2    1    3    3    0  502 -0.96942876977E+02  0.23540493595E+03  0.11595477290E+04  0.11871665178E+04  0.25500000920E-02 0. -1.
</event>
<event>
 5   0  0.4826140E-06  0.2693831E+04  0.7818609E-02  0.8337009E-01
        1   -1    0    0  501    0  0.00000000000E+00  0.00000000000E+00  0.14527303799E+04  0.14527303800E+04  0.50400001928E-02 0. -1.
       -1   -1    0    0    0  501  0.00000000000E+00  0.00000000000E+00 -0.12488077417E+04  0.12488077417E+04  0.50400001928E-02 0.  1.
    10030    2    1    2    0    0  0.00000000000E+00  0.00000000000E+00  0.20392263829E+03  0.27015381216E+04  0.26938306889E+04 0.  0.
        1    1    3    3  502    0 -0.12314997983E+04 -0.30788358212E+03  0.55357953541E+03  0.13848589659E+04  0.50400001928E-02 0. -1.
       -1    1    3    3    0  502  0.12314997983E+04  0.30788358212E+03 -0.34965689712E+03  0.13166791557E+04  0.50400001928E-02 0.  1.
</event>
<event>
 5   0  0.1232559E-05  0.2677749E+04  0.7818609E-02  0.8342261E-01
       -2   -1    0    0    0  501  0.00000000000E+00  0.00000000000E+00  0.13726749561E+04  0.13726749561E+04  0.25500000920E-02 0.  1.
        2   -1    0    0  501    0  0.00000000000E+00  0.00000000000E+00 -0.13059060820E+04  0.13059060820E+04  0.25500000920E-02 0. -1.
    10030    2    1    2    0    0  0.00000000000E+00  0.00000000000E+00  0.66768874146E+02  0.26785810381E+04  0.26777487363E+04 0.  0.
        3    1    3    3  502    0  0.11460699259E+04  0.37251258994E+03  0.61695470980E+03  0.13538371501E+04  0.10100000352E+00 0.  1.
       -3    1    3    3    0  502 -0.11460699259E+04 -0.37251258994E+03 -0.55018583565E+03  0.13247438880E+04  0.10100000352E+00 0. -1.
</event>
<event>
 5   0  0.4846214E-06  0.2687798E+04  0.7818609E-02  0.8338975E-01
       -1   -1    0    0    0  501  0.00000000000E+00  0.00000000000E+00  0.12095135443E+04  0.12095135443E+04  0.50400001928E-02 0.  1.
        1   -1    0    0  501    0  0.00000000000E+00  0.00000000000E+00 -0.14932160377E+04  0.14932160377E+04  0.50400001928E-02 0. -1.
    10030    2    1    2    0    0  0.00000000000E+00  0.00000000000E+00 -0.28370249336E+03  0.27027295820E+04  0.26877983721E+04 0.  0.
        2    1    3    3  502    0  0.11144967194E+04  0.24856422446E+03 -0.85443302297E+03  0.14261637010E+04  0.25500000920E-02 0. -1.
       -2    1    3    3    0  502 -0.11144967194E+04 -0.24856422446E+03  0.57073052962E+03  0.12765658811E+04  0.25500000920E-02 0.  1.
</event>
<event>
 5   0  0.5152288E-06  0.2701622E+04  0.7818609E-02  0.8334479E-01
        1   -1    0    0  501    0  0.00000000000E+00  0.00000000000E+00  0.13976703270E+04  0.13976703270E+04  0.50400001928E-02 0. -1.
       -1   -1    0    0    0  501  0.00000000000E+00  0.00000000000E+00 -0.13055227597E+04  0.13055227597E+04  0.50400001928E-02 0.  1.
    10030    2    1    2    0    0  0.00000000000E+00  0.00000000000E+00  0.92147567363E+02  0.27031930867E+04  0.27016220479E+04 0.  0.
        3    1    3    3  502    0 -0.20959404515E+03 -0.88870974390E+03  0.10421202633E+04  0.13855501890E+04  0.10100000352E+00 0. -1.
       -3    1    3    3    0  502  0.20959404515E+03  0.88870974390E+03 -0.94997269597E+03  0.13176428977E+04  0.10100000352E+00 0.  1.
</event>
<event>
 5   0  0.4824715E-06  0.2669657E+04  0.7818609E-02  0.8344918E-01
       -1   -1    0    0    0  501  0.00000000000E+00  0.00000000000E+00  0.93630782787E+03  0.93630782788E+03  0.50400001928E-02 0.  1.
        1   -1    0    0  501    0  0.00000000000E+00  0.00000000000E+00 -0.19029719992E+04  0.19029719992E+04  0.50400001928E-02 0. -1.
    10030    2    1    2    0    0  0.00000000000E+00  0.00000000000E+00 -0.96666417129E+03  0.28392798270E+04  0.26696573406E+04 0.  0.
        5    1    3    3  502    0 -0.11973993284E+04  0.12050979642E+03  0.13081595032E+03  0.12105464326E+04  0.46999998093E+01 0.  1.
       -5    1    3    3    0  502  0.11973993284E+04 -0.12050979642E+03 -0.10974801216E+04  0.16287333944E+04  0.46999998093E+01 0. -1.
</event>
<event>
 5   0  0.4846214E-06  0.2724124E+04  0.7818609E-02  0.8327220E-01
       -1   -1    0    0    0  501  0.00000000000E+00  0.00000000000E+00  0.15900896483E+04  0.15900896483E+04  0.50400001928E-02 0. -1.
        1   -1    0    0  501    0  0.00000000000E+00  0.00000000000E+00 -0.11667343627E+04  0.11667343627E+04  0.50400001928E-02 0.  1.
    10030    2    1    2    0    0  0.00000000000E+00  0.00000000000E+00  0.42335528563E+03  0.27568240110E+04  0.27241235158E+04 0.  0.
        2    1    3    3  502    0 -0.43141967530E+03 -0.11655130962E+04  0.77574487424E+03  0.14650337278E+04  0.25500000920E-02 0. -1.
       -2    1    3    3    0  502  0.43141967530E+03  0.11655130962E+04 -0.35238958862E+03  0.12917902832E+04  0.25500000920E-02 0.  1.
</event>
<event>
 5   0  0.1286641E-05  0.2706878E+04  0.7818609E-02  0.8332777E-01
        2   -1    0    0  501    0  0.00000000000E+00  0.00000000000E+00  0.23484620781E+04  0.23484620781E+04  0.25500000920E-02 0. -1.
       -2   -1    0    0    0  501  0.00000000000E+00  0.00000000000E+00 -0.77999831520E+03  0.77999831520E+03  0.25500000920E-02 0.  1.
    10030    2    1    2    0    0  0.00000000000E+00  0.00000000000E+00  0.15684637629E+04  0.31284603933E+04  0.27068775105E+04 0.  0.
        4    1    3    3  502    0 -0.53435651364E+03 -0.97380552131E+03 -0.10948179725E+03  0.11161639458E+04  0.12699999809E+01 0.  1.
       -4    1    3    3    0  502  0.53435651364E+03  0.97380552131E+03  0.16779455602E+04  0.20122964476E+04  0.12699999809E+01 0. -1.
</event>
<event>
 5   0  0.4756800E-06  0.2258873E+04  0.7818609E-02  0.8494316E-01
        1   -1    0    0  501    0  0.00000000000E+00  0.00000000000E+00  0.28457461669E+04  0.28457461669E+04  0.50400001928E-02 0.  1.
       -1   -1    0    0    0  501  0.00000000000E+00  0.00000000000E+00 -0.44825722687E+03  0.44825722690E+03  0.50400001928E-02 0. -1.
    10030    2    1    2    0    0  0.00000000000E+00  0.00000000000E+00  0.23974889400E+04  0.32940033938E+04  0.22588725375E+04 0.  0.
        4    1    3    3  502    0 -0.44352564469E+03 -0.86749034286E+03  0.36566285129E+03  0.10406562478E+04  0.12699999809E+01 0. -1.
       -4    1    3    3    0  502  0.44352564469E+03  0.86749034286E+03  0.20318260887E+04  0.22533471460E+04  0.12699999809E+01 0.  1.
</event>
<event>
 5   0  0.4824715E-06  0.2703500E+04  0.7818609E-02  0.8333870E-01
        1   -1    0    0  501    0  0.00000000000E+00  0.00000000000E+00  0.14958263989E+04  0.14958263989E+04  0.50400001928E-02 0. -1.
       -1   -1    0    0    0  501  0.00000000000E+00  0.00000000000E+00 -0.12215513164E+04  0.12215513164E+04  0.50400001928E-02 0.  1.
    10030    2    1    2    0    0  0.00000000000E+00  0.00000000000E+00  0.27427508249E+03  0.27173777153E+04  0.27035004765E+04 0.  0.
        5    1    3    3  502    0  0.11373925932E+04 -0.28981722358E+03 -0.53678951086E+03  0.12906668831E+04  0.46999998093E+01 0.  1.
       -5    1    3    3    0  502 -0.11373925932E+04  0.28981722358E+03  0.81106459335E+03  0.14267108322E+04  0.46999998093E+01 0. -1.
</event>
<event>
 5   0  0.4846214E-06  0.2719338E+04  0.7818609E-02  0.8328758E-01
       -1   -1    0    0    0  501  0.00000000000E+00  0.00000000000E+00  0.12372452032E+04  0.12372452032E+04  0.50400001928E-02 0. -1.
        1   -1    0    0  501    0  0.00000000000E+00  0.00000000000E+00 -0.14942066324E+04  0.14942066324E+04  0.50400001928E-02 0.  1.
    10030    2    1    2    0    0  0.00000000000E+00  0.00000000000E+00 -0.25696142921E+03  0.27314518356E+04  0.27193381463E+04 0.  0.
        2    1    3    3  502    0 -0.11839884255E+04  0.19569208133E+03 -0.77052762638E+03  0.14261265040E+04  0.25500000920E-02 0. -1.
       -2    1    3    3    0  502  0.11839884255E+04 -0.19569208133E+03  0.51356619717E+03  0.13053253316E+04  0.25500000920E-02 0.  1.
</event>
<event>
 5   0  0.1276517E-05  0.2694100E+04  0.7818609E-02  0.8336922E-01
       -2   -1    0    0    0  501  0.00000000000E+00  0.00000000000E+00  0.98625849578E+03  0.98625849578E+03  0.25500000920E-02 0. -1.
        2   -1    0    0  501    0  0.00000000000E+00  0.00000000000E+00 -0.18398260066E+04  0.18398260066E+04  0.25500000920E-02 0.  1.
    10030    2    1    2    0    0  0.00000000000E+00  0.00000000000E+00 -0.85356751078E+03  0.28260845023E+04  0.26941002429E+04 0.  0.
        1    1    3    3  502    0 -0.11057701711E+04 -0.58869279497E+03 -0.94627978469E+03  0.15699465943E+04  0.50400001928E-02 0.  1.
       -1    1    3    3    0  502  0.11057701711E+04  0.58869279497E+03  0.92712273913E+02  0.12561379080E+04  0.50400001928E-02 0. -1.
</event>
<event>
 5   0  0.1232559E-05  0.2226428E+04  0.7818609E-02  0.8507508E-01
        2   -1    0    0  501    0  0.00000000000E+00  0.00000000000E+00  0.19008727020E+04  0.19008727020E+04  0.25500000920E-02 0. -1.
       -2   -1    0    0    0  501  0.00000000000E+00  0.00000000000E+00 -0.65193522263E+03  0.65193522263E+03  0.25500000920E-02 0.  1.
    10030    2    1    2    0    0  0.00000000000E+00  0.00000000000E+00  0.12489374794E+04  0.25528079247E+04  0.22264284118E+04 0.  0.
        3    1    3    3  502    0 -0.88608633410E+03 -0.42693986478E+03  0.26677586480E+02  0.98394021334E+03  0.10100000352E+00 0. -1.
       -3    1    3    3    0  502  0.88608633410E+03  0.42693986478E+03  0.12222598929E+04  0.15688677113E+04  0.10100000352E+00 0.  1.
</event>
<event>
 5   0  0.1232559E-05  0.2378735E+04  0.7818609E-02  0.8447508E-01
       -2   -1    0    0    0  501  0.00000000000E+00  0.00000000000E+00  0.84944245993E+03  0.84944245994E+03  0.25500000920E-02 0. -1.
        2   -1    0    0  501    0  0.00000000000E+00  0.00000000000E+00 -0.16653219456E+04  0.16653219456E+04  0.25500000920E-02 0.  1.
    10030    2    1    2    0    0  0.00000000000E+00  0.00000000000E+00 -0.81587948563E+03  0.25147644055E+04  0.23787351009E+04 0.  0.
        3    1    3    3  502    0 -0.25560227156E+03 -0.31053469527E+03  0.77536727877E+03  0.87347509718E+03  0.10100000352E+00 0. -1.
       -3    1    3    3    0  502  0.25560227156E+03  0.31053469527E+03 -0.15912467644E+04  0.16412893083E+04  0.10100000352E+00 0.  1.
</event>
<event>
 5   0  0.4756800E-06  0.2714590E+04  0.7818609E-02  0.8330286E-01
       -1   -1    0    0    0  501  0.00000000000E+00  0.00000000000E+00  0.15606187846E+04  0.15606187847E+04  0.50400001928E-02 0. -1.
        1   -1    0    0  501    0  0.00000000000E+00  0.00000000000E+00 -0.11804612100E+04  0.11804612100E+04  0.50400001928E-02 0.  1.
    10030    2    1    2    0    0  0.00000000000E+00  0.00000000000E+00  0.38015757468E+03  0.27410799946E+04  0.27145901634E+04 0.  0.
        4    1    3    3  502    0  0.46556933164E+03  0.51934618681E+03 -0.98566025312E+03  0.12074779550E+04  0.12699999809E+01 0.  1.
       -4    1    3    3    0  502 -0.46556933164E+03 -0.51934618681E+03  0.13658178278E+04  0.15336020396E+04  0.12699999809E+01 0. -1.
</event>
<event>
 5   0  0.1276517E-05  0.2706674E+04  0.7818609E-02  0.8332843E-01
        2   -1    0    0  501    0  0.00000000000E+00  0.00000000000E+00  0.12207481181E+04  0.12207481181E+04  0.25500000920E-02 0.  1.
       -2   -1    0    0    0  501  0.00000000000E+00  0.00000000000E+00 -0.15003263336E+04  0.15003263336E+04  0.25500000920E-02 0. -1.
    10030    2    1    2    0    0  0.00000000000E+00  0.00000000000E+00 -0.27957821545E+03  0.27210744517E+04  0.27066736400E+04 0.  0.
        1    1    3    3  502    0 -0.12556847013E+04 -0.45403669546E+03  0.81899806903E+02  0.13377596826E+04  0.50400001928E-02 0.  1.
       -1    1    3    3    0  502  0.12556847013E+04  0.45403669546E+03 -0.36147802235E+03  0.13833147692E+04  0.50400001928E-02 0. -1.
</event>
<event>
 5   0  0.4846214E-06  0.2679940E+04  0.7818609E-02  0.8341543E-01
        1   -1    0    0  501    0  0.00000000000E+00  0.00000000000E+00  0.21445002251E+04  0.21445002251E+04  0.50400001928E-02 0.  1.
       -1   -1    0    0    0  501  0.00000000000E+00  0.00000000000E+00 -0.83726720372E+03  0.83726720374E+03  0.50400001928E-02 0. -1.
    10030    2    1    2    0    0  0.00000000000E+00  0.00000000000E+00  0.13072330214E+04  0.29817674289E+04  0.26799400791E+04 0.  0.
        2    1    3    3  502    0  0.10857962493E+04  0.66914592367E+03  0.19647811830E+03  0.12904702294E+04  0.25500000920E-02 0. -1.
       -2    1    3    3    0  502 -0.10857962493E+04 -0.66914592367E+03  0.11107549031E+04  0.16912971994E+04  0.25500000920E-02 0.  1.
</event>
<event>
 5   0  0.4826140E-06  0.2805740E+04  0.7818609E-02  0.8301489E-01
        1   -1    0    0  501    0  0.00000000000E+00  0.00000000000E+00  0.11501664687E+04  0.11501664687E+04  0.50400001928E-02 0.  1.
       -1   -1    0    0    0  501  0.00000000000E+00  0.00000000000E+00 -0.17110950718E+04  0.17110950718E+04  0.50400001928E-02 0. -1.
    10030    2    1    2    0    0  0.00000000000E+00  0.00000000000E+00 -0.56092860315E+03  0.28612615405E+04  0.28057399569E+04 0.  0.
        1    1    3    3  502    0 -0.11037963590E+04 -0.23673218527E+03  0.56886448154E+03  0.12641263102E+04  0.50400001928E-02 0.  1.
       -1    1    3    3    0  502  0.11037963590E+04  0.23673218527E+03 -0.11297930847E+04  0.15971352303E+04  0.50400001928E-02 0. -1.
</event>
<event>
 5   0  0.4824715E-06  0.2699791E+04  0.7818609E-02  0.8335073E-01
       -1   -1    0    0    0  501  0.00000000000E+00  0.00000000000E+00  0.83431191710E+03  0.83431191711E+03  0.50400001928E-02 0.  1.
        1   -1    0    0  501    0  0.00000000000E+00  0.00000000000E+00 -0.21840972417E+04  0.21840972417E+04  0.50400001928E-02 0. -1.
    10030    2    1    2    0    0  0.00000000000E+00  0.00000000000E+00 -0.13497853246E+04  0.30184091588E+04  0.26997913674E+04 0.  0.
        5    1    3    3  502    0 -0.57220252327E+03 -0.27973662742E+03 -0.20055323758E+04  0.21042458290E+04  0.46999998093E+01 0. -1.
       -5    1    3    3    0  502  0.57220252327E+03  0.27973662742E+03  0.65574705124E+03  0.91416332980E+03  0.46999998093E+01 0.  1.
</event>
<event>
 5   0  0.1220908E-05  0.2699078E+04  0.7818609E-02  0.8335304E-01
        2   -1    0    0  501    0  0.00000000000E+00  0.00000000000E+00  0.17424399602E+04  0.17424399602E+04  0.25500000920E-02 0. -1.
       -2   -1    0    0    0  501  0.00000000000E+00  0.00000000000E+00 -0.10452326732E+04  0.10452326732E+04  0.25500000920E-02 0.  1.
    10030    2    1    2    0    0  0.00000000000E+00  0.00000000000E+00  0.69720728700E+03  0.27876726334E+04  0.26990777517E+04 0.  0.
        2    1    3    3  502    0  0.76512728673E+03 -0.92904858273E+03 -0.28193032300E+03  0.12361374280E+04  0.25500000920E-02 0.  1.
       -2    1    3    3    0  502 -0.76512728673E+03  0.92904858273E+03  0.97913761000E+03  0.15515352053E+04  0.25500000920E-02 0. -1.
</event>
<event>
 5   0  0.1276517E-05  0.2750094E+04  0.7818609E-02  0.8318932E-01
        2   -1    0    0  501    0  0.00000000000E+00  0.00000000000E+00  0.25946309928E+04  0.25946309928E+04  0.25500000920E-02 0.  1.
       -2   -1    0    0    0  501  0.00000000000E+00  0.00000000000E+00 -0.72871781972E+03  0.72871781972E+03  0.25500000920E-02 0. -1.
    10030    2    1    2    0    0  0.00000000000E+00  0.00000000000E+00  0.18659131730E+04  0.33233488125E+04  0.27500937002E+04 0.  0.
        1    1    3    3  502    0 -0.12142094459E+04 -0.59764675824E+03  0.12271528528E+04  0.18268525803E+04  0.50400001928E-02 0.  1.
       -1    1    3    3    0  502  0.12142094459E+04  0.59764675824E+03  0.63876032026E+03  0.14964962322E+04  0.50400001928E-02 0. -1.
</event>
<event>
 5   0  0.1261364E-05  0.2767246E+04  0.7818609E-02  0.8313510E-01
       -2   -1    0    0    0  501  0.00000000000E+00  0.00000000000E+00  0.12628735587E+04  0.12628735587E+04  0.25500000920E-02 0.  1.
        2   -1    0    0  501    0  0.00000000000E+00  0.00000000000E+00 -0.15159173365E+04  0.15159173365E+04  0.25500000920E-02 0. -1.
    10030    2    1    2    0    0  0.00000000000E+00  0.00000000000E+00 -0.25304377777E+03  0.27787908952E+04  0.27672455052E+04 0.  0.
        5    1    3    3  502    0 -0.44755405792E+03  0.71824544546E+03 -0.12257160345E+04  0.14894908667E+04  0.46999998093E+01 0. -1.
       -5    1    3    3    0  502  0.44755405792E+03 -0.71824544546E+03  0.97267225671E+03  0.12893000286E+04  0.46999998093E+01 0.  1.
</event>
<event>
 5   0  0.4188000E-06  0.2704779E+04  0.7818609E-02  0.8333456E-01
       -3   -1    0    0    0  501  0.00000000000E+00  0.00000000000E+00  0.78836293006E+03  0.78836293653E+03  0.10100000352E+00 0.  1.
        3   -1    0    0  501    0  0.00000000000E+00  0.00000000000E+00 -0.23199425519E+04  0.23199425541E+04  0.10100000352E+00 0. -1.
    10030    2    1    2    0    0  0.00000000000E+00  0.00000000000E+00 -0.15315796219E+04  0.31083054907E+04  0.27047785279E+04 0.  0.
        5    1    3    3  502    0 -0.40539003654E+03 -0.12755287926E+04 -0.98868490439E+03  0.16639815842E+04  0.46999998093E+01 0.  1.
       -5    1    3    3    0  502  0.40539003654E+03  0.12755287926E+04 -0.54289471749E+03  0.14443239065E+04  0.46999998093E+01 0. -1.
</event>
<event>
 5   0  0.4846214E-06  0.2679538E+04  0.7818609E-02  0.8341675E-01
        1   -1    0    0  501    0  0.00000000000E+00  0.00000000000E+00  0.12660663881E+04  0.12660663881E+04  0.50400001928E-02 0.  1.
       -1   -1    0    0    0  501  0.00000000000E+00  0.00000000000E+00 -0.14177623706E+04  0.14177623706E+04  0.50400001928E-02 0. -1.
    10030    2    1    2    0    0  0.00000000000E+00  0.00000000000E+00 -0.15169598256E+03  0.26838287587E+04  0.26795382316E+04 0.  0.
        2    1    3    3  502    0  0.11953271264E+04  0.31337926139E+03  0.44263693648E+03  0.13126084557E+04  0.25500000920E-02 0. -1.
       -2    1    3    3    0  502 -0.11953271264E+04 -0.31337926139E+03 -0.59433291903E+03  0.13712203029E+04  0.25500000920E-02 0.  1.
</event>
<event>
 5   0  0.1286641E-05  0.2682724E+04  0.7818609E-02  0.8340632E-01
       -2   -1    0    0    0  501  0.00000000000E+00  0.00000000000E+00  0.89882413477E+03  0.89882413477E+03  0.25500000920E-02 0.  1.
        2   -1    0    0  501    0  0.00000000000E+00  0.00000000000E+00 -0.20017841006E+04  0.20017841006E+04  0.25500000920E-02 0. -1.
    10030    2    1    2    0    0  0.00000000000E+00  0.00000000000E+00 -0.11029599658E+04  0.29006082353E+04  0.26827238860E+04 0.  0.
        4    1    3    3  502    0 -0.47293069804E+03 -0.70273042710E+03 -0.16760277477E+04  0.18779148336E+04  0.12699999809E+01 0. -1.
       -4    1    3    3    0  502  0.47293069804E+03  0.70273042710E+03  0.57306778192E+03  0.10226934017E+04  0.12699999809E+01 0.  1.
</event>
<event>
 5   0  0.1276517E-05  0.2722579E+04  0.7818609E-02  0.8327716E-01
       -2   -1    0    0    0  501  0.00000000000E+00  0.00000000000E+00  0.10311210630E+04  0.10311210630E+04  0.25500000920E-02 0.  1.
        2   -1    0    0  501    0  0.00000000000E+00  0.00000000000E+00 -0.17971788860E+04  0.17971788860E+04  0.25500000920E-02 0. -1.
    10030    2    1    2    0    0  0.00000000000E+00  0.00000000000E+00 -0.76605782295E+03  0.28282999490E+04  0.27225789269E+04 0.  0.
        1    1    3    3  502    0  0.73141393333E+03  0.10320957845E+04  0.13941225651E+03  0.12726444231E+04  0.50400001928E-02 0.  1.
       -1    1    3    3    0  502 -0.73141393333E+03 -0.10320957845E+04 -0.90547007946E+03  0.15556555259E+04  0.50400001928E-02 0. -1.
</event>
<event>
 5   0  0.4826140E-06  0.2685961E+04  0.7818609E-02  0.8339574E-01
       -1   -1    0    0    0  501  0.00000000000E+00  0.00000000000E+00  0.71245288110E+03  0.71245288112E+03  0.50400001928E-02 0. -1.
        1   -1    0    0  501    0  0.00000000000E+00  0.00000000000E+00 -0.25315314292E+04  0.25315314292E+04  0.50400001928E-02 0.  1.
    10030    2    1    2    0    0  0.00000000000E+00  0.00000000000E+00 -0.18190785481E+04  0.32439843103E+04  0.26859611765E+04 0.  0.
        1    1    3    3  502    0  0.11182127568E+04  0.57848794369E+03 -0.14741553210E+04  0.19386031004E+04  0.50400001928E-02 0.  1.
       -1    1    3    3    0  502 -0.11182127568E+04 -0.57848794369E+03 -0.34492322707E+03  0.13053812099E+04  0.50400001928E-02 0. -1.
</event>
<event>
 5   0  0.4824715E-06  0.2681325E+04  0.7818609E-02  0.8341090E-01
        1   -1    0    0  501    0  0.00000000000E+00  0.00000000000E+00  0.13475450928E+04  0.13475450928E+04  0.50400001928E-02 0. -1.
       -1   -1    0    0    0  501  0.00000000000E+00  0.00000000000E+00 -0.13338146556E+04  0.13338146556E+04  0.50400001928E-02 0.  1.
    10030    2    1    2    0    0  0.00000000000E+00  0.00000000000E+00  0.13730437171E+02  0.26813597484E+04  0.26813245935E+04 0.  0.
        5    1    3    3  502    0  0.72970331176E+02  0.13379054236E+04  0.52006836830E+02  0.13409110309E+04  0.46999998093E+01 0.  1.
       -5    1    3    3    0  502 -0.72970331176E+02 -0.13379054236E+04 -0.38276399659E+02  0.13404487176E+04  0.46999998093E+01 0. -1.
</event>
<event>
 5   0  0.1261364E-05  0.2700326E+04  0.7818609E-02  0.8334899E-01
        2   -1    0    0  501    0  0.00000000000E+00  0.00000000000E+00  0.10661409231E+04  0.10661409231E+04  0.25500000920E-02 0.  1.
       -2   -1    0    0    0  501  0.00000000000E+00  0.00000000000E+00 -0.17098487910E+04  0.17098487911E+04  0.25500000920E-02 0. -1.
    10030    2    1    2    0    0  0.00000000000E+00  0.00000000000E+00 -0.64370786792E+03  0.27759897142E+04  0.27003257348E+04 0.  0.
        5    1    3    3  502    0  0.11112887052E+04  0.11442241505E+03  0.45758792589E+03  0.12072546853E+04  0.46999998093E+01 0.  1.
       -5    1    3    3    0  502 -0.11112887052E+04 -0.11442241505E+03 -0.11012957938E+04  0.15687350289E+04  0.46999998093E+01 0. -1.
</event>
<event>
 5   0  0.1261364E-05  0.2709986E+04  0.7818609E-02  0.8331772E-01
        2   -1    0    0  501    0  0.00000000000E+00  0.00000000000E+00  0.12974136013E+04  0.12974136013E+04  0.25500000920E-02 0.  1.
       -2   -1    0    0    0  501  0.00000000000E+00  0.00000000000E+00 -0.14151278972E+04  0.14151278972E+04  0.25500000920E-02 0. -1.
    10030    2    1    2    0    0  0.00000000000E+00  0.00000000000E+00 -0.11771429590E+03  0.27125414985E+04  0.27099861117E+04 0.  0.
        5    1    3    3  502    0  0.16694837862E+03  0.10875937616E+04  0.73261733771E+03  0.13219236759E+04  0.46999998093E+01 0.  1.
       -5    1    3    3    0  502 -0.16694837862E+03 -0.10875937616E+04 -0.85033163361E+03  0.13906178226E+04  0.46999998093E+01 0. -1.
</event>
<event>
 5   0  0.1261364E-05  0.2739351E+04  0.7818609E-02  0.8322349E-01
       -2   -1    0    0    0  501  0.00000000000E+00  0.00000000000E+00  0.86784470811E+03  0.86784470812E+03  0.25500000920E-02 0.  1.
        2   -1    0    0  501    0  0.00000000000E+00  0.00000000000E+00 -0.21616894237E+04  0.21616894237E+04  0.25500000920E-02 0. -1.
    10030    2    1    2    0    0  0.00000000000E+00  0.00000000000E+00 -0.12938447156E+04  0.30295341319E+04  0.27393508187E+04 0.  0.
        5    1    3    3  502    0  0.13074536378E+04  0.32670509895E+03 -0.37643811969E+03  0.13992494362E+04  0.46999998093E+01 0. -1.
       -5    1    3    3    0  502 -0.13074536378E+04 -0.32670509895E+03 -0.91740659593E+03  0.16302846957E+04  0.46999998093E+01 0.  1.
</event>
<event>
 5   0  0.1286641E-05  0.2732837E+04  0.7818609E-02  0.8324428E-01
       -2   -1    0    0    0  501  0.00000000000E+00  0.00000000000E+00  0.11838607941E+04  0.11838607941E+04  0.25500000920E-02 0. -1.
        2   -1    0    0  501    0  0.00000000000E+00  0.00000000000E+00 -0.15771279595E+04  0.15771279595E+04  0.25500000920E-02 0.  1.
    10030    2    1    2    0    0  0.00000000000E+00  0.00000000000E+00 -0.39326716542E+03  0.27609887536E+04  0.27328373230E+04 0.  0.
        4    1    3    3  502    0 -0.12852268023E+03 -0.32592840329E+03  0.11377103628E+04  0.11904343266E+04  0.12699999809E+01 0. -1.
       -4    1    3    3    0  502  0.12852268023E+03  0.32592840329E+03 -0.15309775282E+04  0.15705544270E+04  0.12699999809E+01 0.  1.
</event>
<event>
 5   0  0.1286641E-05  0.2660767E+04  0.7818609E-02  0.8347848E-01
        2   -1    0    0  501    0  0.00000000000E+00  0.00000000000E+00  0.11327552013E+04  0.11327552013E+04  0.25500000920E-02 0.  1.
       -2   -1    0    0    0  501  0.00000000000E+00  0.00000000000E+00 -0.15624916460E+04  0.15624916460E+04  0.25500000920E-02 0. -1.
    10030    2    1    2    0    0  0.00000000000E+00  0.00000000000E+00 -0.42973644476E+03  0.26952468473E+04  0.26607672119E+04 0.  0.
        4    1    3    3  502    0  0.17044999419E+03  0.84943408211E+02 -0.15486120465E+04  0.15602786503E+04  0.12699999809E+01 0. -1.
       -4    1    3    3    0  502 -0.17044999419E+03 -0.84943408211E+02  0.11188756017E+04  0.11349681970E+04  0.12699999809E+01 0.  1.
</event>
<event>
 5   0  0.4824715E-06  0.2673550E+04  0.7818609E-02  0.8343639E-01
        1   -1    0    0  501    0  0.00000000000E+00  0.00000000000E+00  0.14798713711E+04  0.14798713711E+04  0.50400001928E-02 0.  1.
       -1   -1    0    0    0  501  0.00000000000E+00  0.00000000000E+00 -0.12075149660E+04  0.12075149660E+04  0.50400001928E-02 0. -1.
    10030    2    1    2    0    0  0.00000000000E+00  0.00000000000E+00  0.27235640508E+03  0.26873863371E+04  0.26735495719E+04 0.  0.
        5    1    3    3  502    0  0.13339016208E+03 -0.11227295954E+04  0.85305227753E+03  0.14163456351E+04  0.46999998093E+01 0. -1.
       -5    1    3    3    0  502 -0.13339016208E+03  0.11227295954E+04 -0.58069587246E+03  0.12710407020E+04  0.46999998093E+01 0.  1.
</event>
<event>
 5   0  0.1232559E-05  0.2754298E+04  0.7818609E-02  0.8317599E-01
       -2   -1    0    0    0  501  0.00000000000E+00  0.00000000000E+00  0.94829815634E+03  0.94829815634E+03  0.25500000920E-02 0.  1.
        2   -1    0    0  501    0  0.00000000000E+00  0.00000000000E+00 -0.19999394507E+04  0.19999394507E+04  0.25500000920E-02 0. -1.
    10030    2    1    2    0    0  0.00000000000E+00  0.00000000000E+00 -0.10516412944E+04  0.29482376071E+04  0.27542976556E+04 0.  0.
        3    1    3    3  502    0  0.50680477598E+03 -0.86914377837E+03 -0.15323947394E+04  0.18331654688E+04  0.10100000352E+00 0. -1.
       -3    1    3    3    0  502 -0.50680477598E+03  0.86914377837E+03  0.48075344503E+03  0.11150721383E+04  0.10100000352E+00 0.  1.
</event>
<event>
 5   0  0.1220908E-05  0.2622748E+04  0.7818609E-02  0.8360515E-01
        2   -1    0    0  501    0  0.00000000000E+00  0.00000000000E+00  0.12890516489E+04  0.12890516489E+04  0.25500000920E-02 0. -1.
       -2   -1    0    0    0  501  0.00000000000E+00  0.00000000000E+00 -0.13340827957E+04  0.13340827957E+04  0.25500000920E-02 0.  1.
    10030    2    1    2    0    0  0.00000000000E+00  0.00000000000E+00 -0.45031146803E+02  0.26231344447E+04  0.26227478931E+04 0.  0.
        2    1    3    3  502    0  0.97017344445E+03  0.78013873473E+03 -0.43470332141E+03  0.13186432176E+04  0.25500000920E-02 0.  1.
       -2    1    3    3    0  502 -0.97017344445E+03 -0.78013873473E+03  0.38967217461E+03  0.13044912270E+04  0.25500000920E-02 0. -1.
</event>
<event>
 5   0  0.5152288E-06  0.2575756E+04  0.7818609E-02  0.8376483E-01
        1   -1    0    0  501    0  0.00000000000E+00  0.00000000000E+00  0.22921253218E+04  0.22921253218E+04  0.50400001928E-02 0.  1.
       -1   -1    0    0    0  501  0.00000000000E+00  0.00000000000E+00 -0.72362067042E+03  0.72362067044E+03  0.50400001928E-02 0. -1.
    10030    2    1    2    0    0  0.00000000000E+00  0.00000000000E+00  0.15685046514E+04  0.30157459923E+04  0.25757556267E+04 0.  0.
        3    1    3    3  502    0  0.11011189023E+04 -0.63205967857E+03  0.10371791782E+04  0.16394215236E+04  0.10100000352E+00 0. -1.
       -3    1    3    3    0  502 -0.11011189023E+04  0.63205967857E+03  0.53132547323E+03  0.13763244686E+04  0.10100000352E+00 0.  1.
</event>
<event>
 5   0  0.1261364E-05  0.2709063E+04  0.7818609E-02  0.8332070E-01
       -2   -1    0    0    0  501  0.00000000000E+00  0.00000000000E+00  0.18551399919E+04  0.18551399919E+04  0.25500000920E-02 0.  1.
        2   -1    0    0  501    0  0.00000000000E+00  0.00000000000E+00 -0.98901228079E+03  0.98901228079E+03  0.25500000920E-02 0. -1.
    10030    2    1    2    0    0  0.00000000000E+00  0.00000000000E+00  0.86612771110E+03  0.28441522727E+04  0.27090634799E+04 0.  0.
        5    1    3    3  502    0  0.90922179160E+03 -0.14226701506E+03 -0.61038307586E+03  0.11043159689E+04  0.46999998093E+01 0. -1.
       -5    1    3    3    0  502 -0.90922179160E+03  0.14226701506E+03  0.14765107870E+04  0.17398363038E+04  0.46999998093E+01 0.  1.
</event>
<event>
 5   0  0.1220908E-05  0.2715830E+04  0.7818609E-02  0.8329887E-01
       -2   -1    0    0    0  501  0.00000000000E+00  0.00000000000E+00  0.84663969995E+03  0.84663969995E+03  0.25500000920E-02 0.  1.
        2   -1    0    0  501    0  0.00000000000E+00  0.00000000000E+00 -0.21779432827E+04  0.21779432827E+04  0.25500000920E-02 0. -1.
    10030    2    1    2    0    0  0.00000000000E+00  0.00000000000E+00 -0.13313035828E+04  0.30245829827E+04  0.27158300738E+04 0.  0.
        2    1    3    3  502    0 -0.15033199229E+02  0.66831526290E+03 -0.19819998732E+04  0.20916966284E+04  0.25500000920E-02 0. -1.
       -2    1    3    3    0  502  0.15033199229E+02 -0.66831526290E+03  0.65069629042E+03  0.93288635432E+03  0.25500000920E-02 0.  1.
</event>
<event>
 5   0  0.4826140E-06  0.2733174E+04  0.7818609E-02  0.8324321E-01
       -1   -1    0    0    0  501  0.00000000000E+00  0.00000000000E+00  0.84700066551E+03  0.84700066553E+03  0.50400001928E-02 0.  1.
        1   -1    0    0  501    0  0.00000000000E+00  0.00000000000E+00 -0.22049097787E+04  0.22049097787E+04  0.50400001928E-02 0. -1.
    10030    2    1    2    0    0  0.00000000000E+00  0.00000000000E+00 -0.13579091132E+04  0.30519104442E+04  0.27331740157E+04 0.  0.
        1    1    3    3  502    0 -0.11275203354E+04  0.62324504463E+03 -0.11879945323E+04  0.17524461479E+04  0.50400001928E-02 0.  1.
       -1    1    3    3    0  502  0.11275203354E+04 -0.62324504463E+03 -0.16991458082E+03  0.12994642963E+04  0.50400001928E-02 0. -1.
</event>
<event>
 5   0  0.1261364E-05  0.2692810E+04  0.7818609E-02  0.8337342E-01
       -2   -1    0    0    0  501  0.00000000000E+00  0.00000000000E+00  0.94890125776E+03  0.94890125777E+03  0.25500000920E-02 0.  1.
        2   -1    0    0  501    0  0.00000000000E+00  0.00000000000E+00 -0.19104264179E+04  0.19104264179E+04  0.25500000920E-02 0. -1.
    10030    2    1    2    0    0  0.00000000000E+00  0.00000000000E+00 -0.96152516013E+03  0.28593276757E+04  0.26928097079E+04 0.  0.
        5    1    3    3  502    0  0.43862858116E+03 -0.79144000555E+03 -0.15394164649E+04  0.17856644301E+04  0.46999998093E+01 0. -1.
       -5    1    3    3    0  502 -0.43862858116E+03  0.79144000555E+03  0.57789130480E+03  0.10736632455E+04  0.46999998093E+01 0.  1.
</event>
<event>
 5   0  0.4188000E-06  0.2635624E+04  0.7818609E-02  0.8356200E-01
        4   -1    0    0  501    0  0.00000000000E+00  0.00000000000E+00  0.13674844540E+04  0.13674850437E+04  0.12699999809E+01 0. -1.
       -4   -1    0    0    0  501  0.00000000000E+00  0.00000000000E+00 -0.12699430912E+04  0.12699437262E+04  0.12699999809E+01 0.  1.
    10030    2    1    2    0    0  0.00000000000E+00  0.00000000000E+00  0.97541362806E+02  0.26374287699E+04  0.26356244419E+04 0.  0.
        1    1    3    3  502    0 -0.41141040689E+03  0.71057651980E+03 -0.98268786178E+03  0.12805674317E+04  0.50400001928E-02 0.  1.
       -1    1    3    3    0  502  0.41141040689E+03 -0.71057651980E+03  0.10802292246E+04  0.13568613382E+04  0.50400001928E-02 0. -1.
</event>
<event>
 5   0  0.1232559E-05  0.2761875E+04  0.7818609E-02  0.8315203E-01
       -2   -1    0    0    0  501  0.00000000000E+00  0.00000000000E+00  0.78300617667E+03  0.78300617668E+03  0.25500000920E-02 0. -1.
        2   -1    0    0  501    0  0.00000000000E+00  0.00000000000E+00 -0.24354708962E+04  0.24354708962E+04  0.25500000920E-02 0.  1.
    10030    2    1    2    0    0  0.00000000000E+00  0.00000000000E+00 -0.16524647195E+04  0.32184770729E+04  0.27618752722E+04 0.  0.
        3    1    3    3  502    0  0.62601381403E+03  0.29436222667E+03  0.56653417044E+03  0.89414953577E+03  0.10100000352E+00 0. -1.
       -3    1    3    3    0  502 -0.62601381403E+03 -0.29436222667E+03 -0.22189988900E+04  0.23243275371E+04  0.10100000352E+00 0.  1.
</event>
<event>
 5   0  0.4846214E-06  0.2692926E+04  0.7818609E-02  0.8337304E-01
        1   -1    0    0  501    0  0.00000000000E+00  0.00000000000E+00  0.57977703378E+03  0.57977703380E+03  0.50400001928E-02 0.  1.
       -1   -1    0    0    0  501  0.00000000000E+00  0.00000000000E+00 -0.31270002469E+04  0.31270002469E+04  0.50400001928E-02 0. -1.
    10030    2    1    2    0    0  0.00000000000E+00  0.00000000000E+00 -0.25472232131E+04  0.37067772807E+04  0.26929262358E+04 0.  0.
        2    1    3    3  502    0  0.73023237731E+03  0.11297058604E+04 -0.11923141037E+04  0.17975226223E+04  0.25500000920E-02 0. -1.
       -2    1    3    3    0  502 -0.73023237731E+03 -0.11297058604E+04 -0.13549091094E+04  0.19092546584E+04  0.25500000920E-02 0.  1.
</event>
<event>
 5   0  0.4824715E-06  0.2555393E+04  0.7818609E-02  0.8383513E-01
       -1   -1    0    0    0  501  0.00000000000E+00  0.00000000000E+00  0.12713530278E+04  0.12713530278E+04  0.50400001928E-02 0.  1.
        1   -1    0    0  501    0  0.00000000000E+00  0.00000000000E+00 -0.12840712318E+04  0.12840712318E+04  0.50400001928E-02 0. -1.
    10030    2    1    2    0    0  0.00000000000E+00  0.00000000000E+00 -0.12718204071E+02  0.25554242596E+04  0.25553926105E+04 0.  0.
        5    1    3    3  502    0 -0.10379821359E+04  0.60873227218E+02 -0.74891344486E+03  0.12814077814E+04  0.46999998093E+01 0. -1.
       -5    1    3    3    0  502  0.10379821359E+04 -0.60873227218E+02  0.73619524079E+03  0.12740164782E+04  0.46999998093E+01 0.  1.
</event>
<event>
 5   0  0.1220908E-05  0.2529383E+04  0.7818609E-02  0.8392592E-01
       -2   -1    0    0    0  501  0.00000000000E+00  0.00000000000E+00  0.61619263922E+03  0.61619263922E+03  0.25500000920E-02 0. -1.
        2   -1    0    0  501    0  0.00000000000E+00  0.00000000000E+00 -0.25956883383E+04  0.25956883383E+04  0.25500000920E-02 0.  1.
    10030    2    1    2    0    0  0.00000000000E+00  0.00000000000E+00 -0.19794956990E+04  0.32118809775E+04  0.25293825711E+04 0.  0.
        2    1    3    3  502    0 -0.20974974879E+03 -0.36291365113E+03 -0.25049154945E+04  0.25397446545E+04  0.25500000920E-02 0.  1.
       -2    1    3    3    0  502  0.20974974879E+03  0.36291365113E+03  0.52541979544E+03  0.67213632304E+03  0.25500000920E-02 0. -1.
</event>
<event>
 5   0  0.1276517E-05  0.2727676E+04  0.7818609E-02  0.8326081E-01
       -2   -1    0    0    0  501  0.00000000000E+00  0.00000000000E+00  0.92472934514E+03  0.92472934514E+03  0.25500000920E-02 0.  1.
        2   -1    0    0  501    0  0.00000000000E+00  0.00000000000E+00 -0.20114571760E+04  0.20114571760E+04  0.25500000920E-02 0. -1.
    10030    2    1    2    0    0  0.00000000000E+00  0.00000000000E+00 -0.10867278309E+04  0.29361865211E+04  0.27276755505E+04 0.  0.
        1    1    3    3  502    0 -0.15007142027E+03 -0.28395061133E+03  0.88344218472E+03  0.94001035878E+03  0.50400001928E-02 0.  1.
       -1    1    3    3    0  502  0.15007142027E+03  0.28395061133E+03 -0.19701700156E+04  0.19961761624E+04  0.50400001928E-02 0. -1.
</event>
<event>
 5   0  0.4756800E-06  0.2648849E+04  0.7818609E-02  0.8351795E-01
        1   -1    0    0  501    0  0.00000000000E+00  0.00000000000E+00  0.12250846032E+04  0.12250846032E+04  0.50400001928E-02 0.  1.
       -1   -1    0    0    0  501  0.00000000000E+00  0.00000000000E+00 -0.14318202071E+04  0.14318202071E+04  0.50400001928E-02 0. -1.
    10030    2    1    2    0    0  0.00000000000E+00  0.00000000000E+00 -0.20673560389E+03  0.26569048103E+04  0.26488494787E+04 0.  0.
        4    1    3    3  502    0 -0.23674018934E+03  0.11898264380E+04  0.42962976822E+03  0.12869794950E+04  0.12699999809E+01 0.  1.
       -4    1    3    3    0  502  0.23674018934E+03 -0.11898264380E+04 -0.63636537210E+03  0.13699253153E+04  0.12699999809E+01 0. -1.
</event>
<event>
 5   0  0.5152288E-06  0.2718589E+04  0.7818609E-02  0.8328999E-01
        1   -1    0    0  501    0  0.00000000000E+00  0.00000000000E+00  0.15137500370E+04  0.15137500370E+04  0.50400001928E-02 0. -1.
       -1   -1    0    0    0  501  0.00000000000E+00  0.00000000000E+00 -0.12205985646E+04  0.12205985646E+04  0.50400001928E-02 0.  1.
    10030    2    1    2    0    0  0.00000000000E+00  0.00000000000E+00  0.29315147245E+03  0.27343486016E+04  0.27185886944E+04 0.  0.
        3    1    3    3  502    0 -0.12918865514E+04 -0.37537575276E+03 -0.48982090264E+02  0.13462084061E+04  0.10100000352E+00 0. -1.
       -3    1    3    3    0  502  0.12918865514E+04  0.37537575276E+03  0.34213356272E+03  0.13881401955E+04  0.10100000352E+00 0.  1.
</event>
<event>
 5   0  0.1220908E-05  0.2698040E+04  0.7818609E-02  0.8335641E-01
        2   -1    0    0  501    0  0.00000000000E+00  0.00000000000E+00  0.23066782127E+04  0.23066782127E+04  0.25500000920E-02 0.  1.
       -2   -1    0    0    0  501  0.00000000000E+00  0.00000000000E+00 -0.78895037874E+03  0.78895037874E+03  0.25500000920E-02 0. -1.
    10030    2    1    2    0    0  0.00000000000E+00  0.00000000000E+00  0.15177278339E+04  0.30956285914E+04  0.26980397695E+04 0.  0.
        2    1    3    3  502    0 -0.65293469756E+03  0.27263511825E+03  0.20766836059E+04  0.21939162304E+04  0.25500000920E-02 0.  1.
       -2    1    3    3    0  502  0.65293469756E+03 -0.27263511825E+03 -0.55895577196E+03  0.90171236101E+03  0.25500000920E-02 0. -1.
</event>
<event>
 5   0  0.4826140E-06  0.2730962E+04  0.7818609E-02  0.8325028E-01
        1   -1    0    0  501    0  0.00000000000E+00  0.00000000000E+00  0.11101247890E+04  0.11101247890E+04  0.50400001928E-02 0. -1.
       -1   -1    0    0    0  501  0.00000000000E+00  0.00000000000E+00 -0.16795754117E+04  0.16795754118E+04  0.50400001928E-02 0.  1.
    10030    2    1    2    0    0  0.00000000000E+00  0.00000000000E+00 -0.56945062275E+03  0.27897002008E+04  0.27309619548E+04 0.  0.
        1    1    3    3  502    0 -0.10093860110E+04  0.14976461046E+03  0.64212035045E+03  0.12056567099E+04  0.50400001928E-02 0. -1.
       -1    1    3    3    0  502  0.10093860110E+04 -0.14976461046E+03 -0.12115709732E+04  0.15840434908E+04  0.50400001928E-02 0.  1.
</event>
<event>
 5   0  0.4826140E-06  0.2817992E+04  0.7818609E-02  0.8297704E-01
       -1   -1    0    0    0  501  0.00000000000E+00  0.00000000000E+00  0.14838001899E+04  0.14838001899E+04  0.50400001928E-02 0. -1.
        1   -1    0    0  501    0  0.00000000000E+00  0.00000000000E+00 -0.13379632659E+04  0.13379632659E+04  0.50400001928E-02 0.  1.
    10030    2    1    2    0    0  0.00000000000E+00  0.00000000000E+00  0.14583692400E+03  0.28217634557E+04  0.28179922980E+04 0.  0.
        1    1    3    3  502    0 -0.14071853523E+04 -0.78758121374E+01  0.18481061473E+01  0.14072086056E+04  0.50400001928E-02 0.  1.
       -1    1    3    3    0  502  0.14071853523E+04  0.78758121374E+01  0.14398881785E+03  0.14145548501E+04  0.50400001928E-02 0. -1.
</event>
<event>
 5   0  0.4846214E-06  0.2695175E+04  0.7818609E-02  0.8336572E-01
        1   -1    0    0  501    0  0.00000000000E+00  0.00000000000E+00  0.22279735177E+04  0.22279735178E+04  0.50400001928E-02 0. -1.
       -1   -1    0    0    0  501  0.00000000000E+00  0.00000000000E+00 -0.81508695681E+03  0.81508695683E+03  0.50400001928E-02 0.  1.
    10030    2    1    2    0    0  0.00000000000E+00  0.00000000000E+00  0.14128865609E+04  0.30430604746E+04  0.26951750626E+04 0.  0.
        2    1    3    3  502    0  0.96317716657E+03 -0.46063229686E+03  0.16348301794E+04  0.19525783166E+04  0.25500000920E-02 0. -1.
       -2    1    3    3    0  502 -0.96317716657E+03  0.46063229686E+03 -0.22194361843E+03  0.10904821580E+04  0.25500000920E-02 0.  1.
</event>
<event>
 5   0  0.1286641E-05  0.2666292E+04  0.7818609E-02  0.8346026E-01
       -2   -1    0    0    0  501  0.00000000000E+00  0.00000000000E+00  0.99035153994E+03  0.99035153995E+03  0.25500000920E-02 0. -1.
        2   -1    0    0  501    0  0.00000000000E+00  0.00000000000E+00 -0.17945934060E+04  0.17945934060E+04  0.25500000920E-02 0.  1.
    10030    2    1    2    0    0  0.00000000000E+00  0.00000000000E+00 -0.80424186608E+03  0.27849449460E+04  0.26662920644E+04 0.  0.
        4    1    3    3  502    0 -0.81736327653E+03 -0.25755488811E+03  0.66452870843E+03  0.10844432966E+04  0.12699999809E+01 0. -1.
       -4    1    3    3    0  502  0.81736327653E+03  0.25755488811E+03 -0.14687705745E+04  0.17005016494E+04  0.12699999809E+01 0.  1.
</event>
<event>
 5   0  0.4188000E-06  0.2669253E+04  0.7818609E-02  0.8345051E-01
       -4   -1    0    0    0  501  0.00000000000E+00  0.00000000000E+00  0.11319001130E+04  0.11319008255E+04  0.12699999809E+01 0.  1.
        4   -1    0    0  501    0  0.00000000000E+00  0.00000000000E+00 -0.15736607850E+04  0.15736612975E+04  0.12699999809E+01 0. -1.
    10030    2    1    2    0    0  0.00000000000E+00  0.00000000000E+00 -0.44176067202E+03  0.27055621229E+04  0.26692534368E+04 0.  0.
        5    1    3    3  502    0  0.22266337363E+02 -0.27872971603E+03 -0.15436298713E+04  0.15687578889E+04  0.46999998093E+01 0. -1.
       -5    1    3    3    0  502 -0.22266337363E+02  0.27872971603E+03  0.11018691992E+04  0.11368042341E+04  0.46999998093E+01 0.  1.
</event>
<event>
 5   0  0.1286641E-05  0.2660995E+04  0.7818609E-02  0.8347773E-01
       -2   -1    0    0    0  501  0.00000000000E+00  0.00000000000E+00  0.68992696437E+03  0.68992696437E+03  0.25500000920E-02 0. -1.
        2   -1    0    0  501    0  0.00000000000E+00  0.00000000000E+00 -0.25658135354E+04  0.25658135354E+04  0.25500000920E-02 0.  1.
    10030    2    1    2    0    0  0.00000000000E+00  0.00000000000E+00 -0.18758865710E+04  0.32557404998E+04  0.26609952601E+04 0.  0.
        4    1    3    3  502    0 -0.10068815202E+04 -0.36037624221E+03 -0.19064004001E+04  0.21858740883E+04  0.12699999809E+01 0. -1.
       -4    1    3    3    0  502  0.10068815202E+04  0.36037624221E+03  0.30513829055E+02  0.10698664114E+04  0.12699999809E+01 0.  1.
</event>
<event>
 5   0  0.1276517E-05  0.2769342E+04  0.7818609E-02  0.8312850E-01
        2   -1    0    0  501    0  0.00000000000E+00  0.00000000000E+00  0.14548295435E+04  0.14548295435E+04  0.25500000920E-02 0. -1.
       -2   -1    0    0    0  501  0.00000000000E+00  0.00000000000E+00 -0.13178959067E+04  0.13178959067E+04  0.25500000920E-02 0.  1.
    10030    2    1    2    0    0  0.00000000000E+00  0.00000000000E+00  0.13693363680E+03  0.27727254503E+04  0.27693420882E+04 0.  0.
        1    1    3    3  502    0  0.10370166483E+04 -0.64743854117E+03 -0.58250726929E+03  0.13542137616E+04  0.50400001928E-02 0.  1.
       -1    1    3    3    0  502 -0.10370166483E+04  0.64743854117E+03  0.71944090609E+03  0.14185116886E+04  0.50400001928E-02 0. -1.
</event>
<event>
 5   0  0.4188000E-06  0.2697117E+04  0.7818609E-02  0.8335941E-01
        4   -1    0    0  501    0  0.00000000000E+00  0.00000000000E+00  0.15104388847E+04  0.15104394187E+04  0.12699999809E+01 0.  1.
       -4   -1    0    0    0  501  0.00000000000E+00  0.00000000000E+00 -0.12040268471E+04  0.12040275169E+04  0.12699999809E+01 0. -1.
    10030    2    1    2    0    0  0.00000000000E+00  0.00000000000E+00  0.30641203767E+03  0.27144669355E+04  0.26971174255E+04 0.  0.
        2    1    3    3  502    0 -0.71037129737E+03  0.55820338335E+03  0.11608417081E+04  0.14709765017E+04  0.25500000920E-02 0.  1.
       -2    1    3    3    0  502  0.71037129737E+03 -0.55820338335E+03 -0.85442967041E+03  0.12434904338E+04  0.25500000920E-02 0. -1.
</event>
<event>
 5   0  0.1232559E-05  0.2697133E+04  0.7818609E-02  0.8335936E-01
        2   -1    0    0  501    0  0.00000000000E+00  0.00000000000E+00  0.13588926504E+04  0.13588926504E+04  0.25500000920E-02 0. -1.
       -2   -1    0    0    0  501  0.00000000000E+00  0.00000000000E+00 -0.13383189907E+04  0.13383189907E+04  0.25500000920E-02 0.  1.
    10030    2    1    2    0    0  0.00000000000E+00  0.00000000000E+00  0.20573659688E+02  0.26972116411E+04  0.26971331745E+04 0.  0.
        3    1    3    3  502    0  0.70939362088E+03  0.23805526984E+03  0.11322473680E+04  0.13571638565E+04  0.10100000352E+00 0. -1.
       -3    1    3    3    0  502 -0.70939362088E+03 -0.23805526984E+03 -0.11116737083E+04  0.13400477845E+04  0.10100000352E+00 0.  1.
</event>
<event>
 5   0  0.1286641E-05  0.2695168E+04  0.7818609E-02  0.8336575E-01
        2   -1    0    0  501    0  0.00000000000E+00  0.00000000000E+00  0.15425243264E+04  0.15425243264E+04  0.25500000920E-02 0.  1.
       -2   -1    0    0    0  501  0.00000000000E+00  0.00000000000E+00 -0.11772796278E+04  0.11772796278E+04  0.25500000920E-02 0. -1.
    10030    2    1    2    0    0  0.00000000000E+00  0.00000000000E+00  0.36524469859E+03  0.27198039542E+04  0.26951678722E+04 0.  0.
        4    1    3    3  502    0 -0.52721028490E+03 -0.33823633671E+03 -0.10214422515E+04  0.11982071566E+04  0.12699999809E+01 0. -1.
       -4    1    3    3    0  502  0.52721028490E+03  0.33823633671E+03  0.13866869501E+04  0.15215967976E+04  0.12699999809E+01 0.  1.
</event>
<event>
 5   0  0.5152288E-06  0.2700439E+04  0.7818609E-02  0.8334863E-01
        1   -1    0    0  501    0  0.00000000000E+00  0.00000000000E+00  0.17542353707E+04  0.17542353707E+04  0.50400001928E-02 0. -1.
       -1   -1    0    0    0  501  0.00000000000E+00  0.00000000000E+00 -0.10392520926E+04  0.10392520926E+04  0.50400001928E-02 0.  1.
    10030    2    1    2    0    0  0.00000000000E+00  0.00000000000E+00  0.71498327809E+03  0.27934874632E+04  0.27004390605E+04 0.  0.
        3    1    3    3  502    0  0.71876921189E+03 -0.10111142469E+04 -0.19389571957E+03  0.12556180791E+04  0.10100000352E+00 0.  1.
       -3    1    3    3    0  502 -0.71876921189E+03  0.10111142469E+04  0.90887899766E+03  0.15378693842E+04  0.10100000352E+00 0. -1.
</event>
<event>
 5   0  0.4846214E-06  0.2676741E+04  0.7818609E-02  0.8342591E-01
        1   -1    0    0  501    0  0.00000000000E+00  0.00000000000E+00  0.17253937890E+04  0.17253937890E+04  0.50400001928E-02 0.  1.
       -1   -1    0    0    0  501  0.00000000000E+00  0.00000000000E+00 -0.10381603625E+04  0.10381603626E+04  0.50400001928E-02 0. -1.
    10030    2    1    2    0    0  0.00000000000E+00  0.00000000000E+00  0.68723342644E+03  0.27635541515E+04  0.26767408851E+04 0.  0.
        2    1    3    3  502    0  0.96125435402E+03 -0.35008083865E+03  0.12345460486E+04  0.16033310553E+04  0.25500000920E-02 0.  1.
       -2    1    3    3    0  502 -0.96125435402E+03  0.35008083865E+03 -0.54731262216E+03  0.11602230963E+04  0.25500000920E-02 0. -1.
</event>
<event>
 5   0  0.4824715E-06  0.2697883E+04  0.7818609E-02  0.8335692E-01
        1   -1    0    0  501    0  0.00000000000E+00  0.00000000000E+00  0.14429137129E+04  0.14429137129E+04  0.50400001928E-02 0. -1.
       -1   -1    0    0    0  501  0.00000000000E+00  0.00000000000E+00 -0.12610894482E+04  0.12610894482E+04  0.50400001928E-02 0.  1.
    10030    2    1    2    0    0  0.00000000000E+00  0.00000000000E+00  0.18182426477E+03  0.27040031611E+04  0.26978830650E+04 0.  0.
        5    1    3    3  502    0 -0.20611160274E+03 -0.48623798312E+03  0.13349820171E+04  0.14356561026E+04  0.46999998093E+01 0. -1.
       -5    1    3    3    0  502  0.20611160274E+03  0.48623798312E+03 -0.11531577523E+04  0.12683470585E+04  0.46999998093E+01 0.  1.
</event>
<event>
 5   0  0.1286641E-05  0.2699362E+04  0.7818609E-02  0.8335212E-01
       -2   -1    0    0    0  501  0.00000000000E+00  0.00000000000E+00  0.90132653082E+03  0.90132653083E+03  0.25500000920E-02 0.  1.
        2   -1    0    0  501    0  0.00000000000E+00  0.00000000000E+00 -0.20210636578E+04  0.20210636578E+04  0.25500000920E-02 0. -1.
    10030    2    1    2    0    0  0.00000000000E+00  0.00000000000E+00 -0.11197371269E+04  0.29223901886E+04  0.26993616247E+04 0.  0.
        4    1    3    3  502    0 -0.29952707321E+03  0.33574842671E+03 -0.19374791403E+04  0.19890375827E+04  0.12699999809E+01 0. -1.
       -4    1    3    3    0  502  0.29952707321E+03 -0.33574842671E+03  0.81774201333E+03  0.93335260587E+03  0.12699999809E+01 0.  1.
</event>
<event>
 5   0  0.4826140E-06  0.2743179E+04  0.7818609E-02  0.8321129E-01
       -1   -1    0    0    0  501  0.00000000000E+00  0.00000000000E+00  0.13207959455E+04  0.13207959455E+04  0.50400001928E-02 0.  1.
        1   -1    0    0  501    0  0.00000000000E+00  0.00000000000E+00 -0.14243367632E+04  0.14243367632E+04  0.50400001928E-02 0. -1.
    10030    2    1    2    0    0  0.00000000000E+00  0.00000000000E+00 -0.10354081778E+03  0.27451327087E+04  0.27431793393E+04 0.  0.
        1    1    3    3  502    0  0.66674805393E+03 -0.10414013197E+04 -0.64564775204E+03  0.13949661988E+04  0.50400001928E-02 0. -1.
       -1    1    3    3    0  502 -0.66674805393E+03  0.10414013197E+04  0.54210693426E+03  0.13501665099E+04  0.50400001928E-02 0.  1.
</event>
<event>
 5   0  0.4824715E-06  0.2221147E+04  0.7818609E-02  0.8509678E-01
       -1   -1    0    0    0  501  0.00000000000E+00  0.00000000000E+00  0.12579368084E+04  0.12579368084E+04  0.50400001928E-02 0. -1.
        1   -1    0    0  501    0  0.00000000000E+00  0.00000000000E+00 -0.98047302437E+03  0.98047302438E+03  0.50400001928E-02 0.  1.
    10030    2    1    2    0    0  0.00000000000E+00  0.00000000000E+00  0.27746378404E+03  0.22384098328E+04  0.22211466472E+04 0.  0.
        5    1    3    3  502    0 -0.54362348513E+03  0.68332876541E+03  0.83027683462E+03  0.12049258929E+04  0.46999998093E+01 0. -1.
       -5    1    3    3    0  502  0.54362348513E+03 -0.68332876541E+03 -0.55281305058E+03  0.10334839399E+04  0.46999998093E+01 0.  1.
</event>
<event>
 5   0  0.4826140E-06  0.2479965E+04  0.7818609E-02  0.8410158E-01
        1   -1    0    0  501    0  0.00000000000E+00  0.00000000000E+00  0.12827887419E+04  0.12827887419E+04  0.50400001928E-02 0.  1.
       -1   -1    0    0    0  501  0.00000000000E+00  0.00000000000E+00 -0.11986047472E+04  0.11986047472E+04  0.50400001928E-02 0. -1.
    10030    2    1    2    0    0  0.00000000000E+00  0.00000000000E+00  0.84183994765E+02  0.24813934891E+04  0.24799650608E+04 0.  0.
        1    1    3    3  502    0  0.39406542732E+03 -0.82883378674E+03  0.87642099211E+03  0.12690022705E+04  0.50400001928E-02 0.  1.
       -1    1    3    3    0  502 -0.39406542732E+03  0.82883378674E+03 -0.79223699735E+03  0.12123912186E+04  0.50400001928E-02 0. -1.
</event>
<event>
 5   0  0.4846214E-06  0.2680098E+04  0.7818609E-02  0.8341492E-01
       -1   -1    0    0    0  501  0.00000000000E+00  0.00000000000E+00  0.92709956785E+03  0.92709956787E+03  0.50400001928E-02 0. -1.
        1   -1    0    0  501    0  0.00000000000E+00  0.00000000000E+00 -0.19369341171E+04  0.19369341171E+04  0.50400001928E-02 0.  1.
    10030    2    1    2    0    0  0.00000000000E+00  0.00000000000E+00 -0.10098345493E+04  0.28640336850E+04  0.26800975975E+04 0.  0.
        2    1    3    3  502    0  0.13149248343E+04  0.24329953764E+03 -0.59751764512E+03  0.14646669660E+04  0.25500000920E-02 0. -1.
       -2    1    3    3    0  502 -0.13149248343E+04 -0.24329953764E+03 -0.41231690416E+03  0.13993667191E+04  0.25500000920E-02 0.  1.
</event>
<event>
 5   0  0.1261364E-05  0.2724198E+04  0.7818609E-02  0.8327196E-01
       -2   -1    0    0    0  501  0.00000000000E+00  0.00000000000E+00  0.17835544344E+04  0.17835544344E+04  0.25500000920E-02 0.  1.
        2   -1    0    0  501    0  0.00000000000E+00  0.00000000000E+00 -0.10402335408E+04  0.10402335408E+04  0.25500000920E-02 0. -1.
    10030    2    1    2    0    0  0.00000000000E+00  0.00000000000E+00  0.74332089353E+03  0.28237879752E+04  0.27241976026E+04 0.  0.
        5    1    3    3  502    0 -0.36258412143E+03  0.39290265764E+02  0.17319938674E+04  0.17699818691E+04  0.46999998093E+01 0.  1.
       -5    1    3    3    0  502  0.36258412143E+03 -0.39290265764E+02 -0.98867297387E+03  0.10538061061E+04  0.46999998093E+01 0. -1.
</event>
<event>
 5   0  0.1286641E-05  0.2706876E+04  0.7818609E-02  0.8332777E-01
       -2   -1    0    0    0  501  0.00000000000E+00  0.00000000000E+00  0.14818774167E+04  0.14818774167E+04  0.25500000920E-02 0. -1.
        2   -1    0    0  501    0  0.00000000000E+00  0.00000000000E+00 -0.12361308958E+04  0.12361308958E+04  0.25500000920E-02 0.  1.
    10030    2    1    2    0    0  0.00000000000E+00  0.00000000000E+00  0.24574652089E+03  0.27180083124E+04  0.27068760285E+04 0.  0.
        4    1    3    3  502    0 -0.12609962412E+04  0.17468624225E+02  0.61619427109E+03  0.14036073760E+04  0.12699999809E+01 0. -1.
       -4    1    3    3    0  502  0.12609962412E+04 -0.17468624225E+02 -0.37044775021E+03  0.13144009365E+04  0.12699999809E+01 0.  1.
</event>
<event>
 5   0  0.5152288E-06  0.2721185E+04  0.7818609E-02  0.8328164E-01
        1   -1    0    0  501    0  0.00000000000E+00  0.00000000000E+00  0.19506103782E+04  0.19506103783E+04  0.50400001928E-02 0. -1.
       -1   -1    0    0    0  501  0.00000000000E+00  0.00000000000E+00 -0.94904205570E+03  0.94904205572E+03  0.50400001928E-02 0.  1.
    10030    2    1    2    0    0  0.00000000000E+00  0.00000000000E+00  0.10015683225E+04  0.28996524340E+04  0.27211845092E+04 0.  0.
        3    1    3    3  502    0  0.30147901991E+03  0.63868857710E+03  0.17399810281E+04  0.18778569398E+04  0.10100000352E+00 0. -1.
       -3    1    3    3    0  502 -0.30147901991E+03 -0.63868857710E+03 -0.73841270557E+03  0.10217954942E+04  0.10100000352E+00 0.  1.
</event>
<event>
 5   0  0.4846214E-06  0.2666750E+04  0.7818609E-02  0.8345875E-01
        1   -1    0    0  501    0  0.00000000000E+00  0.00000000000E+00  0.11347094266E+04  0.11347094266E+04  0.50400001928E-02 0.  1.
       -1   -1    0    0    0  501  0.00000000000E+00  0.00000000000E+00 -0.15668226009E+04  0.15668226009E+04  0.50400001928E-02 0. -1.
    10030    2    1    2    0    0  0.00000000000E+00  0.00000000000E+00 -0.43211317436E+03  0.27015320275E+04  0.26667496133E+04 0.  0.
        2    1    3    3  502    0 -0.15976533289E+03 -0.30095801628E+03 -0.15219738055E+04  0.15596489842E+04  0.25500000920E-02 0. -1.
       -2    1    3    3    0  502  0.15976533289E+03  0.30095801628E+03  0.10898606312E+04  0.11418830433E+04  0.25500000920E-02 0.  1.
</event>
<event>
 5   0  0.1286641E-05  0.2638309E+04  0.7818609E-02  0.8355304E-01
       -2   -1    0    0    0  501  0.00000000000E+00  0.00000000000E+00  0.10027346493E+04  0.10027346493E+04  0.25500000920E-02 0.  1.
        2   -1    0    0  501    0  0.00000000000E+00  0.00000000000E+00 -0.17354234539E+04  0.17354234539E+04  0.25500000920E-02 0. -1.
    10030    2    1    2    0    0  0.00000000000E+00  0.00000000000E+00 -0.73268880457E+03  0.27381581033E+04  0.26383094803E+04 0.  0.
        4    1    3    3  502    0 -0.99583479127E+03  0.17034793102E+03  0.51396794582E+03  0.11335210679E+04  0.12699999809E+01 0.  1.
       -4    1    3    3    0  502  0.99583479127E+03 -0.17034793102E+03 -0.12466567504E+04  0.16046370354E+04  0.12699999809E+01 0. -1.
</event>
<event>
 5   0  0.4826140E-06  0.2709689E+04  0.7818609E-02  0.8331868E-01
        1   -1    0    0  501    0  0.00000000000E+00  0.00000000000E+00  0.13387776879E+04  0.13387776880E+04  0.50400001928E-02 0.  1.
       -1   -1    0    0    0  501  0.00000000000E+00  0.00000000000E+00 -0.13711038651E+04  0.13711038651E+04  0.50400001928E-02 0. -1.
    10030    2    1    2    0    0  0.00000000000E+00  0.00000000000E+00 -0.32326177192E+02  0.27098815531E+04  0.27096887368E+04 0.  0.
        1    1    3    3  502    0  0.63937898834E+02 -0.77776514918E+03 -0.11237601052E+04  0.13681533014E+04  0.50400001928E-02 0. -1.
       -1    1    3    3    0  502 -0.63937898834E+02  0.77776514918E+03  0.10914339280E+04  0.13417282517E+04  0.50400001928E-02 0.  1.
</event>
<event>
 5   0  0.1276517E-05  0.2742466E+04  0.7818609E-02  0.8321356E-01
       -2   -1    0    0    0  501  0.00000000000E+00  0.00000000000E+00  0.81887156085E+03  0.81887156086E+03  0.25500000920E-02 0. -1.
        2   -1    0    0  501    0  0.00000000000E+00  0.00000000000E+00 -0.22961838891E+04  0.22961838891E+04  0.25500000920E-02 0.  1.
    10030    2    1    2    0    0  0.00000000000E+00  0.00000000000E+00 -0.14773123282E+04  0.31150554499E+04  0.27424658140E+04 0.  0.
        1    1    3    3  502    0 -0.73494417154E+02 -0.45743397775E+03  0.72727690113E+03  0.86231024828E+03  0.50400001928E-02 0. -1.
       -1    1    3    3    0  502  0.73494417154E+02  0.45743397775E+03 -0.22045892293E+04  0.22527452016E+04  0.50400001928E-02 0.  1.
</event>
<event>
 5   0  0.4826140E-06  0.2710030E+04  0.7818609E-02  0.8331758E-01
       -1   -1    0    0    0  501  0.00000000000E+00  0.00000000000E+00  0.18073437287E+04  0.18073437287E+04  0.50400001928E-02 0.  1.
        1   -1    0    0  501    0  0.00000000000E+00  0.00000000000E+00 -0.10158914334E+04  0.10158914334E+04  0.50400001928E-02 0. -1.
    10030    2    1    2    0    0  0.00000000000E+00  0.00000000000E+00  0.79145229535E+03  0.28232351621E+04  0.27100295284E+04 0.  0.
        1    1    3    3  502    0  0.33150412915E+03 -0.37780907659E+03  0.17066350430E+04  0.17791115355E+04  0.50400001928E-02 0.  1.
       -1    1    3    3    0  502 -0.33150412915E+03  0.37780907659E+03 -0.91518274762E+03  0.10441236266E+04  0.50400001928E-02 0. -1.
</event>
<event>
 5   0  0.4826140E-06  0.2688544E+04  0.7818609E-02  0.8338731E-01
        1   -1    0    0  501    0  0.00000000000E+00  0.00000000000E+00  0.97948895603E+03  0.97948895604E+03  0.50400001928E-02 0.  1.
       -1   -1    0    0    0  501  0.00000000000E+00  0.00000000000E+00 -0.18449087359E+04  0.18449087359E+04  0.50400001928E-02 0. -1.
    10030    2    1    2    0    0  0.00000000000E+00  0.00000000000E+00 -0.86541977990E+03  0.28243976920E+04  0.26885443881E+04 0.  0.
        1    1    3    3  502    0  0.87679995625E+03 -0.99525723245E+03 -0.66227569182E+03  0.14825397850E+04  0.50400001928E-02 0. -1.
       -1    1    3    3    0  502 -0.87679995625E+03  0.99525723245E+03 -0.20314408808E+03  0.13418579070E+04  0.50400001928E-02 0.  1.
</event>
<event>
 5   0  0.1232559E-05  0.2707527E+04  0.7818609E-02  0.8332567E-01
       -2   -1    0    0    0  501  0.00000000000E+00  0.00000000000E+00  0.16041844533E+04  0.16041844533E+04  0.25500000920E-02 0. -1.
        2   -1    0    0  501    0  0.00000000000E+00  0.00000000000E+00 -0.11424344298E+04  0.11424344298E+04  0.25500000920E-02 0.  1.
    10030    2    1    2    0    0  0.00000000000E+00  0.00000000000E+00  0.46175002349E+03  0.27466188830E+04  0.27075269536E+04 0.  0.
        3    1    3    3  502    0  0.13365432357E+04  0.20359627489E+03  0.30171358237E+03  0.13852185243E+04  0.10100000352E+00 0. -1.
       -3    1    3    3    0  502 -0.13365432357E+04 -0.20359627489E+03  0.16003644111E+03  0.13614003587E+04  0.10100000352E+00 0.  1.
</event>
<event>
 5   0  0.4824715E-06  0.2695649E+04  0.7818609E-02  0.8336418E-01
       -1   -1    0    0    0  501  0.00000000000E+00  0.00000000000E+00  0.17693718594E+04  0.17693718594E+04  0.50400001928E-02 0. -1.
        1   -1    0    0  501    0  0.00000000000E+00  0.00000000000E+00 -0.10267092824E+04  0.10267092824E+04  0.50400001928E-02 0.  1.
    10030    2    1    2    0    0  0.00000000000E+00  0.00000000000E+00  0.74266257698E+03  0.27960811419E+04  0.26956487250E+04 0.  0.
        5    1    3    3  502    0 -0.30320217928E+03  0.13125570371E+04  0.41619653200E+03  0.14099571555E+04  0.46999998093E+01 0.  1.
       -5    1    3    3    0  502  0.30320217928E+03 -0.13125570371E+04  0.32646604498E+03  0.13861239864E+04  0.46999998093E+01 0. -1.
</event>
<event>
 5   0  0.1232559E-05  0.2518360E+04  0.7818609E-02  0.8396474E-01
       -2   -1    0    0    0  501  0.00000000000E+00  0.00000000000E+00  0.10193607589E+04  0.10193607589E+04  0.25500000920E-02 0. -1.
        2   -1    0    0  501    0  0.00000000000E+00  0.00000000000E+00 -0.15554198654E+04  0.15554198654E+04  0.25500000920E-02 0.  1.
    10030    2    1    2    0    0  0.00000000000E+00  0.00000000000E+00 -0.53605910658E+03  0.25747806243E+04  0.25183597633E+04 0.  0.
        3    1    3    3  502    0  0.91141066670E+01 -0.11923945470E+04 -0.68162461560E+03  0.13734991626E+04  0.10100000352E+00 0.  1.
       -3    1    3    3    0  502 -0.91141066670E+01  0.11923945470E+04  0.14556550902E+03  0.12012814618E+04  0.10100000352E+00 0. -1.
</event>
<event>
 5   0  0.1286641E-05  0.2689184E+04  0.7818609E-02  0.8338523E-01
        2   -1    0    0  501    0  0.00000000000E+00  0.00000000000E+00  0.11265213976E+04  0.11265213976E+04  0.25500000920E-02 0.  1.
       -2   -1    0    0    0  501  0.00000000000E+00  0.00000000000E+00 -0.16048763380E+04  0.16048763380E+04  0.25500000920E-02 0. -1.
    10030    2    1    2    0    0  0.00000000000E+00  0.00000000000E+00 -0.47835494039E+03  0.27313977356E+04  0.26891839173E+04 0.  0.
        4    1    3    3  502    0  0.69141533377E+03  0.11339367375E+04 -0.25981995333E+02  0.13283615341E+04  0.12699999809E+01 0.  1.
       -4    1    3    3    0  502 -0.69141533377E+03 -0.11339367375E+04 -0.45237294506E+03  0.14030362015E+04  0.12699999809E+01 0. -1.
</event>
<event>
 5   0  0.1232559E-05  0.2697562E+04  0.7818609E-02  0.8335796E-01
       -2   -1    0    0    0  501  0.00000000000E+00  0.00000000000E+00  0.11171318631E+04  0.11171318631E+04  0.25500000920E-02 0. -1.
        2   -1    0    0  501    0  0.00000000000E+00  0.00000000000E+00 -0.16284649075E+04  0.16284649075E+04  0.25500000920E-02 0.  1.
    10030    2    1    2    0    0  0.00000000000E+00  0.00000000000E+00 -0.51133304438E+03  0.27455967705E+04  0.26975618889E+04 0.  0.
        3    1    3    3  502    0 -0.92030900383E+03 -0.94180654918E+03 -0.55282738558E+03  0.14281408779E+04  0.10100000352E+00 0.  1.
       -3    1    3    3    0  502  0.92030900383E+03  0.94180654918E+03  0.41494341199E+02  0.13174558927E+04  0.10100000352E+00 0. -1.
</event>
<event>
 5   0  0.1276517E-05  0.2751211E+04  0.7818609E-02  0.8318578E-01
        2   -1    0    0  501    0  0.00000000000E+00  0.00000000000E+00  0.16673832825E+04  0.16673832825E+04  0.25500000920E-02 0.  1.
       -2   -1    0    0    0  501  0.00000000000E+00  0.00000000000E+00 -0.11348861221E+04  0.11348861221E+04  0.25500000920E-02 0. -1.
    10030    2    1    2    0    0  0.00000000000E+00  0.00000000000E+00  0.53249716046E+03  0.28022694046E+04  0.27512107499E+04 0.  0.
        1    1    3    3  502    0 -0.13776492593E+03 -0.10517524201E+04  0.11583616289E+04  0.15706571845E+04  0.50400001928E-02 0.  1.
       -1    1    3    3    0  502  0.13776492593E+03  0.10517524201E+04 -0.62586446842E+03  0.12316122201E+04  0.50400001928E-02 0. -1.
</event>
<event>
 5   0  0.4846214E-06  0.2664983E+04  0.7818609E-02  0.8346457E-01
        1   -1    0    0  501    0  0.00000000000E+00  0.00000000000E+00  0.17315547727E+04  0.17315547727E+04  0.50400001928E-02 0.  1.
       -1   -1    0    0    0  501  0.00000000000E+00  0.00000000000E+00 -0.10253983263E+04  0.10253983263E+04  0.50400001928E-02 0. -1.
    10030    2    1    2    0    0  0.00000000000E+00  0.00000000000E+00  0.70615644639E+03  0.27569530990E+04  0.26649828260E+04 0.  0.
        2    1    3    3  502    0  0.87031189372E+03  0.27805421182E+03  0.13564876507E+04  0.16354863752E+04  0.25500000920E-02 0.  1.
       -2    1    3    3    0  502 -0.87031189372E+03 -0.27805421182E+03 -0.65033120432E+03  0.11214667237E+04  0.25500000920E-02 0. -1.
</event>
<event>
 5   0  0.4756800E-06  0.2693225E+04  0.7818609E-02  0.8337207E-01
       -1   -1    0    0    0  501  0.00000000000E+00  0.00000000000E+00  0.86101011709E+03  0.86101011710E+03  0.50400001928E-02 0. -1.
        1   -1    0    0  501    0  0.00000000000E+00  0.00000000000E+00 -0.21060899763E+04  0.21060899763E+04  0.50400001928E-02 0.  1.
    10030    2    1    2    0    0  0.00000000000E+00  0.00000000000E+00 -0.12450798592E+04  0.29671000934E+04  0.26932246673E+04 0.  0.
        4    1    3    3  502    0  0.95094871331E+03  0.69349552522E+03  0.98308955677E+02  0.11810612865E+04  0.12699999809E+01 0. -1.
       -4    1    3    3    0  502 -0.95094871331E+03 -0.69349552522E+03 -0.13433888149E+04  0.17860388069E+04  0.12699999809E+01 0.  1.
</event>
<event>
 5   0  0.1261364E-05  0.2697620E+04  0.7818609E-02  0.8335778E-01
       -2   -1    0    0    0  501  0.00000000000E+00  0.00000000000E+00  0.70944907867E+03  0.70944907868E+03  0.25500000920E-02 0. -1.
        2   -1    0    0  501    0  0.00000000000E+00  0.00000000000E+00 -0.25643683724E+04  0.25643683724E+04  0.25500000920E-02 0.  1.
    10030    2    1    2    0    0  0.00000000000E+00  0.00000000000E+00 -0.18549192937E+04  0.32738174511E+04  0.26976202692E+04 0.  0.
        5    1    3    3  502    0 -0.30977749343E+03  0.12164670018E+04 -0.15263321684E+04  0.19762251998E+04  0.46999998093E+01 0. -1.
       -5    1    3    3    0  502  0.30977749343E+03 -0.12164670018E+04 -0.32858712530E+03  0.12975922513E+04  0.46999998093E+01 0.  1.
</event>
<event>
 5   0  0.4826140E-06  0.2738705E+04  0.7818609E-02  0.8322555E-01
        1   -1    0    0  501    0  0.00000000000E+00  0.00000000000E+00  0.15318643196E+04  0.15318643196E+04  0.50400001928E-02 0.  1.
       -1   -1    0    0    0  501  0.00000000000E+00  0.00000000000E+00 -0.12240809127E+04  0.12240809127E+04  0.50400001928E-02 0. -1.
    10030    2    1    2    0    0  0.00000000000E+00  0.00000000000E+00  0.30778340682E+03  0.27559452323E+04  0.27387047117E+04 0.  0.
        1    1    3    3  502    0  0.16291932755E+02  0.17296020437E+03 -0.12129465067E+04  0.12253244010E+04  0.50400001928E-02 0. -1.
       -1    1    3    3    0  502 -0.16291932755E+02 -0.17296020437E+03  0.15207299136E+04  0.15306208313E+04  0.50400001928E-02 0.  1.
</event>
<event>
 5   0  0.4756800E-06  0.2718961E+04  0.7818609E-02  0.8328879E-01
        1   -1    0    0  501    0  0.00000000000E+00  0.00000000000E+00  0.18358251142E+04  0.18358251142E+04  0.50400001928E-02 0.  1.
       -1   -1    0    0    0  501  0.00000000000E+00  0.00000000000E+00 -0.10067340769E+04  0.10067340769E+04  0.50400001928E-02 0. -1.
    10030    2    1    2    0    0  0.00000000000E+00  0.00000000000E+00  0.82909103728E+03  0.28425591912E+04  0.27189613471E+04 0.  0.
        4    1    3    3  502    0  0.34168336877E+03 -0.11579971563E+04 -0.23874524819E+03  0.12307338644E+04  0.12699999809E+01 0.  1.
       -4    1    3    3    0  502 -0.34168336877E+03  0.11579971563E+04  0.10678362855E+04  0.16118253268E+04  0.12699999809E+01 0. -1.
</event>
<event>
 5   0  0.4824715E-06  0.2705990E+04  0.7818609E-02  0.8333064E-01
        1   -1    0    0  501    0  0.00000000000E+00  0.00000000000E+00  0.16854572306E+04  0.16854572306E+04  0.50400001928E-02 0. -1.
       -1   -1    0    0    0  501  0.00000000000E+00  0.00000000000E+00 -0.10861124148E+04  0.10861124148E+04  0.50400001928E-02 0.  1.
    10030    2    1    2    0    0  0.00000000000E+00  0.00000000000E+00  0.59934481579E+03  0.27715696455E+04  0.27059904086E+04 0.  0.
        5    1    3    3  502    0  0.95068328464E+02 -0.86561025205E+03 -0.76092008907E+03  0.11564344199E+04  0.46999998093E+01 0.  1.
       -5    1    3    3    0  502 -0.95068328464E+02  0.86561025205E+03  0.13602649049E+04  0.16151352256E+04  0.46999998093E+01 0. -1.
</event>
<event>
 5   0  0.1286641E-05  0.2689299E+04  0.7818609E-02  0.8338486E-01
        2   -1    0    0  501    0  0.00000000000E+00  0.00000000000E+00  0.24269742559E+04  0.24269742559E+04  0.25500000920E-02 0.  1.
       -2   -1    0    0    0  501  0.00000000000E+00  0.00000000000E+00 -0.74499426827E+03  0.74499426828E+03  0.25500000920E-02 0. -1.
    10030    2    1    2    0    0  0.00000000000E+00  0.00000000000E+00  0.16819799876E+04  0.31719685241E+04  0.26892987263E+04 0.  0.
        4    1    3    3  502    0  0.24013548748E+03 -0.82101488671E+03  0.20646662698E+04  0.22348554573E+04  0.12699999809E+01 0.  1.
       -4    1    3    3    0  502 -0.24013548748E+03  0.82101488671E+03 -0.38268628220E+03  0.93711306683E+03  0.12699999809E+01 0. -1.
</event>
<event>
 5   0  0.4826140E-06  0.2727018E+04  0.7818609E-02  0.8326291E-01
        1   -1    0    0  501    0  0.00000000000E+00  0.00000000000E+00  0.15673063215E+04  0.15673063215E+04  0.50400001928E-02 0. -1.
       -1   -1    0    0    0  501  0.00000000000E+00  0.00000000000E+00 -0.11862118260E+04  0.11862118260E+04  0.50400001928E-02 0.  1.
    10030    2    1    2    0    0  0.00000000000E+00  0.00000000000E+00  0.38109449552E+03  0.27535181475E+04  0.27270183670E+04 0.  0.
        1    1    3    3  502    0 -0.71952485530E+03 -0.28347113367E+03 -0.94334589182E+03  0.12198251402E+04  0.50400001928E-02 0.  1.
       -1    1    3    3    0  502  0.71952485530E+03  0.28347113367E+03  0.13244403873E+04  0.15336930073E+04  0.50400001928E-02 0. -1.
</event>
<event>
 5   0  0.1220908E-05  0.2783060E+04  0.7818609E-02  0.8308547E-01
       -2   -1    0    0    0  501  0.00000000000E+00  0.00000000000E+00  0.93985653680E+03  0.93985653680E+03  0.25500000920E-02 0. -1.
        2   -1    0    0  501    0  0.00000000000E+00  0.00000000000E+00 -0.20602672562E+04  0.20602672562E+04  0.25500000920E-02 0.  1.
    10030    2    1    2    0    0  0.00000000000E+00  0.00000000000E+00 -0.11204107194E+04  0.30001237930E+04  0.27830599334E+04 0.  0.
        2    1    3    3  502    0 -0.75700385169E+03  0.46843853885E+03  0.59272804046E+03  0.10694933502E+04  0.25500000920E-02 0. -1.
       -2    1    3    3    0  502  0.75700385169E+03 -0.46843853885E+03 -0.17131387598E+04  0.19306304428E+04  0.25500000920E-02 0.  1.
</event>
<event>
 5   0  0.1261364E-05  0.2691989E+04  0.7818609E-02  0.8337609E-01
        2   -1    0    0  501    0  0.00000000000E+00  0.00000000000E+00  0.13096947591E+04  0.13096947591E+04  0.25500000920E-02 0. -1.
       -2   -1    0    0    0  501  0.00000000000E+00  0.00000000000E+00 -0.13833005661E+04  0.13833005661E+04  0.25500000920E-02 0.  1.
    10030    2    1    2    0    0  0.00000000000E+00  0.00000000000E+00 -0.73605807003E+02  0.26929953252E+04  0.26919892285E+04 0.  0.
        5    1    3    3  502    0  0.76048690636E+03  0.73510965217E+03  0.79594612086E+03  0.13237367007E+04  0.46999998093E+01 0. -1.
       -5    1    3    3    0  502 -0.76048690636E+03 -0.73510965217E+03 -0.86955192786E+03  0.13692586245E+04  0.46999998093E+01 0.  1.
</event>
<event>
 5   0  0.5152288E-06  0.2698965E+04  0.7818609E-02  0.8335341E-01
        1   -1    0    0  501    0  0.00000000000E+00  0.00000000000E+00  0.12845255579E+04  0.12845255579E+04  0.50400001928E-02 0.  1.
       -1   -1    0    0    0  501  0.00000000000E+00  0.00000000000E+00 -0.14177241114E+04  0.14177241114E+04  0.50400001928E-02 0. -1.
    10030    2    1    2    0    0  0.00000000000E+00  0.00000000000E+00 -0.13319855348E+03  0.27022496694E+04  0.26989648795E+04 0.  0.
        3    1    3    3  502    0  0.40032545586E+03 -0.43823412319E+03 -0.12800120708E+04  0.14109360471E+04  0.10100000352E+00 0. -1.
       -3    1    3    3    0  502 -0.40032545586E+03  0.43823412319E+03  0.11468135173E+04  0.12913136223E+04  0.10100000352E+00 0.  1.
</event>
<event>
 5   0  0.4824715E-06  0.2686349E+04  0.7818609E-02  0.8339448E-01
        1   -1    0    0  501    0  0.00000000000E+00  0.00000000000E+00  0.11253328039E+04  0.11253328039E+04  0.50400001928E-02 0. -1.
       -1   -1    0    0    0  501  0.00000000000E+00  0.00000000000E+00 -0.16031860812E+04  0.16031860812E+04  0.50400001928E-02 0.  1.
    10030    2    1    2    0    0  0.00000000000E+00  0.00000000000E+00 -0.47785327732E+03  0.27285188851E+04  0.26863491120E+04 0.  0.
        5    1    3    3  502    0  0.98654650072E+03 -0.90152195891E+03 -0.37549912424E+03  0.13881777706E+04  0.46999998093E+01 0.  1.
       -5    1    3    3    0  502 -0.98654650072E+03  0.90152195891E+03 -0.10235415309E+03  0.13403411145E+04  0.46999998093E+01 0. -1.
</event>
<event>
 5   0  0.1220908E-05  0.2688237E+04  0.7818609E-02  0.8338832E-01
       -2   -1    0    0    0  501  0.00000000000E+00  0.00000000000E+00  0.99384681607E+03  0.99384681607E+03  0.25500000920E-02 0. -1.
        2   -1    0    0  501    0  0.00000000000E+00  0.00000000000E+00 -0.18178404463E+04  0.18178404463E+04  0.25500000920E-02 0.  1.
    10030    2    1    2    0    0  0.00000000000E+00  0.00000000000E+00 -0.82399363022E+03  0.28116872624E+04  0.26882372958E+04 0.  0.
        2    1    3    3  502    0  0.10760687241E+04  0.71893133875E+02  0.42706652925E+03  0.11599475600E+04  0.25500000920E-02 0. -1.
       -2    1    3    3    0  502 -0.10760687241E+04 -0.71893133875E+02 -0.12510601595E+04  0.16517397023E+04  0.25500000920E-02 0.  1.
</event>
<event>
 5   0  0.4756800E-06  0.2737184E+04  0.7818609E-02  0.8323040E-01
        1   -1    0    0  501    0  0.00000000000E+00  0.00000000000E+00  0.18066605976E+04  0.18066605976E+04  0.50400001928E-02 0.  1.
       -1   -1    0    0    0  501  0.00000000000E+00  0.00000000000E+00 -0.10367436083E+04  0.10367436083E+04  0.50400001928E-02 0. -1.
    10030    2    1    2    0    0  0.00000000000E+00  0.00000000000E+00  0.76991698930E+03  0.28434042059E+04  0.27371838279E+04 0.  0.
        4    1    3    3  502    0 -0.79157899259E+03  0.21785116434E+03 -0.75251596184E+03  0.11137047710E+04  0.12699999809E+01 0. -1.
       -4    1    3    3    0  502  0.79157899259E+03 -0.21785116434E+03  0.15224329511E+04  0.17296994349E+04  0.12699999809E+01 0.  1.
</event>
<event>
 5   0  0.1232559E-05  0.2696812E+04  0.7818609E-02  0.8336040E-01
       -2   -1    0    0    0  501  0.00000000000E+00  0.00000000000E+00  0.13604460087E+04  0.13604460087E+04  0.25500000920E-02 0.  1.
        2   -1    0    0  501    0  0.00000000000E+00  0.00000000000E+00 -0.13364729812E+04  0.13364729812E+04  0.25500000920E-02 0. -1.
    10030    2    1    2    0    0  0.00000000000E+00  0.00000000000E+00  0.23973027550E+02  0.26969189899E+04  0.26968124391E+04 0.  0.
        3    1    3    3  502    0  0.30968280995E+03  0.56782703842E+03 -0.11712205492E+04  0.13379419170E+04  0.10100000352E+00 0. -1.
       -3    1    3    3    0  502 -0.30968280995E+03 -0.56782703842E+03  0.11951935767E+04  0.13589770728E+04  0.10100000352E+00 0.  1.
</event>
<event>
 5   0  0.1261364E-05  0.2687520E+04  0.7818609E-02  0.8339066E-01
        2   -1    0    0  501    0  0.00000000000E+00  0.00000000000E+00  0.10742792326E+04  0.10742792326E+04  0.25500000920E-02 0.  1.
       -2   -1    0    0    0  501  0.00000000000E+00  0.00000000000E+00 -0.16808393155E+04  0.16808393155E+04  0.25500000920E-02 0. -1.
    10030    2    1    2    0    0  0.00000000000E+00  0.00000000000E+00 -0.60656008298E+03  0.27551185481E+04  0.26875198752E+04 0.  0.
        5    1    3    3  502    0  0.40135147637E+03 -0.67631708537E+03  0.81370421314E+03  0.11316467841E+04  0.46999998093E+01 0.  1.
       -5    1    3    3    0  502 -0.40135147637E+03  0.67631708537E+03 -0.14202642961E+04  0.16234717640E+04  0.46999998093E+01 0. -1.
</event>
<event>
 5   0  0.1276517E-05  0.2712331E+04  0.7818609E-02  0.8331015E-01
        2   -1    0    0  501    0  0.00000000000E+00  0.00000000000E+00  0.11928848524E+04  0.11928848524E+04  0.25500000920E-02 0.  1.
       -2   -1    0    0    0  501  0.00000000000E+00  0.00000000000E+00 -0.15417952557E+04  0.15417952557E+04  0.25500000920E-02 0. -1.
    10030    2    1    2    0    0  0.00000000000E+00  0.00000000000E+00 -0.34891040334E+03  0.27346801081E+04  0.27123305153E+04 0.  0.
        1    1    3    3  502    0  0.33376569602E+03 -0.45743648141E+02 -0.14989357597E+04  0.15363269291E+04  0.50400001928E-02 0. -1.
       -1    1    3    3    0  502 -0.33376569602E+03  0.45743648141E+02  0.11500253564E+04  0.11983531790E+04  0.50400001928E-02 0.  1.
</event>
<event>
 5   0  0.4756800E-06  0.2643681E+04  0.7818609E-02  0.8353513E-01
        1   -1    0    0  501    0  0.00000000000E+00  0.00000000000E+00  0.19788812696E+04  0.19788812696E+04  0.50400001928E-02 0.  1.
       -1   -1    0    0    0  501  0.00000000000E+00  0.00000000000E+00 -0.88295474200E+03  0.88295474201E+03  0.50400001928E-02 0. -1.
    10030    2    1    2    0    0  0.00000000000E+00  0.00000000000E+00  0.10959265276E+04  0.28618360116E+04  0.26436812220E+04 0.  0.
        4    1    3    3  502    0 -0.31673191064E+02 -0.38752642833E+03  0.19155759811E+04  0.19546388096E+04  0.12699999809E+01 0.  1.
       -4    1    3    3    0  502  0.31673191064E+02  0.38752642833E+03 -0.81964945354E+03  0.90719720198E+03  0.12699999809E+01 0. -1.
</event>
<event>
 5   0  0.1276517E-05  0.2634494E+04  0.7818609E-02  0.8356578E-01
       -2   -1    0    0    0  501  0.00000000000E+00  0.00000000000E+00  0.11669084764E+04  0.11669084764E+04  0.25500000920E-02 0. -1.
        2   -1    0    0  501    0  0.00000000000E+00  0.00000000000E+00 -0.14869538074E+04  0.14869538074E+04  0.25500000920E-02 0.  1.
    10030    2    1    2    0    0  0.00000000000E+00  0.00000000000E+00 -0.32004533100E+03  0.26538622839E+04  0.26344935012E+04 0.  0.
        1    1    3    3  502    0 -0.74083852116E+00 -0.11575082259E+03  0.11617752440E+04  0.11675275240E+04  0.50400001928E-02 0. -1.
       -1    1    3    3    0  502  0.74083852116E+00  0.11575082259E+03 -0.14818205750E+04  0.14863347598E+04  0.50400001928E-02 0.  1.
</event>
<event>
 5   0  0.4826140E-06  0.2713032E+04  0.7818609E-02  0.8330789E-01
        1   -1    0    0  501    0  0.00000000000E+00  0.00000000000E+00  0.19366971921E+04  0.19366971921E+04  0.50400001928E-02 0.  1.
       -1   -1    0    0    0  501  0.00000000000E+00  0.00000000000E+00 -0.95014135607E+03  0.95014135609E+03  0.50400001928E-02 0. -1.
    10030    2    1    2    0    0  0.00000000000E+00  0.00000000000E+00  0.98655583605E+03  0.28868385482E+04  0.27130323230E+04 0.  0.
        1    1    3    3  502    0  0.10704548925E+04 -0.10329404590E+03 -0.38648622030E+03  0.11427663521E+04  0.50400001928E-02 0. -1.
       -1    1    3    3    0  502 -0.10704548925E+04  0.10329404590E+03  0.13730420564E+04  0.17440721962E+04  0.50400001928E-02 0.  1.
</event>
<event>
 5   0  0.1286641E-05  0.2716742E+04  0.7818609E-02  0.8329593E-01
       -2   -1    0    0    0  501  0.00000000000E+00  0.00000000000E+00  0.11175548370E+04  0.11175548370E+04  0.25500000920E-02 0. -1.
        2   -1    0    0  501    0  0.00000000000E+00  0.00000000000E+00 -0.16510798233E+04  0.16510798233E+04  0.25500000920E-02 0.  1.
    10030    2    1    2    0    0  0.00000000000E+00  0.00000000000E+00 -0.53352498635E+03  0.27686346603E+04  0.27167423454E+04 0.  0.
        4    1    3    3  502    0  0.88233660683E+03 -0.99457605542E+03 -0.55041548922E+03  0.14389781935E+04  0.12699999809E+01 0.  1.
       -4    1    3    3    0  502 -0.88233660683E+03  0.99457605542E+03  0.16890502870E+02  0.13296564668E+04  0.12699999809E+01 0. -1.
</event>
<event>
 5   0  0.4826140E-06  0.2701700E+04  0.7818609E-02  0.8334454E-01
       -1   -1    0    0    0  501  0.00000000000E+00  0.00000000000E+00  0.21890258614E+04  0.21890258615E+04  0.50400001928E-02 0.  1.
        1   -1    0    0  501    0  0.00000000000E+00  0.00000000000E+00 -0.83361055108E+03  0.83361055109E+03  0.50400001928E-02 0. -1.
    10030    2    1    2    0    0  0.00000000000E+00  0.00000000000E+00  0.13554153104E+04  0.30226364125E+04  0.27016995057E+04 0.  0.
        1    1    3    3  502    0 -0.11967977088E+04 -0.47141728878E+03  0.21609828166E+03  0.13043226147E+04  0.50400001928E-02 0. -1.
       -1    1    3    3    0  502  0.11967977088E+04  0.47141728878E+03  0.11393170287E+04  0.17183137978E+04  0.50400001928E-02 0.  1.
</event>
<event>
 5   0  0.1261364E-05  0.2712961E+04  0.7818609E-02  0.8330812E-01
       -2   -1    0    0    0  501  0.00000000000E+00  0.00000000000E+00  0.79062875449E+03  0.79062875449E+03  0.25500000920E-02 0. -1.
        2   -1    0    0  501    0  0.00000000000E+00  0.00000000000E+00 -0.23273107458E+04  0.23273107458E+04  0.25500000920E-02 0.  1.
    10030    2    1    2    0    0  0.00000000000E+00  0.00000000000E+00 -0.15366819913E+04  0.31179395003E+04  0.27129605941E+04 0.  0.
        5    1    3    3  502    0  0.21308461020E+03  0.10939959333E+04  0.12023902194E+03  0.11210315186E+04  0.46999998093E+01 0. -1.
       -5    1    3    3    0  502 -0.21308461020E+03 -0.10939959333E+04 -0.16569210133E+04  0.19969079817E+04  0.46999998093E+01 0.  1.
</event>
<event>
 5   0  0.1261364E-05  0.2752040E+04  0.7818609E-02  0.8318315E-01
        2   -1    0    0  501    0  0.00000000000E+00  0.00000000000E+00  0.20438135755E+04  0.20438135755E+04  0.25500000920E-02 0.  1.
       -2   -1    0    0    0  501  0.00000000000E+00  0.00000000000E+00 -0.92642063001E+03  0.92642063001E+03  0.25500000920E-02 0. -1.
    10030    2    1    2    0    0  0.00000000000E+00  0.00000000000E+00  0.11173929455E+04  0.29702342055E+04  0.27520400144E+04 0.  0.
        5    1    3    3  502    0 -0.12184121057E+04  0.19430731403E+03  0.12161974380E+04  0.17324669376E+04  0.46999998093E+01 0.  1.
       -5    1    3    3    0  502  0.12184121057E+04 -0.19430731403E+03 -0.98804492527E+02  0.12377672679E+04  0.46999998093E+01 0. -1.
</event>
<event>
 5   0  0.1220908E-05  0.2686171E+04  0.7818609E-02  0.8339506E-01
        2   -1    0    0  501    0  0.00000000000E+00  0.00000000000E+00  0.14945424887E+04  0.14945424887E+04  0.25500000920E-02 0. -1.
       -2   -1    0    0    0  501  0.00000000000E+00  0.00000000000E+00 -0.12069772462E+04  0.12069772462E+04  0.25500000920E-02 0.  1.
    10030    2    1    2    0    0  0.00000000000E+00  0.00000000000E+00  0.28756524255E+03  0.27015197349E+04  0.26861710871E+04 0.  0.
        2    1    3    3  502    0  0.87446726738E+02  0.56081609570E+02 -0.12029305848E+04  0.12074079960E+04  0.25500000920E-02 0.  1.
       -2    1    3    3    0  502 -0.87446726738E+02 -0.56081609570E+02  0.14904958273E+04  0.14941117389E+04  0.25500000920E-02 0. -1.
</event>
<event>
 5   0  0.1220908E-05  0.2678410E+04  0.7818609E-02  0.8342044E-01
       -2   -1    0    0    0  501  0.00000000000E+00  0.00000000000E+00  0.18002258154E+04  0.18002258154E+04  0.25500000920E-02 0.  1.
        2   -1    0    0  501    0  0.00000000000E+00  0.00000000000E+00 -0.99624735520E+03  0.99624735521E+03  0.25500000920E-02 0. -1.
    10030    2    1    2    0    0  0.00000000000E+00  0.00000000000E+00  0.80397846022E+03  0.27964731706E+04  0.26784101309E+04 0.  0.
        2    1    3    3  502    0 -0.58760244653E+03  0.57425254606E+03 -0.70218476119E+03  0.10807895543E+04  0.25500000920E-02 0. -1.
       -2    1    3    3    0  502  0.58760244653E+03 -0.57425254606E+03  0.15061632214E+04  0.17156836163E+04  0.25500000920E-02 0.  1.
</event>
<event>
 5   0  0.1276517E-05  0.2695569E+04  0.7818609E-02  0.8336444E-01
        2   -1    0    0  501    0  0.00000000000E+00  0.00000000000E+00  0.17812664693E+04  0.17812664693E+04  0.25500000920E-02 0. -1.
       -2   -1    0    0    0  501  0.00000000000E+00  0.00000000000E+00 -0.10197931580E+04  0.10197931580E+04  0.25500000920E-02 0.  1.
    10030    2    1    2    0    0  0.00000000000E+00  0.00000000000E+00  0.76147331129E+03  0.28010596273E+04  0.26955692223E+04 0.  0.
        1    1    3    3  502    0  0.62002674304E+03 -0.82030919568E+03 -0.52467297102E+03  0.11543925091E+04  0.50400001928E-02 0.  1.
       -1    1    3    3    0  502 -0.62002674304E+03  0.82030919568E+03  0.12861462823E+04  0.16466671182E+04  0.50400001928E-02 0. -1.
</event>
<event>
 5   0  0.4824715E-06  0.2699753E+04  0.7818609E-02  0.8335085E-01
        1   -1    0    0  501    0  0.00000000000E+00  0.00000000000E+00  0.24735682237E+04  0.24735682237E+04  0.50400001928E-02 0. -1.
       -1   -1    0    0    0  501  0.00000000000E+00  0.00000000000E+00 -0.73665513224E+03  0.73665513226E+03  0.50400001928E-02 0.  1.
    10030    2    1    2    0    0  0.00000000000E+00  0.00000000000E+00  0.17369130914E+04  0.32102233559E+04  0.26997531198E+04 0.  0.
        5    1    3    3  502    0 -0.96418662969E+03  0.37739289053E+03 -0.16136075008E+03  0.10479220545E+04  0.46999998093E+01 0.  1.
       -5    1    3    3    0  502  0.96418662969E+03 -0.37739289053E+03  0.18982738415E+04  0.21623013014E+04  0.46999998093E+01 0. -1.
</event>
<event>
 5   0  0.5152288E-06  0.2689873E+04  0.7818609E-02  0.8338298E-01
       -1   -1    0    0    0  501  0.00000000000E+00  0.00000000000E+00  0.11015988997E+04  0.11015988997E+04  0.50400001928E-02 0.  1.
        1   -1    0    0  501    0  0.00000000000E+00  0.00000000000E+00 -0.16420267031E+04  0.16420267031E+04  0.50400001928E-02 0. -1.
    10030    2    1    2    0    0  0.00000000000E+00  0.00000000000E+00 -0.54042780340E+03  0.27436256028E+04  0.26898734613E+04 0.  0.
        3    1    3    3  502    0  0.50071759057E+03  0.56970790434E+03  0.86264240152E+03  0.11486675432E+04  0.10100000352E+00 0.  1.
       -3    1    3    3    0  502 -0.50071759057E+03 -0.56970790434E+03 -0.14030702049E+04  0.15949580596E+04  0.10100000352E+00 0. -1.
</event>
<event>
 5   0  0.1232559E-05  0.2722223E+04  0.7818609E-02  0.8327830E-01
        2   -1    0    0  501    0  0.00000000000E+00  0.00000000000E+00  0.12343759571E+04  0.12343759571E+04  0.25500000920E-02 0. -1.
       -2   -1    0    0    0  501  0.00000000000E+00  0.00000000000E+00 -0.15008597027E+04  0.15008597027E+04  0.25500000920E-02 0.  1.
    10030    2    1    2    0    0  0.00000000000E+00  0.00000000000E+00 -0.26648374564E+03  0.27352356598E+04  0.27222234530E+04 0.  0.
        3    1    3    3  502    0 -0.94113180280E+03 -0.24328087606E+03  0.82405061356E+03  0.12743524155E+04  0.10100000352E+00 0. -1.
       -3    1    3    3    0  502  0.94113180280E+03  0.24328087606E+03 -0.10905343592E+04  0.14608832444E+04  0.10100000352E+00 0.  1.
</event>
<event>
 5   0  0.4826140E-06  0.2736712E+04  0.7818609E-02  0.8323191E-01
       -1   -1    0    0    0  501  0.00000000000E+00  0.00000000000E+00  0.85993559986E+03  0.85993559987E+03  0.50400001928E-02 0.  1.
        1   -1    0    0  501    0  0.00000000000E+00  0.00000000000E+00 -0.21773705549E+04  0.21773705549E+04  0.50400001928E-02 0. -1.
    10030    2    1    2    0    0  0.00000000000E+00  0.00000000000E+00 -0.13174349550E+04  0.30373061547E+04  0.27367122277E+04 0.  0.
        1    1    3    3  502    0  0.75587254922E+03  0.11237452509E+04 -0.44165481876E+03  0.14245019054E+04  0.50400001928E-02 0. -1.
       -1    1    3    3    0  502 -0.75587254922E+03 -0.11237452509E+04 -0.87578013624E+03  0.16128042493E+04  0.50400001928E-02 0.  1.
</event>
<event>
 5   0  0.1220908E-05  0.2697231E+04  0.7818609E-02  0.8335904E-01
       -2   -1    0    0    0  501  0.00000000000E+00  0.00000000000E+00  0.28924956333E+04  0.28924956333E+04  0.25500000920E-02 0.  1.
        2   -1    0    0  501    0  0.00000000000E+00  0.00000000000E+00 -0.62878691913E+03  0.62878691914E+03  0.25500000920E-02 0. -1.
    10030    2    1    2    0    0  0.00000000000E+00  0.00000000000E+00  0.22637087142E+04  0.35212825525E+04  0.26972307413E+04 0.  0.
        2    1    3    3  502    0 -0.61937367571E+03  0.81034118952E+03  0.22837374593E+04  0.25011464124E+04  0.25500000920E-02 0.  1.
       -2    1    3    3    0  502  0.61937367571E+03 -0.81034118952E+03 -0.20028745060E+02  0.10201361400E+04  0.25500000920E-02 0. -1.
</event>
<event>
 5   0  0.4756800E-06  0.2736663E+04  0.7818609E-02  0.8323206E-01
       -1   -1    0    0    0  501  0.00000000000E+00  0.00000000000E+00  0.11327882519E+04  0.11327882519E+04  0.50400001928E-02 0.  1.
        1   -1    0    0  501    0  0.00000000000E+00  0.00000000000E+00 -0.16528516579E+04  0.16528516579E+04  0.50400001928E-02 0. -1.
    10030    2    1    2    0    0  0.00000000000E+00  0.00000000000E+00 -0.52006340605E+03  0.27856399098E+04  0.27366628877E+04 0.  0.
        4    1    3    3  502    0 -0.59271739920E+03 -0.23306967324E+03  0.97271378591E+03  0.11626732603E+04  0.12699999809E+01 0.  1.
       -4    1    3    3    0  502  0.59271739920E+03  0.23306967324E+03 -0.14927771920E+04  0.16229666496E+04  0.12699999809E+01 0. -1.
</event>
<event>
 5   0  0.4826140E-06  0.2710529E+04  0.7818609E-02  0.8331597E-01
       -1   -1    0    0    0  501  0.00000000000E+00  0.00000000000E+00  0.11375934634E+04  0.11375934634E+04  0.50400001928E-02 0. -1.
        1   -1    0    0  501    0  0.00000000000E+00  0.00000000000E+00 -0.16145856100E+04  0.16145856100E+04  0.50400001928E-02 0.  1.
    10030    2    1    2    0    0  0.00000000000E+00  0.00000000000E+00 -0.47699214652E+03  0.27521790734E+04  0.27105291263E+04 0.  0.
        1    1    3    3  502    0 -0.79116128471E+03 -0.13223532058E+03  0.87068132399E+03  0.11838531693E+04  0.50400001928E-02 0. -1.
       -1    1    3    3    0  502  0.79116128471E+03  0.13223532058E+03 -0.13476734705E+04  0.15683259041E+04  0.50400001928E-02 0.  1.
</event>
<event>
 5   0  0.4846214E-06  0.2703646E+04  0.7818609E-02  0.8333823E-01
       -1   -1    0    0    0  501  0.00000000000E+00  0.00000000000E+00  0.54049035946E+03  0.54049035948E+03  0.50400001928E-02 0. -1.
        1   -1    0    0  501    0  0.00000000000E+00  0.00000000000E+00 -0.33810502956E+04  0.33810502956E+04  0.50400001928E-02 0.  1.
    10030    2    1    2    0    0  0.00000000000E+00  0.00000000000E+00 -0.28405599362E+04  0.39215406551E+04  0.27036457532E+04 0.  0.
        2    1    3    3  502    0  0.97096596485E+03 -0.82596487514E+03 -0.76768045941E+03  0.14880612110E+04  0.25500000920E-02 0. -1.
       -2    1    3    3    0  502 -0.97096596485E+03  0.82596487514E+03 -0.20728794768E+04  0.24334794441E+04  0.25500000920E-02 0.  1.
</event>
<event>
 5   0  0.5152288E-06  0.2660004E+04  0.7818609E-02  0.8348100E-01
       -1   -1    0    0    0  501  0.00000000000E+00  0.00000000000E+00  0.12092085096E+04  0.12092085096E+04  0.50400001928E-02 0. -1.
        1   -1    0    0  501    0  0.00000000000E+00  0.00000000000E+00 -0.14628617264E+04  0.14628617264E+04  0.50400001928E-02 0.  1.
    10030    2    1    2    0    0  0.00000000000E+00  0.00000000000E+00 -0.25365321678E+03  0.26720702360E+04  0.26600036450E+04 0.  0.
        3    1    3    3  502    0 -0.45899388773E+03  0.44024031519E+03  0.10465551818E+04  0.12246487998E+04  0.10100000352E+00 0. -1.
       -3    1    3    3    0  502  0.45899388773E+03 -0.44024031519E+03 -0.13002083985E+04  0.14474214362E+04  0.10100000352E+00 0.  1.
</event>
<event>
 5   0  0.1286641E-05  0.2588471E+04  0.7818609E-02  0.8372128E-01
       -2   -1    0    0    0  501  0.00000000000E+00  0.00000000000E+00  0.14583118229E+04  0.14583118229E+04  0.25500000920E-02 0. -1.
        2   -1    0    0  501    0  0.00000000000E+00  0.00000000000E+00 -0.11486198155E+04  0.11486198155E+04  0.25500000920E-02 0.  1.
    10030    2    1    2    0    0  0.00000000000E+00  0.00000000000E+00  0.30969200746E+03  0.26069316384E+04  0.25884712531E+04 0.  0.
        4    1    3    3  502    0  0.34756465510E+03 -0.32724894259E+03  0.13664013233E+04  0.14473932600E+04  0.12699999809E+01 0. -1.
       -4    1    3    3    0  502 -0.34756465510E+03  0.32724894259E+03 -0.10567093159E+04  0.11595383784E+04  0.12699999809E+01 0.  1.
</event>
<event>
 5   0  0.1286641E-05  0.2707883E+04  0.7818609E-02  0.8332452E-01
       -2   -1    0    0    0  501  0.00000000000E+00  0.00000000000E+00  0.12138930734E+04  0.12138930734E+04  0.25500000920E-02 0. -1.
        2   -1    0    0  501    0  0.00000000000E+00  0.00000000000E+00 -0.15101469500E+04  0.15101469500E+04  0.25500000920E-02 0.  1.
    10030    2    1    2    0    0  0.00000000000E+00  0.00000000000E+00 -0.29625387662E+03  0.27240400235E+04  0.27078825104E+04 0.  0.
        4    1    3    3  502    0  0.17590482290E+03 -0.89616708214E+03 -0.11536396690E+04  0.14713748824E+04  0.12699999809E+01 0.  1.
       -4    1    3    3    0  502 -0.17590482290E+03  0.89616708214E+03  0.85738579236E+03  0.12526651411E+04  0.12699999809E+01 0. -1.
</event>
<event>
 5   0  0.4846214E-06  0.2678742E+04  0.7818609E-02  0.8341935E-01
       -1   -1    0    0    0  501  0.00000000000E+00  0.00000000000E+00  0.15174685749E+04  0.15174685749E+04  0.50400001928E-02 0. -1.
        1   -1    0    0  501    0  0.00000000000E+00  0.00000000000E+00 -0.11821760012E+04  0.11821760012E+04  0.50400001928E-02 0.  1.
    10030    2    1    2    0    0  0.00000000000E+00  0.00000000000E+00  0.33529257373E+03  0.26996445761E+04  0.26787421913E+04 0.  0.
        2    1    3    3  502    0  0.62989706899E+03 -0.11651952878E+04 -0.32560723738E+02  0.13249568208E+04  0.25500000920E-02 0.  1.
       -2    1    3    3    0  502 -0.62989706899E+03  0.11651952878E+04  0.36785329747E+03  0.13746877553E+04  0.25500000920E-02 0. -1.
</event>
<event>
 5   0  0.1286641E-05  0.2707985E+04  0.7818609E-02  0.8332419E-01
       -2   -1    0    0    0  501  0.00000000000E+00  0.00000000000E+00  0.13728738874E+04  0.13728738874E+04  0.25500000920E-02 0.  1.
        2   -1    0    0  501    0  0.00000000000E+00  0.00000000000E+00 -0.13353706428E+04  0.13353706428E+04  0.25500000920E-02 0. -1.
    10030    2    1    2    0    0  0.00000000000E+00  0.00000000000E+00  0.37503244539E+02  0.27082445302E+04  0.27079848489E+04 0.  0.
        4    1    3    3  502    0 -0.12198936798E+04 -0.51132333213E+03  0.30809188286E+03  0.13581289929E+04  0.12699999809E+01 0.  1.
       -4    1    3    3    0  502  0.12198936798E+04  0.51132333213E+03 -0.27058863832E+03  0.13501155373E+04  0.12699999809E+01 0. -1.
</event>
<event>
 5   0  0.1276517E-05  0.2604275E+04  0.7818609E-02  0.8366750E-01
        2   -1    0    0  501    0  0.00000000000E+00  0.00000000000E+00  0.16456997346E+04  0.16456997346E+04  0.25500000920E-02 0.  1.
       -2   -1    0    0    0  501  0.00000000000E+00  0.00000000000E+00 -0.10302986816E+04  0.10302986816E+04  0.25500000920E-02 0. -1.
    10030    2    1    2    0    0  0.00000000000E+00  0.00000000000E+00  0.61540105302E+03  0.26759984163E+04  0.26042751521E+04 0.  0.
        1    1    3    3  502    0 -0.45237157776E+02 -0.12061055255E+04  0.80985712758E+03  0.14534804802E+04  0.50400001928E-02 0.  1.
       -1    1    3    3    0  502  0.45237157776E+02  0.12061055255E+04 -0.19445607456E+03  0.12225179361E+04  0.50400001928E-02 0. -1.
</event>
<event>
 5   0  0.1286641E-05  0.2710046E+04  0.7818609E-02  0.8331753E-01
        2   -1    0    0  501    0  0.00000000000E+00  0.00000000000E+00  0.10850310433E+04  0.10850310433E+04  0.25500000920E-02 0. -1.
       -2   -1    0    0    0  501  0.00000000000E+00  0.00000000000E+00 -0.16921975244E+04  0.16921975244E+04  0.25500000920E-02 0.  1.
    10030    2    1    2    0    0  0.00000000000E+00  0.00000000000E+00 -0.60716648112E+03  0.27772285677E+04  0.27100456420E+04 0.  0.
        4    1    3    3  502    0 -0.13397993644E+04 -0.20169775913E+03 -0.28466178280E+03  0.13844776150E+04  0.12699999809E+01 0. -1.
       -4    1    3    3    0  502  0.13397993644E+04  0.20169775913E+03 -0.32250469831E+03  0.13927509527E+04  0.12699999809E+01 0.  1.
</event>
<event>
 5   0  0.4824715E-06  0.2688724E+04  0.7818609E-02  0.8338673E-01
        1   -1    0    0  501    0  0.00000000000E+00  0.00000000000E+00  0.14988856456E+04  0.14988856456E+04  0.50400001928E-02 0.  1.
       -1   -1    0    0    0  501  0.00000000000E+00  0.00000000000E+00 -0.12057682169E+04  0.12057682169E+04  0.50400001928E-02 0. -1.
    10030    2    1    2    0    0  0.00000000000E+00  0.00000000000E+00  0.29311742876E+03  0.27046538625E+04  0.26887236171E+04 0.  0.
        5    1    3    3  502    0 -0.58336656632E+03 -0.73222938688E+03 -0.82394250958E+03  0.12471486579E+04  0.46999998093E+01 0. -1.
       -5    1    3    3    0  502  0.58336656632E+03  0.73222938688E+03  0.11170599383E+04  0.14575052046E+04  0.46999998093E+01 0.  1.
</event>
<event>
 5   0  0.1261364E-05  0.2705161E+04  0.7818609E-02  0.8333333E-01
       -2   -1    0    0    0  501  0.00000000000E+00  0.00000000000E+00  0.20477127630E+04  0.20477127630E+04  0.25500000920E-02 0.  1.
        2   -1    0    0  501    0  0.00000000000E+00  0.00000000000E+00 -0.89342285714E+03  0.89342285714E+03  0.25500000920E-02 0. -1.
    10030    2    1    2    0    0  0.00000000000E+00  0.00000000000E+00  0.11542899058E+04  0.29411356201E+04  0.27051605404E+04 0.  0.
        5    1    3    3  502    0 -0.12381577068E+04 -0.34276039560E+03  0.11724206321E+03  0.12900724736E+04  0.46999998093E+01 0. -1.
       -5    1    3    3    0  502  0.12381577068E+04  0.34276039560E+03  0.10370478426E+04  0.16510631465E+04  0.46999998093E+01 0.  1.
</event>
<event>
 5   0  0.4824715E-06  0.2696347E+04  0.7818609E-02  0.8336191E-01
       -1   -1    0    0    0  501  0.00000000000E+00  0.00000000000E+00  0.75138201141E+03  0.75138201143E+03  0.50400001928E-02 0.  1.
        1   -1    0    0  501    0  0.00000000000E+00  0.00000000000E+00 -0.24189711743E+04  0.24189711743E+04  0.50400001928E-02 0. -1.
    10030    2    1    2    0    0  0.00000000000E+00  0.00000000000E+00 -0.16675891629E+04  0.31703531858E+04  0.26963467333E+04 0.  0.
        5    1    3    3  502    0 -0.63665321843E+03  0.76472686693E+03  0.23573686704E+03  0.10226086554E+04  0.46999998093E+01 0.  1.
       -5    1    3    3    0  502  0.63665321843E+03 -0.76472686693E+03 -0.19033260300E+04  0.21477445304E+04  0.46999998093E+01 0. -1.
</event>
<event>
 5   0  0.5152288E-06  0.2687079E+04  0.7818609E-02  0.8339210E-01
       -1   -1    0    0    0  501  0.00000000000E+00  0.00000000000E+00  0.11387406296E+04  0.11387406296E+04  0.50400001928E-02 0. -1.
        1   -1    0    0  501    0  0.00000000000E+00  0.00000000000E+00 -0.15851703716E+04  0.15851703717E+04  0.50400001928E-02 0.  1.
    10030    2    1    2    0    0  0.00000000000E+00  0.00000000000E+00 -0.44642974204E+03  0.27239110013E+04  0.26870786420E+04 0.  0.
        3    1    3    3  502    0  0.10843160621E+04  0.63144374987E+03  0.26361306030E+03  0.12821678469E+04  0.10100000352E+00 0. -1.
       -3    1    3    3    0  502 -0.10843160621E+04 -0.63144374987E+03 -0.71004280234E+03  0.14417431544E+04  0.10100000352E+00 0.  1.
</event>
<event>
 5   0  0.1232559E-05  0.2668788E+04  0.7818609E-02  0.8345204E-01
        2   -1    0    0  501    0  0.00000000000E+00  0.00000000000E+00  0.21186020429E+04  0.21186020429E+04  0.25500000920E-02 0. -1.
       -2   -1    0    0    0  501  0.00000000000E+00  0.00000000000E+00 -0.84046313055E+03  0.84046313055E+03  0.25500000920E-02 0.  1.
    10030    2    1    2    0    0  0.00000000000E+00  0.00000000000E+00  0.12781389124E+04  0.29590651735E+04  0.26687876689E+04 0.  0.
        3    1    3    3  502    0 -0.68589300193E+03  0.10262052612E+04  0.12012271224E+04  0.17223510263E+04  0.10100000352E+00 0. -1.
       -3    1    3    3    0  502  0.68589300193E+03 -0.10262052612E+04  0.76911790021E+02  0.12367141472E+04  0.10100000352E+00 0.  1.
</event>
<event>
 5   0  0.4826140E-06  0.2688048E+04  0.7818609E-02  0.8338894E-01
       -1   -1    0    0    0  501  0.00000000000E+00  0.00000000000E+00  0.26339011211E+04  0.26339011211E+04  0.50400001928E-02 0. -1.
        1   -1    0    0  501    0  0.00000000000E+00  0.00000000000E+00 -0.68582682297E+03  0.68582682299E+03  0.50400001928E-02 0.  1.
    10030    2    1    2    0    0  0.00000000000E+00  0.00000000000E+00  0.19480742982E+04  0.33197279441E+04  0.26880476469E+04 0.  0.
        1    1    3    3  502    0 -0.46080213764E+03 -0.10886968282E+04  0.18441137183E+03  0.11964977843E+04  0.50400001928E-02 0.  1.
       -1    1    3    3    0  502  0.46080213764E+03  0.10886968282E+04  0.17636629263E+04  0.21232301598E+04  0.50400001928E-02 0. -1.
</event>
<event>
 5   0  0.4756800E-06  0.2677852E+04  0.7818609E-02  0.8342227E-01
       -1   -1    0    0    0  501  0.00000000000E+00  0.00000000000E+00  0.12617823422E+04  0.12617823422E+04  0.50400001928E-02 0.  1.
        1   -1    0    0  501    0  0.00000000000E+00  0.00000000000E+00 -0.14207859089E+04  0.14207859089E+04  0.50400001928E-02 0. -1.
    10030    2    1    2    0    0  0.00000000000E+00  0.00000000000E+00 -0.15900356674E+03  0.26825682511E+04  0.26778518046E+04 0.  0.
        4    1    3    3  502    0  0.47402678213E+03  0.13278285511E+03 -0.13268407217E+04  0.14152175064E+04  0.12699999809E+01 0. -1.
       -4    1    3    3    0  502 -0.47402678213E+03 -0.13278285511E+03  0.11678371549E+04  0.12673507447E+04  0.12699999809E+01 0.  1.
</event>
<event>
 5   0  0.4824715E-06  0.2714635E+04  0.7818609E-02  0.8330272E-01
        1   -1    0    0  501    0  0.00000000000E+00  0.00000000000E+00  0.12312237294E+04  0.12312237294E+04  0.50400001928E-02 0. -1.
       -1   -1    0    0    0  501  0.00000000000E+00  0.00000000000E+00 -0.14963251807E+04  0.14963251807E+04  0.50400001928E-02 0.  1.
    10030    2    1    2    0    0  0.00000000000E+00  0.00000000000E+00 -0.26510145126E+03  0.27275489101E+04  0.27146352016E+04 0.  0.
        5    1    3    3  502    0  0.66876914038E+03  0.52382615792E+03  0.93108938529E+03  0.12603949937E+04  0.46999998093E+01 0. -1.
       -5    1    3    3    0  502 -0.66876914038E+03 -0.52382615792E+03 -0.11961908366E+04  0.14671539164E+04  0.46999998093E+01 0.  1.
</event>
<event>
 5   0  0.4826140E-06  0.2654117E+04  0.7818609E-02  0.8350048E-01
       -1   -1    0    0    0  501  0.00000000000E+00  0.00000000000E+00  0.68907970480E+03  0.68907970482E+03  0.50400001928E-02 0.  1.
        1   -1    0    0  501    0  0.00000000000E+00  0.00000000000E+00 -0.25557044915E+04  0.25557044915E+04  0.50400001928E-02 0. -1.
    10030    2    1    2    0    0  0.00000000000E+00  0.00000000000E+00 -0.18666247867E+04  0.32447841963E+04  0.26541168750E+04 0.  0.
        1    1    3    3  502    0  0.12493133885E+03  0.87819912571E+03  0.27338763284E+03  0.92821459891E+03  0.50400001928E-02 0.  1.
       -1    1    3    3    0  502 -0.12493133885E+03 -0.87819912571E+03 -0.21400124195E+04  0.23165695974E+04  0.50400001928E-02 0. -1.
</event>
<event>
 5   0  0.4826140E-06  0.2671507E+04  0.7818609E-02  0.8344310E-01
        1   -1    0    0  501    0  0.00000000000E+00  0.00000000000E+00  0.10478534582E+04  0.10478534582E+04  0.50400001928E-02 0. -1.
       -1   -1    0    0    0  501  0.00000000000E+00  0.00000000000E+00 -0.17027543736E+04  0.17027543736E+04  0.50400001928E-02 0.  1.
    10030    2    1    2    0    0  0.00000000000E+00  0.00000000000E+00 -0.65490091542E+03  0.27506078319E+04  0.26715067351E+04 0.  0.
        1    1    3    3  502    0 -0.15438104994E+03  0.47610273156E+03 -0.16025580192E+04  0.16788983068E+04  0.50400001928E-02 0.  1.
       -1    1    3    3    0  502  0.15438104994E+03 -0.47610273156E+03  0.94765710383E+03  0.10717095250E+04  0.50400001928E-02 0. -1.
</event>
<event>
 5   0  0.1286641E-05  0.2694269E+04  0.7818609E-02  0.8336867E-01
       -2   -1    0    0    0  501  0.00000000000E+00  0.00000000000E+00  0.12118456197E+04  0.12118456197E+04  0.25500000920E-02 0. -1.
        2   -1    0    0  501    0  0.00000000000E+00  0.00000000000E+00 -0.14975264820E+04  0.14975264820E+04  0.25500000920E-02 0.  1.
    10030    2    1    2    0    0  0.00000000000E+00  0.00000000000E+00 -0.28568086223E+03  0.27093721017E+04  0.26942686634E+04 0.  0.
        4    1    3    3  502    0  0.21543739120E+03 -0.11905441421E+04  0.45289986985E+03  0.12918701672E+04  0.12699999809E+01 0. -1.
       -4    1    3    3    0  502 -0.21543739120E+03  0.11905441421E+04 -0.73858073208E+03  0.14175019346E+04  0.12699999809E+01 0.  1.
</event>
<event>
 5   0  0.4756800E-06  0.2730961E+04  0.7818609E-02  0.8325029E-01
       -1   -1    0    0    0  501  0.00000000000E+00  0.00000000000E+00  0.86316880258E+03  0.86316880260E+03  0.50400001928E-02 0.  1.
        1   -1    0    0  501    0  0.00000000000E+00  0.00000000000E+00 -0.21601068641E+04  0.21601068641E+04  0.50400001928E-02 0. -1.
    10030    2    1    2    0    0  0.00000000000E+00  0.00000000000E+00 -0.12969380615E+04  0.30232756667E+04  0.27309608971E+04 0.  0.
        4    1    3    3  502    0  0.92501401148E+03 -0.10034072224E+04 -0.59824481789E+03  0.14900924301E+04  0.12699999809E+01 0. -1.
       -4    1    3    3    0  502 -0.92501401148E+03  0.10034072224E+04 -0.69869324363E+03  0.15331832366E+04  0.12699999809E+01 0.  1.
</event>
<event>
 5   0  0.4826140E-06  0.2687263E+04  0.7818609E-02  0.8339149E-01
        1   -1    0    0  501    0  0.00000000000E+00  0.00000000000E+00  0.17090325589E+04  0.17090325589E+04  0.50400001928E-02 0. -1.
       -1   -1    0    0    0  501  0.00000000000E+00  0.00000000000E+00 -0.10563554710E+04  0.10563554710E+04  0.50400001928E-02 0.  1.
    10030    2    1    2    0    0  0.00000000000E+00  0.00000000000E+00  0.65267708797E+03  0.27653880299E+04  0.26872632128E+04 0.  0.
        1    1    3    3  502    0 -0.43324144492E+03  0.10144167366E+03  0.16310127894E+04  0.16906186093E+04  0.50400001928E-02 0. -1.
       -1    1    3    3    0  502  0.43324144492E+03 -0.10144167366E+03 -0.97833570145E+03  0.10747694206E+04  0.50400001928E-02 0.  1.
</event>
<event>
 5   0  0.5152288E-06  0.2692982E+04  0.7818609E-02  0.8337286E-01
        1   -1    0    0  501    0  0.00000000000E+00  0.00000000000E+00  0.21704872214E+04  0.21704872214E+04  0.50400001928E-02 0.  1.
       -1   -1    0    0    0  501  0.00000000000E+00  0.00000000000E+00 -0.83531363204E+03  0.83531363205E+03  0.50400001928E-02 0. -1.
    10030    2    1    2    0    0  0.00000000000E+00  0.00000000000E+00  0.13351735894E+04  0.30058008535E+04  0.26929816667E+04 0.  0.
        3    1    3    3  502    0 -0.13936993901E+02 -0.82124123403E+02  0.21676086121E+04  0.21692085462E+04  0.10100000352E+00 0.  1.
       -3    1    3    3    0  502  0.13936993901E+02  0.82124123403E+02 -0.83243502269E+03  0.83659230731E+03  0.10100000352E+00 0. -1.
</event>
<event>
 5   0  0.5152288E-06  0.2639590E+04  0.7818609E-02  0.8354876E-01
        1   -1    0    0  501    0  0.00000000000E+00  0.00000000000E+00  0.13539813877E+04  0.13539813877E+04  0.50400001928E-02 0. -1.
       -1   -1    0    0    0  501  0.00000000000E+00  0.00000000000E+00 -0.12864715246E+04  0.12864715246E+04  0.50400001928E-02 0.  1.
    10030    2    1    2    0    0  0.00000000000E+00  0.00000000000E+00  0.67509863093E+02  0.26404529123E+04  0.26395897409E+04 0.  0.
        3    1    3    3  502    0 -0.94130024447E+03  0.16003059104E+03 -0.87769753944E+03  0.12969228663E+04  0.10100000352E+00 0.  1.
       -3    1    3    3    0  502  0.94130024447E+03 -0.16003059104E+03  0.94520740253E+03  0.13435300459E+04  0.10100000352E+00 0. -1.
</event>
<event>
 5   0  0.1286641E-05  0.2590613E+04  0.7818609E-02  0.8371397E-01
       -2   -1    0    0    0  501  0.00000000000E+00  0.00000000000E+00  0.76160415253E+03  0.76160415253E+03  0.25500000920E-02 0. -1.
        2   -1    0    0  501    0  0.00000000000E+00  0.00000000000E+00 -0.22030064903E+04  0.22030064903E+04  0.25500000920E-02 0.  1.
    10030    2    1    2    0    0  0.00000000000E+00  0.00000000000E+00 -0.14414023378E+04  0.29646106428E+04  0.25906129708E+04 0.  0.
        4    1    3    3  502    0 -0.40549056815E+03  0.11998220992E+04 -0.10316270523E+04  0.16334783924E+04  0.12699999809E+01 0. -1.
       -4    1    3    3    0  502  0.40549056815E+03 -0.11998220992E+04 -0.40977528544E+03  0.13311322504E+04  0.12699999809E+01 0.  1.
</event>
<event>
 5   0  0.4846214E-06  0.2684588E+04  0.7818609E-02  0.8340023E-01
        1   -1    0    0  501    0  0.00000000000E+00  0.00000000000E+00  0.15997194102E+04  0.15997194102E+04  0.50400001928E-02 0. -1.
       -1   -1    0    0    0  501  0.00000000000E+00  0.00000000000E+00 -0.11262932595E+04  0.11262932595E+04  0.50400001928E-02 0.  1.
    10030    2    1    2    0    0  0.00000000000E+00  0.00000000000E+00  0.47342615070E+03  0.27260126698E+04  0.26845880048E+04 0.  0.
        2    1    3    3  502    0  0.42250809984E+03 -0.11928977686E+04  0.69109414489E+03  0.14419186170E+04  0.25500000920E-02 0. -1.
       -2    1    3    3    0  502 -0.42250809984E+03  0.11928977686E+04 -0.21766799419E+03  0.12840940528E+04  0.25500000920E-02 0.  1.
</event>
<event>
 5   0  0.4756800E-06  0.2769405E+04  0.7818609E-02  0.8312830E-01
       -1   -1    0    0    0  501  0.00000000000E+00  0.00000000000E+00  0.12663939674E+04  0.12663939675E+04  0.50400001928E-02 0. -1.
        1   -1    0    0  501    0  0.00000000000E+00  0.00000000000E+00 -0.15140640189E+04  0.15140640189E+04  0.50400001928E-02 0.  1.
    10030    2    1    2    0    0  0.00000000000E+00  0.00000000000E+00 -0.24767005141E+03  0.27804579863E+04  0.27694053801E+04 0.  0.
        4    1    3    3  502    0  0.72638082514E+03 -0.53858312234E+02 -0.13061894997E+04  0.14955475395E+04  0.12699999809E+01 0.  1.
       -4    1    3    3    0  502 -0.72638082514E+03  0.53858312234E+02  0.10585194483E+04  0.12849104468E+04  0.12699999809E+01 0. -1.
</event>
<event>
 5   0  0.1286641E-05  0.2741975E+04  0.7818609E-02  0.8321513E-01
        2   -1    0    0  501    0  0.00000000000E+00  0.00000000000E+00  0.93776099203E+03  0.93776099203E+03  0.25500000920E-02 0. -1.
       -2   -1    0    0    0  501  0.00000000000E+00  0.00000000000E+00 -0.20043551960E+04  0.20043551961E+04  0.25500000920E-02 0.  1.
    10030    2    1    2    0    0  0.00000000000E+00  0.00000000000E+00 -0.10665942040E+04  0.29421161881E+04  0.27419745564E+04 0.  0.
        4    1    3    3  502    0  0.12233938481E+04 -0.33203587131E+03 -0.10935839662E+04  0.16741767623E+04  0.12699999809E+01 0. -1.
       -4    1    3    3    0  502 -0.12233938481E+04  0.33203587131E+03  0.26989762142E+02  0.12679394258E+04  0.12699999809E+01 0.  1.
</event>
<event>
 5   0  0.1261364E-05  0.2699104E+04  0.7818609E-02  0.8335296E-01
        2   -1    0    0  501    0  0.00000000000E+00  0.00000000000E+00  0.14248598533E+04  0.14248598533E+04  0.25500000920E-02 0. -1.
       -2   -1    0    0    0  501  0.00000000000E+00  0.00000000000E+00 -0.12782243806E+04  0.12782243807E+04  0.25500000920E-02 0.  1.
    10030    2    1    2    0    0  0.00000000000E+00  0.00000000000E+00  0.14663547261E+03  0.27030842339E+04  0.26991040020E+04 0.  0.
        5    1    3    3  502    0 -0.78099604743E+03  0.96713527248E+03 -0.45277878490E+03  0.13230027133E+04  0.46999998093E+01 0.  1.
       -5    1    3    3    0  502  0.78099604743E+03 -0.96713527248E+03  0.59941425751E+03  0.13800815206E+04  0.46999998093E+01 0. -1.
</event>
<event>
 5   0  0.4756800E-06  0.2677558E+04  0.7818609E-02  0.8342323E-01
       -1   -1    0    0    0  501  0.00000000000E+00  0.00000000000E+00  0.10485751717E+04  0.10485751717E+04  0.50400001928E-02 0. -1.
        1   -1    0    0  501    0  0.00000000000E+00  0.00000000000E+00 -0.17092999108E+04  0.17092999108E+04  0.50400001928E-02 0.  1.
    10030    2    1    2    0    0  0.00000000000E+00  0.00000000000E+00 -0.66072473906E+03  0.27578750826E+04  0.26775581768E+04 0.  0.
        4    1    3    3  502    0 -0.10551827782E+04  0.50381476720E+03  0.34118245393E+03  0.12180505305E+04  0.12699999809E+01 0. -1.
       -4    1    3    3    0  502  0.10551827782E+04 -0.50381476720E+03 -0.10019071930E+04  0.15398245521E+04  0.12699999809E+01 0.  1.
</event>
<event>
 5   0  0.1286641E-05  0.2714942E+04  0.7818609E-02  0.8330173E-01
        2   -1    0    0  501    0  0.00000000000E+00  0.00000000000E+00  0.28750894407E+04  0.28750894407E+04  0.25500000920E-02 0. -1.
       -2   -1    0    0    0  501  0.00000000000E+00  0.00000000000E+00 -0.64092888289E+03  0.64092888290E+03  0.25500000920E-02 0.  1.
    10030    2    1    2    0    0  0.00000000000E+00  0.00000000000E+00  0.22341605579E+04  0.35160183236E+04  0.27149422561E+04 0.  0.
        4    1    3    3  502    0  0.59401321770E+03 -0.97919134546E+03  0.20608409186E+04  0.23576968207E+04  0.12699999809E+01 0. -1.
       -4    1    3    3    0  502 -0.59401321770E+03  0.97919134546E+03  0.17331963924E+03  0.11583215029E+04  0.12699999809E+01 0.  1.
</event>
<event>
 5   0  0.1232559E-05  0.2712441E+04  0.7818609E-02  0.8330980E-01
        2   -1    0    0  501    0  0.00000000000E+00  0.00000000000E+00  0.10189249412E+04  0.10189249412E+04  0.25500000920E-02 0.  1.
       -2   -1    0    0    0  501  0.00000000000E+00  0.00000000000E+00 -0.18051712927E+04  0.18051712927E+04  0.25500000920E-02 0. -1.
    10030    2    1    2    0    0  0.00000000000E+00  0.00000000000E+00 -0.78624635142E+03  0.28240962339E+04  0.27124410064E+04 0.  0.
        3    1    3    3  502    0  0.79194427728E+03 -0.55015035336E+02  0.75174632270E+03  0.10933091678E+04  0.10100000352E+00 0.  1.
       -3    1    3    3    0  502 -0.79194427728E+03  0.55015035336E+02 -0.15379926741E+04  0.17307870661E+04  0.10100000352E+00 0. -1.
</event>
<event>
 5   0  0.4824715E-06  0.2685070E+04  0.7818609E-02  0.8339866E-01
        1   -1    0    0  501    0  0.00000000000E+00  0.00000000000E+00  0.10547186282E+04  0.10547186282E+04  0.50400001928E-02 0.  1.
       -1   -1    0    0    0  501  0.00000000000E+00  0.00000000000E+00 -0.17088914022E+04  0.17088914022E+04  0.50400001928E-02 0. -1.
    10030    2    1    2    0    0  0.00000000000E+00  0.00000000000E+00 -0.65417277396E+03  0.27636100304E+04  0.26850695302E+04 0.  0.
        5    1    3    3  502    0 -0.33211473215E+03 -0.95540697960E+03 -0.12356734398E+04  0.15968762106E+04  0.46999998093E+01 0. -1.
       -5    1    3    3    0  502  0.33211473215E+03  0.95540697960E+03  0.58150066589E+03  0.11667338199E+04  0.46999998093E+01 0.  1.
</event>
<event>
 5   0  0.1220908E-05  0.2709234E+04  0.7818609E-02  0.8332015E-01
       -2   -1    0    0    0  501  0.00000000000E+00  0.00000000000E+00  0.10753145550E+04  0.10753145550E+04  0.25500000920E-02 0. -1.
        2   -1    0    0  501    0  0.00000000000E+00  0.00000000000E+00 -0.17064658289E+04  0.17064658289E+04  0.25500000920E-02 0.  1.
    10030    2    1    2    0    0  0.00000000000E+00  0.00000000000E+00 -0.63115127389E+03  0.27817803840E+04  0.27092342413E+04 0.  0.
        2    1    3    3  502    0 -0.11089803676E+04 -0.41004030314E+03  0.36319878539E+03  0.12368847414E+04  0.25500000920E-02 0. -1.
       -2    1    3    3    0  502  0.11089803676E+04  0.41004030314E+03 -0.99435005928E+03  0.15448956425E+04  0.25500000920E-02 0.  1.
</event>
<event>
 5   0  0.4188000E-06  0.2993072E+04  0.7818609E-02  0.8245712E-01
        3   -1    0    0  501    0  0.00000000000E+00  0.00000000000E+00  0.78429195127E+03  0.78429195777E+03  0.10100000352E+00 0. -1.
       -3   -1    0    0    0  501  0.00000000000E+00  0.00000000000E+00 -0.28555940265E+04  0.28555940283E+04  0.10100000352E+00 0.  1.
    10030    2    1    2    0    0  0.00000000000E+00  0.00000000000E+00 -0.20713020753E+04  0.36398859861E+04  0.29930716170E+04 0.  0.
        2    1    3    3  502    0 -0.12392112321E+04 -0.56388901544E+03 -0.28009506070E+03  0.13899886843E+04  0.25500000920E-02 0. -1.
       -2    1    3    3    0  502  0.12392112321E+04  0.56388901544E+03 -0.17912070146E+04  0.22498973018E+04  0.25500000920E-02 0.  1.
</event>
<event>
 5   0  0.1220908E-05  0.2689502E+04  0.7818609E-02  0.8338419E-01
        2   -1    0    0  501    0  0.00000000000E+00  0.00000000000E+00  0.20892130085E+04  0.20892130085E+04  0.25500000920E-02 0.  1.
       -2   -1    0    0    0  501  0.00000000000E+00  0.00000000000E+00 -0.86556737301E+03  0.86556737301E+03  0.25500000920E-02 0. -1.
    10030    2    1    2    0    0  0.00000000000E+00  0.00000000000E+00  0.12236456355E+04  0.29547803815E+04  0.26895015266E+04 0.  0.
        2    1    3    3  502    0  0.82695021976E+03 -0.10503708891E+04  0.45174999018E+03  0.14111001822E+04  0.25500000920E-02 0. -1.
       -2    1    3    3    0  502 -0.82695021976E+03  0.10503708891E+04  0.77189564533E+03  0.15436801993E+04  0.25500000920E-02 0.  1.
</event>
<event>
 5   0  0.5152288E-06  0.2707913E+04  0.7818609E-02  0.8332442E-01
       -1   -1    0    0    0  501  0.00000000000E+00  0.00000000000E+00  0.10432121671E+04  0.10432121671E+04  0.50400001928E-02 0.  1.
        1   -1    0    0  501    0  0.00000000000E+00  0.00000000000E+00 -0.17572635373E+04  0.17572635373E+04  0.50400001928E-02 0. -1.
    10030    2    1    2    0    0  0.00000000000E+00  0.00000000000E+00 -0.71405137026E+03  0.28004757044E+04  0.27079133685E+04 0.  0.
        3    1    3    3  502    0  0.71969586144E+03  0.11240579180E+04 -0.59224326616E+03  0.14602124614E+04  0.10100000352E+00 0.  1.
       -3    1    3    3    0  502 -0.71969586144E+03 -0.11240579180E+04 -0.12180810410E+03  0.13402632430E+04  0.10100000352E+00 0. -1.
</event>
<event>
 5   0  0.1232559E-05  0.2659595E+04  0.7818609E-02  0.8348235E-01
        2   -1    0    0  501    0  0.00000000000E+00  0.00000000000E+00  0.16311428341E+04  0.16311428341E+04  0.25500000920E-02 0.  1.
       -2   -1    0    0    0  501  0.00000000000E+00  0.00000000000E+00 -0.10841243962E+04  0.10841243962E+04  0.25500000920E-02 0. -1.
    10030    2    1    2    0    0  0.00000000000E+00  0.00000000000E+00  0.54701843790E+03  0.27152672303E+04  0.26595952625E+04 0.  0.
        3    1    3    3  502    0 -0.14924743508E+03 -0.15223802812E+03  0.16135820073E+04  0.16276050254E+04  0.10100000352E+00 0.  1.
       -3    1    3    3    0  502  0.14924743508E+03  0.15223802812E+03 -0.10665635694E+04  0.10876622049E+04  0.10100000352E+00 0. -1.
</event>
<event>
 5   0  0.4756800E-06  0.2693652E+04  0.7818609E-02  0.8337068E-01
        1   -1    0    0  501    0  0.00000000000E+00  0.00000000000E+00  0.17266637796E+04  0.17266637796E+04  0.50400001928E-02 0. -1.
       -1   -1    0    0    0  501  0.00000000000E+00  0.00000000000E+00 -0.10505462385E+04  0.10505462385E+04  0.50400001928E-02 0.  1.
    10030    2    1    2    0    0  0.00000000000E+00  0.00000000000E+00  0.67611754108E+03  0.27772100181E+04  0.26936518994E+04 0.  0.
        4    1    3    3  502    0 -0.10460844973E+04  0.84268420289E+03  0.43870391855E+03  0.14131072792E+04  0.12699999809E+01 0.  1.
       -4    1    3    3    0  502  0.10460844973E+04 -0.84268420289E+03  0.23741362252E+03  0.13641027390E+04  0.12699999809E+01 0. -1.
</event>
<event>
 5   0  0.4826140E-06  0.2690390E+04  0.7818609E-02  0.8338130E-01
       -1   -1    0    0    0  501  0.00000000000E+00  0.00000000000E+00  0.11085144893E+04  0.11085144893E+04  0.50400001928E-02 0. -1.
        1   -1    0    0  501    0  0.00000000000E+00  0.00000000000E+00 -0.16324098081E+04  0.16324098081E+04  0.50400001928E-02 0.  1.
    10030    2    1    2    0    0  0.00000000000E+00  0.00000000000E+00 -0.52389531885E+03  0.27409242974E+04  0.26903902503E+04 0.  0.
        1    1    3    3  502    0  0.23281302905E+03  0.10035019324E+03 -0.16078515534E+04  0.16277157877E+04  0.50400001928E-02 0.  1.
       -1    1    3    3    0  502 -0.23281302905E+03 -0.10035019324E+03  0.10839562345E+04  0.11132085097E+04  0.50400001928E-02 0. -1.
</event>
<event>
 5   0  0.1220908E-05  0.2382984E+04  0.7818609E-02  0.8445902E-01
        2   -1    0    0  501    0  0.00000000000E+00  0.00000000000E+00  0.16035670639E+04  0.16035670639E+04  0.25500000920E-02 0.  1.
       -2   -1    0    0    0  501  0.00000000000E+00  0.00000000000E+00 -0.88530947646E+03  0.88530947647E+03  0.25500000920E-02 0. -1.
    10030    2    1    2    0    0  0.00000000000E+00  0.00000000000E+00  0.71825758743E+03  0.24888765404E+04  0.23829839427E+04 0.  0.
        2    1    3    3  502    0  0.28696824100E+03  0.98351531131E+03  0.99443498521E+03  0.14277794223E+04  0.25500000920E-02 0.  1.
       -2    1    3    3    0  502 -0.28696824100E+03 -0.98351531131E+03 -0.27617739778E+03  0.10610971181E+04  0.25500000920E-02 0. -1.
</event>
<event>
 5   0  0.5152288E-06  0.2709655E+04  0.7818609E-02  0.8331879E-01
        1   -1    0    0  501    0  0.00000000000E+00  0.00000000000E+00  0.13367054714E+04  0.13367054714E+04  0.50400001928E-02 0.  1.
       -1   -1    0    0    0  501  0.00000000000E+00  0.00000000000E+00 -0.13731953358E+04  0.13731953358E+04  0.50400001928E-02 0. -1.
    10030    2    1    2    0    0  0.00000000000E+00  0.00000000000E+00 -0.36489864459E+02  0.27099008072E+04  0.27096551210E+04 0.  0.
        3    1    3    3  502    0  0.12477151381E+04  0.16577423434E+03 -0.51957228624E+03  0.13617009707E+04  0.10100000352E+00 0. -1.
       -3    1    3    3    0  502 -0.12477151381E+04 -0.16577423434E+03  0.48308242178E+03  0.13481998365E+04  0.10100000352E+00 0.  1.
</event>
<event>
 5   0  0.1286641E-05  0.2709828E+04  0.7818609E-02  0.8331823E-01
        2   -1    0    0  501    0  0.00000000000E+00  0.00000000000E+00  0.13509571977E+04  0.13509571977E+04  0.25500000920E-02 0.  1.
       -2   -1    0    0    0  501  0.00000000000E+00  0.00000000000E+00 -0.13588821531E+04  0.13588821531E+04  0.25500000920E-02 0. -1.
    10030    2    1    2    0    0  0.00000000000E+00  0.00000000000E+00 -0.79249553777E+01  0.27098393507E+04  0.27098277624E+04 0.  0.
        4    1    3    3  502    0  0.11492245930E+04  0.71378809942E+03 -0.78658155594E+02  0.13551381237E+04  0.12699999809E+01 0.  1.
       -4    1    3    3    0  502 -0.11492245930E+04 -0.71378809942E+03  0.70733200216E+02  0.13547012270E+04  0.12699999809E+01 0. -1.
</event>
<event>
 5   0  0.1232559E-05  0.2629085E+04  0.7818609E-02  0.8358388E-01
       -2   -1    0    0    0  501  0.00000000000E+00  0.00000000000E+00  0.52284526869E+03  0.52284526869E+03  0.25500000920E-02 0.  1.
        2   -1    0    0  501    0  0.00000000000E+00  0.00000000000E+00 -0.33050343957E+04  0.33050343957E+04  0.25500000920E-02 0. -1.
    10030    2    1    2    0    0  0.00000000000E+00  0.00000000000E+00 -0.27821891270E+04  0.38278796644E+04  0.26290847051E+04 0.  0.
        3    1    3    3  502    0 -0.64600022114E+03  0.11409613329E+04 -0.12536415129E+04  0.18140358602E+04  0.10100000352E+00 0.  1.
       -3    1    3    3    0  502  0.64600022114E+03 -0.11409613329E+04 -0.15285476141E+04  0.20138438042E+04  0.10100000352E+00 0. -1.
</event>
<event>
 5   0  0.1261364E-05  0.2690352E+04  0.7818609E-02  0.8338142E-01
        2   -1    0    0  501    0  0.00000000000E+00  0.00000000000E+00  0.27417263932E+04  0.27417263932E+04  0.25500000920E-02 0. -1.
       -2   -1    0    0    0  501  0.00000000000E+00  0.00000000000E+00 -0.65998486820E+03  0.65998486821E+03  0.25500000920E-02 0.  1.
    10030    2    1    2    0    0  0.00000000000E+00  0.00000000000E+00  0.20817415250E+04  0.34017112614E+04  0.26903515995E+04 0.  0.
        5    1    3    3  502    0  0.77175176815E+03 -0.59079484665E+03  0.22167302069E+04  0.24204450505E+04  0.46999998093E+01 0. -1.
       -5    1    3    3    0  502 -0.77175176815E+03  0.59079484665E+03 -0.13498868185E+03  0.98126621092E+03  0.46999998093E+01 0.  1.
</event>
<event>
 5   0  0.4756800E-06  0.2695682E+04  0.7818609E-02  0.8336407E-01
       -1   -1    0    0    0  501  0.00000000000E+00  0.00000000000E+00  0.83934623964E+03  0.83934623966E+03  0.50400001928E-02 0.  1.
        1   -1    0    0  501    0  0.00000000000E+00  0.00000000000E+00 -0.21643927191E+04  0.21643927191E+04  0.50400001928E-02 0. -1.
    10030    2    1    2    0    0  0.00000000000E+00  0.00000000000E+00 -0.13250464795E+04  0.30037389588E+04  0.26956816503E+04 0.  0.
        4    1    3    3  502    0 -0.13356781632E+04 -0.18639875022E+02 -0.46229495286E+03  0.14135423011E+04  0.12699999809E+01 0. -1.
       -4    1    3    3    0  502  0.13356781632E+04  0.18639875022E+02 -0.86275152660E+03  0.15901966577E+04  0.12699999809E+01 0.  1.
</event>
<event>
 5   0  0.5152288E-06  0.2621884E+04  0.7818609E-02  0.8360805E-01
       -1   -1    0    0    0  501  0.00000000000E+00  0.00000000000E+00  0.12211615202E+04  0.12211615202E+04  0.50400001928E-02 0. -1.
        1   -1    0    0  501    0  0.00000000000E+00  0.00000000000E+00 -0.14073232658E+04  0.14073232658E+04  0.50400001928E-02 0.  1.
    10030    2    1    2    0    0  0.00000000000E+00  0.00000000000E+00 -0.18616174559E+03  0.26284847860E+04  0.26218840696E+04 0.  0.
        3    1    3    3  502    0 -0.58328921757E+03  0.64992061738E+03 -0.10732671941E+04  0.13836638321E+04  0.10100000352E+00 0.  1.
       -3    1    3    3    0  502  0.58328921757E+03 -0.64992061738E+03  0.88710544848E+03  0.12448209538E+04  0.10100000352E+00 0. -1.
</event>
<event>
 5   0  0.4824715E-06  0.2734563E+04  0.7818609E-02  0.8323877E-01
        1   -1    0    0  501    0  0.00000000000E+00  0.00000000000E+00  0.21596504893E+04  0.21596504893E+04  0.50400001928E-02 0.  1.
       -1   -1    0    0    0  501  0.00000000000E+00  0.00000000000E+00 -0.86563012824E+03  0.86563012825E+03  0.50400001928E-02 0. -1.
    10030    2    1    2    0    0  0.00000000000E+00  0.00000000000E+00  0.12940203610E+04  0.30252806175E+04  0.27345628755E+04 0.  0.
        5    1    3    3  502    0  0.12031908980E+04  0.33653455144E+03  0.12614993083E+04  0.17754792132E+04  0.46999998093E+01 0.  1.
       -5    1    3    3    0  502 -0.12031908980E+04 -0.33653455144E+03  0.32521052671E+02  0.12498014043E+04  0.46999998093E+01 0. -1.
</event>
<event>
 5   0  0.1286641E-05  0.2711416E+04  0.7818609E-02  0.8331310E-01
        2   -1    0    0  501    0  0.00000000000E+00  0.00000000000E+00  0.20325050712E+04  0.20325050712E+04  0.25500000920E-02 0.  1.
       -2   -1    0    0    0  501  0.00000000000E+00  0.00000000000E+00 -0.90427520142E+03  0.90427520143E+03  0.25500000920E-02 0. -1.
    10030    2    1    2    0    0  0.00000000000E+00  0.00000000000E+00  0.11282298698E+04  0.29367802727E+04  0.27114158167E+04 0.  0.
        4    1    3    3  502    0  0.26116527138E+03  0.75782577393E+03 -0.62012126864E+03  0.10134392944E+04  0.12699999809E+01 0. -1.
       -4    1    3    3    0  502 -0.26116527138E+03 -0.75782577393E+03  0.17483511385E+04  0.19233409783E+04  0.12699999809E+01 0.  1.
</event>
<event>
 5   0  0.1276517E-05  0.2688397E+04  0.7818609E-02  0.8338780E-01
       -2   -1    0    0    0  501  0.00000000000E+00  0.00000000000E+00  0.74293974099E+03  0.74293974100E+03  0.25500000920E-02 0. -1.
        2   -1    0    0  501    0  0.00000000000E+00  0.00000000000E+00 -0.24320538718E+04  0.24320538718E+04  0.25500000920E-02 0.  1.
    10030    2    1    2    0    0  0.00000000000E+00  0.00000000000E+00 -0.16891141308E+04  0.31749936128E+04  0.26883969004E+04 0.  0.
        1    1    3    3  502    0 -0.48825454461E+03  0.11289172421E+04 -0.14849403677E+04  0.19281842587E+04  0.50400001928E-02 0.  1.
       -1    1    3    3    0  502  0.48825454461E+03 -0.11289172421E+04 -0.20417376304E+03  0.12468093541E+04  0.50400001928E-02 0. -1.
</event>
<event>
 5   0  0.1261364E-05  0.2680761E+04  0.7818609E-02  0.8341274E-01
        2   -1    0    0  501    0  0.00000000000E+00  0.00000000000E+00  0.14732584818E+04  0.14732584818E+04  0.25500000920E-02 0.  1.
       -2   -1    0    0    0  501  0.00000000000E+00  0.00000000000E+00 -0.12194872698E+04  0.12194872698E+04  0.25500000920E-02 0. -1.
    10030    2    1    2    0    0  0.00000000000E+00  0.00000000000E+00  0.25377121200E+03  0.26927457516E+04  0.26807610588E+04 0.  0.
        5    1    3    3  502    0 -0.74193468237E+03  0.90661910954E+03 -0.52731138781E+03  0.12847196863E+04  0.46999998093E+01 0. -1.
       -5    1    3    3    0  502  0.74193468237E+03 -0.90661910954E+03  0.78108259982E+03  0.14080260652E+04  0.46999998093E+01 0.  1.
</event>
<event>
 5   0  0.1286641E-05  0.2727361E+04  0.7818609E-02  0.8326181E-01
       -2   -1    0    0    0  501  0.00000000000E+00  0.00000000000E+00  0.10055340216E+04  0.10055340216E+04  0.25500000920E-02 0. -1.
        2   -1    0    0  501    0  0.00000000000E+00  0.00000000000E+00 -0.18493900427E+04  0.18493900427E+04  0.25500000920E-02 0.  1.
    10030    2    1    2    0    0  0.00000000000E+00  0.00000000000E+00 -0.84385602113E+03  0.28549240643E+04  0.27273610741E+04 0.  0.
        4    1    3    3  502    0 -0.25704118057E+03 -0.44299850479E+03  0.90102941881E+03  0.10364234030E+04  0.12699999809E+01 0. -1.
       -4    1    3    3    0  502  0.25704118057E+03  0.44299850479E+03 -0.17448854399E+04  0.18185006613E+04  0.12699999809E+01 0.  1.
</event>
<event>
 5   0  0.1220908E-05  0.2754322E+04  0.7818609E-02  0.8317591E-01
       -2   -1    0    0    0  501  0.00000000000E+00  0.00000000000E+00  0.79240965661E+03  0.79240965661E+03  0.25500000920E-02 0.  1.
        2   -1    0    0  501    0  0.00000000000E+00  0.00000000000E+00 -0.23934243563E+04  0.23934243563E+04  0.25500000920E-02 0. -1.
    10030    2    1    2    0    0  0.00000000000E+00  0.00000000000E+00 -0.16010146997E+04  0.31858340129E+04  0.27543221106E+04 0.  0.
        2    1    3    3  502    0 -0.18466544400E+03 -0.10409908181E+04  0.22025348421E+03  0.10799420386E+04  0.25500000920E-02 0.  1.
       -2    1    3    3    0  502  0.18466544400E+03  0.10409908181E+04 -0.18212681839E+04  0.21058919742E+04  0.25500000920E-02 0. -1.
</event>
<event>
 5   0  0.1261364E-05  0.2652130E+04  0.7818609E-02  0.8350706E-01
        2   -1    0    0  501    0  0.00000000000E+00  0.00000000000E+00  0.85091098513E+03  0.85091098514E+03  0.25500000920E-02 0.  1.
       -2   -1    0    0    0  501  0.00000000000E+00  0.00000000000E+00 -0.20665473507E+04  0.20665473507E+04  0.25500000920E-02 0. -1.
    10030    2    1    2    0    0  0.00000000000E+00  0.00000000000E+00 -0.12156363655E+04  0.29174583358E+04  0.26521295911E+04 0.  0.
        5    1    3    3  502    0 -0.45289603825E+03  0.12435622106E+04 -0.51668065259E+03  0.14207542996E+04  0.46999998093E+01 0. -1.
       -5    1    3    3    0  502  0.45289603825E+03 -0.12435622106E+04 -0.69895571296E+03  0.14967040362E+04  0.46999998093E+01 0.  1.
</event>
<event>
 5   0  0.1261364E-05  0.2703074E+04  0.7818609E-02  0.8334008E-01
       -2   -1    0    0    0  501  0.00000000000E+00  0.00000000000E+00  0.14505798777E+04  0.14505798777E+04  0.25500000920E-02 0.  1.
        2   -1    0    0  501    0  0.00000000000E+00  0.00000000000E+00 -0.12592564036E+04  0.12592564036E+04  0.25500000920E-02 0. -1.
    10030    2    1    2    0    0  0.00000000000E+00  0.00000000000E+00  0.19132347406E+03  0.27098362813E+04  0.27030738058E+04 0.  0.
        5    1    3    3  502    0  0.93498884425E+03 -0.54328129786E+03 -0.71708914864E+03  0.12975352190E+04  0.46999998093E+01 0. -1.
       -5    1    3    3    0  502 -0.93498884425E+03  0.54328129786E+03  0.90841262270E+03  0.14123010623E+04  0.46999998093E+01 0.  1.
</event>
<event>
 5   0  0.4846214E-06  0.2706572E+04  0.7818609E-02  0.8332876E-01
        1   -1    0    0  501    0  0.00000000000E+00  0.00000000000E+00  0.11064978459E+04  0.11064978459E+04  0.50400001928E-02 0. -1.
       -1   -1    0    0    0  501  0.00000000000E+00  0.00000000000E+00 -0.16551167004E+04  0.16551167004E+04  0.50400001928E-02 0.  1.
    10030    2    1    2    0    0  0.00000000000E+00  0.00000000000E+00 -0.54861885451E+03  0.27616145464E+04  0.27065720488E+04 0.  0.
        2    1    3    3  502    0 -0.34372526305E+03  0.40863743399E+03 -0.15430812635E+04  0.16328598822E+04  0.25500000920E-02 0.  1.
       -2    1    3    3    0  502  0.34372526305E+03 -0.40863743399E+03  0.99446240903E+03  0.11287546642E+04  0.25500000920E-02 0. -1.
</event>
<event>
 5   0  0.4846214E-06  0.2318366E+04  0.7818609E-02  0.8470715E-01
       -1   -1    0    0    0  501  0.00000000000E+00  0.00000000000E+00  0.10760917018E+04  0.10760917018E+04  0.50400001928E-02 0.  1.
        1   -1    0    0  501    0  0.00000000000E+00  0.00000000000E+00 -0.12486898824E+04  0.12486898824E+04  0.50400001928E-02 0. -1.
    10030    2    1    2    0    0  0.00000000000E+00  0.00000000000E+00 -0.17259818066E+03  0.23247815842E+04  0.23183656490E+04 0.  0.
        2    1    3    3  502    0 -0.10927428905E+04 -0.38218682658E+03 -0.26543696422E+02  0.11579543873E+04  0.25500000920E-02 0. -1.
       -2    1    3    3    0  502  0.10927428905E+04  0.38218682658E+03 -0.14605448424E+03  0.11668271970E+04  0.25500000920E-02 0.  1.
</event>
<event>
 5   0  0.4846214E-06  0.2721137E+04  0.7818609E-02  0.8328179E-01
       -1   -1    0    0    0  501  0.00000000000E+00  0.00000000000E+00  0.10691236124E+04  0.10691236124E+04  0.50400001928E-02 0.  1.
        1   -1    0    0  501    0  0.00000000000E+00  0.00000000000E+00 -0.17314616747E+04  0.17314616747E+04  0.50400001928E-02 0. -1.
    10030    2    1    2    0    0  0.00000000000E+00  0.00000000000E+00 -0.66233806233E+03  0.28005852871E+04  0.27211369391E+04 0.  0.
        2    1    3    3  502    0 -0.18826434576E+03 -0.57495804205E+03 -0.15854074695E+04  0.16969198738E+04  0.25500000920E-02 0. -1.
       -2    1    3    3    0  502  0.18826434576E+03  0.57495804205E+03  0.92306940714E+03  0.11036654132E+04  0.25500000920E-02 0.  1.
</event>
<event>
 5   0  0.4824715E-06  0.2395858E+04  0.7818609E-02  0.8441056E-01
        1   -1    0    0  501    0  0.00000000000E+00  0.00000000000E+00  0.12930930684E+04  0.12930930684E+04  0.50400001928E-02 0. -1.
       -1   -1    0    0    0  501  0.00000000000E+00  0.00000000000E+00 -0.11097688037E+04  0.11097688037E+04  0.50400001928E-02 0.  1.
    10030    2    1    2    0    0  0.00000000000E+00  0.00000000000E+00  0.18332426478E+03  0.24028618721E+04  0.23958583828E+04 0.  0.
        5    1    3    3  502    0  0.59481332066E+03 -0.23730549492E+03  0.11069926736E+04  0.12788947001E+04  0.46999998093E+01 0. -1.
       -5    1    3    3    0  502 -0.59481332066E+03  0.23730549492E+03 -0.92366840885E+03  0.11239671721E+04  0.46999998093E+01 0.  1.
</event>
<event>
 5   0  0.1232559E-05  0.2786274E+04  0.7818609E-02  0.8307542E-01
        2   -1    0    0  501    0  0.00000000000E+00  0.00000000000E+00  0.13694154395E+04  0.13694154395E+04  0.25500000920E-02 0.  1.
       -2   -1    0    0    0  501  0.00000000000E+00  0.00000000000E+00 -0.14172698943E+04  0.14172698943E+04  0.25500000920E-02 0. -1.
    10030    2    1    2    0    0  0.00000000000E+00  0.00000000000E+00 -0.47854454770E+02  0.27866853339E+04  0.27862744124E+04 0.  0.
        3    1    3    3  502    0  0.63368000052E+03  0.45679953004E+03 -0.11776202629E+04  0.14131545023E+04  0.10100000352E+00 0. -1.
       -3    1    3    3    0  502 -0.63368000052E+03 -0.45679953004E+03  0.11297658081E+04  0.13735308315E+04  0.10100000352E+00 0.  1.
</event>
<event>
 5   0  0.4826140E-06  0.2583038E+04  0.7818609E-02  0.8373986E-01
        1   -1    0    0  501    0  0.00000000000E+00  0.00000000000E+00  0.73995446259E+03  0.73995446261E+03  0.50400001928E-02 0.  1.
       -1   -1    0    0    0  501  0.00000000000E+00  0.00000000000E+00 -0.22542214429E+04  0.22542214430E+04  0.50400001928E-02 0. -1.
    10030    2    1    2    0    0  0.00000000000E+00  0.00000000000E+00 -0.15142669804E+04  0.29941759056E+04  0.25830379141E+04 0.  0.
        1    1    3    3  502    0 -0.75494054511E+03  0.57999680900E+03 -0.17687957976E+04  0.20087234998E+04  0.50400001928E-02 0. -1.
       -1    1    3    3    0  502  0.75494054511E+03 -0.57999680900E+03  0.25452881726E+03  0.98545240572E+03  0.50400001928E-02 0.  1.
</event>
<event>
 5   0  0.4846214E-06  0.2706709E+04  0.7818609E-02  0.8332831E-01
       -1   -1    0    0    0  501  0.00000000000E+00  0.00000000000E+00  0.92355184679E+03  0.92355184680E+03  0.50400001928E-02 0. -1.
        1   -1    0    0  501    0  0.00000000000E+00  0.00000000000E+00 -0.19831786021E+04  0.19831786021E+04  0.50400001928E-02 0.  1.
    10030    2    1    2    0    0  0.00000000000E+00  0.00000000000E+00 -0.10596267553E+04  0.29067304489E+04  0.27067088950E+04 0.  0.
        2    1    3    3  502    0 -0.95972995516E+03 -0.45433004181E+03  0.37128333064E+03  0.11248771868E+04  0.25500000920E-02 0.  1.
       -2    1    3    3    0  502  0.95972995516E+03  0.45433004181E+03 -0.14309100860E+04  0.17818532622E+04  0.25500000920E-02 0. -1.
</event>
<event>
 5   0  0.4824715E-06  0.2691361E+04  0.7818609E-02  0.8337813E-01
       -1   -1    0    0    0  501  0.00000000000E+00  0.00000000000E+00  0.90292753773E+03  0.90292753775E+03  0.50400001928E-02 0.  1.
        1   -1    0    0  501    0  0.00000000000E+00  0.00000000000E+00 -0.20055385426E+04  0.20055385426E+04  0.50400001928E-02 0. -1.
    10030    2    1    2    0    0  0.00000000000E+00  0.00000000000E+00 -0.11026110048E+04  0.29084660803E+04  0.26913609777E+04 0.  0.
        5    1    3    3  502    0  0.10672301260E+04  0.40501245597E+03 -0.13214041810E+04  0.17461804978E+04  0.46999998093E+01 0. -1.
       -5    1    3    3    0  502 -0.10672301260E+04 -0.40501245597E+03  0.21879317619E+03  0.11622855825E+04  0.46999998093E+01 0.  1.
</event>
<event>
 5   0  0.1220908E-05  0.2723700E+04  0.7818609E-02  0.8327356E-01
       -2   -1    0    0    0  501  0.00000000000E+00  0.00000000000E+00  0.11560614408E+04  0.11560614408E+04  0.25500000920E-02 0. -1.
        2   -1    0    0  501    0  0.00000000000E+00  0.00000000000E+00 -0.16042701983E+04  0.16042701983E+04  0.25500000920E-02 0.  1.
    10030    2    1    2    0    0  0.00000000000E+00  0.00000000000E+00 -0.44820875753E+03  0.27603316391E+04  0.27236996288E+04 0.  0.
        2    1    3    3  502    0  0.43205150804E+02  0.99057914168E+03  0.72200430511E+03  0.12265414537E+04  0.25500000920E-02 0. -1.
       -2    1    3    3    0  502 -0.43205150804E+02 -0.99057914168E+03 -0.11702130626E+04  0.15337901854E+04  0.25500000920E-02 0.  1.
</event>
<event>
 5   0  0.1286641E-05  0.2718199E+04  0.7818609E-02  0.8329124E-01
       -2   -1    0    0    0  501  0.00000000000E+00  0.00000000000E+00  0.12089755434E+04  0.12089755434E+04  0.25500000920E-02 0.  1.
        2   -1    0    0  501    0  0.00000000000E+00  0.00000000000E+00 -0.15278651662E+04  0.15278651662E+04  0.25500000920E-02 0. -1.
    10030    2    1    2    0    0  0.00000000000E+00  0.00000000000E+00 -0.31888962285E+03  0.27368407096E+04  0.27181991241E+04 0.  0.
        4    1    3    3  502    0 -0.80987241653E+01  0.25769019407E+03  0.11841280269E+04  0.12118707119E+04  0.12699999809E+01 0.  1.
       -4    1    3    3    0  502  0.80987241653E+01 -0.25769019407E+03 -0.15030176498E+04  0.15249699977E+04  0.12699999809E+01 0. -1.
</event>
<event>
 5   0  0.5152288E-06  0.2690229E+04  0.7818609E-02  0.8338182E-01
       -1   -1    0    0    0  501  0.00000000000E+00  0.00000000000E+00  0.12327669580E+04  0.12327669580E+04  0.50400001928E-02 0. -1.
        1   -1    0    0  501    0  0.00000000000E+00  0.00000000000E+00 -0.14677004611E+04  0.14677004611E+04  0.50400001928E-02 0.  1.
    10030    2    1    2    0    0  0.00000000000E+00  0.00000000000E+00 -0.23493350309E+03  0.27004674191E+04  0.26902287135E+04 0.  0.
        3    1    3    3  502    0 -0.14454504479E+03 -0.12503612279E+04 -0.59365194245E+03  0.13916605582E+04  0.10100000352E+00 0.  1.
       -3    1    3    3    0  502  0.14454504479E+03  0.12503612279E+04  0.35871843936E+03  0.13088068609E+04  0.10100000352E+00 0. -1.
</event>
<event>
 5   0  0.1220908E-05  0.2702267E+04  0.7818609E-02  0.8334270E-01
       -2   -1    0    0    0  501  0.00000000000E+00  0.00000000000E+00  0.66164411475E+03  0.66164411475E+03  0.25500000920E-02 0. -1.
        2   -1    0    0  501    0  0.00000000000E+00  0.00000000000E+00 -0.27591290417E+04  0.27591290417E+04  0.25500000920E-02 0.  1.
    10030    2    1    2    0    0  0.00000000000E+00  0.00000000000E+00 -0.20974849269E+04  0.34207731564E+04  0.27022668205E+04 0.  0.
        2    1    3    3  502    0 -0.49697999900E+02 -0.13143089202E+04 -0.65716747513E+03  0.14702880396E+04  0.25500000920E-02 0. -1.
       -2    1    3    3    0  502  0.49697999900E+02  0.13143089202E+04 -0.14403174518E+04  0.19504851168E+04  0.25500000920E-02 0.  1.
</event>
<event>
 5   0  0.4824715E-06  0.2639758E+04  0.7818609E-02  0.8354820E-01
        1   -1    0    0  501    0  0.00000000000E+00  0.00000000000E+00  0.11355533467E+04  0.11355533467E+04  0.50400001928E-02 0.  1.
       -1   -1    0    0    0  501  0.00000000000E+00  0.00000000000E+00 -0.15341250075E+04  0.15341250075E+04  0.50400001928E-02 0. -1.
    10030    2    1    2    0    0  0.00000000000E+00  0.00000000000E+00 -0.39857166078E+03  0.26696783543E+04  0.26397581606E+04 0.  0.
        5    1    3    3  502    0  0.94522985788E+03  0.90669455321E+03 -0.34639465924E+02  0.13102581729E+04  0.46999998093E+01 0.  1.
       -5    1    3    3    0  502 -0.94522985788E+03 -0.90669455321E+03 -0.36393219486E+03  0.13594201814E+04  0.46999998093E+01 0. -1.
</event>
<event>
 5   0  0.4756800E-06  0.2695817E+04  0.7818609E-02  0.8336364E-01
        1   -1    0    0  501    0  0.00000000000E+00  0.00000000000E+00  0.16599821476E+04  0.16599821476E+04  0.50400001928E-02 0. -1.
       -1   -1    0    0    0  501  0.00000000000E+00  0.00000000000E+00 -0.10945039744E+04  0.10945039744E+04  0.50400001928E-02 0.  1.
    10030    2    1    2    0    0  0.00000000000E+00  0.00000000000E+00  0.56547817322E+03  0.27544861220E+04  0.26958168024E+04 0.  0.
        4    1    3    3  502    0  0.97429258294E+03 -0.44009508000E+03 -0.55605668237E+03  0.12050437185E+04  0.12699999809E+01 0.  1.
       -4    1    3    3    0  502 -0.97429258294E+03  0.44009508000E+03  0.11215348556E+04  0.15494424035E+04  0.12699999809E+01 0. -1.
</event>
<event>
 5   0  0.4846214E-06  0.2663833E+04  0.7818609E-02  0.8346836E-01
       -1   -1    0    0    0  501  0.00000000000E+00  0.00000000000E+00  0.19386460084E+04  0.19386460084E+04  0.50400001928E-02 0.  1.
        1   -1    0    0  501    0  0.00000000000E+00  0.00000000000E+00 -0.91507254440E+03  0.91507254441E+03  0.50400001928E-02 0. -1.
    10030    2    1    2    0    0  0.00000000000E+00  0.00000000000E+00  0.10235734640E+04  0.28537185528E+04  0.26638331296E+04 0.  0.
        2    1    3    3  502    0 -0.30561738807E+03 -0.12336775079E+04  0.93847417595E+03  0.15799037820E+04  0.25500000920E-02 0.  1.
       -2    1    3    3    0  502  0.30561738807E+03  0.12336775079E+04  0.85099288019E+02  0.12738147708E+04  0.25500000920E-02 0. -1.
</event>
<event>
 5   0  0.4824715E-06  0.2685864E+04  0.7818609E-02  0.8339606E-01
        1   -1    0    0  501    0  0.00000000000E+00  0.00000000000E+00  0.12302975504E+04  0.12302975505E+04  0.50400001928E-02 0.  1.
       -1   -1    0    0    0  501  0.00000000000E+00  0.00000000000E+00 -0.14658779448E+04  0.14658779448E+04  0.50400001928E-02 0. -1.
    10030    2    1    2    0    0  0.00000000000E+00  0.00000000000E+00 -0.23558039434E+03  0.26961754952E+04  0.26858637678E+04 0.  0.
        5    1    3    3  502    0  0.11799560021E+04  0.35239647751E+03  0.41995714382E+03  0.13011016627E+04  0.46999998093E+01 0.  1.
       -5    1    3    3    0  502 -0.11799560021E+04 -0.35239647751E+03 -0.65553753815E+03  0.13950738325E+04  0.46999998093E+01 0. -1.
</event>
<event>
 5   0  0.4826140E-06  0.2703785E+04  0.7818609E-02  0.8333778E-01
       -1   -1    0    0    0  501  0.00000000000E+00  0.00000000000E+00  0.15017745316E+04  0.15017745316E+04  0.50400001928E-02 0.  1.
        1   -1    0    0  501    0  0.00000000000E+00  0.00000000000E+00 -0.12169688393E+04  0.12169688393E+04  0.50400001928E-02 0. -1.
    10030    2    1    2    0    0  0.00000000000E+00  0.00000000000E+00  0.28480569233E+03  0.27187433710E+04  0.27037846132E+04 0.  0.
        1    1    3    3  502    0  0.12952778477E+04 -0.11970426457E+03  0.51259588994E+03  0.13981517657E+04  0.50400001928E-02 0.  1.
       -1    1    3    3    0  502 -0.12952778477E+04  0.11970426457E+03 -0.22779019762E+03  0.13205916052E+04  0.50400001928E-02 0. -1.
</event>
<event>
 5   0  0.1232559E-05  0.2739535E+04  0.7818609E-02  0.8322290E-01
       -2   -1    0    0    0  501  0.00000000000E+00  0.00000000000E+00  0.15749857547E+04  0.15749857547E+04  0.25500000920E-02 0.  1.
        2   -1    0    0  501    0  0.00000000000E+00  0.00000000000E+00 -0.11912890093E+04  0.11912890093E+04  0.25500000920E-02 0. -1.
    10030    2    1    2    0    0  0.00000000000E+00  0.00000000000E+00  0.38369674541E+03  0.27662747639E+04  0.27395351571E+04 0.  0.
        3    1    3    3  502    0  0.98760805527E+03  0.53939325691E+02  0.11487179724E+04  0.15158601888E+04  0.10100000352E+00 0.  1.
       -3    1    3    3    0  502 -0.98760805527E+03 -0.53939325691E+02 -0.76502122700E+03  0.12504145751E+04  0.10100000352E+00 0. -1.
</event>
<event>
 5   0  0.1232559E-05  0.2671075E+04  0.7818609E-02  0.8344452E-01
        2   -1    0    0  501    0  0.00000000000E+00  0.00000000000E+00  0.16282556185E+04  0.16282556185E+04  0.25500000920E-02 0.  1.
       -2   -1    0    0    0  501  0.00000000000E+00  0.00000000000E+00 -0.10954421720E+04  0.10954421720E+04  0.25500000920E-02 0. -1.
    10030    2    1    2    0    0  0.00000000000E+00  0.00000000000E+00  0.53281344655E+03  0.27236977905E+04  0.26710745937E+04 0.  0.
        3    1    3    3  502    0  0.94033588071E+02  0.12654217327E+04  0.69117728306E+03  0.14449430868E+04  0.10100000352E+00 0.  1.
       -3    1    3    3    0  502 -0.94033588071E+02 -0.12654217327E+04 -0.15836383651E+03  0.12787547037E+04  0.10100000352E+00 0. -1.
</event>
<event>
 5   0  0.4824715E-06  0.2707766E+04  0.7818609E-02  0.8332490E-01
        1   -1    0    0  501    0  0.00000000000E+00  0.00000000000E+00  0.21382145579E+04  0.21382145579E+04  0.50400001928E-02 0. -1.
       -1   -1    0    0    0  501  0.00000000000E+00  0.00000000000E+00 -0.85725666753E+03  0.85725666754E+03  0.50400001928E-02 0.  1.
    10030    2    1    2    0    0  0.00000000000E+00  0.00000000000E+00  0.12809578903E+04  0.29954712254E+04  0.27077656371E+04 0.  0.
        5    1    3    3  502    0  0.13259157917E+04  0.27320684976E+03  0.62190422002E+03  0.14897924749E+04  0.46999998093E+01 0. -1.
       -5    1    3    3    0  502 -0.13259157917E+04 -0.27320684976E+03  0.65905367033E+03  0.15056787505E+04  0.46999998093E+01 0.  1.
</event>
<event>
 5   0  0.5152288E-06  0.2460925E+04  0.7818609E-02  0.8417040E-01
       -1   -1    0    0    0  501  0.00000000000E+00  0.00000000000E+00  0.16636314923E+04  0.16636314923E+04  0.50400001928E-02 0.  1.
        1   -1    0    0  501    0  0.00000000000E+00  0.00000000000E+00 -0.91008038309E+03  0.91008038311E+03  0.50400001928E-02 0. -1.
    10030    2    1    2    0    0  0.00000000000E+00  0.00000000000E+00  0.75355110920E+03  0.25737118754E+04  0.24609253429E+04 0.  0.
        3    1    3    3  502    0  0.45439648233E+02  0.12269518669E+04  0.46149903126E+03  0.13116619272E+04  0.10100000352E+00 0. -1.
       -3    1    3    3    0  502 -0.45439648233E+02 -0.12269518669E+04  0.29205207794E+03  0.12620499482E+04  0.10100000352E+00 0.  1.
</event>
<event>
 5   0  0.5152288E-06  0.2712622E+04  0.7818609E-02  0.8330921E-01
        1   -1    0    0  501    0  0.00000000000E+00  0.00000000000E+00  0.95111781790E+03  0.95111781791E+03  0.50400001928E-02 0.  1.
       -1   -1    0    0    0  501  0.00000000000E+00  0.00000000000E+00 -0.19341240810E+04  0.19341240810E+04  0.50400001928E-02 0. -1.
    10030    2    1    2    0    0  0.00000000000E+00  0.00000000000E+00 -0.98300626310E+03  0.28852418989E+04  0.27126222557E+04 0.  0.
        3    1    3    3  502    0 -0.80519399612E+02  0.77584229110E+03  0.68868455952E+03  0.10405292245E+04  0.10100000352E+00 0.  1.
       -3    1    3    3    0  502  0.80519399612E+02 -0.77584229110E+03 -0.16716908226E+04  0.18447126744E+04  0.10100000352E+00 0. -1.
</event>
<event>
 5   0  0.1220908E-05  0.2724388E+04  0.7818609E-02  0.8327135E-01
        2   -1    0    0  501    0  0.00000000000E+00  0.00000000000E+00  0.12255258619E+04  0.12255258619E+04  0.25500000920E-02 0.  1.
       -2   -1    0    0    0  501  0.00000000000E+00  0.00000000000E+00 -0.15141033269E+04  0.15141033269E+04  0.25500000920E-02 0. -1.
    10030    2    1    2    0    0  0.00000000000E+00  0.00000000000E+00 -0.28857746505E+03  0.27396291888E+04  0.27243882137E+04 0.  0.
        2    1    3    3  502    0  0.49262674515E+03  0.12189165490E+04 -0.50284214037E+03  0.14075826376E+04  0.25500000920E-02 0.  1.
       -2    1    3    3    0  502 -0.49262674515E+03 -0.12189165490E+04  0.21426467532E+03  0.13320465512E+04  0.25500000920E-02 0. -1.
</event>
<event>
 5   0  0.1220908E-05  0.2695759E+04  0.7818609E-02  0.8336382E-01
        2   -1    0    0  501    0  0.00000000000E+00  0.00000000000E+00  0.14521330637E+04  0.14521330637E+04  0.25500000920E-02 0. -1.
       -2   -1    0    0    0  501  0.00000000000E+00  0.00000000000E+00 -0.12511103342E+04  0.12511103342E+04  0.25500000920E-02 0.  1.
    10030    2    1    2    0    0  0.00000000000E+00  0.00000000000E+00  0.20102272947E+03  0.27032433979E+04  0.26957586559E+04 0.  0.
        2    1    3    3  502    0  0.50758442696E+03  0.11831219706E+04  0.50081784842E+03  0.13813899034E+04  0.25500000920E-02 0. -1.
       -2    1    3    3    0  502 -0.50758442696E+03 -0.11831219706E+04 -0.29979511895E+03  0.13218534946E+04  0.25500000920E-02 0.  1.
</event>
<event>
 5   0  0.4756800E-06  0.2729104E+04  0.7818609E-02  0.8325623E-01
        1   -1    0    0  501    0  0.00000000000E+00  0.00000000000E+00  0.25878873612E+04  0.25878873612E+04  0.50400001928E-02 0.  1.
       -1   -1    0    0    0  501  0.00000000000E+00  0.00000000000E+00 -0.71950672983E+03  0.71950672985E+03  0.50400001928E-02 0. -1.
    10030    2    1    2    0    0  0.00000000000E+00  0.00000000000E+00  0.18683806313E+04  0.33073940910E+04  0.27291041552E+04 0.  0.
        4    1    3    3  502    0 -0.20581583655E+03  0.11053909894E+03 -0.69508914475E+03  0.73330047253E+03  0.12699999809E+01 0. -1.
       -4    1    3    3    0  502  0.20581583655E+03 -0.11053909894E+03  0.25634697761E+04  0.25740936185E+04  0.12699999809E+01 0.  1.
</event>
<event>
 5   0  0.1276517E-05  0.2732764E+04  0.7818609E-02  0.8324452E-01
       -2   -1    0    0    0  501  0.00000000000E+00  0.00000000000E+00  0.12758155927E+04  0.12758155927E+04  0.25500000920E-02 0.  1.
        2   -1    0    0  501    0  0.00000000000E+00  0.00000000000E+00 -0.14633775275E+04  0.14633775275E+04  0.25500000920E-02 0. -1.
    10030    2    1    2    0    0  0.00000000000E+00  0.00000000000E+00 -0.18756193489E+03  0.27391931202E+04  0.27327640715E+04 0.  0.
        1    1    3    3  502    0  0.65378057527E+03  0.96271756442E+03 -0.81152821238E+03  0.14187431723E+04  0.50400001928E-02 0. -1.
       -1    1    3    3    0  502 -0.65378057527E+03 -0.96271756442E+03  0.62396627749E+03  0.13204499479E+04  0.50400001928E-02 0.  1.
</event>
<event>
 5   0  0.1261364E-05  0.2408774E+04  0.7818609E-02  0.8436226E-01
        2   -1    0    0  501    0  0.00000000000E+00  0.00000000000E+00  0.10934516430E+04  0.10934516430E+04  0.25500000920E-02 0.  1.
       -2   -1    0    0    0  501  0.00000000000E+00  0.00000000000E+00 -0.13265767651E+04  0.13265767651E+04  0.25500000920E-02 0. -1.
    10030    2    1    2    0    0  0.00000000000E+00  0.00000000000E+00 -0.23312512202E+03  0.24200284081E+04  0.24087735829E+04 0.  0.
        5    1    3    3  502    0  0.67523880937E+03 -0.14571934139E+03 -0.11077542118E+04  0.13054972462E+04  0.46999998093E+01 0. -1.
       -5    1    3    3    0  502 -0.67523880937E+03  0.14571934139E+03  0.87462908977E+03  0.11145311619E+04  0.46999998093E+01 0.  1.
</event>
<event>
 5   0  0.1261364E-05  0.2720503E+04  0.7818609E-02  0.8328383E-01
       -2   -1    0    0    0  501  0.00000000000E+00  0.00000000000E+00  0.75155715779E+03  0.75155715780E+03  0.25500000920E-02 0.  1.
        2   -1    0    0  501    0  0.00000000000E+00  0.00000000000E+00 -0.24619334629E+04  0.24619334629E+04  0.25500000920E-02 0. -1.
    10030    2    1    2    0    0  0.00000000000E+00  0.00000000000E+00 -0.17103763051E+04  0.32134906207E+04  0.27205026859E+04 0.  0.
        5    1    3    3  502    0  0.17251533704E+03  0.13478704373E+04 -0.92747764464E+03  0.16452213008E+04  0.46999998093E+01 0.  1.
       -5    1    3    3    0  502 -0.17251533704E+03 -0.13478704373E+04 -0.78289866046E+03  0.15682693199E+04  0.46999998093E+01 0. -1.
</event>
<event>
 5   0  0.1220908E-05  0.2727320E+04  0.7818609E-02  0.8326195E-01
        2   -1    0    0  501    0  0.00000000000E+00  0.00000000000E+00  0.27880706082E+04  0.27880706082E+04  0.25500000920E-02 0.  1.
       -2   -1    0    0    0  501  0.00000000000E+00  0.00000000000E+00 -0.66697315265E+03  0.66697315266E+03  0.25500000920E-02 0. -1.
    10030    2    1    2    0    0  0.00000000000E+00  0.00000000000E+00  0.21210974555E+04  0.34550437608E+04  0.27273197417E+04 0.  0.
        2    1    3    3  502    0 -0.41241829788E+03  0.10468737670E+04  0.84569541487E+02  0.11283552383E+04  0.25500000920E-02 0. -1.
       -2    1    3    3    0  502  0.41241829788E+03 -0.10468737670E+04  0.20365279140E+04  0.23266885225E+04  0.25500000920E-02 0.  1.
</event>
<event>
 5   0  0.4824715E-06  0.2630108E+04  0.7818609E-02  0.8358046E-01
       -1   -1    0    0    0  501  0.00000000000E+00  0.00000000000E+00  0.85538828263E+03  0.85538828265E+03  0.50400001928E-02 0.  1.
        1   -1    0    0  501    0  0.00000000000E+00  0.00000000000E+00 -0.20217331463E+04  0.20217331463E+04  0.50400001928E-02 0. -1.
    10030    2    1    2    0    0  0.00000000000E+00  0.00000000000E+00 -0.11663448637E+04  0.28771214289E+04  0.26301078639E+04 0.  0.
        5    1    3    3  502    0 -0.17803313079E+03 -0.80977381078E+03 -0.16997807187E+04  0.18912181265E+04  0.46999998093E+01 0. -1.
       -5    1    3    3    0  502  0.17803313079E+03  0.80977381078E+03  0.53343585507E+03  0.98590330243E+03  0.46999998093E+01 0.  1.
</event>
<event>
 5   0  0.1232559E-05  0.2676871E+04  0.7818609E-02  0.8342549E-01
       -2   -1    0    0    0  501  0.00000000000E+00  0.00000000000E+00  0.82060413686E+03  0.82060413686E+03  0.25500000920E-02 0.  1.
        2   -1    0    0  501    0  0.00000000000E+00  0.00000000000E+00 -0.21830367231E+04  0.21830367231E+04  0.25500000920E-02 0. -1.
    10030    2    1    2    0    0  0.00000000000E+00  0.00000000000E+00 -0.13624325862E+04  0.30036408600E+04  0.26768705355E+04 0.  0.
        3    1    3    3  502    0  0.12476151055E+04 -0.58391200692E+01 -0.13746697167E+03  0.12551791607E+04  0.10100000352E+00 0.  1.
       -3    1    3    3    0  502 -0.12476151055E+04  0.58391200692E+01 -0.12249656146E+04  0.17484616993E+04  0.10100000352E+00 0. -1.
</event>
<event>
 5   0  0.5152288E-06  0.2691998E+04  0.7818609E-02  0.8337606E-01
        1   -1    0    0  501    0  0.00000000000E+00  0.00000000000E+00  0.15795200114E+04  0.15795200114E+04  0.50400001928E-02 0. -1.
       -1   -1    0    0    0  501  0.00000000000E+00  0.00000000000E+00 -0.11470020401E+04  0.11470020401E+04  0.50400001928E-02 0.  1.
    10030    2    1    2    0    0  0.00000000000E+00  0.00000000000E+00  0.43251797132E+03  0.27265220515E+04  0.26919975301E+04 0.  0.
        3    1    3    3  502    0 -0.67383107477E+03  0.15169092725E+03 -0.95382958682E+03  0.11776456791E+04  0.10100000352E+00 0.  1.
       -3    1    3    3    0  502  0.67383107477E+03 -0.15169092725E+03  0.13863475581E+04  0.15488763724E+04  0.10100000352E+00 0. -1.
</event>
<event>
 5   0  0.1286641E-05  0.2699623E+04  0.7818609E-02  0.8335127E-01
       -2   -1    0    0    0  501  0.00000000000E+00  0.00000000000E+00  0.11088606950E+04  0.11088606950E+04  0.25500000920E-02 0. -1.
        2   -1    0    0  501    0  0.00000000000E+00  0.00000000000E+00 -0.16431200350E+04  0.16431200350E+04  0.25500000920E-02 0.  1.
    10030    2    1    2    0    0  0.00000000000E+00  0.00000000000E+00 -0.53425933996E+03  0.27519807300E+04  0.26996231025E+04 0.  0.
        4    1    3    3  502    0  0.77811947491E+03 -0.83292003688E+03 -0.10041764439E+04  0.15190778941E+04  0.12699999809E+01 0.  1.
       -4    1    3    3    0  502 -0.77811947491E+03  0.83292003688E+03  0.46991710396E+03  0.12329028358E+04  0.12699999809E+01 0. -1.
</event>
<event>
 5   0  0.4846214E-06  0.2490251E+04  0.7818609E-02  0.8406467E-01
        1   -1    0    0  501    0  0.00000000000E+00  0.00000000000E+00  0.11190810024E+04  0.11190810024E+04  0.50400001928E-02 0. -1.
       -1   -1    0    0    0  501  0.00000000000E+00  0.00000000000E+00 -0.13853668542E+04  0.13853668542E+04  0.50400001928E-02 0.  1.
    10030    2    1    2    0    0  0.00000000000E+00  0.00000000000E+00 -0.26628585184E+03  0.25044478566E+04  0.24902511743E+04 0.  0.
        2    1    3    3  502    0  0.92710723492E+01 -0.26205526007E+03 -0.13572832953E+04  0.13823808649E+04  0.25500000920E-02 0.  1.
       -2    1    3    3    0  502 -0.92710723492E+01  0.26205526007E+03  0.10909974434E+04  0.11220669916E+04  0.25500000920E-02 0. -1.
</event>
<event>
 5   0  0.4826140E-06  0.2701161E+04  0.7818609E-02  0.8334628E-01
       -1   -1    0    0    0  501  0.00000000000E+00  0.00000000000E+00  0.10558915024E+04  0.10558915025E+04  0.50400001928E-02 0. -1.
        1   -1    0    0  501    0  0.00000000000E+00  0.00000000000E+00 -0.17275142596E+04  0.17275142596E+04  0.50400001928E-02 0.  1.
    10030    2    1    2    0    0  0.00000000000E+00  0.00000000000E+00 -0.67162275712E+03  0.27834057620E+04  0.27011609556E+04 0.  0.
        1    1    3    3  502    0  0.84743860781E+03  0.53242144348E+03 -0.12703105494E+04  0.16171931484E+04  0.50400001928E-02 0.  1.
       -1    1    3    3    0  502 -0.84743860781E+03 -0.53242144348E+03  0.59868779226E+03  0.11662126136E+04  0.50400001928E-02 0. -1.
</event>
<event>
 5   0  0.1261364E-05  0.2616649E+04  0.7818609E-02  0.8362568E-01
        2   -1    0    0  501    0  0.00000000000E+00  0.00000000000E+00  0.20493829011E+04  0.20493829011E+04  0.25500000920E-02 0. -1.
       -2   -1    0    0    0  501  0.00000000000E+00  0.00000000000E+00 -0.83523361691E+03  0.83523361691E+03  0.25500000920E-02 0.  1.
    10030    2    1    2    0    0  0.00000000000E+00  0.00000000000E+00  0.12141492842E+04  0.28846165180E+04  0.26166493788E+04 0.  0.
        5    1    3    3  502    0  0.10168235352E+04 -0.75907372835E+03  0.95840995873E+03  0.15901870223E+04  0.46999998093E+01 0. -1.
       -5    1    3    3    0  502 -0.10168235352E+04  0.75907372835E+03  0.25573932543E+03  0.12944294957E+04  0.46999998093E+01 0.  1.
</event>
<event>
 5   0  0.4824715E-06  0.2684172E+04  0.7818609E-02  0.8340159E-01
       -1   -1    0    0    0  501  0.00000000000E+00  0.00000000000E+00  0.82577399843E+03  0.82577399845E+03  0.50400001928E-02 0.  1.
        1   -1    0    0  501    0  0.00000000000E+00  0.00000000000E+00 -0.21812208899E+04  0.21812208899E+04  0.50400001928E-02 0. -1.
    10030    2    1    2    0    0  0.00000000000E+00  0.00000000000E+00 -0.13554468915E+04  0.30069948884E+04  0.26841724950E+04 0.  0.
        5    1    3    3  502    0  0.49108622465E+03  0.78005671530E+03 -0.17704992153E+04  0.19960820926E+04  0.46999998093E+01 0. -1.
       -5    1    3    3    0  502 -0.49108622465E+03 -0.78005671530E+03  0.41505232381E+03  0.10109127958E+04  0.46999998093E+01 0.  1.
</event>
<event>
 5   0  0.1232559E-05  0.2703712E+04  0.7818609E-02  0.8333802E-01
       -2   -1    0    0    0  501  0.00000000000E+00  0.00000000000E+00  0.13361553821E+04  0.13361553821E+04  0.25500000920E-02 0. -1.
        2   -1    0    0  501    0  0.00000000000E+00  0.00000000000E+00 -0.13677412647E+04  0.13677412647E+04  0.25500000920E-02 0.  1.
    10030    2    1    2    0    0  0.00000000000E+00  0.00000000000E+00 -0.31585882684E+02  0.27038966468E+04  0.27037121534E+04 0.  0.
        3    1    3    3  502    0  0.58897235826E+03  0.85905570660E+03  0.84603711850E+03  0.13418807555E+04  0.10100000352E+00 0.  1.
       -3    1    3    3    0  502 -0.58897235826E+03 -0.85905570660E+03 -0.87762300118E+03  0.13620158913E+04  0.10100000352E+00 0. -1.
</event>
<event>
 5   0  0.1276517E-05  0.2643032E+04  0.7818609E-02  0.8353729E-01
        2   -1    0    0  501    0  0.00000000000E+00  0.00000000000E+00  0.16466696006E+04  0.16466696006E+04  0.25500000920E-02 0.  1.
       -2   -1    0    0    0  501  0.00000000000E+00  0.00000000000E+00 -0.10605676287E+04  0.10605676287E+04  0.25500000920E-02 0. -1.
    10030    2    1    2    0    0  0.00000000000E+00  0.00000000000E+00  0.58610197185E+03  0.27072372293E+04  0.26430319511E+04 0.  0.
        1    1    3    3  502    0 -0.54988781012E+03 -0.75408389216E+03  0.12513996425E+04  0.15610958284E+04  0.50400001928E-02 0.  1.
       -1    1    3    3    0  502  0.54988781012E+03  0.75408389216E+03 -0.66529767069E+03  0.11461414009E+04  0.50400001928E-02 0. -1.
</event>
<event>
 5   0  0.4846214E-06  0.2697155E+04  0.7818609E-02  0.8335929E-01
        1   -1    0    0  501    0  0.00000000000E+00  0.00000000000E+00  0.78374773314E+03  0.78374773315E+03  0.50400001928E-02 0. -1.
       -1   -1    0    0    0  501  0.00000000000E+00  0.00000000000E+00 -0.23204680148E+04  0.23204680148E+04  0.50400001928E-02 0.  1.
    10030    2    1    2    0    0  0.00000000000E+00  0.00000000000E+00 -0.15367202817E+04  0.31042157480E+04  0.26971552024E+04 0.  0.
        2    1    3    3  502    0 -0.22691012036E+03 -0.56813783314E+03  0.61485141773E+03  0.86735867210E+03  0.25500000920E-02 0. -1.
       -2    1    3    3    0  502  0.22691012036E+03  0.56813783314E+03 -0.21515716994E+04  0.22368570759E+04  0.25500000920E-02 0.  1.
</event>
<event>
 5   0  0.4846214E-06  0.2697836E+04  0.7818609E-02  0.8335707E-01
        1   -1    0    0  501    0  0.00000000000E+00  0.00000000000E+00  0.13589390678E+04  0.13589390678E+04  0.50400001928E-02 0. -1.
       -1   -1    0    0    0  501  0.00000000000E+00  0.00000000000E+00 -0.13389711221E+04  0.13389711221E+04  0.50400001928E-02 0.  1.
    10030    2    1    2    0    0  0.00000000000E+00  0.00000000000E+00  0.19967945737E+02  0.26979101900E+04  0.26978362949E+04 0.  0.
        2    1    3    3  502    0 -0.11881586350E+04  0.48189880502E+03  0.42908108543E+03  0.13520569434E+04  0.25500000920E-02 0.  1.
       -2    1    3    3    0  502  0.11881586350E+04 -0.48189880502E+03 -0.40911313970E+03  0.13458532466E+04  0.25500000920E-02 0. -1.
</event>
<event>
 5   0  0.1232559E-05  0.2770511E+04  0.7818609E-02  0.8312482E-01
        2   -1    0    0  501    0  0.00000000000E+00  0.00000000000E+00  0.26669273552E+04  0.26669273552E+04  0.25500000920E-02 0. -1.
       -2   -1    0    0    0  501  0.00000000000E+00  0.00000000000E+00 -0.71952965296E+03  0.71952965297E+03  0.25500000920E-02 0.  1.
    10030    2    1    2    0    0  0.00000000000E+00  0.00000000000E+00  0.19473977022E+04  0.33864570082E+04  0.27705113711E+04 0.  0.
        3    1    3    3  502    0 -0.10000599124E+04 -0.37027369927E+03 -0.10700998705E+03  0.10717619084E+04  0.10100000352E+00 0.  1.
       -3    1    3    3    0  502  0.10000599124E+04  0.37027369927E+03  0.20544076893E+04  0.23146950997E+04  0.10100000352E+00 0. -1.
</event>
<event>
 5   0  0.1261364E-05  0.2687261E+04  0.7818609E-02  0.8339150E-01
       -2   -1    0    0    0  501  0.00000000000E+00  0.00000000000E+00  0.77203747773E+03  0.77203747774E+03  0.25500000920E-02 0. -1.
        2   -1    0    0  501    0  0.00000000000E+00  0.00000000000E+00 -0.23384138686E+04  0.23384138686E+04  0.25500000920E-02 0.  1.
    10030    2    1    2    0    0  0.00000000000E+00  0.00000000000E+00 -0.15663763909E+04  0.31104513464E+04  0.26872611671E+04 0.  0.
        5    1    3    3  502    0 -0.70680391071E+02  0.11111477313E+04 -0.16537456417E+04  0.19936252747E+04  0.46999998093E+01 0.  1.
       -5    1    3    3    0  502  0.70680391071E+02 -0.11111477313E+04  0.87369250789E+02  0.11168260717E+04  0.46999998093E+01 0. -1.
</event>
<event>
 5   0  0.4756800E-06  0.2509205E+04  0.7818609E-02  0.8399713E-01
        1   -1    0    0  501    0  0.00000000000E+00  0.00000000000E+00  0.17746435166E+04  0.17746435166E+04  0.50400001928E-02 0.  1.
       -1   -1    0    0    0  501  0.00000000000E+00  0.00000000000E+00 -0.88695426458E+03  0.88695426459E+03  0.50400001928E-02 0. -1.
    10030    2    1    2    0    0  0.00000000000E+00  0.00000000000E+00  0.88768925200E+03  0.26615977812E+04  0.25092051611E+04 0.  0.
        4    1    3    3  502    0  0.69110814066E+03  0.78851955787E+03 -0.28693255031E+03  0.10870719648E+04  0.12699999809E+01 0. -1.
       -4    1    3    3    0  502 -0.69110814066E+03 -0.78851955787E+03  0.11746218023E+04  0.15745258164E+04  0.12699999809E+01 0.  1.
</event>
<event>
 5   0  0.4756800E-06  0.2695386E+04  0.7818609E-02  0.8336504E-01
       -1   -1    0    0    0  501  0.00000000000E+00  0.00000000000E+00  0.13071618657E+04  0.13071618657E+04  0.50400001928E-02 0.  1.
        1   -1    0    0  501    0  0.00000000000E+00  0.00000000000E+00 -0.13894809722E+04  0.13894809722E+04  0.50400001928E-02 0. -1.
    10030    2    1    2    0    0  0.00000000000E+00  0.00000000000E+00 -0.82319106450E+02  0.26966428379E+04  0.26953860874E+04 0.  0.
        4    1    3    3  502    0 -0.11767157578E+04 -0.22218830237E+03 -0.65970934681E+03  0.13672035881E+04  0.12699999809E+01 0. -1.
       -4    1    3    3    0  502  0.11767157578E+04  0.22218830237E+03  0.57739024036E+03  0.13294392498E+04  0.12699999809E+01 0.  1.
</event>
<event>
 5   0  0.4826140E-06  0.2584291E+04  0.7818609E-02  0.8373557E-01
       -1   -1    0    0    0  501  0.00000000000E+00  0.00000000000E+00  0.79266979460E+03  0.79266979461E+03  0.50400001928E-02 0. -1.
        1   -1    0    0  501    0  0.00000000000E+00  0.00000000000E+00 -0.21063491850E+04  0.21063491850E+04  0.50400001928E-02 0.  1.
    10030    2    1    2    0    0  0.00000000000E+00  0.00000000000E+00 -0.13136793904E+04  0.28990189796E+04  0.25842905223E+04 0.  0.
        1    1    3    3  502    0  0.10352784676E+01 -0.12813424449E+04 -0.84387814541E+03  0.15342652500E+04  0.50400001928E-02 0.  1.
       -1    1    3    3    0  502 -0.10352784676E+01  0.12813424449E+04 -0.46980124502E+03  0.13647537297E+04  0.50400001928E-02 0. -1.
</event>
<event>
 5   0  0.4826140E-06  0.2691949E+04  0.7818609E-02  0.8337622E-01
       -1   -1    0    0    0  501  0.00000000000E+00  0.00000000000E+00  0.14307554994E+04  0.14307554994E+04  0.50400001928E-02 0. -1.
        1   -1    0    0  501    0  0.00000000000E+00  0.00000000000E+00 -0.12662173283E+04  0.12662173283E+04  0.50400001928E-02 0.  1.
    10030    2    1    2    0    0  0.00000000000E+00  0.00000000000E+00  0.16453817112E+03  0.26969728277E+04  0.26919490380E+04 0.  0.
        1    1    3    3  502    0 -0.31530262997E+03 -0.54107888578E+03 -0.11113675137E+04  0.12756644777E+04  0.50400001928E-02 0.  1.
       -1    1    3    3    0  502  0.31530262997E+03  0.54107888578E+03  0.12759056848E+04  0.14213083500E+04  0.50400001928E-02 0. -1.
</event>
<event>
 5   0  0.4846214E-06  0.2715866E+04  0.7818609E-02  0.8329875E-01
        1   -1    0    0  501    0  0.00000000000E+00  0.00000000000E+00  0.20964849461E+04  0.20964849461E+04  0.50400001928E-02 0. -1.
       -1   -1    0    0    0  501  0.00000000000E+00  0.00000000000E+00 -0.87955902451E+03  0.87955902452E+03  0.50400001928E-02 0.  1.
    10030    2    1    2    0    0  0.00000000000E+00  0.00000000000E+00  0.12169259216E+04  0.29760439706E+04  0.27158661632E+04 0.  0.
        2    1    3    3  502    0 -0.68563932986E+03 -0.63635849729E+03  0.16871039446E+04  0.19290860913E+04  0.25500000920E-02 0. -1.
       -2    1    3    3    0  502  0.68563932986E+03  0.63635849729E+03 -0.47017802302E+03  0.10469578793E+04  0.25500000920E-02 0.  1.
</event>
<event>
 5   0  0.4824715E-06  0.2708325E+04  0.7818609E-02  0.8332309E-01
       -1   -1    0    0    0  501  0.00000000000E+00  0.00000000000E+00  0.10202755882E+04  0.10202755882E+04  0.50400001928E-02 0.  1.
        1   -1    0    0  501    0  0.00000000000E+00  0.00000000000E+00 -0.17973139695E+04  0.17973139695E+04  0.50400001928E-02 0. -1.
    10030    2    1    2    0    0  0.00000000000E+00  0.00000000000E+00 -0.77703838131E+03  0.28175895576E+04  0.27083246241E+04 0.  0.
        5    1    3    3  502    0 -0.37091704986E+03 -0.26443456634E+03  0.93816568629E+03  0.10429199599E+04  0.46999998093E+01 0.  1.
       -5    1    3    3    0  502  0.37091704986E+03  0.26443456634E+03 -0.17152040676E+04  0.17746695978E+04  0.46999998093E+01 0. -1.
</event>
<event>
 5   0  0.4846214E-06  0.2646222E+04  0.7818609E-02  0.8352668E-01
       -1   -1    0    0    0  501  0.00000000000E+00  0.00000000000E+00  0.12365786795E+04  0.12365786796E+04  0.50400001928E-02 0.  1.
        1   -1    0    0  501    0  0.00000000000E+00  0.00000000000E+00 -0.14156991324E+04  0.14156991325E+04  0.50400001928E-02 0. -1.
    10030    2    1    2    0    0  0.00000000000E+00  0.00000000000E+00 -0.17912045290E+03  0.26522778120E+04  0.26462224879E+04 0.  0.
        2    1    3    3  502    0 -0.32117433828E+02 -0.12303168025E+04 -0.57637981014E+03  0.13590160593E+04  0.25500000920E-02 0. -1.
       -2    1    3    3    0  502  0.32117433828E+02  0.12303168025E+04  0.39725935724E+03  0.12932617527E+04  0.25500000920E-02 0.  1.
</event>
<event>
 5   0  0.1276517E-05  0.2721938E+04  0.7818609E-02  0.8327922E-01
        2   -1    0    0  501    0  0.00000000000E+00  0.00000000000E+00  0.21541417437E+04  0.21541417437E+04  0.25500000920E-02 0. -1.
       -2   -1    0    0    0  501  0.00000000000E+00  0.00000000000E+00 -0.85984894941E+03  0.85984894941E+03  0.25500000920E-02 0.  1.
    10030    2    1    2    0    0  0.00000000000E+00  0.00000000000E+00  0.12942927943E+04  0.30139906931E+04  0.27219379238E+04 0.  0.
        1    1    3    3  502    0  0.10088523833E+04  0.76321202992E+03  0.12029612699E+04  0.17456779631E+04  0.50400001928E-02 0. -1.
       -1    1    3    3    0  502 -0.10088523833E+04 -0.76321202992E+03  0.91331524391E+02  0.12683127301E+04  0.50400001928E-02 0.  1.
</event>
<event>
 5   0  0.1276517E-05  0.2708711E+04  0.7818609E-02  0.8332184E-01
        2   -1    0    0  501    0  0.00000000000E+00  0.00000000000E+00  0.17315846540E+04  0.17315846540E+04  0.25500000920E-02 0. -1.
       -2   -1    0    0    0  501  0.00000000000E+00  0.00000000000E+00 -0.10593067800E+04  0.10593067800E+04  0.25500000920E-02 0.  1.
    10030    2    1    2    0    0  0.00000000000E+00  0.00000000000E+00  0.67227787401E+03  0.27908914340E+04  0.27087114014E+04 0.  0.
        1    1    3    3  502    0  0.89996845638E+03  0.10082059794E+03  0.13737530628E+04  0.16453891616E+04  0.50400001928E-02 0. -1.
       -1    1    3    3    0  502 -0.89996845638E+03 -0.10082059794E+03 -0.70147518882E+03  0.11455022724E+04  0.50400001928E-02 0.  1.
</event>
<event>
 5   0  0.1220908E-05  0.2756881E+04  0.7818609E-02  0.8316782E-01
        2   -1    0    0  501    0  0.00000000000E+00  0.00000000000E+00  0.60986669463E+03  0.60986669464E+03  0.25500000920E-02 0. -1.
       -2   -1    0    0    0  501  0.00000000000E+00  0.00000000000E+00 -0.31155950127E+04  0.31155950127E+04  0.25500000920E-02 0.  1.
    10030    2    1    2    0    0  0.00000000000E+00  0.00000000000E+00 -0.25057283181E+04  0.37254617074E+04  0.27568805794E+04 0.  0.
        2    1    3    3  502    0 -0.33088315063E+03 -0.78334140326E+02 -0.30580325347E+04  0.30768787562E+04  0.25500000920E-02 0.  1.
       -2    1    3    3    0  502  0.33088315063E+03  0.78334140326E+02  0.55230421659E+03  0.64858295120E+03  0.25500000920E-02 0. -1.
</event>
<event>
 5   0  0.4756800E-06  0.2689023E+04  0.7818609E-02  0.8338576E-01
        1   -1    0    0  501    0  0.00000000000E+00  0.00000000000E+00  0.22397881098E+04  0.22397881098E+04  0.50400001928E-02 0.  1.
       -1   -1    0    0    0  501  0.00000000000E+00  0.00000000000E+00 -0.80709001069E+03  0.80709001071E+03  0.50400001928E-02 0. -1.
    10030    2    1    2    0    0  0.00000000000E+00  0.00000000000E+00  0.14326980991E+04  0.30468781205E+04  0.26890225804E+04 0.  0.
        4    1    3    3  502    0  0.70532048742E+03 -0.11132413834E+02  0.20132720577E+04  0.21332760983E+04  0.12699999809E+01 0.  1.
       -4    1    3    3    0  502 -0.70532048742E+03  0.11132413834E+02 -0.58057395858E+03  0.91360202216E+03  0.12699999809E+01 0. -1.
</event>
<event>
 5   0  0.4756800E-06  0.2671146E+04  0.7818609E-02  0.8344428E-01
        1   -1    0    0  501    0  0.00000000000E+00  0.00000000000E+00  0.14202689654E+04  0.14202689654E+04  0.50400001928E-02 0. -1.
       -1   -1    0    0    0  501  0.00000000000E+00  0.00000000000E+00 -0.12559282137E+04  0.12559282137E+04  0.50400001928E-02 0.  1.
    10030    2    1    2    0    0  0.00000000000E+00  0.00000000000E+00  0.16434075172E+03  0.26761971792E+04  0.26711464691E+04 0.  0.
        4    1    3    3  502    0  0.28808331783E+03  0.10116574519E+04  0.90671585691E+03  0.13887325359E+04  0.12699999809E+01 0. -1.
       -4    1    3    3    0  502 -0.28808331783E+03 -0.10116574519E+04 -0.74237510520E+03  0.12874646433E+04  0.12699999809E+01 0.  1.
</event>
<event>
 5   0  0.4826140E-06  0.2620128E+04  0.7818609E-02  0.8361396E-01
       -1   -1    0    0    0  501  0.00000000000E+00  0.00000000000E+00  0.14711727739E+04  0.14711727739E+04  0.50400001928E-02 0.  1.
        1   -1    0    0  501    0  0.00000000000E+00  0.00000000000E+00 -0.11665986211E+04  0.11665986211E+04  0.50400001928E-02 0. -1.
    10030    2    1    2    0    0  0.00000000000E+00  0.00000000000E+00  0.30457415281E+03  0.26377713950E+04  0.26201283400E+04 0.  0.
        1    1    3    3  502    0 -0.98744685318E+02 -0.93662652635E+02  0.14640362826E+04  0.14703487485E+04  0.50400001928E-02 0.  1.
       -1    1    3    3    0  502  0.98744685318E+02  0.93662652635E+02 -0.11594621298E+04  0.11674226466E+04  0.50400001928E-02 0. -1.
</event>
<event>
 5   0  0.4846214E-06  0.2704574E+04  0.7818609E-02  0.8333522E-01
       -1   -1    0    0    0  501  0.00000000000E+00  0.00000000000E+00  0.74088092080E+03  0.74088092081E+03  0.50400001928E-02 0.  1.
        1   -1    0    0  501    0  0.00000000000E+00  0.00000000000E+00 -0.24682512589E+04  0.24682512589E+04  0.50400001928E-02 0. -1.
    10030    2    1    2    0    0  0.00000000000E+00  0.00000000000E+00 -0.17273703381E+04  0.32091321797E+04  0.27045740999E+04 0.  0.
        2    1    3    3  502    0 -0.10452476152E+04 -0.40619969310E+03  0.33040947218E+02  0.11218879053E+04  0.25500000920E-02 0.  1.
       -2    1    3    3    0  502  0.10452476152E+04  0.40619969310E+03 -0.17604112853E+04  0.20872442744E+04  0.25500000920E-02 0. -1.
</event>
<event>
 5   0  0.4846214E-06  0.2695202E+04  0.7818609E-02  0.8336563E-01
        1   -1    0    0  501    0  0.00000000000E+00  0.00000000000E+00  0.13891068900E+04  0.13891068900E+04  0.50400001928E-02 0. -1.
       -1   -1    0    0    0  501  0.00000000000E+00  0.00000000000E+00 -0.13073356967E+04  0.13073356967E+04  0.50400001928E-02 0.  1.
    10030    2    1    2    0    0  0.00000000000E+00  0.00000000000E+00  0.81771193245E+02  0.26964425867E+04  0.26952024220E+04 0.  0.
        2    1    3    3  502    0  0.77090392884E+02  0.26536944804E+03  0.13604561674E+04  0.13882380401E+04  0.25500000920E-02 0. -1.
       -2    1    3    3    0  502 -0.77090392884E+02 -0.26536944804E+03 -0.12786849741E+04  0.13082045466E+04  0.25500000920E-02 0.  1.
</event>
<event>
 5   0  0.1232559E-05  0.2709596E+04  0.7818609E-02  0.8331898E-01
       -2   -1    0    0    0  501  0.00000000000E+00  0.00000000000E+00  0.14996133161E+04  0.14996133161E+04  0.25500000920E-02 0.  1.
        2   -1    0    0  501    0  0.00000000000E+00  0.00000000000E+00 -0.12239674717E+04  0.12239674717E+04  0.25500000920E-02 0. -1.
    10030    2    1    2    0    0  0.00000000000E+00  0.00000000000E+00  0.27564584442E+03  0.27235807879E+04  0.27095962202E+04 0.  0.
        3    1    3    3  502    0  0.71882548999E+03 -0.11268538490E+04 -0.84606827496E+02  0.13392789133E+04  0.10100000352E+00 0. -1.
       -3    1    3    3    0  502 -0.71882548999E+03  0.11268538490E+04  0.36025267192E+03  0.13843018746E+04  0.10100000352E+00 0.  1.
</event>
<event>
 5   0  0.1276517E-05  0.2694694E+04  0.7818609E-02  0.8336729E-01
        2   -1    0    0  501    0  0.00000000000E+00  0.00000000000E+00  0.19396819296E+04  0.19396819296E+04  0.25500000920E-02 0. -1.
       -2   -1    0    0    0  501  0.00000000000E+00  0.00000000000E+00 -0.93589796265E+03  0.93589796265E+03  0.25500000920E-02 0.  1.
    10030    2    1    2    0    0  0.00000000000E+00  0.00000000000E+00  0.10037839669E+04  0.28755798923E+04  0.26946943174E+04 0.  0.
        1    1    3    3  502    0 -0.11042807752E+04 -0.13010147246E+03  0.13138777960E+04  0.17212313286E+04  0.50400001928E-02 0. -1.
       -1    1    3    3    0  502  0.11042807752E+04  0.13010147246E+03 -0.31009382910E+03  0.11543485637E+04  0.50400001928E-02 0.  1.
</event>
<event>
 5   0  0.1232559E-05  0.2732806E+04  0.7818609E-02  0.8324439E-01
        2   -1    0    0  501    0  0.00000000000E+00  0.00000000000E+00  0.26662632294E+04  0.26662632294E+04  0.25500000920E-02 0.  1.
       -2   -1    0    0    0  501  0.00000000000E+00  0.00000000000E+00 -0.70025215249E+03  0.70025215249E+03  0.25500000920E-02 0. -1.
    10030    2    1    2    0    0  0.00000000000E+00  0.00000000000E+00  0.19660110769E+04  0.33665153819E+04  0.27328055661E+04 0.  0.
        3    1    3    3  502    0  0.12450625850E+04 -0.49737546775E+01  0.16764303777E+04  0.20882108132E+04  0.10100000352E+00 0.  1.
       -3    1    3    3    0  502 -0.12450625850E+04  0.49737546775E+01  0.28958069920E+03  0.12783045687E+04  0.10100000352E+00 0. -1.
</event>
<event>
 5   0  0.4826140E-06  0.2716330E+04  0.7818609E-02  0.8329726E-01
       -1   -1    0    0    0  501  0.00000000000E+00  0.00000000000E+00  0.10939896552E+04  0.10939896552E+04  0.50400001928E-02 0. -1.
        1   -1    0    0  501    0  0.00000000000E+00  0.00000000000E+00 -0.16861334437E+04  0.16861334437E+04  0.50400001928E-02 0.  1.
    10030    2    1    2    0    0  0.00000000000E+00  0.00000000000E+00 -0.59214378846E+03  0.27801230989E+04  0.27163302779E+04 0.  0.
        1    1    3    3  502    0  0.24694679044E+03  0.97822894593E+02 -0.16592910049E+04  0.16804162208E+04  0.50400001928E-02 0.  1.
       -1    1    3    3    0  502 -0.24694679044E+03 -0.97822894593E+02  0.10671472165E+04  0.10997068781E+04  0.50400001928E-02 0. -1.
</event>
<event>
 5   0  0.1220908E-05  0.2681914E+04  0.7818609E-02  0.8340897E-01
        2   -1    0    0  501    0  0.00000000000E+00  0.00000000000E+00  0.19652672863E+04  0.19652672863E+04  0.25500000920E-02 0.  1.
       -2   -1    0    0    0  501  0.00000000000E+00  0.00000000000E+00 -0.91497276007E+03  0.91497276007E+03  0.25500000920E-02 0. -1.
    10030    2    1    2    0    0  0.00000000000E+00  0.00000000000E+00  0.10502945262E+04  0.28802400463E+04  0.26819142665E+04 0.  0.
        2    1    3    3  502    0  0.29113294403E+03 -0.75736865813E+03 -0.62141643804E+03  0.10220196010E+04  0.25500000920E-02 0. -1.
       -2    1    3    3    0  502 -0.29113294403E+03  0.75736865813E+03  0.16717109642E+04  0.18582204453E+04  0.25500000920E-02 0.  1.
</event>
<event>
 5   0  0.1220908E-05  0.2646787E+04  0.7818609E-02  0.8352480E-01
        2   -1    0    0  501    0  0.00000000000E+00  0.00000000000E+00  0.18868785252E+04  0.18868785252E+04  0.25500000920E-02 0. -1.
       -2   -1    0    0    0  501  0.00000000000E+00  0.00000000000E+00 -0.92818391675E+03  0.92818391675E+03  0.25500000920E-02 0.  1.
    10030    2    1    2    0    0  0.00000000000E+00  0.00000000000E+00  0.95869460845E+03  0.28150624420E+04  0.26467869578E+04 0.  0.
        2    1    3    3  502    0  0.30911891326E+03 -0.94016829262E+03 -0.45508833142E+03  0.10893008356E+04  0.25500000920E-02 0.  1.
       -2    1    3    3    0  502 -0.30911891326E+03  0.94016829262E+03  0.14137829399E+04  0.17257616064E+04  0.25500000920E-02 0. -1.
</event>
<event>
 5   0  0.4826140E-06  0.2541876E+04  0.7818609E-02  0.8388217E-01
       -1   -1    0    0    0  501  0.00000000000E+00  0.00000000000E+00  0.87224282329E+03  0.87224282330E+03  0.50400001928E-02 0.  1.
        1   -1    0    0  501    0  0.00000000000E+00  0.00000000000E+00 -0.18518729040E+04  0.18518729040E+04  0.50400001928E-02 0. -1.
    10030    2    1    2    0    0  0.00000000000E+00  0.00000000000E+00 -0.97963008067E+03  0.27241157273E+04  0.25418755675E+04 0.  0.
        1    1    3    3  502    0  0.10026874153E+04 -0.26883576350E+03 -0.12756154640E+04  0.16446426763E+04  0.50400001928E-02 0. -1.
       -1    1    3    3    0  502 -0.10026874153E+04  0.26883576350E+03  0.29598538333E+03  0.10794730510E+04  0.50400001928E-02 0.  1.
</event>
<event>
 5   0  0.4756800E-06  0.2695464E+04  0.7818609E-02  0.8336478E-01
        1   -1    0    0  501    0  0.00000000000E+00  0.00000000000E+00  0.82349164353E+03  0.82349164355E+03  0.50400001928E-02 0.  1.
       -1   -1    0    0    0  501  0.00000000000E+00  0.00000000000E+00 -0.22057070061E+04  0.22057070061E+04  0.50400001928E-02 0. -1.
    10030    2    1    2    0    0  0.00000000000E+00  0.00000000000E+00 -0.13822153626E+04  0.30291986496E+04  0.26954638099E+04 0.  0.
        4    1    3    3  502    0 -0.10679451964E+04 -0.53497241080E+03  0.10423172292E+02  0.11944926447E+04  0.12699999809E+01 0.  1.
       -4    1    3    3    0  502  0.10679451964E+04  0.53497241080E+03 -0.13926385348E+04  0.18347060049E+04  0.12699999809E+01 0. -1.
</event>
<event>
 5   0  0.4824715E-06  0.2729924E+04  0.7818609E-02  0.8325361E-01
        1   -1    0    0  501    0  0.00000000000E+00  0.00000000000E+00  0.12615399602E+04  0.12615399603E+04  0.50400001928E-02 0.  1.
       -1   -1    0    0    0  501  0.00000000000E+00  0.00000000000E+00 -0.14768625811E+04  0.14768625811E+04  0.50400001928E-02 0. -1.
    10030    2    1    2    0    0  0.00000000000E+00  0.00000000000E+00 -0.21532262083E+03  0.27384025413E+04  0.27299239270E+04 0.  0.
        5    1    3    3  502    0 -0.41097742277E+03  0.75332897821E+03 -0.11724155181E+04  0.14529236829E+04  0.46999998093E+01 0. -1.
       -5    1    3    3    0  502  0.41097742277E+03 -0.75332897821E+03  0.95709289724E+03  0.12854788584E+04  0.46999998093E+01 0.  1.
</event>
<event>
 5   0  0.1286641E-05  0.2244793E+04  0.7818609E-02  0.8500012E-01
       -2   -1    0    0    0  501  0.00000000000E+00  0.00000000000E+00  0.92159353511E+03  0.92159353511E+03  0.25500000920E-02 0.  1.
        2   -1    0    0  501    0  0.00000000000E+00  0.00000000000E+00 -0.13669521234E+04  0.13669521234E+04  0.25500000920E-02 0. -1.
    10030    2    1    2    0    0  0.00000000000E+00  0.00000000000E+00 -0.44535858825E+03  0.22885456585E+04  0.22447932998E+04 0.  0.
        4    1    3    3  502    0  0.11175511560E+03 -0.25403386885E+03  0.88606077191E+03  0.92850832888E+03  0.12699999809E+01 0.  1.
       -4    1    3    3    0  502 -0.11175511560E+03  0.25403386885E+03 -0.13314193602E+04  0.13600373296E+04  0.12699999809E+01 0. -1.
</event>
<event>
 5   0  0.4824715E-06  0.2809563E+04  0.7818609E-02  0.8300306E-01
        1   -1    0    0  501    0  0.00000000000E+00  0.00000000000E+00  0.22670449871E+04  0.22670449872E+04  0.50400001928E-02 0.  1.
       -1   -1    0    0    0  501  0.00000000000E+00  0.00000000000E+00 -0.87047724797E+03  0.87047724798E+03  0.50400001928E-02 0. -1.
    10030    2    1    2    0    0  0.00000000000E+00  0.00000000000E+00  0.13965677392E+04  0.31375222351E+04  0.28095630133E+04 0.  0.
        5    1    3    3  502    0  0.83450821779E+02  0.14017232857E+04  0.65365962759E+03  0.15488980626E+04  0.46999998093E+01 0.  1.
       -5    1    3    3    0  502 -0.83450821779E+02 -0.14017232857E+04  0.74290811159E+03  0.15886241726E+04  0.46999998093E+01 0. -1.
</event>
<event>
 5   0  0.1276517E-05  0.2716450E+04  0.7818609E-02  0.8329687E-01
       -2   -1    0    0    0  501  0.00000000000E+00  0.00000000000E+00  0.10261003943E+04  0.10261003943E+04  0.25500000920E-02 0.  1.
        2   -1    0    0  501    0  0.00000000000E+00  0.00000000000E+00 -0.17978508746E+04  0.17978508746E+04  0.25500000920E-02 0. -1.
    10030    2    1    2    0    0  0.00000000000E+00  0.00000000000E+00 -0.77175048031E+03  0.28239512690E+04  0.27164502509E+04 0.  0.
        1    1    3    3  502    0 -0.35731615251E+03  0.60401206930E+03 -0.15947662884E+04  0.17423504031E+04  0.50400001928E-02 0. -1.
       -1    1    3    3    0  502  0.35731615251E+03 -0.60401206930E+03  0.82301580806E+03  0.10816008659E+04  0.50400001928E-02 0.  1.
</event>
<event>
 5   0  0.4824715E-06  0.2692016E+04  0.7818609E-02  0.8337600E-01
        1   -1    0    0  501    0  0.00000000000E+00  0.00000000000E+00  0.21691656195E+04  0.21691656195E+04  0.50400001928E-02 0.  1.
       -1   -1    0    0    0  501  0.00000000000E+00  0.00000000000E+00 -0.83522314293E+03  0.83522314295E+03  0.50400001928E-02 0. -1.
    10030    2    1    2    0    0  0.00000000000E+00  0.00000000000E+00  0.13339424765E+04  0.30043887624E+04  0.26920158441E+04 0.  0.
        5    1    3    3  502    0 -0.10390351570E+04  0.57370813903E+03 -0.41496933703E+02  0.11876359593E+04  0.46999998093E+01 0.  1.
       -5    1    3    3    0  502  0.10390351570E+04 -0.57370813903E+03  0.13754394102E+04  0.18167528031E+04  0.46999998093E+01 0. -1.
</event>
<event>
 5   0  0.5152288E-06  0.2700310E+04  0.7818609E-02  0.8334905E-01
        1   -1    0    0  501    0  0.00000000000E+00  0.00000000000E+00  0.17599749616E+04  0.17599749616E+04  0.50400001928E-02 0.  1.
       -1   -1    0    0    0  501  0.00000000000E+00  0.00000000000E+00 -0.10357635791E+04  0.10357635792E+04  0.50400001928E-02 0. -1.
    10030    2    1    2    0    0  0.00000000000E+00  0.00000000000E+00  0.72421138249E+03  0.27957385408E+04  0.27003095863E+04 0.  0.
        3    1    3    3  502    0  0.70390909558E+03 -0.31292184320E+03 -0.78591311713E+03  0.11004851351E+04  0.10100000352E+00 0. -1.
       -3    1    3    3    0  502 -0.70390909558E+03  0.31292184320E+03  0.15101244996E+04  0.16952534056E+04  0.10100000352E+00 0.  1.
</event>
<event>
 5   0  0.5152288E-06  0.2552640E+04  0.7818609E-02  0.8384469E-01
        1   -1    0    0  501    0  0.00000000000E+00  0.00000000000E+00  0.70567560104E+03  0.70567560106E+03  0.50400001928E-02 0. -1.
       -1   -1    0    0    0  501  0.00000000000E+00  0.00000000000E+00 -0.23084157393E+04  0.23084157394E+04  0.50400001928E-02 0.  1.
    10030    2    1    2    0    0  0.00000000000E+00  0.00000000000E+00 -0.16027401383E+04  0.30140913404E+04  0.25526399388E+04 0.  0.
        3    1    3    3  502    0 -0.12113241932E+03  0.39471102651E+03 -0.22273829881E+04  0.22653266527E+04  0.10100000352E+00 0.  1.
       -3    1    3    3    0  502  0.12113241932E+03 -0.39471102651E+03  0.62464284984E+03  0.74876468768E+03  0.10100000352E+00 0. -1.
</event>
<event>
 5   0  0.4824715E-06  0.2713595E+04  0.7818609E-02  0.8330607E-01
       -1   -1    0    0    0  501  0.00000000000E+00  0.00000000000E+00  0.85412797007E+03  0.85412797008E+03  0.50400001928E-02 0. -1.
        1   -1    0    0  501    0  0.00000000000E+00  0.00000000000E+00 -0.21552968389E+04  0.21552968389E+04  0.50400001928E-02 0.  1.
    10030    2    1    2    0    0  0.00000000000E+00  0.00000000000E+00 -0.13011688688E+04  0.30094248090E+04  0.27135948953E+04 0.  0.
        5    1    3    3  502    0  0.96965175536E+03 -0.68402179261E+03  0.78983089931E+02  0.11892732058E+04  0.46999998093E+01 0. -1.
       -5    1    3    3    0  502 -0.96965175536E+03  0.68402179261E+03 -0.13801519587E+04  0.18201516032E+04  0.46999998093E+01 0.  1.
</event>
<event>
 5   0  0.1286641E-05  0.2712565E+04  0.7818609E-02  0.8330940E-01
        2   -1    0    0  501    0  0.00000000000E+00  0.00000000000E+00  0.12018120694E+04  0.12018120694E+04  0.25500000920E-02 0.  1.
       -2   -1    0    0    0  501  0.00000000000E+00  0.00000000000E+00 -0.15306069550E+04  0.15306069550E+04  0.25500000920E-02 0. -1.
    10030    2    1    2    0    0  0.00000000000E+00  0.00000000000E+00 -0.32879488560E+03  0.27324190243E+04  0.27125647730E+04 0.  0.
        4    1    3    3  502    0  0.10087943230E+04 -0.84299037271E+03  0.17151229402E+03  0.13257891365E+04  0.12699999809E+01 0.  1.
       -4    1    3    3    0  502 -0.10087943230E+04  0.84299037271E+03 -0.50030717962E+03  0.14066298879E+04  0.12699999809E+01 0. -1.
</event>
<event>
 5   0  0.1232559E-05  0.2712593E+04  0.7818609E-02  0.8330931E-01
       -2   -1    0    0    0  501  0.00000000000E+00  0.00000000000E+00  0.94633588285E+03  0.94633588285E+03  0.25500000920E-02 0. -1.
        2   -1    0    0  501    0  0.00000000000E+00  0.00000000000E+00 -0.19438553617E+04  0.19438553617E+04  0.25500000920E-02 0.  1.
    10030    2    1    2    0    0  0.00000000000E+00  0.00000000000E+00 -0.99751947889E+03  0.28901912446E+04  0.27125929144E+04 0.  0.
        3    1    3    3  502    0  0.66550317893E+03  0.91987492939E+03  0.29175693570E+03  0.11722570054E+04  0.10100000352E+00 0.  1.
       -3    1    3    3    0  502 -0.66550317893E+03 -0.91987492939E+03 -0.12892764146E+04  0.17179342392E+04  0.10100000352E+00 0. -1.
</event>
<event>
 5   0  0.1220908E-05  0.2718753E+04  0.7818609E-02  0.8328946E-01
        2   -1    0    0  501    0  0.00000000000E+00  0.00000000000E+00  0.16568544429E+04  0.16568544429E+04  0.25500000920E-02 0.  1.
       -2   -1    0    0    0  501  0.00000000000E+00  0.00000000000E+00 -0.11153086523E+04  0.11153086523E+04  0.25500000920E-02 0. -1.
    10030    2    1    2    0    0  0.00000000000E+00  0.00000000000E+00  0.54154579063E+03  0.27721630952E+04  0.27187527257E+04 0.  0.
        2    1    3    3  502    0  0.72941442190E+03  0.53856527396E+03 -0.76194503067E+03  0.11843387112E+04  0.25500000920E-02 0. -1.
       -2    1    3    3    0  502 -0.72941442190E+03 -0.53856527396E+03  0.13034908213E+04  0.15878243840E+04  0.25500000920E-02 0.  1.
</event>
<event>
 5   0  0.1276517E-05  0.2665602E+04  0.7818609E-02  0.8346253E-01
       -2   -1    0    0    0  501  0.00000000000E+00  0.00000000000E+00  0.22298471020E+04  0.22298471020E+04  0.25500000920E-02 0. -1.
        2   -1    0    0  501    0  0.00000000000E+00  0.00000000000E+00 -0.79662800528E+03  0.79662800529E+03  0.25500000920E-02 0.  1.
    10030    2    1    2    0    0  0.00000000000E+00  0.00000000000E+00  0.14332190967E+04  0.30264751073E+04  0.26656021075E+04 0.  0.
        1    1    3    3  502    0 -0.91965022573E+03 -0.95940637452E+03  0.60227083430E+03  0.14590912538E+04  0.50400001928E-02 0. -1.
       -1    1    3    3    0  502  0.91965022573E+03  0.95940637452E+03  0.83094826238E+03  0.15673838534E+04  0.50400001928E-02 0.  1.
</event>
<event>
 5   0  0.1261364E-05  0.2696687E+04  0.7818609E-02  0.8336081E-01
       -2   -1    0    0    0  501  0.00000000000E+00  0.00000000000E+00  0.13328838853E+04  0.13328838853E+04  0.25500000920E-02 0. -1.
        2   -1    0    0  501    0  0.00000000000E+00  0.00000000000E+00 -0.13639825169E+04  0.13639825169E+04  0.25500000920E-02 0.  1.
    10030    2    1    2    0    0  0.00000000000E+00  0.00000000000E+00 -0.31098631612E+02  0.26968664022E+04  0.26966870909E+04 0.  0.
        5    1    3    3  502    0 -0.93471042985E+03  0.89920814483E+03 -0.38401560269E+03  0.13526821314E+04  0.46999998093E+01 0.  1.
       -5    1    3    3    0  502  0.93471042985E+03 -0.89920814483E+03  0.35291697108E+03  0.13441842708E+04  0.46999998093E+01 0. -1.
</event>
<event>
 5   0  0.1232559E-05  0.2719302E+04  0.7818609E-02  0.8328769E-01
       -2   -1    0    0    0  501  0.00000000000E+00  0.00000000000E+00  0.81796243609E+03  0.81796243610E+03  0.25500000920E-02 0. -1.
        2   -1    0    0  501    0  0.00000000000E+00  0.00000000000E+00 -0.22600687684E+04  0.22600687684E+04  0.25500000920E-02 0.  1.
    10030    2    1    2    0    0  0.00000000000E+00  0.00000000000E+00 -0.14421063323E+04  0.30780312045E+04  0.27193023779E+04 0.  0.
        3    1    3    3  502    0  0.75815068656E+03 -0.48619472544E+03 -0.18739860782E+04  0.20791829179E+04  0.10100000352E+00 0.  1.
       -3    1    3    3    0  502 -0.75815068656E+03  0.48619472544E+03  0.43187974587E+03  0.99884828662E+03  0.10100000352E+00 0. -1.
</event>
<event>
 5   0  0.4826140E-06  0.2721685E+04  0.7818609E-02  0.8328003E-01
        1   -1    0    0  501    0  0.00000000000E+00  0.00000000000E+00  0.18976025349E+04  0.18976025349E+04  0.50400001928E-02 0. -1.
       -1   -1    0    0    0  501  0.00000000000E+00  0.00000000000E+00 -0.97591166869E+03  0.97591166870E+03  0.50400001928E-02 0.  1.
    10030    2    1    2    0    0  0.00000000000E+00  0.00000000000E+00  0.92169086618E+03  0.28735142036E+04  0.27216851077E+04 0.  0.
        1    1    3    3  502    0 -0.10123612763E+04 -0.63044239046E+02  0.14186714052E+04  0.17439835108E+04  0.50400001928E-02 0. -1.
       -1    1    3    3    0  502  0.10123612763E+04  0.63044239046E+02 -0.49698053901E+03  0.11295306928E+04  0.50400001928E-02 0.  1.
</event>
<event>
 5   0  0.5152288E-06  0.2774729E+04  0.7818609E-02  0.8311157E-01
       -1   -1    0    0    0  501  0.00000000000E+00  0.00000000000E+00  0.13672545303E+04  0.13672545303E+04  0.50400001928E-02 0.  1.
        1   -1    0    0  501    0  0.00000000000E+00  0.00000000000E+00 -0.14077703972E+04  0.14077703972E+04  0.50400001928E-02 0. -1.
    10030    2    1    2    0    0  0.00000000000E+00  0.00000000000E+00 -0.40515866963E+02  0.27750249275E+04  0.27747291422E+04 0.  0.
        3    1    3    3  502    0  0.11486710155E+04 -0.33758144730E+03 -0.72131347602E+03  0.13977480017E+04  0.10100000352E+00 0. -1.
       -3    1    3    3    0  502 -0.11486710155E+04  0.33758144730E+03  0.68079760906E+03  0.13772769257E+04  0.10100000352E+00 0.  1.
</event>
<event>
 5   0  0.4824715E-06  0.2779780E+04  0.7818609E-02  0.8309573E-01
        1   -1    0    0  501    0  0.00000000000E+00  0.00000000000E+00  0.11880082186E+04  0.11880082186E+04  0.50400001928E-02 0.  1.
       -1   -1    0    0    0  501  0.00000000000E+00  0.00000000000E+00 -0.16260785407E+04  0.16260785407E+04  0.50400001928E-02 0. -1.
    10030    2    1    2    0    0  0.00000000000E+00  0.00000000000E+00 -0.43807032202E+03  0.28140867593E+04  0.27797803298E+04 0.  0.
        5    1    3    3  502    0  0.81568041990E+03  0.73707135763E+03  0.64185027050E+03  0.12730289052E+04  0.46999998093E+01 0.  1.
       -5    1    3    3    0  502 -0.81568041990E+03 -0.73707135763E+03 -0.10799205925E+04  0.15410578541E+04  0.46999998093E+01 0. -1.
</event>
<event>
 5   0  0.5152288E-06  0.2739630E+04  0.7818609E-02  0.8322260E-01
        1   -1    0    0  501    0  0.00000000000E+00  0.00000000000E+00  0.21047564464E+04  0.21047564465E+04  0.50400001928E-02 0. -1.
       -1   -1    0    0    0  501  0.00000000000E+00  0.00000000000E+00 -0.89150162709E+03  0.89150162711E+03  0.50400001928E-02 0.  1.
    10030    2    1    2    0    0  0.00000000000E+00  0.00000000000E+00  0.12132548194E+04  0.29962580736E+04  0.27396304836E+04 0.  0.
        3    1    3    3  502    0 -0.78748311959E+02  0.89603225369E+03  0.17365125177E+04  0.19556458858E+04  0.10100000352E+00 0. -1.
       -3    1    3    3    0  502  0.78748311959E+02 -0.89603225369E+03 -0.52325769833E+03  0.10406121878E+04  0.10100000352E+00 0.  1.
</event>
<event>
 5   0  0.1220908E-05  0.2698076E+04  0.7818609E-02  0.8335630E-01
        2   -1    0    0  501    0  0.00000000000E+00  0.00000000000E+00  0.15708292276E+04  0.15708292276E+04  0.25500000920E-02 0.  1.
       -2   -1    0    0    0  501  0.00000000000E+00  0.00000000000E+00 -0.11585620154E+04  0.11585620155E+04  0.25500000920E-02 0. -1.
    10030    2    1    2    0    0  0.00000000000E+00  0.00000000000E+00  0.41226721214E+03  0.27293912430E+04  0.26980756667E+04 0.  0.
        2    1    3    3  502    0  0.10176538169E+03  0.13227664087E+04  0.45358654846E+03  0.14020727235E+04  0.25500000920E-02 0.  1.
       -2    1    3    3    0  502 -0.10176538169E+03 -0.13227664087E+04 -0.41319336312E+02  0.13273185196E+04  0.25500000920E-02 0. -1.
</event>
<event>
 5   0  0.1232559E-05  0.2705394E+04  0.7818609E-02  0.8333257E-01
       -2   -1    0    0    0  501  0.00000000000E+00  0.00000000000E+00  0.91374197434E+03  0.91374197435E+03  0.25500000920E-02 0.  1.
        2   -1    0    0  501    0  0.00000000000E+00  0.00000000000E+00 -0.20025225265E+04  0.20025225265E+04  0.25500000920E-02 0. -1.
    10030    2    1    2    0    0  0.00000000000E+00  0.00000000000E+00 -0.10887805521E+04  0.29162645008E+04  0.27053937880E+04 0.  0.
        3    1    3    3  502    0 -0.12356252829E+04 -0.22487557024E+03 -0.27834575543E+01  0.12559246075E+04  0.10100000352E+00 0.  1.
       -3    1    3    3    0  502  0.12356252829E+04  0.22487557024E+03 -0.10859970946E+04  0.16603398933E+04  0.10100000352E+00 0. -1.
</event>
<event>
 5   0  0.5152288E-06  0.2663595E+04  0.7818609E-02  0.8346915E-01
       -1   -1    0    0    0  501  0.00000000000E+00  0.00000000000E+00  0.65282885232E+03  0.65282885234E+03  0.50400001928E-02 0. -1.
        1   -1    0    0  501    0  0.00000000000E+00  0.00000000000E+00 -0.27169218769E+04  0.27169218769E+04  0.50400001928E-02 0.  1.
    10030    2    1    2    0    0  0.00000000000E+00  0.00000000000E+00 -0.20640930246E+04  0.33697507293E+04  0.26635953077E+04 0.  0.
        3    1    3    3  502    0  0.14741280391E+03 -0.11706418244E+04 -0.25058697521E+03  0.12062034066E+04  0.10100000352E+00 0. -1.
       -3    1    3    3    0  502 -0.14741280391E+03  0.11706418244E+04 -0.18135060494E+04  0.21635473226E+04  0.10100000352E+00 0.  1.
</event>
<event>
 5   0  0.4846214E-06  0.2689560E+04  0.7818609E-02  0.8338400E-01
        1   -1    0    0  501    0  0.00000000000E+00  0.00000000000E+00  0.14598513706E+04  0.14598513706E+04  0.50400001928E-02 0.  1.
       -1   -1    0    0    0  501  0.00000000000E+00  0.00000000000E+00 -0.12387787812E+04  0.12387787812E+04  0.50400001928E-02 0. -1.
    10030    2    1    2    0    0  0.00000000000E+00  0.00000000000E+00  0.22107258942E+03  0.26986301518E+04  0.26895597421E+04 0.  0.
        2    1    3    3  502    0  0.44692790294E+03 -0.12475365032E+04  0.34008945771E+03  0.13681201397E+04  0.25500000920E-02 0.  1.
       -2    1    3    3    0  502 -0.44692790294E+03  0.12475365032E+04 -0.11901686830E+03  0.13305100121E+04  0.25500000920E-02 0. -1.
</event>
<event>
 5   0  0.1220908E-05  0.2694080E+04  0.7818609E-02  0.8336928E-01
       -2   -1    0    0    0  501  0.00000000000E+00  0.00000000000E+00  0.13352503743E+04  0.13352503743E+04  0.25500000920E-02 0. -1.
        2   -1    0    0  501    0  0.00000000000E+00  0.00000000000E+00 -0.13589333418E+04  0.13589333418E+04  0.25500000920E-02 0.  1.
    10030    2    1    2    0    0  0.00000000000E+00  0.00000000000E+00 -0.23682967409E+02  0.26941837161E+04  0.26940796226E+04 0.  0.
        2    1    3    3  502    0  0.87041757733E+03  0.10230791784E+04  0.89149987046E+02  0.13462041021E+04  0.25500000920E-02 0.  1.
       -2    1    3    3    0  502 -0.87041757733E+03 -0.10230791784E+04 -0.11283295446E+03  0.13479796140E+04  0.25500000920E-02 0. -1.
</event>
<event>
 5   0  0.4756800E-06  0.2675788E+04  0.7818609E-02  0.8342904E-01
       -1   -1    0    0    0  501  0.00000000000E+00  0.00000000000E+00  0.12739867767E+04  0.12739867767E+04  0.50400001928E-02 0. -1.
        1   -1    0    0  501    0  0.00000000000E+00  0.00000000000E+00 -0.14050069538E+04  0.14050069539E+04  0.50400001928E-02 0.  1.
    10030    2    1    2    0    0  0.00000000000E+00  0.00000000000E+00 -0.13102017720E+03  0.26789937305E+04  0.26757879440E+04 0.  0.
        4    1    3    3  502    0 -0.38094336022E+03  0.39833867353E+03  0.11550350062E+04  0.12798042901E+04  0.12699999809E+01 0. -1.
       -4    1    3    3    0  502  0.38094336022E+03 -0.39833867353E+03 -0.12860551834E+04  0.13991894404E+04  0.12699999809E+01 0.  1.
</event>
<event>
 5   0  0.1276517E-05  0.2697383E+04  0.7818609E-02  0.8335855E-01
       -2   -1    0    0    0  501  0.00000000000E+00  0.00000000000E+00  0.89148582892E+03  0.89148582892E+03  0.25500000920E-02 0.  1.
        2   -1    0    0  501    0  0.00000000000E+00  0.00000000000E+00 -0.20403781766E+04  0.20403781766E+04  0.25500000920E-02 0. -1.
    10030    2    1    2    0    0  0.00000000000E+00  0.00000000000E+00 -0.11488923477E+04  0.29318640055E+04  0.26973826055E+04 0.  0.
        1    1    3    3  502    0 -0.10153831014E+04  0.21460927262E+03 -0.15106628414E+04  0.18328017359E+04  0.50400001928E-02 0. -1.
       -1    1    3    3    0  502  0.10153831014E+04 -0.21460927262E+03  0.36177049376E+03  0.10990622697E+04  0.50400001928E-02 0.  1.
</event>
<event>
 5   0  0.4756800E-06  0.2718633E+04  0.7818609E-02  0.8328984E-01
       -1   -1    0    0    0  501  0.00000000000E+00  0.00000000000E+00  0.11171011888E+04  0.11171011888E+04  0.50400001928E-02 0. -1.
        1   -1    0    0  501    0  0.00000000000E+00  0.00000000000E+00 -0.16540504026E+04  0.16540504026E+04  0.50400001928E-02 0.  1.
    10030    2    1    2    0    0  0.00000000000E+00  0.00000000000E+00 -0.53694921383E+03  0.27711515914E+04  0.27186332383E+04 0.  0.
        4    1    3    3  502    0  0.39664316775E+03  0.85958120304E+03  0.72583563022E+03  0.11929143398E+04  0.12699999809E+01 0. -1.
       -4    1    3    3    0  502 -0.39664316775E+03 -0.85958120304E+03 -0.12627848441E+04  0.15782372516E+04  0.12699999809E+01 0.  1.
</event>
<event>
 5   0  0.5152288E-06  0.2650295E+04  0.7818609E-02  0.8351315E-01
        1   -1    0    0  501    0  0.00000000000E+00  0.00000000000E+00  0.17787923168E+04  0.17787923168E+04  0.50400001928E-02 0.  1.
       -1   -1    0    0    0  501  0.00000000000E+00  0.00000000000E+00 -0.98719534408E+03  0.98719534410E+03  0.50400001928E-02 0. -1.
    10030    2    1    2    0    0  0.00000000000E+00  0.00000000000E+00  0.79159697274E+03  0.27659876609E+04  0.26502946955E+04 0.  0.
        3    1    3    3  502    0 -0.80575330899E+03 -0.90764251443E+03  0.95096114585E+03  0.15418756241E+04  0.10100000352E+00 0.  1.
       -3    1    3    3    0  502  0.80575330899E+03  0.90764251443E+03 -0.15936417311E+03  0.12241120369E+04  0.10100000352E+00 0. -1.
</event>
<event>
 5   0  0.4846214E-06  0.2711108E+04  0.7818609E-02  0.8331410E-01
        1   -1    0    0  501    0  0.00000000000E+00  0.00000000000E+00  0.18532141411E+04  0.18532141411E+04  0.50400001928E-02 0.  1.
       -1   -1    0    0    0  501  0.00000000000E+00  0.00000000000E+00 -0.99153512313E+03  0.99153512315E+03  0.50400001928E-02 0. -1.
    10030    2    1    2    0    0  0.00000000000E+00  0.00000000000E+00  0.86167901798E+03  0.28447492643E+04  0.27111081953E+04 0.  0.
        2    1    3    3  502    0 -0.94764878102E+03 -0.63936359947E+03 -0.33356434691E+03  0.11908355042E+04  0.25500000920E-02 0. -1.
       -2    1    3    3    0  502  0.94764878102E+03  0.63936359947E+03  0.11952433649E+04  0.16539137601E+04  0.25500000920E-02 0.  1.
</event>
<event>
 5   0  0.1276517E-05  0.2677372E+04  0.7818609E-02  0.8342385E-01
        2   -1    0    0  501    0  0.00000000000E+00  0.00000000000E+00  0.16171866601E+04  0.16171866601E+04  0.25500000920E-02 0. -1.
       -2   -1    0    0    0  501  0.00000000000E+00  0.00000000000E+00 -0.11081465474E+04  0.11081465474E+04  0.25500000920E-02 0.  1.
    10030    2    1    2    0    0  0.00000000000E+00  0.00000000000E+00  0.50904011272E+03  0.27253332075E+04  0.26773717066E+04 0.  0.
        1    1    3    3  502    0  0.21066194434E+03 -0.14710295635E+03  0.15918517714E+04  0.16124545875E+04  0.50400001928E-02 0. -1.
       -1    1    3    3    0  502 -0.21066194434E+03  0.14710295635E+03 -0.10828116587E+04  0.11128786200E+04  0.50400001928E-02 0.  1.
</event>
<event>
 5   0  0.1261364E-05  0.2711121E+04  0.7818609E-02  0.8331406E-01
        2   -1    0    0  501    0  0.00000000000E+00  0.00000000000E+00  0.13405056149E+04  0.13405056149E+04  0.25500000920E-02 0.  1.
       -2   -1    0    0    0  501  0.00000000000E+00  0.00000000000E+00 -0.13707841944E+04  0.13707841944E+04  0.25500000920E-02 0. -1.
    10030    2    1    2    0    0  0.00000000000E+00  0.00000000000E+00 -0.30278579480E+02  0.27112898093E+04  0.27111207346E+04 0.  0.
        5    1    3    3  502    0 -0.88587761631E+03  0.49507528265E+03  0.88360643111E+03  0.13456080788E+04  0.46999998093E+01 0.  1.
       -5    1    3    3    0  502  0.88587761631E+03 -0.49507528265E+03 -0.91388501059E+03  0.13656817305E+04  0.46999998093E+01 0. -1.
</event>
<event>
 5   0  0.4824715E-06  0.2706451E+04  0.7818609E-02  0.8332915E-01
       -1   -1    0    0    0  501  0.00000000000E+00  0.00000000000E+00  0.10294586655E+04  0.10294586655E+04  0.50400001928E-02 0.  1.
        1   -1    0    0  501    0  0.00000000000E+00  0.00000000000E+00 -0.17788179755E+04  0.17788179755E+04  0.50400001928E-02 0. -1.
    10030    2    1    2    0    0  0.00000000000E+00  0.00000000000E+00 -0.74935930993E+03  0.28082766410E+04  0.27064512405E+04 0.  0.
        5    1    3    3  502    0 -0.38947198718E+03 -0.10483694167E+04  0.41584394609E+03  0.11931953487E+04  0.46999998093E+01 0. -1.
       -5    1    3    3    0  502  0.38947198718E+03  0.10483694167E+04 -0.11652032560E+04  0.16150812923E+04  0.46999998093E+01 0.  1.
</event>
<event>
 5   0  0.1286641E-05  0.2668612E+04  0.7818609E-02  0.8345262E-01
        2   -1    0    0  501    0  0.00000000000E+00  0.00000000000E+00  0.20542113987E+04  0.20542113987E+04  0.25500000920E-02 0.  1.
       -2   -1    0    0    0  501  0.00000000000E+00  0.00000000000E+00 -0.86669376877E+03  0.86669376878E+03  0.25500000920E-02 0. -1.
    10030    2    1    2    0    0  0.00000000000E+00  0.00000000000E+00  0.11875176299E+04  0.29209051675E+04  0.26686117882E+04 0.  0.
        4    1    3    3  502    0  0.13641372672E+03 -0.97015016191E+03  0.15852526631E+04  0.18635524302E+04  0.12699999809E+01 0.  1.
       -4    1    3    3    0  502 -0.13641372672E+03  0.97015016191E+03 -0.39773503315E+03  0.10573527373E+04  0.12699999809E+01 0. -1.
</event>
<event>
 5   0  0.4826140E-06  0.2690962E+04  0.7818609E-02  0.8337943E-01
       -1   -1    0    0    0  501  0.00000000000E+00  0.00000000000E+00  0.10088623163E+04  0.10088623163E+04  0.50400001928E-02 0. -1.
        1   -1    0    0  501    0  0.00000000000E+00  0.00000000000E+00 -0.17944163868E+04  0.17944163868E+04  0.50400001928E-02 0.  1.
    10030    2    1    2    0    0  0.00000000000E+00  0.00000000000E+00 -0.78555407050E+03  0.28032787032E+04  0.26909619637E+04 0.  0.
        1    1    3    3  502    0  0.50490235027E+03  0.35166718611E+03  0.85371124956E+03  0.10523398171E+04  0.50400001928E-02 0. -1.
       -1    1    3    3    0  502 -0.50490235027E+03 -0.35166718611E+03 -0.16392653201E+04  0.17509388860E+04  0.50400001928E-02 0.  1.
</event>
<event>
 5   0  0.4824715E-06  0.2721031E+04  0.7818609E-02  0.8328213E-01
        1   -1    0    0  501    0  0.00000000000E+00  0.00000000000E+00  0.11873099221E+04  0.11873099221E+04  0.50400001928E-02 0.  1.
       -1   -1    0    0    0  501  0.00000000000E+00  0.00000000000E+00 -0.15589880710E+04  0.15589880710E+04  0.50400001928E-02 0. -1.
    10030    2    1    2    0    0  0.00000000000E+00  0.00000000000E+00 -0.37167814882E+03  0.27462979931E+04  0.27210306909E+04 0.  0.
        5    1    3    3  502    0 -0.26585023092E+03  0.67845574563E+03  0.97374277918E+03  0.12162136466E+04  0.46999998093E+01 0.  1.
       -5    1    3    3    0  502  0.26585023092E+03 -0.67845574563E+03 -0.13454209280E+04  0.15300843465E+04  0.46999998093E+01 0. -1.
</event>
<event>
 5   0  0.4846214E-06  0.2702955E+04  0.7818609E-02  0.8334047E-01
       -1   -1    0    0    0  501  0.00000000000E+00  0.00000000000E+00  0.17214761963E+04  0.17214761964E+04  0.50400001928E-02 0. -1.
        1   -1    0    0  501    0  0.00000000000E+00  0.00000000000E+00 -0.10610030841E+04  0.10610030841E+04  0.50400001928E-02 0.  1.
    10030    2    1    2    0    0  0.00000000000E+00  0.00000000000E+00  0.66047311227E+03  0.27824792804E+04  0.27029550892E+04 0.  0.
        2    1    3    3  502    0  0.11960204764E+04 -0.52522077698E+03 -0.26617480567E+02  0.13065337098E+04  0.25500000920E-02 0.  1.
       -2    1    3    3    0  502 -0.11960204764E+04  0.52522077698E+03  0.68709059284E+03  0.14759455706E+04  0.25500000920E-02 0. -1.
</event>
<event>
 5   0  0.4846214E-06  0.2699965E+04  0.7818609E-02  0.8335016E-01
       -1   -1    0    0    0  501  0.00000000000E+00  0.00000000000E+00  0.92544135686E+03  0.92544135687E+03  0.50400001928E-02 0.  1.
        1   -1    0    0  501    0  0.00000000000E+00  0.00000000000E+00 -0.19692792635E+04  0.19692792635E+04  0.50400001928E-02 0. -1.
    10030    2    1    2    0    0  0.00000000000E+00  0.00000000000E+00 -0.10438379066E+04  0.28947206203E+04  0.26999647951E+04 0.  0.
        2    1    3    3  502    0  0.13159340892E+03 -0.45939174045E+03  0.83172870543E+03  0.95923419242E+03  0.25500000920E-02 0.  1.
       -2    1    3    3    0  502 -0.13159340892E+03  0.45939174045E+03 -0.18755666120E+04  0.19354864279E+04  0.25500000920E-02 0. -1.
</event>
<event>
 5   0  0.4824715E-06  0.2719415E+04  0.7818609E-02  0.8328733E-01
       -1   -1    0    0    0  501  0.00000000000E+00  0.00000000000E+00  0.17474673050E+04  0.17474673050E+04  0.50400001928E-02 0. -1.
        1   -1    0    0  501    0  0.00000000000E+00  0.00000000000E+00 -0.10579912717E+04  0.10579912718E+04  0.50400001928E-02 0.  1.
    10030    2    1    2    0    0  0.00000000000E+00  0.00000000000E+00  0.68947603326E+03  0.28054585768E+04  0.27194154933E+04 0.  0.
        5    1    3    3  502    0  0.50068224233E+03 -0.36495803873E+02  0.16483527488E+04  0.17231086809E+04  0.46999998093E+01 0. -1.
       -5    1    3    3    0  502 -0.50068224233E+03  0.36495803873E+02 -0.95887671557E+03  0.10823498959E+04  0.46999998093E+01 0.  1.
</event>
<event>
 5   0  0.4824715E-06  0.2764734E+04  0.7818609E-02  0.8314301E-01
       -1   -1    0    0    0  501  0.00000000000E+00  0.00000000000E+00  0.77600059635E+03  0.77600059637E+03  0.50400001928E-02 0.  1.
        1   -1    0    0  501    0  0.00000000000E+00  0.00000000000E+00 -0.24625480040E+04  0.24625480040E+04  0.50400001928E-02 0. -1.
    10030    2    1    2    0    0  0.00000000000E+00  0.00000000000E+00 -0.16865474077E+04  0.32385486004E+04  0.27647341425E+04 0.  0.
        5    1    3    3  502    0 -0.76970867615E+03 -0.93514024022E+03 -0.62765042951E+02  0.12128067676E+04  0.46999998093E+01 0.  1.
       -5    1    3    3    0  502  0.76970867615E+03  0.93514024022E+03 -0.16237823647E+04  0.20257418328E+04  0.46999998093E+01 0. -1.
</event>
<event>
 5   0  0.4846214E-06  0.2703911E+04  0.7818609E-02  0.8333737E-01
       -1   -1    0    0    0  501  0.00000000000E+00  0.00000000000E+00  0.26009485038E+04  0.26009485038E+04  0.50400001928E-02 0. -1.
        1   -1    0    0  501    0  0.00000000000E+00  0.00000000000E+00 -0.70273722353E+03  0.70273722355E+03  0.50400001928E-02 0.  1.
    10030    2    1    2    0    0  0.00000000000E+00  0.00000000000E+00  0.18982112803E+04  0.33036857274E+04  0.27039107457E+04 0.  0.
        2    1    3    3  502    0  0.33298571491E+03 -0.12868621363E+04  0.64761193958E+03  0.14786124808E+04  0.25500000920E-02 0.  1.
       -2    1    3    3    0  502 -0.33298571491E+03  0.12868621363E+04  0.12505993407E+04  0.18250732465E+04  0.25500000920E-02 0. -1.
</event>
<event>
 5   0  0.4846214E-06  0.2712639E+04  0.7818609E-02  0.8330916E-01
       -1   -1    0    0    0  501  0.00000000000E+00  0.00000000000E+00  0.92877741608E+03  0.92877741609E+03  0.50400001928E-02 0. -1.
        1   -1    0    0  501    0  0.00000000000E+00  0.00000000000E+00 -0.19806715988E+04  0.19806715988E+04  0.50400001928E-02 0.  1.
    10030    2    1    2    0    0  0.00000000000E+00  0.00000000000E+00 -0.10518941827E+04  0.29094490149E+04  0.27126393418E+04 0.  0.
        2    1    3    3  502    0 -0.73736007638E+03 -0.22735346503E+02  0.69477931718E+03  0.10133780528E+04  0.25500000920E-02 0. -1.
       -2    1    3    3    0  502  0.73736007638E+03  0.22735346503E+02 -0.17466734999E+04  0.18960709622E+04  0.25500000920E-02 0.  1.
</event>
<event>
 5   0  0.4846214E-06  0.2724681E+04  0.7818609E-02  0.8327041E-01
        1   -1    0    0  501    0  0.00000000000E+00  0.00000000000E+00  0.17762517935E+04  0.17762517936E+04  0.50400001928E-02 0. -1.
       -1   -1    0    0    0  501  0.00000000000E+00  0.00000000000E+00 -0.10448810218E+04  0.10448810218E+04  0.50400001928E-02 0.  1.
    10030    2    1    2    0    0  0.00000000000E+00  0.00000000000E+00  0.73137077178E+03  0.28211328153E+04  0.27246811109E+04 0.  0.
        2    1    3    3  502    0 -0.41119864181E+03 -0.12412479556E+04 -0.30198786297E+02  0.13079345461E+04  0.25500000920E-02 0.  1.
       -2    1    3    3    0  502  0.41119864181E+03  0.12412479556E+04  0.76156955807E+03  0.15131982692E+04  0.25500000920E-02 0. -1.
</event>
<event>
 5   0  0.1276517E-05  0.2711987E+04  0.7818609E-02  0.8331126E-01
        2   -1    0    0  501    0  0.00000000000E+00  0.00000000000E+00  0.18938258174E+04  0.18938258174E+04  0.25500000920E-02 0. -1.
       -2   -1    0    0    0  501  0.00000000000E+00  0.00000000000E+00 -0.97090168418E+03  0.97090168418E+03  0.25500000920E-02 0.  1.
    10030    2    1    2    0    0  0.00000000000E+00  0.00000000000E+00  0.92292413326E+03  0.28647275016E+04  0.27119872239E+04 0.  0.
        1    1    3    3  502    0  0.56590198099E+03 -0.98662251211E+03  0.12413167911E+04  0.16836081520E+04  0.50400001928E-02 0. -1.
       -1    1    3    3    0  502 -0.56590198099E+03  0.98662251211E+03 -0.31839265787E+03  0.11811193496E+04  0.50400001928E-02 0.  1.
</event>
<event>
 5   0  0.4824715E-06  0.2686165E+04  0.7818609E-02  0.8339508E-01
        1   -1    0    0  501    0  0.00000000000E+00  0.00000000000E+00  0.14075818089E+04  0.14075818090E+04  0.50400001928E-02 0. -1.
       -1   -1    0    0    0  501  0.00000000000E+00  0.00000000000E+00 -0.12815382811E+04  0.12815382811E+04  0.50400001928E-02 0.  1.
    10030    2    1    2    0    0  0.00000000000E+00  0.00000000000E+00  0.12604352786E+03  0.26891200901E+04  0.26861645310E+04 0.  0.
        5    1    3    3  502    0  0.11799123847E+03  0.24847474294E+03  0.13790731895E+04  0.14062455626E+04  0.46999998093E+01 0. -1.
       -5    1    3    3    0  502 -0.11799123847E+03 -0.24847474294E+03 -0.12530296617E+04  0.12828745275E+04  0.46999998093E+01 0.  1.
</event>
<event>
 5   0  0.4846214E-06  0.2722039E+04  0.7818609E-02  0.8327889E-01
       -1   -1    0    0    0  501  0.00000000000E+00  0.00000000000E+00  0.12734215529E+04  0.12734215529E+04  0.50400001928E-02 0.  1.
        1   -1    0    0  501    0  0.00000000000E+00  0.00000000000E+00 -0.14546437819E+04  0.14546437819E+04  0.50400001928E-02 0. -1.
    10030    2    1    2    0    0  0.00000000000E+00  0.00000000000E+00 -0.18122222903E+03  0.27280653348E+04  0.27220394881E+04 0.  0.
        2    1    3    3  502    0  0.16765685809E+03 -0.18329357582E+03 -0.14317323846E+04  0.14531218043E+04  0.25500000920E-02 0. -1.
       -2    1    3    3    0  502 -0.16765685809E+03  0.18329357582E+03  0.12505101555E+04  0.12749435306E+04  0.25500000920E-02 0.  1.
</event>
<event>
 5   0  0.4826140E-06  0.2721310E+04  0.7818609E-02  0.8328124E-01
        1   -1    0    0  501    0  0.00000000000E+00  0.00000000000E+00  0.16710031942E+04  0.16710031942E+04  0.50400001928E-02 0. -1.
       -1   -1    0    0    0  501  0.00000000000E+00  0.00000000000E+00 -0.11079461131E+04  0.11079461131E+04  0.50400001928E-02 0.  1.
    10030    2    1    2    0    0  0.00000000000E+00  0.00000000000E+00  0.56305708113E+03  0.27789493073E+04  0.27213096068E+04 0.  0.
        1    1    3    3  502    0  0.67549907441E+03  0.52320408904E+02  0.14864981963E+04  0.16336196963E+04  0.50400001928E-02 0. -1.
       -1    1    3    3    0  502 -0.67549907441E+03 -0.52320408904E+02 -0.92344111512E+03  0.11453296110E+04  0.50400001928E-02 0.  1.
</event>
<event>
 5   0  0.1261364E-05  0.2517659E+04  0.7818609E-02  0.8396721E-01
       -2   -1    0    0    0  501  0.00000000000E+00  0.00000000000E+00  0.71966559939E+03  0.71966559939E+03  0.25500000920E-02 0. -1.
        2   -1    0    0  501    0  0.00000000000E+00  0.00000000000E+00 -0.22019285728E+04  0.22019285728E+04  0.25500000920E-02 0.  1.
    10030    2    1    2    0    0  0.00000000000E+00  0.00000000000E+00 -0.14822629734E+04  0.29215941722E+04  0.25176594258E+04 0.  0.
        5    1    3    3  502    0 -0.32783234198E+03 -0.12144994573E+04 -0.79490360161E+03  0.14880782245E+04  0.46999998093E+01 0. -1.
       -5    1    3    3    0  502  0.32783234198E+03  0.12144994573E+04 -0.68735937177E+03  0.14335159477E+04  0.46999998093E+01 0.  1.
</event>
<event>
 5   0  0.1261364E-05  0.2685550E+04  0.7818609E-02  0.8339709E-01
        2   -1    0    0  501    0  0.00000000000E+00  0.00000000000E+00  0.22424660609E+04  0.22424660609E+04  0.25500000920E-02 0.  1.
       -2   -1    0    0    0  501  0.00000000000E+00  0.00000000000E+00 -0.80404553549E+03  0.80404553549E+03  0.25500000920E-02 0. -1.
    10030    2    1    2    0    0  0.00000000000E+00  0.00000000000E+00  0.14384205255E+04  0.30465115964E+04  0.26855500925E+04 0.  0.
        5    1    3    3  502    0 -0.21800835020E+03  0.66946463497E+03  0.20162677785E+04  0.21356657938E+04  0.46999998093E+01 0.  1.
       -5    1    3    3    0  502  0.21800835020E+03 -0.66946463497E+03 -0.57784725307E+03  0.91084580260E+03  0.46999998093E+01 0. -1.
</event>
<event>
 5   0  0.1286641E-05  0.2708648E+04  0.7818609E-02  0.8332205E-01
       -2   -1    0    0    0  501  0.00000000000E+00  0.00000000000E+00  0.93301833909E+03  0.93301833909E+03  0.25500000920E-02 0. -1.
        2   -1    0    0  501    0  0.00000000000E+00  0.00000000000E+00 -0.19658703654E+04  0.19658703654E+04  0.25500000920E-02 0.  1.
    10030    2    1    2    0    0  0.00000000000E+00  0.00000000000E+00 -0.10328520263E+04  0.28988887045E+04  0.27086477092E+04 0.  0.
        4    1    3    3  502    0 -0.47261090342E+03  0.84374161508E+03 -0.15311363370E+04  0.18109779332E+04  0.12699999809E+01 0.  1.
       -4    1    3    3    0  502  0.47261090342E+03 -0.84374161508E+03  0.49828431073E+03  0.10879107713E+04  0.12699999809E+01 0. -1.
</event>
<event>
 5   0  0.4824715E-06  0.2683638E+04  0.7818609E-02  0.8340333E-01
       -1   -1    0    0    0  501  0.00000000000E+00  0.00000000000E+00  0.13409295400E+04  0.13409295400E+04  0.50400001928E-02 0.  1.
        1   -1    0    0  501    0  0.00000000000E+00  0.00000000000E+00 -0.13427091712E+04  0.13427091713E+04  0.50400001928E-02 0. -1.
    10030    2    1    2    0    0  0.00000000000E+00  0.00000000000E+00 -0.17796312193E+01  0.26836387113E+04  0.26836381212E+04 0.  0.
        5    1    3    3  502    0 -0.70261407687E+03  0.59676630871E+03  0.97412821050E+03  0.13411727811E+04  0.46999998093E+01 0.  1.
       -5    1    3    3    0  502  0.70261407687E+03 -0.59676630871E+03 -0.97590784172E+03  0.13424659302E+04  0.46999998093E+01 0. -1.
</event>
<event>
 5   0  0.1220908E-05  0.2720129E+04  0.7818609E-02  0.8328503E-01
       -2   -1    0    0    0  501  0.00000000000E+00  0.00000000000E+00  0.14951727854E+04  0.14951727854E+04  0.25500000920E-02 0.  1.
        2   -1    0    0  501    0  0.00000000000E+00  0.00000000000E+00 -0.12371647286E+04  0.12371647286E+04  0.25500000920E-02 0. -1.
    10030    2    1    2    0    0  0.00000000000E+00  0.00000000000E+00  0.25800805684E+03  0.27323375140E+04  0.27201286979E+04 0.  0.
        2    1    3    3  502    0 -0.73075267049E+03 -0.37971600167E+03  0.12162629158E+04  0.14688359975E+04  0.25500000920E-02 0.  1.
       -2    1    3    3    0  502  0.73075267049E+03  0.37971600167E+03 -0.95825485894E+03  0.12635015164E+04  0.25500000920E-02 0. -1.
</event>
<event>
 5   0  0.4846214E-06  0.2803427E+04  0.7818609E-02  0.8302205E-01
       -1   -1    0    0    0  501  0.00000000000E+00  0.00000000000E+00  0.11512152839E+04  0.11512152839E+04  0.50400001928E-02 0.  1.
        1   -1    0    0  501    0  0.00000000000E+00  0.00000000000E+00 -0.17067187103E+04  0.17067187103E+04  0.50400001928E-02 0. -1.
    10030    2    1    2    0    0  0.00000000000E+00  0.00000000000E+00 -0.55550342638E+03  0.28579339942E+04  0.28034269490E+04 0.  0.
        2    1    3    3  502    0 -0.11782764796E+04  0.75849166698E+03 -0.24309674838E+03  0.14222310292E+04  0.25500000920E-02 0.  1.
       -2    1    3    3    0  502  0.11782764796E+04 -0.75849166698E+03 -0.31240667800E+03  0.14357029650E+04  0.25500000920E-02 0. -1.
</event>
<event>
 5   0  0.1220908E-05  0.2685672E+04  0.7818609E-02  0.8339669E-01
        2   -1    0    0  501    0  0.00000000000E+00  0.00000000000E+00  0.23870632112E+04  0.23870632112E+04  0.25500000920E-02 0. -1.
       -2   -1    0    0    0  501  0.00000000000E+00  0.00000000000E+00 -0.75540876363E+03  0.75540876363E+03  0.25500000920E-02 0.  1.
    10030    2    1    2    0    0  0.00000000000E+00  0.00000000000E+00  0.16316544476E+04  0.31424719748E+04  0.26856719599E+04 0.  0.
        2    1    3    3  502    0 -0.12367095761E+03 -0.59806795407E+03 -0.58350614495E+03  0.84466514350E+03  0.25500000920E-02 0.  1.
       -2    1    3    3    0  502  0.12367095761E+03  0.59806795407E+03  0.22151605925E+04  0.22978068313E+04  0.25500000920E-02 0. -1.
</event>
<event>
 5   0  0.4824715E-06  0.2721948E+04  0.7818609E-02  0.8327919E-01
        1   -1    0    0  501    0  0.00000000000E+00  0.00000000000E+00  0.74733003677E+03  0.74733003679E+03  0.50400001928E-02 0.  1.
       -1   -1    0    0    0  501  0.00000000000E+00  0.00000000000E+00 -0.24784906276E+04  0.24784906276E+04  0.50400001928E-02 0. -1.
    10030    2    1    2    0    0  0.00000000000E+00  0.00000000000E+00 -0.17311605908E+04  0.32258206644E+04  0.27219481934E+04 0.  0.
        5    1    3    3  502    0  0.66286882591E+03 -0.11565057242E+04 -0.54031472374E+03  0.14383541501E+04  0.46999998093E+01 0.  1.
       -5    1    3    3    0  502 -0.66286882591E+03  0.11565057242E+04 -0.11908458671E+04  0.17874665142E+04  0.46999998093E+01 0. -1.
</event>
<event>
 5   0  0.1286641E-05  0.2677910E+04  0.7818609E-02  0.8342208E-01
       -2   -1    0    0    0  501  0.00000000000E+00  0.00000000000E+00  0.11556087418E+04  0.11556087418E+04  0.25500000920E-02 0.  1.
        2   -1    0    0  501    0  0.00000000000E+00  0.00000000000E+00 -0.15513910226E+04  0.15513910226E+04  0.25500000920E-02 0. -1.
    10030    2    1    2    0    0  0.00000000000E+00  0.00000000000E+00 -0.39578228076E+03  0.27069997644E+04  0.26779104001E+04 0.  0.
        4    1    3    3  502    0 -0.11321164634E+04 -0.62304703212E+03  0.15652275164E+03  0.13016820947E+04  0.12699999809E+01 0.  1.
       -4    1    3    3    0  502  0.11321164634E+04  0.62304703212E+03 -0.55230503240E+03  0.14053176697E+04  0.12699999809E+01 0. -1.
</event>
<event>
 5   0  0.4826140E-06  0.2699635E+04  0.7818609E-02  0.8335123E-01
        1   -1    0    0  501    0  0.00000000000E+00  0.00000000000E+00  0.10292964353E+04  0.10292964353E+04  0.50400001928E-02 0. -1.
       -1   -1    0    0    0  501  0.00000000000E+00  0.00000000000E+00 -0.17701482854E+04  0.17701482854E+04  0.50400001928E-02 0.  1.
    10030    2    1    2    0    0  0.00000000000E+00  0.00000000000E+00 -0.74085185007E+03  0.27994447207E+04  0.26996350273E+04 0.  0.
        1    1    3    3  502    0  0.99393507536E+02 -0.12606359531E+04  0.11917977761E+03  0.12701519181E+04  0.50400001928E-02 0.  1.
       -1    1    3    3    0  502 -0.99393507536E+02  0.12606359531E+04 -0.86003162768E+03  0.15292928026E+04  0.50400001928E-02 0. -1.
</event>
<event>
 5   0  0.4824715E-06  0.2693765E+04  0.7818609E-02  0.8337031E-01
       -1   -1    0    0    0  501  0.00000000000E+00  0.00000000000E+00  0.10013642055E+04  0.10013642056E+04  0.50400001928E-02 0. -1.
        1   -1    0    0  501    0  0.00000000000E+00  0.00000000000E+00 -0.18116208258E+04  0.18116208258E+04  0.50400001928E-02 0.  1.
    10030    2    1    2    0    0  0.00000000000E+00  0.00000000000E+00 -0.81025662021E+03  0.28129850313E+04  0.26937648368E+04 0.  0.
        5    1    3    3  502    0  0.11072559701E+04 -0.75208081583E+03 -0.24873759151E+03  0.13614454878E+04  0.46999998093E+01 0. -1.
       -5    1    3    3    0  502 -0.11072559701E+04  0.75208081583E+03 -0.56151902869E+03  0.14515395435E+04  0.46999998093E+01 0.  1.
</event>
<event>
 5   0  0.4826140E-06  0.2693615E+04  0.7818609E-02  0.8337080E-01
       -1   -1    0    0    0  501  0.00000000000E+00  0.00000000000E+00  0.86838668109E+03  0.86838668111E+03  0.50400001928E-02 0. -1.
        1   -1    0    0  501    0  0.00000000000E+00  0.00000000000E+00 -0.20888043408E+04  0.20888043408E+04  0.50400001928E-02 0.  1.
    10030    2    1    2    0    0  0.00000000000E+00  0.00000000000E+00 -0.12204176597E+04  0.29571910219E+04  0.26936145745E+04 0.  0.
        1    1    3    3  502    0 -0.13669275364E+03 -0.11019262950E+04  0.22658469801E+03  0.11332550878E+04  0.50400001928E-02 0. -1.
       -1    1    3    3    0  502  0.13669275364E+03  0.11019262950E+04 -0.14470023577E+04  0.18239359341E+04  0.50400001928E-02 0.  1.
</event>
<event>
 5   0  0.1220908E-05  0.2477957E+04  0.7818609E-02  0.8410881E-01
       -2   -1    0    0    0  501  0.00000000000E+00  0.00000000000E+00  0.17400802421E+04  0.17400802421E+04  0.25500000920E-02 0.  1.
        2   -1    0    0  501    0  0.00000000000E+00  0.00000000000E+00 -0.88218220430E+03  0.88218220430E+03  0.25500000920E-02 0. -1.
    10030    2    1    2    0    0  0.00000000000E+00  0.00000000000E+00  0.85789803785E+03  0.26222624464E+04  0.24779570809E+04 0.  0.
        2    1    3    3  502    0 -0.11238192226E+03  0.99519685407E+00 -0.87677700530E+03  0.88395056643E+03  0.25500000920E-02 0. -1.
       -2    1    3    3    0  502  0.11238192226E+03 -0.99519685407E+00  0.17346750431E+04  0.17383118800E+04  0.25500000920E-02 0.  1.
</event>
<event>
 5   0  0.1232559E-05  0.2700962E+04  0.7818609E-02  0.8334693E-01
        2   -1    0    0  501    0  0.00000000000E+00  0.00000000000E+00  0.13635308206E+04  0.13635308206E+04  0.25500000920E-02 0.  1.
       -2   -1    0    0    0  501  0.00000000000E+00  0.00000000000E+00 -0.13375558342E+04  0.13375558342E+04  0.25500000920E-02 0. -1.
    10030    2    1    2    0    0  0.00000000000E+00  0.00000000000E+00  0.25974986345E+02  0.27010866548E+04  0.27009617578E+04 0.  0.
        3    1    3    3  502    0  0.18207534872E+03  0.74101398506E+03 -0.11013106089E+04  0.13398276853E+04  0.10100000352E+00 0. -1.
       -3    1    3    3    0  502 -0.18207534872E+03 -0.74101398506E+03  0.11272855953E+04  0.13612589695E+04  0.10100000352E+00 0.  1.
</event>
<event>
 5   0  0.4824715E-06  0.2672162E+04  0.7818609E-02  0.8344094E-01
       -1   -1    0    0    0  501  0.00000000000E+00  0.00000000000E+00  0.73269530418E+03  0.73269530420E+03  0.50400001928E-02 0. -1.
        1   -1    0    0  501    0  0.00000000000E+00  0.00000000000E+00 -0.24363643308E+04  0.24363643308E+04  0.50400001928E-02 0.  1.
    10030    2    1    2    0    0  0.00000000000E+00  0.00000000000E+00 -0.17036690266E+04  0.31690596350E+04  0.26721621990E+04 0.  0.
        5    1    3    3  502    0  0.11426063301E+03 -0.63163509109E+02 -0.24287714053E+04  0.24322824158E+04  0.46999998093E+01 0.  1.
       -5    1    3    3    0  502 -0.11426063301E+03  0.63163509109E+02  0.72510237868E+03  0.73677721918E+03  0.46999998093E+01 0. -1.
</event>
<event>
 5   0  0.1261364E-05  0.2696744E+04  0.7818609E-02  0.8336062E-01
       -2   -1    0    0    0  501  0.00000000000E+00  0.00000000000E+00  0.10583892334E+04  0.10583892334E+04  0.25500000920E-02 0. -1.
        2   -1    0    0  501    0  0.00000000000E+00  0.00000000000E+00 -0.17178053223E+04  0.17178053223E+04  0.25500000920E-02 0.  1.
    10030    2    1    2    0    0  0.00000000000E+00  0.00000000000E+00 -0.65941608889E+03  0.27761945557E+04  0.26967437092E+04 0.  0.
        5    1    3    3  502    0  0.10132185754E+03  0.13201212411E+04 -0.59236883200E+03  0.14504858266E+04  0.46999998093E+01 0. -1.
       -5    1    3    3    0  502 -0.10132185754E+03 -0.13201212411E+04 -0.67047256885E+02  0.13257087292E+04  0.46999998093E+01 0.  1.
</event>
<event>
 5   0  0.1261364E-05  0.2687453E+04  0.7818609E-02  0.8339087E-01
        2   -1    0    0  501    0  0.00000000000E+00  0.00000000000E+00  0.65143841935E+03  0.65143841935E+03  0.25500000920E-02 0.  1.
       -2   -1    0    0    0  501  0.00000000000E+00  0.00000000000E+00 -0.27717148916E+04  0.27717148916E+04  0.25500000920E-02 0. -1.
    10030    2    1    2    0    0  0.00000000000E+00  0.00000000000E+00 -0.21202764722E+04  0.34231533109E+04  0.26874534920E+04 0.  0.
        5    1    3    3  502    0  0.56585373572E+03  0.31188200578E+03 -0.25608548352E+04  0.26411096934E+04  0.46999998093E+01 0. -1.
       -5    1    3    3    0  502 -0.56585373572E+03 -0.31188200578E+03  0.44057836297E+03  0.78204361750E+03  0.46999998093E+01 0.  1.
</event>
<event>
 5   0  0.1261364E-05  0.2706298E+04  0.7818609E-02  0.8332964E-01
       -2   -1    0    0    0  501  0.00000000000E+00  0.00000000000E+00  0.16733887870E+04  0.16733887870E+04  0.25500000920E-02 0.  1.
        2   -1    0    0  501    0  0.00000000000E+00  0.00000000000E+00 -0.10941943599E+04  0.10941943599E+04  0.25500000920E-02 0. -1.
    10030    2    1    2    0    0  0.00000000000E+00  0.00000000000E+00  0.57919442714E+03  0.27675831469E+04  0.27062982634E+04 0.  0.
        5    1    3    3  502    0 -0.59695666801E+03 -0.23407182292E+03 -0.92895816987E+03  0.11287746689E+04  0.46999998093E+01 0. -1.
       -5    1    3    3    0  502  0.59695666801E+03  0.23407182292E+03  0.15081525970E+04  0.16388084780E+04  0.46999998093E+01 0.  1.
</event>
<event>
 5   0  0.4826140E-06  0.2636697E+04  0.7818609E-02  0.8355842E-01
        1   -1    0    0  501    0  0.00000000000E+00  0.00000000000E+00  0.13605125056E+04  0.13605125056E+04  0.50400001928E-02 0. -1.
       -1   -1    0    0    0  501  0.00000000000E+00  0.00000000000E+00 -0.12774908547E+04  0.12774908547E+04  0.50400001928E-02 0.  1.
    10030    2    1    2    0    0  0.00000000000E+00  0.00000000000E+00  0.83021650874E+02  0.26380033603E+04  0.26366966330E+04 0.  0.
        1    1    3    3  502    0  0.34949654465E+02 -0.11414915723E+04 -0.61746405728E+03  0.12982628201E+04  0.50400001928E-02 0.  1.
       -1    1    3    3    0  502 -0.34949654465E+02  0.11414915723E+04  0.70048570815E+03  0.13397405403E+04  0.50400001928E-02 0. -1.
</event>
<event>
 5   0  0.1286641E-05  0.2690784E+04  0.7818609E-02  0.8338002E-01
       -2   -1    0    0    0  501  0.00000000000E+00  0.00000000000E+00  0.11124936161E+04  0.11124936161E+04  0.25500000920E-02 0. -1.
        2   -1    0    0  501    0  0.00000000000E+00  0.00000000000E+00 -0.16270468218E+04  0.16270468218E+04  0.25500000920E-02 0.  1.
    10030    2    1    2    0    0  0.00000000000E+00  0.00000000000E+00 -0.51455320569E+03  0.27395404379E+04  0.26907836794E+04 0.  0.
        4    1    3    3  502    0  0.69409617926E+03 -0.52619250192E+03 -0.13012490013E+04  0.15658539624E+04  0.12699999809E+01 0.  1.
       -4    1    3    3    0  502 -0.69409617926E+03  0.52619250192E+03  0.78669579563E+03  0.11736864756E+04  0.12699999809E+01 0. -1.
</event>
<event>
 5   0  0.4826140E-06  0.2676362E+04  0.7818609E-02  0.8342715E-01
        1   -1    0    0  501    0  0.00000000000E+00  0.00000000000E+00  0.24370461769E+04  0.24370461769E+04  0.50400001928E-02 0. -1.
       -1   -1    0    0    0  501  0.00000000000E+00  0.00000000000E+00 -0.73479486019E+03  0.73479486021E+03  0.50400001928E-02 0.  1.
    10030    2    1    2    0    0  0.00000000000E+00  0.00000000000E+00  0.17022513167E+04  0.31718410371E+04  0.26763624604E+04 0.  0.
        1    1    3    3  502    0  0.76856923676E+03 -0.43966831207E+03 -0.33798230379E+03  0.94775468030E+03  0.50400001928E-02 0.  1.
       -1    1    3    3    0  502 -0.76856923676E+03  0.43966831207E+03  0.20402336205E+04  0.22240863568E+04  0.50400001928E-02 0. -1.
</event>
<event>
 5   0  0.5152288E-06  0.2631443E+04  0.7818609E-02  0.8357598E-01
       -1   -1    0    0    0  501  0.00000000000E+00  0.00000000000E+00  0.12309626670E+04  0.12309626670E+04  0.50400001928E-02 0.  1.
        1   -1    0    0  501    0  0.00000000000E+00  0.00000000000E+00 -0.14063169890E+04  0.14063169890E+04  0.50400001928E-02 0. -1.
    10030    2    1    2    0    0  0.00000000000E+00  0.00000000000E+00 -0.17535432206E+03  0.26372796560E+04  0.26314434909E+04 0.  0.
        3    1    3    3  502    0  0.53400451555E+02  0.16398801380E+03  0.12195853329E+04  0.12317191528E+04  0.10100000352E+00 0.  1.
       -3    1    3    3    0  502 -0.53400451555E+02 -0.16398801380E+03 -0.13949396550E+04  0.14055605032E+04  0.10100000352E+00 0. -1.
</event>
<event>
 5   0  0.4846214E-06  0.2702902E+04  0.7818609E-02  0.8334064E-01
        1   -1    0    0  501    0  0.00000000000E+00  0.00000000000E+00  0.17085328602E+04  0.17085328602E+04  0.50400001928E-02 0. -1.
       -1   -1    0    0    0  501  0.00000000000E+00  0.00000000000E+00 -0.10689990698E+04  0.10689990698E+04  0.50400001928E-02 0.  1.
    10030    2    1    2    0    0  0.00000000000E+00  0.00000000000E+00  0.63953379045E+03  0.27775319300E+04  0.27029021723E+04 0.  0.
        2    1    3    3  502    0  0.75254606140E+01 -0.10443932652E+04 -0.56158917057E+03  0.11858314895E+04  0.25500000920E-02 0.  1.
       -2    1    3    3    0  502 -0.75254606140E+01  0.10443932652E+04  0.12011229610E+04  0.15917004405E+04  0.25500000920E-02 0. -1.
</event>
<event>
 5   0  0.1286641E-05  0.2696627E+04  0.7818609E-02  0.8336100E-01
       -2   -1    0    0    0  501  0.00000000000E+00  0.00000000000E+00  0.85657960371E+03  0.85657960371E+03  0.25500000920E-02 0.  1.
        2   -1    0    0  501    0  0.00000000000E+00  0.00000000000E+00 -0.21223349279E+04  0.21223349279E+04  0.25500000920E-02 0. -1.
    10030    2    1    2    0    0  0.00000000000E+00  0.00000000000E+00 -0.12657553242E+04  0.29789145316E+04  0.26966266419E+04 0.  0.
        4    1    3    3  502    0  0.30834824226E+03 -0.10856467597E+04  0.18207488350E+03  0.11431799515E+04  0.12699999809E+01 0.  1.
       -4    1    3    3    0  502 -0.30834824226E+03  0.10856467597E+04 -0.14478302077E+04  0.18357345801E+04  0.12699999809E+01 0. -1.
</event>
<event>
 5   0  0.4756800E-06  0.2714673E+04  0.7818609E-02  0.8330260E-01
       -1   -1    0    0    0  501  0.00000000000E+00  0.00000000000E+00  0.15030229339E+04  0.15030229339E+04  0.50400001928E-02 0.  1.
        1   -1    0    0  501    0  0.00000000000E+00  0.00000000000E+00 -0.12257709275E+04  0.12257709275E+04  0.50400001928E-02 0. -1.
    10030    2    1    2    0    0  0.00000000000E+00  0.00000000000E+00  0.27725200637E+03  0.27287938614E+04  0.27146725885E+04 0.  0.
        4    1    3    3  502    0 -0.28782364606E+03 -0.12727131691E+04  0.51436036491E+03  0.14025724437E+04  0.12699999809E+01 0.  1.
       -4    1    3    3    0  502  0.28782364606E+03  0.12727131691E+04 -0.23710835854E+03  0.13262214176E+04  0.12699999809E+01 0. -1.
</event>
<event>
 5   0  0.5152288E-06  0.2803333E+04  0.7818609E-02  0.8302234E-01
        1   -1    0    0  501    0  0.00000000000E+00  0.00000000000E+00  0.23857407209E+04  0.23857407209E+04  0.50400001928E-02 0.  1.
       -1   -1    0    0    0  501  0.00000000000E+00  0.00000000000E+00 -0.82350464475E+03  0.82350464477E+03  0.50400001928E-02 0. -1.
    10030    2    1    2    0    0  0.00000000000E+00  0.00000000000E+00  0.15622360761E+04  0.32092453656E+04  0.28033327058E+04 0.  0.
        3    1    3    3  502    0 -0.30243795075E+03  0.81336015509E+03  0.20412499032E+04  0.22180452280E+04  0.10100000352E+00 0.  1.
       -3    1    3    3    0  502  0.30243795075E+03 -0.81336015509E+03 -0.47901382715E+03  0.99120013758E+03  0.10100000352E+00 0. -1.
</event>
<event>
 5   0  0.1276517E-05  0.2711661E+04  0.7818609E-02  0.8331231E-01
       -2   -1    0    0    0  501  0.00000000000E+00  0.00000000000E+00  0.11072237433E+04  0.11072237433E+04  0.25500000920E-02 0.  1.
        2   -1    0    0  501    0  0.00000000000E+00  0.00000000000E+00 -0.16602570748E+04  0.16602570748E+04  0.25500000920E-02 0. -1.
    10030    2    1    2    0    0  0.00000000000E+00  0.00000000000E+00 -0.55303333149E+03  0.27674808180E+04  0.27116607849E+04 0.  0.
        1    1    3    3  502    0  0.81671895036E+03 -0.52319257170E+03  0.69035825665E+03  0.11905271242E+04  0.50400001928E-02 0.  1.
       -1    1    3    3    0  502 -0.81671895036E+03  0.52319257170E+03 -0.12433915881E+04  0.15769536938E+04  0.50400001928E-02 0. -1.
</event>
<event>
 5   0  0.1261364E-05  0.2639341E+04  0.7818609E-02  0.8354960E-01
       -2   -1    0    0    0  501  0.00000000000E+00  0.00000000000E+00  0.13612144064E+04  0.13612144064E+04  0.25500000920E-02 0. -1.
        2   -1    0    0  501    0  0.00000000000E+00  0.00000000000E+00 -0.12793940572E+04  0.12793940572E+04  0.25500000920E-02 0.  1.
    10030    2    1    2    0    0  0.00000000000E+00  0.00000000000E+00  0.81820349179E+02  0.26406084636E+04  0.26393405405E+04 0.  0.
        5    1    3    3  502    0  0.12481020434E+04 -0.36940757925E+03  0.25847006352E+03  0.13270454153E+04  0.46999998093E+01 0. -1.
       -5    1    3    3    0  502 -0.12481020434E+04  0.36940757925E+03 -0.17664971434E+03  0.13135630484E+04  0.46999998093E+01 0.  1.
</event>
<event>
 5   0  0.4756800E-06  0.2724901E+04  0.7818609E-02  0.8326970E-01
        1   -1    0    0  501    0  0.00000000000E+00  0.00000000000E+00  0.31386305329E+04  0.31386305329E+04  0.50400001928E-02 0. -1.
       -1   -1    0    0    0  501  0.00000000000E+00  0.00000000000E+00 -0.59142737901E+03  0.59142737903E+03  0.50400001928E-02 0.  1.
    10030    2    1    2    0    0  0.00000000000E+00  0.00000000000E+00  0.25472031539E+04  0.37300579119E+04  0.27249014880E+04 0.  0.
        4    1    3    3  502    0 -0.77502577795E+03 -0.95928096003E+03  0.48085037371E+03  0.13236705072E+04  0.12699999809E+01 0.  1.
       -4    1    3    3    0  502  0.77502577795E+03  0.95928096003E+03  0.20663527802E+04  0.24063874048E+04  0.12699999809E+01 0. -1.
</event>
<event>
 5   0  0.1286641E-05  0.2696990E+04  0.7818609E-02  0.8335982E-01
       -2   -1    0    0    0  501  0.00000000000E+00  0.00000000000E+00  0.73777649068E+03  0.73777649068E+03  0.25500000920E-02 0.  1.
        2   -1    0    0  501    0  0.00000000000E+00  0.00000000000E+00 -0.24647562731E+04  0.24647562731E+04  0.25500000920E-02 0. -1.
    10030    2    1    2    0    0  0.00000000000E+00  0.00000000000E+00 -0.17269797824E+04  0.32025327638E+04  0.26969903474E+04 0.  0.
        4    1    3    3  502    0 -0.13148314422E+04 -0.92039958405E+02 -0.52515181880E+03  0.14188160984E+04  0.12699999809E+01 0.  1.
       -4    1    3    3    0  502  0.13148314422E+04  0.92039958405E+02 -0.12018279636E+04  0.17837166654E+04  0.12699999809E+01 0. -1.
</event>
<event>
 5   0  0.1220908E-05  0.2614389E+04  0.7818609E-02  0.8363330E-01
        2   -1    0    0  501    0  0.00000000000E+00  0.00000000000E+00  0.20700883552E+04  0.20700883552E+04  0.25500000920E-02 0.  1.
       -2   -1    0    0    0  501  0.00000000000E+00  0.00000000000E+00 -0.82545131307E+03  0.82545131307E+03  0.25500000920E-02 0. -1.
    10030    2    1    2    0    0  0.00000000000E+00  0.00000000000E+00  0.12446370421E+04  0.28955396683E+04  0.26143887630E+04 0.  0.
        2    1    3    3  502    0 -0.14123862980E+03 -0.82596565769E+03  0.17335014375E+04  0.19254077106E+04  0.25500000920E-02 0.  1.
       -2    1    3    3    0  502  0.14123862980E+03  0.82596565769E+03 -0.48886439536E+03  0.97013195767E+03  0.25500000920E-02 0. -1.
</event>
<event>
 5   0  0.4826140E-06  0.2429256E+04  0.7818609E-02  0.8428631E-01
       -1   -1    0    0    0  501  0.00000000000E+00  0.00000000000E+00  0.82938786649E+03  0.82938786651E+03  0.50400001928E-02 0. -1.
        1   -1    0    0  501    0  0.00000000000E+00  0.00000000000E+00 -0.17788067263E+04  0.17788067263E+04  0.50400001928E-02 0.  1.
    10030    2    1    2    0    0  0.00000000000E+00  0.00000000000E+00 -0.94941885982E+03  0.26081945928E+04  0.24292556191E+04 0.  0.
        1    1    3    3  502    0 -0.48465728730E+03  0.83740637335E+03 -0.12630848869E+04  0.15910768529E+04  0.50400001928E-02 0.  1.
       -1    1    3    3    0  502  0.48465728730E+03 -0.83740637335E+03  0.31366602712E+03  0.10171177399E+04  0.50400001928E-02 0. -1.
</event>
<event>
 5   0  0.1220908E-05  0.2611805E+04  0.7818609E-02  0.8364202E-01
       -2   -1    0    0    0  501  0.00000000000E+00  0.00000000000E+00  0.12310656289E+04  0.12310656289E+04  0.25500000920E-02 0. -1.
        2   -1    0    0  501    0  0.00000000000E+00  0.00000000000E+00 -0.13852885684E+04  0.13852885684E+04  0.25500000920E-02 0.  1.
    10030    2    1    2    0    0  0.00000000000E+00  0.00000000000E+00 -0.15422293945E+03  0.26163541973E+04  0.26118048492E+04 0.  0.
        2    1    3    3  502    0 -0.98394903825E+03  0.54563402215E+03  0.58699800111E+03  0.12690306731E+04  0.25500000920E-02 0. -1.
       -2    1    3    3    0  502  0.98394903825E+03 -0.54563402215E+03 -0.74122094056E+03  0.13473235242E+04  0.25500000920E-02 0.  1.
</event>
<event>
 5   0  0.4846214E-06  0.2667812E+04  0.7818609E-02  0.8345525E-01
        1   -1    0    0  501    0  0.00000000000E+00  0.00000000000E+00  0.19184643935E+04  0.19184643935E+04  0.50400001928E-02 0. -1.
       -1   -1    0    0    0  501  0.00000000000E+00  0.00000000000E+00 -0.92746296652E+03  0.92746296654E+03  0.50400001928E-02 0.  1.
    10030    2    1    2    0    0  0.00000000000E+00  0.00000000000E+00  0.99100142701E+03  0.28459273601E+04  0.26678115958E+04 0.  0.
        2    1    3    3  502    0 -0.12211825448E+04 -0.41269651594E+03  0.86147947407E+03  0.15504038526E+04  0.25500000920E-02 0. -1.
       -2    1    3    3    0  502  0.12211825448E+04  0.41269651594E+03  0.12952195294E+03  0.12955235074E+04  0.25500000920E-02 0.  1.
</event>
<event>
 5   0  0.4756800E-06  0.2678826E+04  0.7818609E-02  0.8341908E-01
       -1   -1    0    0    0  501  0.00000000000E+00  0.00000000000E+00  0.18476065893E+04  0.18476065893E+04  0.50400001928E-02 0. -1.
        1   -1    0    0  501    0  0.00000000000E+00  0.00000000000E+00 -0.97100079169E+03  0.97100079170E+03  0.50400001928E-02 0.  1.
    10030    2    1    2    0    0  0.00000000000E+00  0.00000000000E+00  0.87660579759E+03  0.28186073810E+04  0.26788262064E+04 0.  0.
        4    1    3    3  502    0  0.47627126925E+03  0.81071254280E+03 -0.56537794785E+03  0.10971522163E+04  0.12699999809E+01 0.  1.
       -4    1    3    3    0  502 -0.47627126925E+03 -0.81071254280E+03  0.14419837454E+04  0.17214551647E+04  0.12699999809E+01 0. -1.
</event>
<event>
 5   0  0.1276517E-05  0.2709520E+04  0.7818609E-02  0.8331923E-01
       -2   -1    0    0    0  501  0.00000000000E+00  0.00000000000E+00  0.16654676427E+04  0.16654676427E+04  0.25500000920E-02 0.  1.
        2   -1    0    0  501    0  0.00000000000E+00  0.00000000000E+00 -0.11020178700E+04  0.11020178700E+04  0.25500000920E-02 0. -1.
    10030    2    1    2    0    0  0.00000000000E+00  0.00000000000E+00  0.56344977270E+03  0.27674855128E+04  0.27095203297E+04 0.  0.
        1    1    3    3  502    0  0.83378520384E+03  0.82551902949E+03 -0.41003482139E+03  0.12429030489E+04  0.50400001928E-02 0. -1.
       -1    1    3    3    0  502 -0.83378520384E+03 -0.82551902949E+03  0.97348459409E+03  0.15245824639E+04  0.50400001928E-02 0.  1.
</event>
<event>
 5   0  0.1220908E-05  0.2640652E+04  0.7818609E-02  0.8354522E-01
        2   -1    0    0  501    0  0.00000000000E+00  0.00000000000E+00  0.14533206790E+04  0.14533206790E+04  0.25500000920E-02 0.  1.
       -2   -1    0    0    0  501  0.00000000000E+00  0.00000000000E+00 -0.11995018556E+04  0.11995018556E+04  0.25500000920E-02 0. -1.
    10030    2    1    2    0    0  0.00000000000E+00  0.00000000000E+00  0.25381882337E+03  0.26528225346E+04  0.26406520795E+04 0.  0.
        2    1    3    3  502    0 -0.73866707399E+03 -0.57539134297E+03 -0.80827117508E+03  0.12369343298E+04  0.25500000920E-02 0. -1.
       -2    1    3    3    0  502  0.73866707399E+03  0.57539134297E+03  0.10620899985E+04  0.14158882048E+04  0.25500000920E-02 0.  1.
</event>
<event>
 5   0  0.4826140E-06  0.2731317E+04  0.7818609E-02  0.8324915E-01
        1   -1    0    0  501    0  0.00000000000E+00  0.00000000000E+00  0.27343584779E+04  0.27343584779E+04  0.50400001928E-02 0.  1.
       -1   -1    0    0    0  501  0.00000000000E+00  0.00000000000E+00 -0.68206964360E+03  0.68206964362E+03  0.50400001928E-02 0. -1.
    10030    2    1    2    0    0  0.00000000000E+00  0.00000000000E+00  0.20522888343E+04  0.34164281215E+04  0.27313168345E+04 0.  0.
        1    1    3    3  502    0  0.60740717125E+02 -0.42442670237E+03  0.26479892809E+04  0.26824754784E+04  0.50400001928E-02 0.  1.
       -1    1    3    3    0  502 -0.60740717125E+02  0.42442670237E+03 -0.59570044654E+03  0.73395264318E+03  0.50400001928E-02 0. -1.
</event>
<event>
 5   0  0.4846214E-06  0.2692211E+04  0.7818609E-02  0.8337537E-01
        1   -1    0    0  501    0  0.00000000000E+00  0.00000000000E+00  0.14610899935E+04  0.14610899935E+04  0.50400001928E-02 0. -1.
       -1   -1    0    0    0  501  0.00000000000E+00  0.00000000000E+00 -0.12401700089E+04  0.12401700089E+04  0.50400001928E-02 0.  1.
    10030    2    1    2    0    0  0.00000000000E+00  0.00000000000E+00  0.22091998457E+03  0.27012600024E+04  0.26922109801E+04 0.  0.
        2    1    3    3  502    0 -0.10024791921E+04 -0.80207250626E+03 -0.29551729546E+03  0.13174275342E+04  0.25500000920E-02 0.  1.
       -2    1    3    3    0  502  0.10024791921E+04  0.80207250626E+03  0.51643728003E+03  0.13838324682E+04  0.25500000920E-02 0. -1.
</event>
<event>
 5   0  0.1276517E-05  0.2772967E+04  0.7818609E-02  0.8311710E-01
       -2   -1    0    0    0  501  0.00000000000E+00  0.00000000000E+00  0.12663493651E+04  0.12663493651E+04  0.25500000920E-02 0.  1.
        2   -1    0    0  501    0  0.00000000000E+00  0.00000000000E+00 -0.15180145401E+04  0.15180145401E+04  0.25500000920E-02 0. -1.
    10030    2    1    2    0    0  0.00000000000E+00  0.00000000000E+00 -0.25166517499E+03  0.27843639052E+04  0.27729671827E+04 0.  0.
        1    1    3    3  502    0  0.84070163239E+03  0.19608550586E+03 -0.12152377248E+04  0.14906480094E+04  0.50400001928E-02 0. -1.
       -1    1    3    3    0  502 -0.84070163239E+03 -0.19608550586E+03  0.96357254977E+03  0.12937158958E+04  0.50400001928E-02 0.  1.
</event>
<event>
 5   0  0.4846214E-06  0.2745477E+04  0.7818609E-02  0.8320398E-01
        1   -1    0    0  501    0  0.00000000000E+00  0.00000000000E+00  0.13049268958E+04  0.13049268958E+04  0.50400001928E-02 0. -1.
       -1   -1    0    0    0  501  0.00000000000E+00  0.00000000000E+00 -0.14440734991E+04  0.14440734991E+04  0.50400001928E-02 0.  1.
    10030    2    1    2    0    0  0.00000000000E+00  0.00000000000E+00 -0.13914660329E+03  0.27490003949E+04  0.27454765331E+04 0.  0.
        2    1    3    3  502    0 -0.35872782020E+03  0.11206396705E+04  0.63836418770E+03  0.13386664096E+04  0.25500000920E-02 0. -1.
       -2    1    3    3    0  502  0.35872782020E+03 -0.11206396705E+04 -0.77751079099E+03  0.14103339853E+04  0.25500000920E-02 0.  1.
</event>
<event>
 5   0  0.5152288E-06  0.2693061E+04  0.7818609E-02  0.8337260E-01
       -1   -1    0    0    0  501  0.00000000000E+00  0.00000000000E+00  0.78730369136E+03  0.78730369138E+03  0.50400001928E-02 0. -1.
        1   -1    0    0  501    0  0.00000000000E+00  0.00000000000E+00 -0.23029804149E+04  0.23029804149E+04  0.50400001928E-02 0.  1.
    10030    2    1    2    0    0  0.00000000000E+00  0.00000000000E+00 -0.15156767235E+04  0.30902841063E+04  0.26930614414E+04 0.  0.
        3    1    3    3  502    0 -0.97229515875E+03 -0.86370906654E+03 -0.35737329538E+03  0.13487278858E+04  0.10100000352E+00 0.  1.
       -3    1    3    3    0  502  0.97229515875E+03  0.86370906654E+03 -0.11583034281E+04  0.17415562205E+04  0.10100000352E+00 0. -1.
</event>
<event>
 5   0  0.1286641E-05  0.2694547E+04  0.7818609E-02  0.8336776E-01
       -2   -1    0    0    0  501  0.00000000000E+00  0.00000000000E+00  0.15051484244E+04  0.15051484244E+04  0.25500000920E-02 0.  1.
        2   -1    0    0  501    0  0.00000000000E+00  0.00000000000E+00 -0.12059582285E+04  0.12059582285E+04  0.25500000920E-02 0. -1.
    10030    2    1    2    0    0  0.00000000000E+00  0.00000000000E+00  0.29919019582E+03  0.27111066529E+04  0.26945471809E+04 0.  0.
        4    1    3    3  502    0 -0.27752928187E+03  0.28739811285E+02  0.14757605949E+04  0.15019052652E+04  0.12699999809E+01 0.  1.
       -4    1    3    3    0  502  0.27752928187E+03 -0.28739811285E+02 -0.11765703991E+04  0.12092013877E+04  0.12699999809E+01 0. -1.
</event>
<event>
 5   0  0.1286641E-05  0.2529168E+04  0.7818609E-02  0.8392667E-01
        2   -1    0    0  501    0  0.00000000000E+00  0.00000000000E+00  0.12374758177E+04  0.12374758177E+04  0.25500000920E-02 0. -1.
       -2   -1    0    0    0  501  0.00000000000E+00  0.00000000000E+00 -0.12922863204E+04  0.12922863204E+04  0.25500000920E-02 0.  1.
    10030    2    1    2    0    0  0.00000000000E+00  0.00000000000E+00 -0.54810502737E+02  0.25297621381E+04  0.25291682989E+04 0.  0.
        4    1    3    3  502    0 -0.43116796569E+03 -0.45353292625E+03 -0.11265597730E+04  0.12886956448E+04  0.12699999809E+01 0.  1.
       -4    1    3    3    0  502  0.43116796569E+03  0.45353292625E+03  0.10717492702E+04  0.12410664934E+04  0.12699999809E+01 0. -1.
</event>
<event>
 5   0  0.1286641E-05  0.2709529E+04  0.7818609E-02  0.8331920E-01
       -2   -1    0    0    0  501  0.00000000000E+00  0.00000000000E+00  0.93986592551E+03  0.93986592552E+03  0.25500000920E-02 0.  1.
        2   -1    0    0  501    0  0.00000000000E+00  0.00000000000E+00 -0.19528171825E+04  0.19528171825E+04  0.25500000920E-02 0. -1.
    10030    2    1    2    0    0  0.00000000000E+00  0.00000000000E+00 -0.10129512570E+04  0.28926831081E+04  0.27095286148E+04 0.  0.
        4    1    3    3  502    0 -0.78928297495E+03  0.10352219183E+03 -0.16767971585E+04  0.18561613029E+04  0.12699999809E+01 0. -1.
       -4    1    3    3    0  502  0.78928297495E+03 -0.10352219183E+03  0.66384590148E+03  0.10365218052E+04  0.12699999809E+01 0.  1.
</event>
<event>
 5   0  0.1232559E-05  0.2748269E+04  0.7818609E-02  0.8319511E-01
        2   -1    0    0  501    0  0.00000000000E+00  0.00000000000E+00  0.28763361842E+04  0.28763361842E+04  0.25500000920E-02 0.  1.
       -2   -1    0    0    0  501  0.00000000000E+00  0.00000000000E+00 -0.65647581939E+03  0.65647581939E+03  0.25500000920E-02 0. -1.
    10030    2    1    2    0    0  0.00000000000E+00  0.00000000000E+00  0.22198603648E+04  0.35328120036E+04  0.27482686574E+04 0.  0.
        3    1    3    3  502    0 -0.98376375844E+03  0.89411384544E+03  0.15571076826E+04  0.20473922552E+04  0.10100000352E+00 0.  1.
       -3    1    3    3    0  502  0.98376375844E+03 -0.89411384544E+03  0.66275268219E+03  0.14854197484E+04  0.10100000352E+00 0. -1.
</event>
<event>
 5   0  0.4826140E-06  0.2715124E+04  0.7818609E-02  0.8330115E-01
        1   -1    0    0  501    0  0.00000000000E+00  0.00000000000E+00  0.15881549716E+04  0.15881549716E+04  0.50400001928E-02 0.  1.
       -1   -1    0    0    0  501  0.00000000000E+00  0.00000000000E+00 -0.11604498153E+04  0.11604498153E+04  0.50400001928E-02 0. -1.
    10030    2    1    2    0    0  0.00000000000E+00  0.00000000000E+00  0.42770515632E+03  0.27486047869E+04  0.27151236756E+04 0.  0.
        1    1    3    3  502    0 -0.11133245784E+04  0.64092936021E+03  0.65823269219E+03  0.14434515367E+04  0.50400001928E-02 0.  1.
       -1    1    3    3    0  502  0.11133245784E+04 -0.64092936021E+03 -0.23052753587E+03  0.13051532502E+04  0.50400001928E-02 0. -1.
</event>
<event>
 5   0  0.1220908E-05  0.2622638E+04  0.7818609E-02  0.8360552E-01
        2   -1    0    0  501    0  0.00000000000E+00  0.00000000000E+00  0.26360762001E+04  0.26360762001E+04  0.25500000920E-02 0.  1.
       -2   -1    0    0    0  501  0.00000000000E+00  0.00000000000E+00 -0.65231690398E+03  0.65231690399E+03  0.25500000920E-02 0. -1.
    10030    2    1    2    0    0  0.00000000000E+00  0.00000000000E+00  0.19837592961E+04  0.32883931041E+04  0.26226376536E+04 0.  0.
        2    1    3    3  502    0  0.65288071950E+03 -0.11256490288E+04  0.78885628939E+03  0.15217204787E+04  0.25500000920E-02 0.  1.
       -2    1    3    3    0  502 -0.65288071950E+03  0.11256490288E+04  0.11949030067E+04  0.17666726254E+04  0.25500000920E-02 0. -1.
</event>
<event>
 5   0  0.1276517E-05  0.3044598E+04  0.7818609E-02  0.8231109E-01
        2   -1    0    0  501    0  0.00000000000E+00  0.00000000000E+00  0.17716059003E+04  0.17716059003E+04  0.25500000920E-02 0.  1.
       -2   -1    0    0    0  501  0.00000000000E+00  0.00000000000E+00 -0.13080757812E+04  0.13080757812E+04  0.25500000920E-02 0. -1.
    10030    2    1    2    0    0  0.00000000000E+00  0.00000000000E+00  0.46353011913E+03  0.30796816815E+04  0.30445983459E+04 0.  0.
        1    1    3    3  502    0 -0.12402878485E+04 -0.28296406229E+03  0.10774686793E+04  0.16671296778E+04  0.50400001928E-02 0.  1.
       -1    1    3    3    0  502  0.12402878485E+04  0.28296406229E+03 -0.61393856014E+03  0.14125520037E+04  0.50400001928E-02 0. -1.
</event>
<event>
 5   0  0.4846214E-06  0.2688907E+04  0.7818609E-02  0.8338613E-01
        1   -1    0    0  501    0  0.00000000000E+00  0.00000000000E+00  0.18362668078E+04  0.18362668078E+04  0.50400001928E-02 0.  1.
       -1   -1    0    0    0  501  0.00000000000E+00  0.00000000000E+00 -0.98436412451E+03  0.98436412452E+03  0.50400001928E-02 0. -1.
    10030    2    1    2    0    0  0.00000000000E+00  0.00000000000E+00  0.85190268333E+03  0.28206309324E+04  0.26889069666E+04 0.  0.
        2    1    3    3  502    0 -0.22724151597E+03 -0.98682676778E+03 -0.50172970939E+03  0.11301320620E+04  0.25500000920E-02 0. -1.
       -2    1    3    3    0  502  0.22724151597E+03  0.98682676778E+03  0.13536323927E+04  0.16904988704E+04  0.25500000920E-02 0.  1.
</event>
<event>
 5   0  0.4846214E-06  0.2648568E+04  0.7818609E-02  0.8351888E-01
       -1   -1    0    0    0  501  0.00000000000E+00  0.00000000000E+00  0.83440013893E+03  0.83440013894E+03  0.50400001928E-02 0. -1.
        1   -1    0    0  501    0  0.00000000000E+00  0.00000000000E+00 -0.21017834437E+04  0.21017834437E+04  0.50400001928E-02 0.  1.
    10030    2    1    2    0    0  0.00000000000E+00  0.00000000000E+00 -0.12673833048E+04  0.29361835827E+04  0.26485682151E+04 0.  0.
        2    1    3    3  502    0  0.72126921296E+03 -0.46100776420E+03 -0.17538482422E+04  0.19515996241E+04  0.25500000920E-02 0.  1.
       -2    1    3    3    0  502 -0.72126921296E+03  0.46100776420E+03  0.48646493736E+03  0.98458395858E+03  0.25500000920E-02 0. -1.
</event>
<event>
 5   0  0.1276517E-05  0.2724267E+04  0.7818609E-02  0.8327174E-01
        2   -1    0    0  501    0  0.00000000000E+00  0.00000000000E+00  0.21158718162E+04  0.21158718162E+04  0.25500000920E-02 0. -1.
       -2   -1    0    0    0  501  0.00000000000E+00  0.00000000000E+00 -0.87689968366E+03  0.87689968367E+03  0.25500000920E-02 0.  1.
    10030    2    1    2    0    0  0.00000000000E+00  0.00000000000E+00  0.12389721325E+04  0.29927714999E+04  0.27242667463E+04 0.  0.
        1    1    3    3  502    0  0.41725572867E+03 -0.84585365666E+03  0.16991180798E+04  0.19433406806E+04  0.50400001928E-02 0. -1.
       -1    1    3    3    0  502 -0.41725572867E+03  0.84585365666E+03 -0.46014594730E+03  0.10494308193E+04  0.50400001928E-02 0.  1.
</event>
<event>
 5   0  0.1286641E-05  0.2710146E+04  0.7818609E-02  0.8331720E-01
        2   -1    0    0  501    0  0.00000000000E+00  0.00000000000E+00  0.10284042351E+04  0.10284042351E+04  0.25500000920E-02 0.  1.
       -2   -1    0    0    0  501  0.00000000000E+00  0.00000000000E+00 -0.17855068193E+04  0.17855068193E+04  0.25500000920E-02 0. -1.
    10030    2    1    2    0    0  0.00000000000E+00  0.00000000000E+00 -0.75710258413E+03  0.28139110544E+04  0.27101459554E+04 0.  0.
        4    1    3    3  502    0  0.90211998522E+03 -0.85547703613E+03 -0.93822563796E+03  0.15575398511E+04  0.12699999809E+01 0.  1.
       -4    1    3    3    0  502 -0.90211998522E+03  0.85547703613E+03  0.18112305383E+03  0.12563712033E+04  0.12699999809E+01 0. -1.
</event>
<event>
 5   0  0.1286641E-05  0.2660022E+04  0.7818609E-02  0.8348094E-01
       -2   -1    0    0    0  501  0.00000000000E+00  0.00000000000E+00  0.12539809536E+04  0.12539809536E+04  0.25500000920E-02 0.  1.
        2   -1    0    0  501    0  0.00000000000E+00  0.00000000000E+00 -0.14106503801E+04  0.14106503801E+04  0.25500000920E-02 0. -1.
    10030    2    1    2    0    0  0.00000000000E+00  0.00000000000E+00 -0.15666942649E+03  0.26646313337E+04  0.26600215855E+04 0.  0.
        4    1    3    3  502    0 -0.59838143391E+03 -0.92847577128E+03 -0.82042854576E+03  0.13759477497E+04  0.12699999809E+01 0.  1.
       -4    1    3    3    0  502  0.59838143391E+03  0.92847577128E+03  0.66375911928E+03  0.12886835840E+04  0.12699999809E+01 0. -1.
</event>
<event>
 5   0  0.5152288E-06  0.2759156E+04  0.7818609E-02  0.8316062E-01
        1   -1    0    0  501    0  0.00000000000E+00  0.00000000000E+00  0.16200953173E+04  0.16200953173E+04  0.50400001928E-02 0.  1.
       -1   -1    0    0    0  501  0.00000000000E+00  0.00000000000E+00 -0.11747679709E+04  0.11747679709E+04  0.50400001928E-02 0. -1.
    10030    2    1    2    0    0  0.00000000000E+00  0.00000000000E+00  0.44532734648E+03  0.27948632882E+04  0.27591564570E+04 0.  0.
        3    1    3    3  502    0  0.58476748067E+03  0.71369443530E+03  0.12615697437E+04  0.15629686439E+04  0.10100000352E+00 0.  1.
       -3    1    3    3    0  502 -0.58476748067E+03 -0.71369443530E+03 -0.81624239723E+03  0.12318946443E+04  0.10100000352E+00 0. -1.
</event>
<event>
 5   0  0.4824715E-06  0.2689849E+04  0.7818609E-02  0.8338306E-01
        1   -1    0    0  501    0  0.00000000000E+00  0.00000000000E+00  0.10908100910E+04  0.10908100910E+04  0.50400001928E-02 0. -1.
       -1   -1    0    0    0  501  0.00000000000E+00  0.00000000000E+00 -0.16582374970E+04  0.16582374970E+04  0.50400001928E-02 0.  1.
    10030    2    1    2    0    0  0.00000000000E+00  0.00000000000E+00 -0.56742740605E+03  0.27490475880E+04  0.26898492114E+04 0.  0.
        5    1    3    3  502    0  0.80488141643E+03  0.70406733305E+03  0.54986855464E+03  0.12024651435E+04  0.46999998093E+01 0. -1.
       -5    1    3    3    0  502 -0.80488141643E+03 -0.70406733305E+03 -0.11172959607E+04  0.15465824445E+04  0.46999998093E+01 0.  1.
</event>
<event>
 5   0  0.1220908E-05  0.2706705E+04  0.7818609E-02  0.8332833E-01
        2   -1    0    0  501    0  0.00000000000E+00  0.00000000000E+00  0.20819149192E+04  0.20819149192E+04  0.25500000920E-02 0.  1.
       -2   -1    0    0    0  501  0.00000000000E+00  0.00000000000E+00 -0.87974937071E+03  0.87974937072E+03  0.25500000920E-02 0. -1.
    10030    2    1    2    0    0  0.00000000000E+00  0.00000000000E+00  0.12021655485E+04  0.29616642900E+04  0.27067052592E+04 0.  0.
        2    1    3    3  502    0  0.88003970539E+03 -0.88858569018E+03  0.11670144504E+04  0.17105487831E+04  0.25500000920E-02 0.  1.
       -2    1    3    3    0  502 -0.88003970539E+03  0.88858569018E+03  0.35151098144E+02  0.12511155069E+04  0.25500000920E-02 0. -1.
</event>
<event>
 5   0  0.4846214E-06  0.2698042E+04  0.7818609E-02  0.8335641E-01
        1   -1    0    0  501    0  0.00000000000E+00  0.00000000000E+00  0.18853696032E+04  0.18853696032E+04  0.50400001928E-02 0. -1.
       -1   -1    0    0    0  501  0.00000000000E+00  0.00000000000E+00 -0.96525224721E+03  0.96525224723E+03  0.50400001928E-02 0.  1.
    10030    2    1    2    0    0  0.00000000000E+00  0.00000000000E+00  0.92011735599E+03  0.28506218504E+04  0.26980416945E+04 0.  0.
        2    1    3    3  502    0 -0.74652745568E+02 -0.39793498694E+03  0.18196619374E+04  0.18641606296E+04  0.25500000920E-02 0. -1.
       -2    1    3    3    0  502  0.74652745568E+02  0.39793498694E+03 -0.89954458145E+03  0.98646122087E+03  0.25500000920E-02 0.  1.
</event>
<event>
 5   0  0.4846214E-06  0.2685814E+04  0.7818609E-02  0.8339623E-01
       -1   -1    0    0    0  501  0.00000000000E+00  0.00000000000E+00  0.11126742282E+04  0.11126742282E+04  0.50400001928E-02 0.  1.
        1   -1    0    0  501    0  0.00000000000E+00  0.00000000000E+00 -0.16207792738E+04  0.16207792738E+04  0.50400001928E-02 0. -1.
    10030    2    1    2    0    0  0.00000000000E+00  0.00000000000E+00 -0.50810504558E+03  0.27334535019E+04  0.26858140870E+04 0.  0.
        2    1    3    3  502    0  0.39242414507E+03 -0.12716441516E+03  0.10465951279E+04  0.11249572702E+04  0.25500000920E-02 0.  1.
       -2    1    3    3    0  502 -0.39242414507E+03  0.12716441516E+03 -0.15547001735E+04  0.16084962317E+04  0.25500000920E-02 0. -1.
</event>
<event>
 5   0  0.4826140E-06  0.2568935E+04  0.7818609E-02  0.8378831E-01
        1   -1    0    0  501    0  0.00000000000E+00  0.00000000000E+00  0.18142253874E+04  0.18142253874E+04  0.50400001928E-02 0. -1.
       -1   -1    0    0    0  501  0.00000000000E+00  0.00000000000E+00 -0.90939987124E+03  0.90939987126E+03  0.50400001928E-02 0.  1.
    10030    2    1    2    0    0  0.00000000000E+00  0.00000000000E+00  0.90482551617E+03  0.27236252587E+04  0.25689346693E+04 0.  0.
        1    1    3    3  502    0 -0.11821916079E+04 -0.32178677680E+02 -0.79012300816E+02  0.11852659654E+04  0.50400001928E-02 0.  1.
       -1    1    3    3    0  502  0.11821916079E+04  0.32178677680E+02  0.98383781698E+03  0.15383592933E+04  0.50400001928E-02 0. -1.
</event>
<event>
 5   0  0.1220908E-05  0.2681823E+04  0.7818609E-02  0.8340927E-01
        2   -1    0    0  501    0  0.00000000000E+00  0.00000000000E+00  0.28650118600E+04  0.28650118600E+04  0.25500000920E-02 0. -1.
       -2   -1    0    0    0  501  0.00000000000E+00  0.00000000000E+00 -0.62758664815E+03  0.62758664815E+03  0.25500000920E-02 0.  1.
    10030    2    1    2    0    0  0.00000000000E+00  0.00000000000E+00  0.22374252118E+04  0.34925985081E+04  0.26818226564E+04 0.  0.
        2    1    3    3  502    0  0.29184421288E+03  0.10343430683E+04  0.74411745078E+02  0.10773002067E+04  0.25500000920E-02 0.  1.
       -2    1    3    3    0  502 -0.29184421288E+03 -0.10343430683E+04  0.21630134667E+04  0.24152983014E+04  0.25500000920E-02 0. -1.
</event>
<event>
 5   0  0.1286641E-05  0.2676328E+04  0.7818609E-02  0.8342727E-01
       -2   -1    0    0    0  501  0.00000000000E+00  0.00000000000E+00  0.69031480807E+03  0.69031480807E+03  0.25500000920E-02 0. -1.
        2   -1    0    0  501    0  0.00000000000E+00  0.00000000000E+00 -0.25940087525E+04  0.25940087525E+04  0.25500000920E-02 0.  1.
    10030    2    1    2    0    0  0.00000000000E+00  0.00000000000E+00 -0.19036939445E+04  0.32843235606E+04  0.26763278231E+04 0.  0.
        4    1    3    3  502    0 -0.98858127591E+03  0.90184525522E+03 -0.94208820387E+03  0.16365053010E+04  0.12699999809E+01 0.  1.
       -4    1    3    3    0  502  0.98858127591E+03 -0.90184525522E+03 -0.96160574060E+03  0.16478182596E+04  0.12699999809E+01 0. -1.
</event>
<event>
 5   0  0.4826140E-06  0.2653488E+04  0.7818609E-02  0.8350256E-01
       -1   -1    0    0    0  501  0.00000000000E+00  0.00000000000E+00  0.87474138456E+03  0.87474138457E+03  0.50400001928E-02 0.  1.
        1   -1    0    0  501    0  0.00000000000E+00  0.00000000000E+00 -0.20123083678E+04  0.20123083678E+04  0.50400001928E-02 0. -1.
    10030    2    1    2    0    0  0.00000000000E+00  0.00000000000E+00 -0.11375669833E+04  0.28870497524E+04  0.26534878239E+04 0.  0.
        1    1    3    3  502    0  0.12740219524E+04  0.36984406347E+03 -0.58863328012E+03  0.14513461699E+04  0.50400001928E-02 0. -1.
       -1    1    3    3    0  502 -0.12740219524E+04 -0.36984406347E+03 -0.54893370314E+03  0.14357035825E+04  0.50400001928E-02 0.  1.
</event>
<event>
 5   0  0.1276517E-05  0.2742775E+04  0.7818609E-02  0.8321258E-01
       -2   -1    0    0    0  501  0.00000000000E+00  0.00000000000E+00  0.18666899737E+04  0.18666899737E+04  0.25500000920E-02 0. -1.
        2   -1    0    0  501    0  0.00000000000E+00  0.00000000000E+00 -0.10075075306E+04  0.10075075306E+04  0.25500000920E-02 0.  1.
    10030    2    1    2    0    0  0.00000000000E+00  0.00000000000E+00  0.85918244317E+03  0.28741975043E+04  0.27427753869E+04 0.  0.
        1    1    3    3  502    0 -0.54070060235E+03  0.11350697300E+04 -0.14434121169E+03  0.12655334128E+04  0.50400001928E-02 0. -1.
       -1    1    3    3    0  502  0.54070060235E+03 -0.11350697300E+04  0.10035236549E+04  0.16086640915E+04  0.50400001928E-02 0.  1.
</event>
<event>
 5   0  0.4846214E-06  0.2696358E+04  0.7818609E-02  0.8336188E-01
        1   -1    0    0  501    0  0.00000000000E+00  0.00000000000E+00  0.13525677890E+04  0.13525677890E+04  0.50400001928E-02 0. -1.
       -1   -1    0    0    0  501  0.00000000000E+00  0.00000000000E+00 -0.13438043842E+04  0.13438043842E+04  0.50400001928E-02 0.  1.
    10030    2    1    2    0    0  0.00000000000E+00  0.00000000000E+00  0.87634048236E+01  0.26963721733E+04  0.26963579324E+04 0.  0.
        2    1    3    3  502    0  0.80238298935E+03  0.93935373902E+03  0.54418323459E+03  0.13499404807E+04  0.25500000920E-02 0.  1.
       -2    1    3    3    0  502 -0.80238298935E+03 -0.93935373902E+03 -0.53541982977E+03  0.13464316926E+04  0.25500000920E-02 0. -1.
</event>
<event>
 5   0  0.4826140E-06  0.2726996E+04  0.7818609E-02  0.8326299E-01
        1   -1    0    0  501    0  0.00000000000E+00  0.00000000000E+00  0.18039173948E+04  0.18039173948E+04  0.50400001928E-02 0. -1.
       -1   -1    0    0    0  501  0.00000000000E+00  0.00000000000E+00 -0.10306052130E+04  0.10306052131E+04  0.50400001928E-02 0.  1.
    10030    2    1    2    0    0  0.00000000000E+00  0.00000000000E+00  0.77331218170E+03  0.28345226078E+04  0.27269959083E+04 0.  0.
        1    1    3    3  502    0 -0.13555414565E+03  0.13544140986E+04  0.30406096783E+03  0.13947277688E+04  0.50400001928E-02 0.  1.
       -1    1    3    3    0  502  0.13555414565E+03 -0.13544140986E+04  0.46925121387E+03  0.14397948390E+04  0.50400001928E-02 0. -1.
</event>
<event>
 5   0  0.5152288E-06  0.2778411E+04  0.7818609E-02  0.8310002E-01
       -1   -1    0    0    0  501  0.00000000000E+00  0.00000000000E+00  0.97539007601E+03  0.97539007602E+03  0.50400001928E-02 0. -1.
        1   -1    0    0  501    0  0.00000000000E+00  0.00000000000E+00 -0.19785844897E+04  0.19785844897E+04  0.50400001928E-02 0.  1.
    10030    2    1    2    0    0  0.00000000000E+00  0.00000000000E+00 -0.10031944137E+04  0.29539745657E+04  0.27784108234E+04 0.  0.
        3    1    3    3  502    0  0.60858850528E+03  0.80191487448E+03 -0.15193992313E+04  0.18226413440E+04  0.10100000352E+00 0.  1.
       -3    1    3    3    0  502 -0.60858850528E+03 -0.80191487448E+03  0.51620481760E+03  0.11313332217E+04  0.10100000352E+00 0. -1.
</event>
<event>
 5   0  0.4826140E-06  0.2701717E+04  0.7818609E-02  0.8334448E-01
       -1   -1    0    0    0  501  0.00000000000E+00  0.00000000000E+00  0.11732339460E+04  0.11732339461E+04  0.50400001928E-02 0. -1.
        1   -1    0    0  501    0  0.00000000000E+00  0.00000000000E+00 -0.15553747309E+04  0.15553747309E+04  0.50400001928E-02 0.  1.
    10030    2    1    2    0    0  0.00000000000E+00  0.00000000000E+00 -0.38214078483E+03  0.27286086769E+04  0.27017168120E+04 0.  0.
        1    1    3    3  502    0 -0.88390442166E+03 -0.19080971010E+03  0.82247382643E+03  0.12223577902E+04  0.50400001928E-02 0. -1.
       -1    1    3    3    0  502  0.88390442166E+03  0.19080971010E+03 -0.12046146113E+04  0.15062508867E+04  0.50400001928E-02 0.  1.
</event>
<event>
 5   0  0.4826140E-06  0.2714730E+04  0.7818609E-02  0.8330241E-01
        1   -1    0    0  501    0  0.00000000000E+00  0.00000000000E+00  0.25750931671E+04  0.25750931671E+04  0.50400001928E-02 0.  1.
       -1   -1    0    0    0  501  0.00000000000E+00  0.00000000000E+00 -0.71548489107E+03  0.71548489109E+03  0.50400001928E-02 0. -1.
    10030    2    1    2    0    0  0.00000000000E+00  0.00000000000E+00  0.18596082761E+04  0.32905780582E+04  0.27147303765E+04 0.  0.
        1    1    3    3  502    0 -0.15956024000E+03  0.12315008693E+04  0.26547144890E+03  0.12698539095E+04  0.50400001928E-02 0. -1.
       -1    1    3    3    0  502  0.15956024000E+03 -0.12315008693E+04  0.15941368272E+04  0.20207241487E+04  0.50400001928E-02 0.  1.
</event>
<event>
 5   0  0.4846214E-06  0.2691091E+04  0.7818609E-02  0.8337901E-01
        1   -1    0    0  501    0  0.00000000000E+00  0.00000000000E+00  0.22327000814E+04  0.22327000814E+04  0.50400001928E-02 0. -1.
       -1   -1    0    0    0  501  0.00000000000E+00  0.00000000000E+00 -0.81089826861E+03  0.81089826863E+03  0.50400001928E-02 0.  1.
    10030    2    1    2    0    0  0.00000000000E+00  0.00000000000E+00  0.14218018128E+04  0.30435983500E+04  0.26910909538E+04 0.  0.
        2    1    3    3  502    0  0.70646943900E+03  0.11173304815E+04  0.42710079701E+03  0.13892233672E+04  0.25500000920E-02 0. -1.
       -2    1    3    3    0  502 -0.70646943900E+03 -0.11173304815E+04  0.99470101578E+03  0.16543749829E+04  0.25500000920E-02 0.  1.
</event>
<event>
 5   0  0.4826140E-06  0.2725621E+04  0.7818609E-02  0.8326740E-01
        1   -1    0    0  501    0  0.00000000000E+00  0.00000000000E+00  0.14529631572E+04  0.14529631572E+04  0.50400001928E-02 0. -1.
       -1   -1    0    0    0  501  0.00000000000E+00  0.00000000000E+00 -0.12782512255E+04  0.12782512255E+04  0.50400001928E-02 0.  1.
    10030    2    1    2    0    0  0.00000000000E+00  0.00000000000E+00  0.17471193174E+03  0.27312143827E+04  0.27256206165E+04 0.  0.
        1    1    3    3  502    0 -0.64065409782E+03  0.51886618045E+03  0.11747522290E+04  0.14351663966E+04  0.50400001928E-02 0. -1.
       -1    1    3    3    0  502  0.64065409782E+03 -0.51886618045E+03 -0.10000402973E+04  0.12960479862E+04  0.50400001928E-02 0.  1.
</event>
<event>
 5   0  0.1220908E-05  0.2718301E+04  0.7818609E-02  0.8329091E-01
       -2   -1    0    0    0  501  0.00000000000E+00  0.00000000000E+00  0.14734921633E+04  0.14734921633E+04  0.25500000920E-02 0.  1.
        2   -1    0    0  501    0  0.00000000000E+00  0.00000000000E+00 -0.12536816061E+04  0.12536816061E+04  0.25500000920E-02 0. -1.
    10030    2    1    2    0    0  0.00000000000E+00  0.00000000000E+00  0.21981055721E+03  0.27271737693E+04  0.27183009559E+04 0.  0.
        2    1    3    3  502    0 -0.74025308208E+03  0.92386539012E+03 -0.55994775248E+03  0.13095966440E+04  0.25500000920E-02 0. -1.
       -2    1    3    3    0  502  0.74025308208E+03 -0.92386539012E+03  0.77975830968E+03  0.14175771253E+04  0.25500000920E-02 0.  1.
</event>
<event>
 5   0  0.4846214E-06  0.2694957E+04  0.7818609E-02  0.8336643E-01
       -1   -1    0    0    0  501  0.00000000000E+00  0.00000000000E+00  0.13048325803E+04  0.13048325803E+04  0.50400001928E-02 0. -1.
        1   -1    0    0  501    0  0.00000000000E+00  0.00000000000E+00 -0.13915179270E+04  0.13915179270E+04  0.50400001928E-02 0.  1.
    10030    2    1    2    0    0  0.00000000000E+00  0.00000000000E+00 -0.86685346675E+02  0.26963505074E+04  0.26949567175E+04 0.  0.
        2    1    3    3  502    0  0.10921362092E+03  0.11214177985E+04  0.69608788059E+03  0.13244031982E+04  0.25500000920E-02 0. -1.
       -2    1    3    3    0  502 -0.10921362092E+03 -0.11214177985E+04 -0.78277322726E+03  0.13719473092E+04  0.25500000920E-02 0.  1.
</event>
<event>
 5   0  0.4824715E-06  0.2689854E+04  0.7818609E-02  0.8338305E-01
        1   -1    0    0  501    0  0.00000000000E+00  0.00000000000E+00  0.18590472947E+04  0.18590472947E+04  0.50400001928E-02 0. -1.
       -1   -1    0    0    0  501  0.00000000000E+00  0.00000000000E+00 -0.97298666444E+03  0.97298666445E+03  0.50400001928E-02 0.  1.
    10030    2    1    2    0    0  0.00000000000E+00  0.00000000000E+00  0.88606063028E+03  0.28320339592E+04  0.26898536959E+04 0.  0.
        5    1    3    3  502    0  0.33974018008E+02 -0.12183648510E+04 -0.15556273449E+03  0.12287347144E+04  0.46999998093E+01 0.  1.
       -5    1    3    3    0  502 -0.33974018008E+02  0.12183648510E+04  0.10416233648E+04  0.16032992447E+04  0.46999998093E+01 0. -1.
</event>
<event>
 5   0  0.1276517E-05  0.2662423E+04  0.7818609E-02  0.8347301E-01
        2   -1    0    0  501    0  0.00000000000E+00  0.00000000000E+00  0.17424842692E+04  0.17424842692E+04  0.25500000920E-02 0. -1.
       -2   -1    0    0    0  501  0.00000000000E+00  0.00000000000E+00 -0.10170097482E+04  0.10170097482E+04  0.25500000920E-02 0.  1.
    10030    2    1    2    0    0  0.00000000000E+00  0.00000000000E+00  0.72547452105E+03  0.27594940174E+04  0.26624225719E+04 0.  0.
        1    1    3    3  502    0 -0.10894999984E+04 -0.44802131840E+03 -0.27985958539E+03  0.12108074727E+04  0.50400001928E-02 0.  1.
       -1    1    3    3    0  502  0.10894999984E+04  0.44802131840E+03  0.10053341064E+04  0.15486865447E+04  0.50400001928E-02 0. -1.
</event>
<event>
 5   0  0.1276517E-05  0.2714516E+04  0.7818609E-02  0.8330310E-01
        2   -1    0    0  501    0  0.00000000000E+00  0.00000000000E+00  0.20049866629E+04  0.20049866629E+04  0.25500000920E-02 0. -1.
       -2   -1    0    0    0  501  0.00000000000E+00  0.00000000000E+00 -0.91878402030E+03  0.91878402030E+03  0.25500000920E-02 0.  1.
    10030    2    1    2    0    0  0.00000000000E+00  0.00000000000E+00  0.10862026426E+04  0.29237706832E+04  0.27145163155E+04 0.  0.
        1    1    3    3  502    0  0.10071518550E+04 -0.69914892553E+03 -0.84005454801E+02  0.12289104912E+04  0.50400001928E-02 0.  1.
       -1    1    3    3    0  502 -0.10071518550E+04  0.69914892553E+03  0.11702080974E+04  0.16948601919E+04  0.50400001928E-02 0. -1.
</event>
<event>
 5   0  0.1220908E-05  0.2662000E+04  0.7818609E-02  0.8347441E-01
        2   -1    0    0  501    0  0.00000000000E+00  0.00000000000E+00  0.20752843618E+04  0.20752843618E+04  0.25500000920E-02 0.  1.
       -2   -1    0    0    0  501  0.00000000000E+00  0.00000000000E+00 -0.85364708979E+03  0.85364708980E+03  0.25500000920E-02 0. -1.
    10030    2    1    2    0    0  0.00000000000E+00  0.00000000000E+00  0.12216372720E+04  0.29289314516E+04  0.26619995913E+04 0.  0.
        2    1    3    3  502    0 -0.33839378216E+03  0.79430115003E+03 -0.50374184515E+03  0.99959017368E+03  0.25500000920E-02 0. -1.
       -2    1    3    3    0  502  0.33839378216E+03 -0.79430115003E+03  0.17253791172E+04  0.19293412779E+04  0.25500000920E-02 0.  1.
</event>
<event>
 5   0  0.1261364E-05  0.2709466E+04  0.7818609E-02  0.8331940E-01
        2   -1    0    0  501    0  0.00000000000E+00  0.00000000000E+00  0.12695617321E+04  0.12695617321E+04  0.25500000920E-02 0. -1.
       -2   -1    0    0    0  501  0.00000000000E+00  0.00000000000E+00 -0.14456179093E+04  0.14456179093E+04  0.25500000920E-02 0.  1.
    10030    2    1    2    0    0  0.00000000000E+00  0.00000000000E+00 -0.17605617724E+03  0.27151796414E+04  0.27094657605E+04 0.  0.
        5    1    3    3  502    0 -0.56950670188E+03 -0.18998961964E+03  0.11289650039E+04  0.12786782274E+04  0.46999998093E+01 0. -1.
       -5    1    3    3    0  502  0.56950670188E+03  0.18998961964E+03 -0.13050211812E+04  0.14365014140E+04  0.46999998093E+01 0.  1.
</event>
<event>
 5   0  0.4756800E-06  0.2703834E+04  0.7818609E-02  0.8333762E-01
       -1   -1    0    0    0  501  0.00000000000E+00  0.00000000000E+00  0.11466108490E+04  0.11466108490E+04  0.50400001928E-02 0.  1.
        1   -1    0    0  501    0  0.00000000000E+00  0.00000000000E+00 -0.15939837429E+04  0.15939837429E+04  0.50400001928E-02 0. -1.
    10030    2    1    2    0    0  0.00000000000E+00  0.00000000000E+00 -0.44737289386E+03  0.27405945919E+04  0.27038336138E+04 0.  0.
        4    1    3    3  502    0  0.49771804392E+03 -0.39060424100E+03  0.98728811370E+03  0.11726185896E+04  0.12699999809E+01 0.  1.
       -4    1    3    3    0  502 -0.49771804392E+03  0.39060424100E+03 -0.14346610076E+04  0.15679760023E+04  0.12699999809E+01 0. -1.
</event>
<event>
 5   0  0.1276517E-05  0.2690467E+04  0.7818609E-02  0.8338105E-01
       -2   -1    0    0    0  501  0.00000000000E+00  0.00000000000E+00  0.23494489319E+04  0.23494489319E+04  0.25500000920E-02 0. -1.
        2   -1    0    0  501    0  0.00000000000E+00  0.00000000000E+00 -0.77024577976E+03  0.77024577976E+03  0.25500000920E-02 0.  1.
    10030    2    1    2    0    0  0.00000000000E+00  0.00000000000E+00  0.15792031521E+04  0.31196947117E+04  0.26904669666E+04 0.  0.
        1    1    3    3  502    0  0.71144630682E+03 -0.77623902486E+03  0.17603976942E+04  0.20512686107E+04  0.50400001928E-02 0. -1.
       -1    1    3    3    0  502 -0.71144630682E+03  0.77623902486E+03 -0.18119454209E+03  0.10684261010E+04  0.50400001928E-02 0.  1.
</event>
<event>
 5   0  0.4826140E-06  0.2674668E+04  0.7818609E-02  0.8343271E-01
        1   -1    0    0  501    0  0.00000000000E+00  0.00000000000E+00  0.14845880709E+04  0.14845880710E+04  0.50400001928E-02 0. -1.
       -1   -1    0    0    0  501  0.00000000000E+00  0.00000000000E+00 -0.12046860508E+04  0.12046860508E+04  0.50400001928E-02 0.  1.
    10030    2    1    2    0    0  0.00000000000E+00  0.00000000000E+00  0.27990202015E+03  0.26892741218E+04  0.26746682338E+04 0.  0.
        1    1    3    3  502    0 -0.14617655569E+03 -0.11849938763E+04 -0.46573751101E+03  0.12815964659E+04  0.50400001928E-02 0.  1.
       -1    1    3    3    0  502  0.14617655569E+03  0.11849938763E+04  0.74563953116E+03  0.14076776558E+04  0.50400001928E-02 0. -1.
</event>
<event>
 5   0  0.4846214E-06  0.2735423E+04  0.7818609E-02  0.8323602E-01
       -1   -1    0    0    0  501  0.00000000000E+00  0.00000000000E+00  0.13750156852E+04  0.13750156852E+04  0.50400001928E-02 0.  1.
        1   -1    0    0  501    0  0.00000000000E+00  0.00000000000E+00 -0.13604464483E+04  0.13604464483E+04  0.50400001928E-02 0. -1.
    10030    2    1    2    0    0  0.00000000000E+00  0.00000000000E+00  0.14569236866E+02  0.27354621335E+04  0.27354233349E+04 0.  0.
        2    1    3    3  502    0  0.43356470500E+03 -0.60306819421E+03 -0.11411939495E+04  0.13616142004E+04  0.25500000920E-02 0. -1.
       -2    1    3    3    0  502 -0.43356470500E+03  0.60306819421E+03  0.11557631864E+04  0.13738479331E+04  0.25500000920E-02 0.  1.
</event>
<event>
 5   0  0.4826140E-06  0.2682677E+04  0.7818609E-02  0.8340648E-01
        1   -1    0    0  501    0  0.00000000000E+00  0.00000000000E+00  0.12192938453E+04  0.12192938453E+04  0.50400001928E-02 0.  1.
       -1   -1    0    0    0  501  0.00000000000E+00  0.00000000000E+00 -0.14755995374E+04  0.14755995374E+04  0.50400001928E-02 0. -1.
    10030    2    1    2    0    0  0.00000000000E+00  0.00000000000E+00 -0.25630569214E+03  0.26948933828E+04  0.26826773449E+04 0.  0.
        1    1    3    3  502    0 -0.55385074984E+03  0.16461212482E+03 -0.13441780887E+04  0.14631003174E+04  0.50400001928E-02 0. -1.
       -1    1    3    3    0  502  0.55385074984E+03 -0.16461212482E+03  0.10878723965E+04  0.12317930654E+04  0.50400001928E-02 0.  1.
</event>
<event>
 5   0  0.4824715E-06  0.2657312E+04  0.7818609E-02  0.8348990E-01
       -1   -1    0    0    0  501  0.00000000000E+00  0.00000000000E+00  0.81631009236E+03  0.81631009237E+03  0.50400001928E-02 0. -1.
        1   -1    0    0  501    0  0.00000000000E+00  0.00000000000E+00 -0.21625686272E+04  0.21625686272E+04  0.50400001928E-02 0.  1.
    10030    2    1    2    0    0  0.00000000000E+00  0.00000000000E+00 -0.13462585349E+04  0.29788787196E+04  0.26573118717E+04 0.  0.
        5    1    3    3  502    0  0.74458007291E+03 -0.66283360119E+03  0.31154865394E+03  0.10444292803E+04  0.46999998093E+01 0. -1.
       -5    1    3    3    0  502 -0.74458007291E+03  0.66283360119E+03 -0.16578071888E+04  0.19344494393E+04  0.46999998093E+01 0.  1.
</event>
<event>
 5   0  0.4846214E-06  0.2721426E+04  0.7818609E-02  0.8328086E-01
       -1   -1    0    0    0  501  0.00000000000E+00  0.00000000000E+00  0.80064909074E+03  0.80064909076E+03  0.50400001928E-02 0.  1.
        1   -1    0    0  501    0  0.00000000000E+00  0.00000000000E+00 -0.23125489530E+04  0.23125489530E+04  0.50400001928E-02 0. -1.
    10030    2    1    2    0    0  0.00000000000E+00  0.00000000000E+00 -0.15118998622E+04  0.31131980437E+04  0.27214262559E+04 0.  0.
        2    1    3    3  502    0 -0.12805020101E+04 -0.22473829772E+03 -0.29644378924E+03  0.13334435198E+04  0.25500000920E-02 0. -1.
       -2    1    3    3    0  502  0.12805020101E+04  0.22473829772E+03 -0.12154560730E+04  0.17797545240E+04  0.25500000920E-02 0.  1.
</event>
<event>
 5   0  0.1276517E-05  0.2611824E+04  0.7818609E-02  0.8364196E-01
       -2   -1    0    0    0  501  0.00000000000E+00  0.00000000000E+00  0.95318329400E+03  0.95318329401E+03  0.25500000920E-02 0.  1.
        2   -1    0    0  501    0  0.00000000000E+00  0.00000000000E+00 -0.17891697903E+04  0.17891697903E+04  0.25500000920E-02 0. -1.
    10030    2    1    2    0    0  0.00000000000E+00  0.00000000000E+00 -0.83598649630E+03  0.27423530843E+04  0.26118244614E+04 0.  0.
        1    1    3    3  502    0 -0.12270007884E+04  0.44581180193E+03 -0.38273442354E+03  0.13604281446E+04  0.50400001928E-02 0. -1.
       -1    1    3    3    0  502  0.12270007884E+04 -0.44581180193E+03 -0.45325207276E+03  0.13819249397E+04  0.50400001928E-02 0.  1.
</event>
<event>
 5   0  0.1232559E-05  0.2714619E+04  0.7818609E-02  0.8330277E-01
       -2   -1    0    0    0  501  0.00000000000E+00  0.00000000000E+00  0.10556329751E+04  0.10556329751E+04  0.25500000920E-02 0.  1.
        2   -1    0    0  501    0  0.00000000000E+00  0.00000000000E+00 -0.17451979503E+04  0.17451979503E+04  0.25500000920E-02 0. -1.
    10030    2    1    2    0    0  0.00000000000E+00  0.00000000000E+00 -0.68956497521E+03  0.28008309254E+04  0.27146185768E+04 0.  0.
        3    1    3    3  502    0  0.19755586774E+03  0.11630386009E+04  0.34780451636E+03  0.12299004431E+04  0.10100000352E+00 0.  1.
       -3    1    3    3    0  502 -0.19755586774E+03 -0.11630386009E+04 -0.10373694916E+04  0.15709304823E+04  0.10100000352E+00 0. -1.
</event>
<event>
 5   0  0.4826140E-06  0.2705300E+04  0.7818609E-02  0.8333287E-01
        1   -1    0    0  501    0  0.00000000000E+00  0.00000000000E+00  0.15498889555E+04  0.15498889555E+04  0.50400001928E-02 0.  1.
       -1   -1    0    0    0  501  0.00000000000E+00  0.00000000000E+00 -0.11805119625E+04  0.11805119625E+04  0.50400001928E-02 0. -1.
    10030    2    1    2    0    0  0.00000000000E+00  0.00000000000E+00  0.36937699297E+03  0.27304009180E+04  0.27053003179E+04 0.  0.
        1    1    3    3  502    0  0.88391171444E+03 -0.51852242402E+03 -0.70639452741E+03  0.12446520203E+04  0.50400001928E-02 0. -1.
       -1    1    3    3    0  502 -0.88391171444E+03  0.51852242402E+03  0.10757715204E+04  0.14857488978E+04  0.50400001928E-02 0.  1.
</event>
<event>
 5   0  0.4846214E-06  0.2660742E+04  0.7818609E-02  0.8347856E-01
        1   -1    0    0  501    0  0.00000000000E+00  0.00000000000E+00  0.11792017954E+04  0.11792017954E+04  0.50400001928E-02 0. -1.
       -1   -1    0    0    0  501  0.00000000000E+00  0.00000000000E+00 -0.15009192622E+04  0.15009192622E+04  0.50400001928E-02 0.  1.
    10030    2    1    2    0    0  0.00000000000E+00  0.00000000000E+00 -0.32171746681E+03  0.26801210576E+04  0.26607417678E+04 0.  0.
        2    1    3    3  502    0 -0.12828476751E+04 -0.19486690216E+03  0.13490448378E+03  0.13045575828E+04  0.25500000920E-02 0. -1.
       -2    1    3    3    0  502  0.12828476751E+04  0.19486690216E+03 -0.45662195059E+03  0.13755634747E+04  0.25500000920E-02 0.  1.
</event>
<event>
 5   0  0.4826140E-06  0.2673119E+04  0.7818609E-02  0.8343780E-01
        1   -1    0    0  501    0  0.00000000000E+00  0.00000000000E+00  0.24132356759E+04  0.24132356759E+04  0.50400001928E-02 0. -1.
       -1   -1    0    0    0  501  0.00000000000E+00  0.00000000000E+00 -0.74024707272E+03  0.74024707273E+03  0.50400001928E-02 0.  1.
    10030    2    1    2    0    0  0.00000000000E+00  0.00000000000E+00  0.16729886031E+04  0.31534827486E+04  0.26731185120E+04 0.  0.
        1    1    3    3  502    0 -0.26354858720E+03  0.11821834516E+04  0.15031824809E+04  0.19304334077E+04  0.50400001928E-02 0. -1.
       -1    1    3    3    0  502  0.26354858720E+03 -0.11821834516E+04  0.16980612228E+03  0.12230493408E+04  0.50400001928E-02 0.  1.
</event>
<event>
 5   0  0.4756800E-06  0.2717756E+04  0.7818609E-02  0.8329267E-01
        1   -1    0    0  501    0  0.00000000000E+00  0.00000000000E+00  0.33021951488E+04  0.33021951488E+04  0.50400001928E-02 0.  1.
       -1   -1    0    0    0  501  0.00000000000E+00  0.00000000000E+00 -0.55918850531E+03  0.55918850534E+03  0.50400001928E-02 0. -1.
    10030    2    1    2    0    0  0.00000000000E+00  0.00000000000E+00  0.27430066435E+04  0.38613836541E+04  0.27177561109E+04 0.  0.
        4    1    3    3  502    0 -0.10215288248E+04  0.74471539997E+03  0.66334426717E+03  0.14276376980E+04  0.12699999809E+01 0. -1.
       -4    1    3    3    0  502  0.10215288248E+04 -0.74471539997E+03  0.20796623763E+04  0.24337459562E+04  0.12699999809E+01 0.  1.
</event>
<event>
 5   0  0.5152288E-06  0.2688771E+04  0.7818609E-02  0.8338658E-01
        1   -1    0    0  501    0  0.00000000000E+00  0.00000000000E+00  0.26762844271E+04  0.26762844271E+04  0.50400001928E-02 0.  1.
       -1   -1    0    0    0  501  0.00000000000E+00  0.00000000000E+00 -0.67532871546E+03  0.67532871548E+03  0.50400001928E-02 0. -1.
    10030    2    1    2    0    0  0.00000000000E+00  0.00000000000E+00  0.20009557116E+04  0.33516131425E+04  0.26887705178E+04 0.  0.
        3    1    3    3  502    0  0.50917392238E+03 -0.10883111566E+04  0.24873848796E+03  0.12270085991E+04  0.10100000352E+00 0. -1.
       -3    1    3    3    0  502 -0.50917392238E+03  0.10883111566E+04  0.17522172236E+04  0.21246045434E+04  0.10100000352E+00 0.  1.
</event>
<event>
 5   0  0.1276517E-05  0.2683567E+04  0.7818609E-02  0.8340357E-01
        2   -1    0    0  501    0  0.00000000000E+00  0.00000000000E+00  0.12995700547E+04  0.12995700547E+04  0.25500000920E-02 0.  1.
       -2   -1    0    0    0  501  0.00000000000E+00  0.00000000000E+00 -0.13853683349E+04  0.13853683349E+04  0.25500000920E-02 0. -1.
    10030    2    1    2    0    0  0.00000000000E+00  0.00000000000E+00 -0.85798280232E+02  0.26849383895E+04  0.26835671802E+04 0.  0.
        1    1    3    3  502    0 -0.12320683205E+04  0.16957322703E+03 -0.54677912719E+03  0.13585708813E+04  0.50400001928E-02 0. -1.
       -1    1    3    3    0  502  0.12320683205E+04 -0.16957322703E+03  0.46098084695E+03  0.13263675082E+04  0.50400001928E-02 0.  1.
</event>
<event>
 5   0  0.4824715E-06  0.2692359E+04  0.7818609E-02  0.8337488E-01
       -1   -1    0    0    0  501  0.00000000000E+00  0.00000000000E+00  0.78127887072E+03  0.78127887074E+03  0.50400001928E-02 0. -1.
        1   -1    0    0  501    0  0.00000000000E+00  0.00000000000E+00 -0.23195301262E+04  0.23195301262E+04  0.50400001928E-02 0.  1.
    10030    2    1    2    0    0  0.00000000000E+00  0.00000000000E+00 -0.15382512555E+04  0.31008089969E+04  0.26923594690E+04 0.  0.
        5    1    3    3  502    0 -0.10926107593E+04  0.75611709113E+03 -0.10179222066E+04  0.16738276600E+04  0.46999998093E+01 0.  1.
       -5    1    3    3    0  502  0.10926107593E+04 -0.75611709113E+03 -0.52032904888E+03  0.14269813369E+04  0.46999998093E+01 0. -1.
</event>
<event>
 5   0  0.1220908E-05  0.2682364E+04  0.7818609E-02  0.8340750E-01
        2   -1    0    0  501    0  0.00000000000E+00  0.00000000000E+00  0.95714013977E+03  0.95714013977E+03  0.25500000920E-02 0.  1.
       -2   -1    0    0    0  501  0.00000000000E+00  0.00000000000E+00 -0.18793164850E+04  0.18793164850E+04  0.25500000920E-02 0. -1.
    10030    2    1    2    0    0  0.00000000000E+00  0.00000000000E+00 -0.92217634524E+03  0.28364566248E+04  0.26823640641E+04 0.  0.
        2    1    3    3  502    0 -0.12654708662E+04 -0.39148057117E+03 -0.68314110220E+03  0.14904211876E+04  0.25500000920E-02 0. -1.
       -2    1    3    3    0  502  0.12654708662E+04  0.39148057117E+03 -0.23903524304E+03  0.13460354372E+04  0.25500000920E-02 0.  1.
</event>
<event>
 5   0  0.4756800E-06  0.2694499E+04  0.7818609E-02  0.8336792E-01
        1   -1    0    0  501    0  0.00000000000E+00  0.00000000000E+00  0.12428587187E+04  0.12428587187E+04  0.50400001928E-02 0.  1.
       -1   -1    0    0    0  501  0.00000000000E+00  0.00000000000E+00 -0.14604079777E+04  0.14604079777E+04  0.50400001928E-02 0. -1.
    10030    2    1    2    0    0  0.00000000000E+00  0.00000000000E+00 -0.21754925897E+03  0.27032666964E+04  0.26944986829E+04 0.  0.
        4    1    3    3  502    0 -0.10191971238E+04  0.40340004701E+03  0.67709085477E+03  0.12883896979E+04  0.12699999809E+01 0.  1.
       -4    1    3    3    0  502  0.10191971238E+04 -0.40340004701E+03 -0.89464011374E+03  0.14148769986E+04  0.12699999809E+01 0. -1.
</event>
<event>
 5   0  0.1232559E-05  0.2633180E+04  0.7818609E-02  0.8357017E-01
       -2   -1    0    0    0  501  0.00000000000E+00  0.00000000000E+00  0.99383820457E+03  0.99383820457E+03  0.25500000920E-02 0.  1.
        2   -1    0    0  501    0  0.00000000000E+00  0.00000000000E+00 -0.17441561651E+04  0.17441561651E+04  0.25500000920E-02 0. -1.
    10030    2    1    2    0    0  0.00000000000E+00  0.00000000000E+00 -0.75031796053E+03  0.27379943697E+04  0.26331798508E+04 0.  0.
        3    1    3    3  502    0 -0.47939692611E+02  0.29834062466E+03 -0.17076132554E+04  0.17341419730E+04  0.10100000352E+00 0. -1.
       -3    1    3    3    0  502  0.47939692611E+02 -0.29834062466E+03  0.95729529487E+03  0.10038523966E+04  0.10100000352E+00 0.  1.
</event>
<event>
 5   0  0.4826140E-06  0.2677330E+04  0.7818609E-02  0.8342398E-01
       -1   -1    0    0    0  501  0.00000000000E+00  0.00000000000E+00  0.11962760927E+04  0.11962760927E+04  0.50400001928E-02 0.  1.
        1   -1    0    0  501    0  0.00000000000E+00  0.00000000000E+00 -0.14980017717E+04  0.14980017717E+04  0.50400001928E-02 0. -1.
    10030    2    1    2    0    0  0.00000000000E+00  0.00000000000E+00 -0.30172567899E+03  0.26942778643E+04  0.26773297938E+04 0.  0.
        1    1    3    3  502    0  0.37839152915E+03  0.11468760687E+04 -0.73202950739E+03  0.14122223854E+04  0.50400001928E-02 0. -1.
       -1    1    3    3    0  502 -0.37839152915E+03 -0.11468760687E+04  0.43030382839E+03  0.12820554789E+04  0.50400001928E-02 0.  1.
</event>
<event>
 5   0  0.1232559E-05  0.2703727E+04  0.7818609E-02  0.8333797E-01
        2   -1    0    0  501    0  0.00000000000E+00  0.00000000000E+00  0.14064596558E+04  0.14064596558E+04  0.25500000920E-02 0.  1.
       -2   -1    0    0    0  501  0.00000000000E+00  0.00000000000E+00 -0.12993865633E+04  0.12993865633E+04  0.25500000920E-02 0. -1.
    10030    2    1    2    0    0  0.00000000000E+00  0.00000000000E+00  0.10707309248E+03  0.27058462192E+04  0.27037268935E+04 0.  0.
        3    1    3    3  502    0  0.85111451054E+03 -0.82889959137E+03  0.69907264002E+03  0.13784676307E+04  0.10100000352E+00 0. -1.
       -3    1    3    3    0  502 -0.85111451054E+03  0.82889959137E+03 -0.59199954754E+03  0.13273785885E+04  0.10100000352E+00 0.  1.
</event>
<event>
 5   0  0.5152288E-06  0.2700264E+04  0.7818609E-02  0.8334919E-01
        1   -1    0    0  501    0  0.00000000000E+00  0.00000000000E+00  0.18422422649E+04  0.18422422650E+04  0.50400001928E-02 0.  1.
       -1   -1    0    0    0  501  0.00000000000E+00  0.00000000000E+00 -0.98947716536E+03  0.98947716537E+03  0.50400001928E-02 0. -1.
    10030    2    1    2    0    0  0.00000000000E+00  0.00000000000E+00  0.85276509959E+03  0.28317194303E+04  0.27002641754E+04 0.  0.
        3    1    3    3  502    0 -0.92919329708E+03 -0.13984109964E+03  0.14430642470E+04  0.17220308208E+04  0.10100000352E+00 0.  1.
       -3    1    3    3    0  502  0.92919329708E+03  0.13984109964E+03 -0.59029914744E+03  0.11096886095E+04  0.10100000352E+00 0. -1.
</event>
<event>
 5   0  0.4824715E-06  0.2708807E+04  0.7818609E-02  0.8332153E-01
       -1   -1    0    0    0  501  0.00000000000E+00  0.00000000000E+00  0.13551596593E+04  0.13551596593E+04  0.50400001928E-02 0.  1.
        1   -1    0    0  501    0  0.00000000000E+00  0.00000000000E+00 -0.13536477311E+04  0.13536477311E+04  0.50400001928E-02 0. -1.
    10030    2    1    2    0    0  0.00000000000E+00  0.00000000000E+00  0.15119282530E+01  0.27088073904E+04  0.27088069684E+04 0.  0.
        5    1    3    3  502    0 -0.46472193028E+03  0.50783906423E+03  0.11671693318E+04  0.13550547320E+04  0.46999998093E+01 0.  1.
       -5    1    3    3    0  502  0.46472193028E+03 -0.50783906423E+03 -0.11656574035E+04  0.13537526584E+04  0.46999998093E+01 0. -1.
</event>
<event>
 5   0  0.5152288E-06  0.2740453E+04  0.7818609E-02  0.8321998E-01
        1   -1    0    0  501    0  0.00000000000E+00  0.00000000000E+00  0.14376691740E+04  0.14376691740E+04  0.50400001928E-02 0.  1.
       -1   -1    0    0    0  501  0.00000000000E+00  0.00000000000E+00 -0.13059472156E+04  0.13059472156E+04  0.50400001928E-02 0. -1.
    10030    2    1    2    0    0  0.00000000000E+00  0.00000000000E+00  0.13172195841E+03  0.27436163896E+04  0.27404525573E+04 0.  0.
        3    1    3    3  502    0  0.62370686919E+03  0.90235477038E+03 -0.75622382320E+03  0.13323396231E+04  0.10100000352E+00 0. -1.
       -3    1    3    3    0  502 -0.62370686919E+03 -0.90235477038E+03  0.88794578161E+03  0.14112767665E+04  0.10100000352E+00 0.  1.
</event>
<event>
 5   0  0.1261364E-05  0.2740237E+04  0.7818609E-02  0.8322066E-01
        2   -1    0    0  501    0  0.00000000000E+00  0.00000000000E+00  0.15950964723E+04  0.15950964723E+04  0.25500000920E-02 0. -1.
       -2   -1    0    0    0  501  0.00000000000E+00  0.00000000000E+00 -0.11768721604E+04  0.11768721604E+04  0.25500000920E-02 0.  1.
    10030    2    1    2    0    0  0.00000000000E+00  0.00000000000E+00  0.41822431185E+03  0.27719686327E+04  0.27402369470E+04 0.  0.
        5    1    3    3  502    0 -0.61447860395E+03 -0.11615627223E+04 -0.18318086469E+03  0.13267966052E+04  0.46999998093E+01 0.  1.
       -5    1    3    3    0  502  0.61447860395E+03  0.11615627223E+04  0.60140517654E+03  0.14451720274E+04  0.46999998093E+01 0. -1.
</event>
<event>
 5   0  0.1276517E-05  0.2724741E+04  0.7818609E-02  0.8327022E-01
        2   -1    0    0  501    0  0.00000000000E+00  0.00000000000E+00  0.14732762098E+04  0.14732762098E+04  0.25500000920E-02 0. -1.
       -2   -1    0    0    0  501  0.00000000000E+00  0.00000000000E+00 -0.12598139226E+04  0.12598139226E+04  0.25500000920E-02 0.  1.
    10030    2    1    2    0    0  0.00000000000E+00  0.00000000000E+00  0.21346228728E+03  0.27330901324E+04  0.27247413682E+04 0.  0.
        1    1    3    3  502    0 -0.12195496957E+04 -0.91108843423E+02 -0.49548465845E+03  0.13195102608E+04  0.50400001928E-02 0. -1.
       -1    1    3    3    0  502  0.12195496957E+04  0.91108843423E+02  0.70894694573E+03  0.14135798716E+04  0.50400001928E-02 0.  1.
</event>
<event>
 5   0  0.1276517E-05  0.2638374E+04  0.7818609E-02  0.8355282E-01
        2   -1    0    0  501    0  0.00000000000E+00  0.00000000000E+00  0.12196426966E+04  0.12196426966E+04  0.25500000920E-02 0.  1.
       -2   -1    0    0    0  501  0.00000000000E+00  0.00000000000E+00 -0.14268557884E+04  0.14268557884E+04  0.25500000920E-02 0. -1.
    10030    2    1    2    0    0  0.00000000000E+00  0.00000000000E+00 -0.20721309185E+03  0.26464984850E+04  0.26383739245E+04 0.  0.
        1    1    3    3  502    0  0.10603219699E+04 -0.74113160365E+03  0.15544345308E+03  0.13029663852E+04  0.50400001928E-02 0.  1.
       -1    1    3    3    0  502 -0.10603219699E+04  0.74113160365E+03 -0.36265654493E+03  0.13435320999E+04  0.50400001928E-02 0. -1.
</event>
<event>
 5   0  0.4846214E-06  0.2694083E+04  0.7818609E-02  0.8336928E-01
       -1   -1    0    0    0  501  0.00000000000E+00  0.00000000000E+00  0.10882751892E+04  0.10882751892E+04  0.50400001928E-02 0. -1.
        1   -1    0    0  501    0  0.00000000000E+00  0.00000000000E+00 -0.16673357810E+04  0.16673357810E+04  0.50400001928E-02 0.  1.
    10030    2    1    2    0    0  0.00000000000E+00  0.00000000000E+00 -0.57906059183E+03  0.27556109702E+04  0.26940825248E+04 0.  0.
        2    1    3    3  502    0  0.73815058470E+02 -0.17838540317E+03  0.10740517983E+04  0.10912640745E+04  0.25500000920E-02 0. -1.
       -2    1    3    3    0  502 -0.73815058470E+02  0.17838540317E+03 -0.16531123901E+04  0.16643468957E+04  0.25500000920E-02 0.  1.
</event>
<event>
 5   0  0.4846214E-06  0.2626725E+04  0.7818609E-02  0.8359180E-01
       -1   -1    0    0    0  501  0.00000000000E+00  0.00000000000E+00  0.16776797270E+04  0.16776797270E+04  0.50400001928E-02 0. -1.
        1   -1    0    0  501    0  0.00000000000E+00  0.00000000000E+00 -0.10281589443E+04  0.10281589443E+04  0.50400001928E-02 0.  1.
    10030    2    1    2    0    0  0.00000000000E+00  0.00000000000E+00  0.64952078268E+03  0.27058386712E+04  0.26267252745E+04 0.  0.
        2    1    3    3  502    0  0.12434054801E+04 -0.38110762865E+03  0.13587695278E+03  0.13075789685E+04  0.25500000920E-02 0.  1.
       -2    1    3    3    0  502 -0.12434054801E+04  0.38110762865E+03  0.51364382990E+03  0.13982597028E+04  0.25500000920E-02 0. -1.
</event>
<event>
 5   0  0.1220908E-05  0.2697434E+04  0.7818609E-02  0.8335838E-01
        2   -1    0    0  501    0  0.00000000000E+00  0.00000000000E+00  0.15317793067E+04  0.15317793067E+04  0.25500000920E-02 0.  1.
       -2   -1    0    0    0  501  0.00000000000E+00  0.00000000000E+00 -0.11875324836E+04  0.11875324836E+04  0.25500000920E-02 0. -1.
    10030    2    1    2    0    0  0.00000000000E+00  0.00000000000E+00  0.34424682308E+03  0.27193117904E+04  0.26974341026E+04 0.  0.
        2    1    3    3  502    0  0.87141362647E+03  0.58788472579E+03  0.10240021971E+04  0.14674980950E+04  0.25500000920E-02 0.  1.
       -2    1    3    3    0  502 -0.87141362647E+03 -0.58788472579E+03 -0.67975537406E+03  0.12518136953E+04  0.25500000920E-02 0. -1.
</event>
<event>
 5   0  0.4824715E-06  0.2710486E+04  0.7818609E-02  0.8331611E-01
       -1   -1    0    0    0  501  0.00000000000E+00  0.00000000000E+00  0.12015188699E+04  0.12015188699E+04  0.50400001928E-02 0. -1.
        1   -1    0    0  501    0  0.00000000000E+00  0.00000000000E+00 -0.15286348120E+04  0.15286348120E+04  0.50400001928E-02 0.  1.
    10030    2    1    2    0    0  0.00000000000E+00  0.00000000000E+00 -0.32711594207E+03  0.27301536819E+04  0.27104859873E+04 0.  0.
        5    1    3    3  502    0 -0.30375791154E+03  0.15338344413E+03  0.11577786501E+04  0.12067596457E+04  0.46999998093E+01 0. -1.
       -5    1    3    3    0  502  0.30375791154E+03 -0.15338344413E+03 -0.14848945922E+04  0.15233940362E+04  0.46999998093E+01 0.  1.
</event>
<event>
 5   0  0.4756800E-06  0.2697196E+04  0.7818609E-02  0.8335915E-01
       -1   -1    0    0    0  501  0.00000000000E+00  0.00000000000E+00  0.12686546832E+04  0.12686546832E+04  0.50400001928E-02 0.  1.
        1   -1    0    0  501    0  0.00000000000E+00  0.00000000000E+00 -0.14335790037E+04  0.14335790037E+04  0.50400001928E-02 0. -1.
    10030    2    1    2    0    0  0.00000000000E+00  0.00000000000E+00 -0.16492432056E+03  0.27022336869E+04  0.26971961121E+04 0.  0.
        4    1    3    3  502    0 -0.84005967616E+03 -0.20491884707E+03 -0.11192975202E+04  0.14143975908E+04  0.12699999809E+01 0. -1.
       -4    1    3    3    0  502  0.84005967616E+03  0.20491884707E+03  0.95437319959E+03  0.12878360961E+04  0.12699999809E+01 0.  1.
</event>
<event>
 5   0  0.5152288E-06  0.2706166E+04  0.7818609E-02  0.8333007E-01
       -1   -1    0    0    0  501  0.00000000000E+00  0.00000000000E+00  0.24658703656E+04  0.24658703656E+04  0.50400001928E-02 0. -1.
        1   -1    0    0  501    0  0.00000000000E+00  0.00000000000E+00 -0.74246972116E+03  0.74246972117E+03  0.50400001928E-02 0.  1.
    10030    2    1    2    0    0  0.00000000000E+00  0.00000000000E+00  0.17234006444E+04  0.32083400868E+04  0.27061663532E+04 0.  0.
        3    1    3    3  502    0  0.11748386322E+04  0.62159034326E+03  0.56127275892E+03  0.14427915604E+04  0.10100000352E+00 0. -1.
       -3    1    3    3    0  502 -0.11748386322E+04 -0.62159034326E+03  0.11621278855E+04  0.17655485264E+04  0.10100000352E+00 0.  1.
</event>
<event>
 5   0  0.4824715E-06  0.2738006E+04  0.7818609E-02  0.8322778E-01
        1   -1    0    0  501    0  0.00000000000E+00  0.00000000000E+00  0.29244115985E+04  0.29244115985E+04  0.50400001928E-02 0. -1.
       -1   -1    0    0    0  501  0.00000000000E+00  0.00000000000E+00 -0.64087069116E+03  0.64087069118E+03  0.50400001928E-02 0.  1.
    10030    2    1    2    0    0  0.00000000000E+00  0.00000000000E+00  0.22835409074E+04  0.35652822897E+04  0.27380063422E+04 0.  0.
        5    1    3    3  502    0  0.49492718014E+03  0.18582088749E+03  0.27861203714E+04  0.28358369364E+04  0.46999998093E+01 0. -1.
       -5    1    3    3    0  502 -0.49492718014E+03 -0.18582088749E+03 -0.50257946401E+03  0.72944535334E+03  0.46999998093E+01 0.  1.
</event>
<event>
 5   0  0.1220908E-05  0.2427385E+04  0.7818609E-02  0.8429321E-01
        2   -1    0    0  501    0  0.00000000000E+00  0.00000000000E+00  0.93457868457E+03  0.93457868457E+03  0.25500000920E-02 0.  1.
       -2   -1    0    0    0  501  0.00000000000E+00  0.00000000000E+00 -0.15761647626E+04  0.15761647626E+04  0.25500000920E-02 0. -1.
    10030    2    1    2    0    0  0.00000000000E+00  0.00000000000E+00 -0.64158607802E+03  0.25107434472E+04  0.24273854169E+04 0.  0.
        2    1    3    3  502    0 -0.83352821385E+03 -0.60251521058E+03 -0.98732599054E+03  0.14256950845E+04  0.25500000920E-02 0. -1.
       -2    1    3    3    0  502  0.83352821385E+03  0.60251521058E+03  0.34573991252E+03  0.10850483627E+04  0.25500000920E-02 0.  1.
</event>
<event>
 5   0  0.1220908E-05  0.2707035E+04  0.7818609E-02  0.8332726E-01
        2   -1    0    0  501    0  0.00000000000E+00  0.00000000000E+00  0.18054448565E+04  0.18054448565E+04  0.25500000920E-02 0. -1.
       -2   -1    0    0    0  501  0.00000000000E+00  0.00000000000E+00 -0.10147137262E+04  0.10147137262E+04  0.25500000920E-02 0.  1.
    10030    2    1    2    0    0  0.00000000000E+00  0.00000000000E+00  0.79073113037E+03  0.28201585827E+04  0.27070350406E+04 0.  0.
        2    1    3    3  502    0 -0.10530779286E+04 -0.79581051562E+03  0.83311708147E+02  0.13225839637E+04  0.25500000920E-02 0.  1.
       -2    1    3    3    0  502  0.10530779286E+04  0.79581051562E+03  0.70741942222E+03  0.14975746190E+04  0.25500000920E-02 0. -1.
</event>
<event>
 5   0  0.4756800E-06  0.2709259E+04  0.7818609E-02  0.8332007E-01
       -1   -1    0    0    0  501  0.00000000000E+00  0.00000000000E+00  0.71589755189E+03  0.71589755191E+03  0.50400001928E-02 0.  1.
        1   -1    0    0  501    0  0.00000000000E+00  0.00000000000E+00 -0.25632445367E+04  0.25632445367E+04  0.50400001928E-02 0. -1.
    10030    2    1    2    0    0  0.00000000000E+00  0.00000000000E+00 -0.18473469848E+04  0.32791420886E+04  0.27092585619E+04 0.  0.
        4    1    3    3  502    0  0.40672960667E+03  0.11961949394E+04 -0.33232584025E+03  0.13064277182E+04  0.12699999809E+01 0. -1.
       -4    1    3    3    0  502 -0.40672960667E+03 -0.11961949394E+04 -0.15150211446E+04  0.19727143704E+04  0.12699999809E+01 0.  1.
</event>
<event>
 5   0  0.4826140E-06  0.2684407E+04  0.7818609E-02  0.8340082E-01
       -1   -1    0    0    0  501  0.00000000000E+00  0.00000000000E+00  0.11541437629E+04  0.11541437629E+04  0.50400001928E-02 0.  1.
        1   -1    0    0  501    0  0.00000000000E+00  0.00000000000E+00 -0.15609059534E+04  0.15609059535E+04  0.50400001928E-02 0. -1.
    10030    2    1    2    0    0  0.00000000000E+00  0.00000000000E+00 -0.40676219056E+03  0.27150497163E+04  0.26844067282E+04 0.  0.
        1    1    3    3  502    0  0.88759453581E+03 -0.10038529610E+04 -0.28149642478E+03  0.13692279082E+04  0.50400001928E-02 0.  1.
       -1    1    3    3    0  502 -0.88759453581E+03  0.10038529610E+04 -0.12526576579E+03  0.13458218082E+04  0.50400001928E-02 0. -1.
</event>
<event>
 5   0  0.4826140E-06  0.2730574E+04  0.7818609E-02  0.8325152E-01
        1   -1    0    0  501    0  0.00000000000E+00  0.00000000000E+00  0.15126791438E+04  0.15126791438E+04  0.50400001928E-02 0.  1.
       -1   -1    0    0    0  501  0.00000000000E+00  0.00000000000E+00 -0.12322564750E+04  0.12322564750E+04  0.50400001928E-02 0. -1.
    10030    2    1    2    0    0  0.00000000000E+00  0.00000000000E+00  0.28042266879E+03  0.27449356188E+04  0.27305740565E+04 0.  0.
        1    1    3    3  502    0 -0.45201444157E+03 -0.11827632897E+04  0.65354632327E+03  0.14249101205E+04  0.50400001928E-02 0.  1.
       -1    1    3    3    0  502  0.45201444157E+03  0.11827632897E+04 -0.37312365447E+03  0.13200254983E+04  0.50400001928E-02 0. -1.
</event>
<event>
 5   0  0.4824715E-06  0.2693237E+04  0.7818609E-02  0.8337203E-01
       -1   -1    0    0    0  501  0.00000000000E+00  0.00000000000E+00  0.19824625750E+04  0.19824625750E+04  0.50400001928E-02 0.  1.
        1   -1    0    0  501    0  0.00000000000E+00  0.00000000000E+00 -0.91471142292E+03  0.91471142293E+03  0.50400001928E-02 0. -1.
    10030    2    1    2    0    0  0.00000000000E+00  0.00000000000E+00  0.10677511521E+04  0.28971739979E+04  0.26932368354E+04 0.  0.
        5    1    3    3  502    0 -0.38916128646E+03  0.30727502786E+03 -0.81292428526E+03  0.95222499084E+03  0.46999998093E+01 0. -1.
       -5    1    3    3    0  502  0.38916128646E+03 -0.30727502786E+03  0.18806754373E+04  0.19449490071E+04  0.46999998093E+01 0.  1.
</event>
<event>
 5   0  0.1276517E-05  0.2689126E+04  0.7818609E-02  0.8338542E-01
        2   -1    0    0  501    0  0.00000000000E+00  0.00000000000E+00  0.17037877787E+04  0.17037877787E+04  0.25500000920E-02 0.  1.
       -2   -1    0    0    0  501  0.00000000000E+00  0.00000000000E+00 -0.10610764379E+04  0.10610764379E+04  0.25500000920E-02 0. -1.
    10030    2    1    2    0    0  0.00000000000E+00  0.00000000000E+00  0.64271134085E+03  0.27648642166E+04  0.26891255584E+04 0.  0.
        1    1    3    3  502    0  0.25070409762E+03  0.10425931686E+04 -0.51266028011E+03  0.11885594738E+04  0.50400001928E-02 0. -1.
       -1    1    3    3    0  502 -0.25070409762E+03 -0.10425931686E+04  0.11553716210E+04  0.15763047429E+04  0.50400001928E-02 0.  1.
</event>
<event>
 5   0  0.1232559E-05  0.2653237E+04  0.7818609E-02  0.8350339E-01
        2   -1    0    0  501    0  0.00000000000E+00  0.00000000000E+00  0.12671483850E+04  0.12671483850E+04  0.25500000920E-02 0. -1.
       -2   -1    0    0    0  501  0.00000000000E+00  0.00000000000E+00 -0.13888797712E+04  0.13888797712E+04  0.25500000920E-02 0.  1.
    10030    2    1    2    0    0  0.00000000000E+00  0.00000000000E+00 -0.12173138618E+03  0.26560281562E+04  0.26532370863E+04 0.  0.
        3    1    3    3  502    0  0.35158390164E+03  0.68565036414E+03 -0.11419040459E+04  0.13775603515E+04  0.10100000352E+00 0.  1.
       -3    1    3    3    0  502 -0.35158390164E+03 -0.68565036414E+03  0.10201726598E+04  0.12784678047E+04  0.10100000352E+00 0. -1.
</event>
<event>
 5   0  0.1276517E-05  0.2715275E+04  0.7818609E-02  0.8330066E-01
       -2   -1    0    0    0  501  0.00000000000E+00  0.00000000000E+00  0.13440032581E+04  0.13440032581E+04  0.25500000920E-02 0.  1.
        2   -1    0    0  501    0  0.00000000000E+00  0.00000000000E+00 -0.13714101355E+04  0.13714101355E+04  0.25500000920E-02 0. -1.
    10030    2    1    2    0    0  0.00000000000E+00  0.00000000000E+00 -0.27406877453E+02  0.27154133936E+04  0.27152750802E+04 0.  0.
        1    1    3    3  502    0  0.46708071043E+03  0.88136345120E+03  0.90732869079E+03  0.13484106482E+04  0.50400001928E-02 0.  1.
       -1    1    3    3    0  502 -0.46708071043E+03 -0.88136345120E+03 -0.93473556824E+03  0.13670027453E+04  0.50400001928E-02 0. -1.
</event>
<event>
 5   0  0.1232559E-05  0.2701855E+04  0.7818609E-02  0.8334403E-01
       -2   -1    0    0    0  501  0.00000000000E+00  0.00000000000E+00  0.15920682279E+04  0.15920682279E+04  0.25500000920E-02 0.  1.
        2   -1    0    0  501    0  0.00000000000E+00  0.00000000000E+00 -0.11463110314E+04  0.11463110314E+04  0.25500000920E-02 0. -1.
    10030    2    1    2    0    0  0.00000000000E+00  0.00000000000E+00  0.44575719648E+03  0.27383792593E+04  0.27018551940E+04 0.  0.
        3    1    3    3  502    0 -0.56441550863E+03  0.10459601476E+04  0.87374971148E+03  0.14751393376E+04  0.10100000352E+00 0.  1.
       -3    1    3    3    0  502  0.56441550863E+03 -0.10459601476E+04 -0.42799251499E+03  0.12632399217E+04  0.10100000352E+00 0. -1.
</event>
<event>
 5   0  0.1261364E-05  0.2725771E+04  0.7818609E-02  0.8326691E-01
        2   -1    0    0  501    0  0.00000000000E+00  0.00000000000E+00  0.12232968022E+04  0.12232968022E+04  0.25500000920E-02 0. -1.
       -2   -1    0    0    0  501  0.00000000000E+00  0.00000000000E+00 -0.15184026940E+04  0.15184026940E+04  0.25500000920E-02 0.  1.
    10030    2    1    2    0    0  0.00000000000E+00  0.00000000000E+00 -0.29510589186E+03  0.27416994962E+04  0.27257712009E+04 0.  0.
        5    1    3    3  502    0 -0.12412639866E+04  0.13561880534E+02  0.41833117345E+03  0.13099401780E+04  0.46999998093E+01 0. -1.
       -5    1    3    3    0  502  0.12412639866E+04 -0.13561880534E+02 -0.71343706531E+03  0.14317593182E+04  0.46999998093E+01 0.  1.
</event>
<event>
 5   0  0.4846214E-06  0.2650279E+04  0.7818609E-02  0.8351320E-01
       -1   -1    0    0    0  501  0.00000000000E+00  0.00000000000E+00  0.71702903980E+03  0.71702903982E+03  0.50400001928E-02 0.  1.
        1   -1    0    0  501    0  0.00000000000E+00  0.00000000000E+00 -0.24489871904E+04  0.24489871904E+04  0.50400001928E-02 0. -1.
    10030    2    1    2    0    0  0.00000000000E+00  0.00000000000E+00 -0.17319581506E+04  0.31660162302E+04  0.26502791805E+04 0.  0.
        2    1    3    3  502    0  0.13213223698E+03  0.96273545821E+03 -0.19422286253E+04  0.21717666825E+04  0.25500000920E-02 0. -1.
       -2    1    3    3    0  502 -0.13213223698E+03 -0.96273545821E+03  0.21027047468E+03  0.99424954769E+03  0.25500000920E-02 0.  1.
</event>
<event>
 5   0  0.5152288E-06  0.2708864E+04  0.7818609E-02  0.8332135E-01
        1   -1    0    0  501    0  0.00000000000E+00  0.00000000000E+00  0.15715780809E+04  0.15715780809E+04  0.50400001928E-02 0.  1.
       -1   -1    0    0    0  501  0.00000000000E+00  0.00000000000E+00 -0.11672890549E+04  0.11672890549E+04  0.50400001928E-02 0. -1.
    10030    2    1    2    0    0  0.00000000000E+00  0.00000000000E+00  0.40428902602E+03  0.27388671358E+04  0.27088638894E+04 0.  0.
        3    1    3    3  502    0 -0.74351007972E+02 -0.15598510997E+03 -0.11560983789E+04  0.11689409304E+04  0.10100000352E+00 0. -1.
       -3    1    3    3    0  502  0.74351007972E+02  0.15598510997E+03  0.15603874049E+04  0.15699262054E+04  0.10100000352E+00 0.  1.
</event>
<event>
 5   0  0.1276517E-05  0.2612362E+04  0.7818609E-02  0.8364014E-01
        2   -1    0    0  501    0  0.00000000000E+00  0.00000000000E+00  0.27754636451E+04  0.27754636451E+04  0.25500000920E-02 0.  1.
       -2   -1    0    0    0  501  0.00000000000E+00  0.00000000000E+00 -0.61471108769E+03  0.61471108769E+03  0.25500000920E-02 0. -1.
    10030    2    1    2    0    0  0.00000000000E+00  0.00000000000E+00  0.21607525574E+04  0.33901747328E+04  0.26123615953E+04 0.  0.
        1    1    3    3  502    0 -0.88615053443E+03  0.81481854404E+03  0.42259035340E+03  0.12758427161E+04  0.50400001928E-02 0. -1.
       -1    1    3    3    0  502  0.88615053443E+03 -0.81481854404E+03  0.17381622040E+04  0.21143320167E+04  0.50400001928E-02 0.  1.
</event>
<event>
 5   0  0.5152288E-06  0.2628236E+04  0.7818609E-02  0.8358673E-01
       -1   -1    0    0    0  501  0.00000000000E+00  0.00000000000E+00  0.11473311081E+04  0.11473311081E+04  0.50400001928E-02 0.  1.
        1   -1    0    0  501    0  0.00000000000E+00  0.00000000000E+00 -0.15051501418E+04  0.15051501418E+04  0.50400001928E-02 0. -1.
    10030    2    1    2    0    0  0.00000000000E+00  0.00000000000E+00 -0.35781903365E+03  0.26524812499E+04  0.26282355907E+04 0.  0.
        3    1    3    3  502    0 -0.71750816077E+03  0.23775479782E+03 -0.12637960805E+04  0.14725915414E+04  0.10100000352E+00 0. -1.
       -3    1    3    3    0  502  0.71750816077E+03 -0.23775479782E+03  0.90597704683E+03  0.11798897085E+04  0.10100000352E+00 0.  1.
</event>
<event>
 5   0  0.4846214E-06  0.2691858E+04  0.7818609E-02  0.8337652E-01
       -1   -1    0    0    0  501  0.00000000000E+00  0.00000000000E+00  0.11721371272E+04  0.11721371272E+04  0.50400001928E-02 0.  1.
        1   -1    0    0  501    0  0.00000000000E+00  0.00000000000E+00 -0.15454889904E+04  0.15454889904E+04  0.50400001928E-02 0. -1.
    10030    2    1    2    0    0  0.00000000000E+00  0.00000000000E+00 -0.37335186324E+03  0.27176261176E+04  0.26918581131E+04 0.  0.
        2    1    3    3  502    0  0.61585737641E+03  0.46433225729E+03  0.92689692634E+03  0.12058286219E+04  0.25500000920E-02 0.  1.
       -2    1    3    3    0  502 -0.61585737641E+03 -0.46433225729E+03 -0.13002487896E+04  0.15117974957E+04  0.25500000920E-02 0. -1.
</event>
<event>
 5   0  0.4756800E-06  0.2720042E+04  0.7818609E-02  0.8328531E-01
       -1   -1    0    0    0  501  0.00000000000E+00  0.00000000000E+00  0.10795278602E+04  0.10795278602E+04  0.50400001928E-02 0. -1.
        1   -1    0    0  501    0  0.00000000000E+00  0.00000000000E+00 -0.17133940701E+04  0.17133940701E+04  0.50400001928E-02 0.  1.
    10030    2    1    2    0    0  0.00000000000E+00  0.00000000000E+00 -0.63386620992E+03  0.27929219303E+04  0.27200416424E+04 0.  0.
        4    1    3    3  502    0 -0.10132842025E+04 -0.84087098562E+03 -0.66641446064E+03  0.14757773327E+04  0.12699999809E+01 0.  1.
       -4    1    3    3    0  502  0.10132842025E+04  0.84087098562E+03  0.32548250719E+02  0.13171445976E+04  0.12699999809E+01 0. -1.
</event>
<event>
 5   0  0.1286641E-05  0.2717204E+04  0.7818609E-02  0.8329444E-01
        2   -1    0    0  501    0  0.00000000000E+00  0.00000000000E+00  0.14069413797E+04  0.14069413797E+04  0.25500000920E-02 0.  1.
       -2   -1    0    0    0  501  0.00000000000E+00  0.00000000000E+00 -0.13119232311E+04  0.13119232311E+04  0.25500000920E-02 0. -1.
    10030    2    1    2    0    0  0.00000000000E+00  0.00000000000E+00  0.95018148618E+02  0.27188646108E+04  0.27172037692E+04 0.  0.
        4    1    3    3  502    0 -0.14052607290E+03  0.12208102123E+04  0.62723555199E+03  0.13796924303E+04  0.12699999809E+01 0.  1.
       -4    1    3    3    0  502  0.14052607290E+03 -0.12208102123E+04 -0.53221740337E+03  0.13391721805E+04  0.12699999809E+01 0. -1.
</event>
<event>
 5   0  0.4824715E-06  0.2654088E+04  0.7818609E-02  0.8350057E-01
        1   -1    0    0  501    0  0.00000000000E+00  0.00000000000E+00  0.15446235937E+04  0.15446235937E+04  0.50400001928E-02 0.  1.
       -1   -1    0    0    0  501  0.00000000000E+00  0.00000000000E+00 -0.11401130148E+04  0.11401130148E+04  0.50400001928E-02 0. -1.
    10030    2    1    2    0    0  0.00000000000E+00  0.00000000000E+00  0.40451057890E+03  0.26847366085E+04  0.26540877620E+04 0.  0.
        5    1    3    3  502    0  0.10159464691E+03  0.21426903503E+03  0.15230092954E+04  0.15413669568E+04  0.46999998093E+01 0.  1.
       -5    1    3    3    0  502 -0.10159464691E+03 -0.21426903503E+03 -0.11184987165E+04  0.11433696517E+04  0.46999998093E+01 0. -1.
</event>
<event>
 5   0  0.4824715E-06  0.2696299E+04  0.7818609E-02  0.8336207E-01
        1   -1    0    0  501    0  0.00000000000E+00  0.00000000000E+00  0.25514624865E+04  0.25514624865E+04  0.50400001928E-02 0.  1.
       -1   -1    0    0    0  501  0.00000000000E+00  0.00000000000E+00 -0.71233911474E+03  0.71233911475E+03  0.50400001928E-02 0. -1.
    10030    2    1    2    0    0  0.00000000000E+00  0.00000000000E+00  0.18391233717E+04  0.32638016012E+04  0.26962985954E+04 0.  0.
        5    1    3    3  502    0 -0.87877910765E+03 -0.89601601125E+03  0.32361082544E+03  0.12960877551E+04  0.46999998093E+01 0.  1.
       -5    1    3    3    0  502  0.87877910765E+03  0.89601601125E+03  0.15155125463E+04  0.19677138462E+04  0.46999998093E+01 0. -1.
</event>
<event>
 5   0  0.4824715E-06  0.2704468E+04  0.7818609E-02  0.8333557E-01
        1   -1    0    0  501    0  0.00000000000E+00  0.00000000000E+00  0.18353009971E+04  0.18353009971E+04  0.50400001928E-02 0. -1.
       -1   -1    0    0    0  501  0.00000000000E+00  0.00000000000E+00 -0.99631448782E+03  0.99631448784E+03  0.50400001928E-02 0.  1.
    10030    2    1    2    0    0  0.00000000000E+00  0.00000000000E+00  0.83898650925E+03  0.28316154849E+04  0.27044681347E+04 0.  0.
        5    1    3    3  502    0  0.83381476407E+03 -0.89211452245E+03 -0.18867623358E+03  0.12356116676E+04  0.46999998093E+01 0.  1.
       -5    1    3    3    0  502 -0.83381476407E+03  0.89211452245E+03  0.10276627428E+04  0.15960038173E+04  0.46999998093E+01 0. -1.
</event>
<event>
 5   0  0.1261364E-05  0.2737314E+04  0.7818609E-02  0.8322998E-01
       -2   -1    0    0    0  501  0.00000000000E+00  0.00000000000E+00  0.17055748597E+04  0.17055748597E+04  0.25500000920E-02 0. -1.
        2   -1    0    0  501    0  0.00000000000E+00  0.00000000000E+00 -0.10982936753E+04  0.10982936753E+04  0.25500000920E-02 0.  1.
    10030    2    1    2    0    0  0.00000000000E+00  0.00000000000E+00  0.60728118441E+03  0.28038685350E+04  0.27373140713E+04 0.  0.
        5    1    3    3  502    0  0.10044655577E+03 -0.70830624774E+03 -0.89152456131E+03  0.11430771560E+04  0.46999998093E+01 0.  1.
       -5    1    3    3    0  502 -0.10044655577E+03  0.70830624774E+03  0.14988057457E+04  0.16607913790E+04  0.46999998093E+01 0. -1.
</event>
<event>
 5   0  0.1276517E-05  0.2745244E+04  0.7818609E-02  0.8320473E-01
       -2   -1    0    0    0  501  0.00000000000E+00  0.00000000000E+00  0.14550582035E+04  0.14550582035E+04  0.25500000920E-02 0. -1.
        2   -1    0    0  501    0  0.00000000000E+00  0.00000000000E+00 -0.12948558258E+04  0.12948558258E+04  0.25500000920E-02 0.  1.
    10030    2    1    2    0    0  0.00000000000E+00  0.00000000000E+00  0.16020237769E+03  0.27499140293E+04  0.27452435897E+04 0.  0.
        1    1    3    3  502    0 -0.70824979834E+03 -0.87124856801E+03  0.87100049270E+03  0.14210326184E+04  0.50400001928E-02 0. -1.
       -1    1    3    3    0  502  0.70824979834E+03  0.87124856801E+03 -0.71079811501E+03  0.13288814110E+04  0.50400001928E-02 0.  1.
</event>
<event>
 5   0  0.4846214E-06  0.2702863E+04  0.7818609E-02  0.8334076E-01
       -1   -1    0    0    0  501  0.00000000000E+00  0.00000000000E+00  0.11285935743E+04  0.11285935743E+04  0.50400001928E-02 0.  1.
        1   -1    0    0  501    0  0.00000000000E+00  0.00000000000E+00 -0.16182686986E+04  0.16182686986E+04  0.50400001928E-02 0. -1.
    10030    2    1    2    0    0  0.00000000000E+00  0.00000000000E+00 -0.48967512425E+03  0.27468622729E+04  0.27028634111E+04 0.  0.
        2    1    3    3  502    0  0.19419039617E+03  0.10340118891E+04  0.61719027492E+03  0.12197599486E+04  0.25500000920E-02 0.  1.
       -2    1    3    3    0  502 -0.19419039617E+03 -0.10340118891E+04 -0.11068653992E+04  0.15271023242E+04  0.25500000920E-02 0. -1.
</event>
<event>
 5   0  0.4188000E-06  0.2702640E+04  0.7818609E-02  0.8334149E-01
       -4   -1    0    0    0  501  0.00000000000E+00  0.00000000000E+00  0.12764580192E+04  0.12764586510E+04  0.12699999809E+01 0.  1.
        4   -1    0    0  501    0  0.00000000000E+00  0.00000000000E+00 -0.14305708337E+04  0.14305713974E+04  0.12699999809E+01 0. -1.
    10030    2    1    2    0    0  0.00000000000E+00  0.00000000000E+00 -0.15411281454E+03  0.27070300484E+04  0.27026396214E+04 0.  0.
        5    1    3    3  502    0  0.23403303233E+03  0.13118838127E+04 -0.30154667468E+03  0.13662953873E+04  0.46999998093E+01 0. -1.
       -5    1    3    3    0  502 -0.23403303233E+03 -0.13118838127E+04  0.14743386014E+03  0.13407346611E+04  0.46999998093E+01 0.  1.
</event>
<event>
 5   0  0.1276517E-05  0.2523611E+04  0.7818609E-02  0.8394622E-01
       -2   -1    0    0    0  501  0.00000000000E+00  0.00000000000E+00  0.80365999302E+03  0.80365999302E+03  0.25500000920E-02 0.  1.
        2   -1    0    0  501    0  0.00000000000E+00  0.00000000000E+00 -0.19811281186E+04  0.19811281186E+04  0.25500000920E-02 0. -1.
    10030    2    1    2    0    0  0.00000000000E+00  0.00000000000E+00 -0.11774681256E+04  0.27847881116E+04  0.25236112299E+04 0.  0.
        1    1    3    3  502    0  0.22956262056E+03 -0.97496130535E+03  0.25808821837E+03  0.10343394376E+04  0.50400001928E-02 0.  1.
       -1    1    3    3    0  502 -0.22956262056E+03  0.97496130535E+03 -0.14355563439E+04  0.17504486740E+04  0.50400001928E-02 0. -1.
</event>
<event>
 5   0  0.1276517E-05  0.2683515E+04  0.7818609E-02  0.8340374E-01
       -2   -1    0    0    0  501  0.00000000000E+00  0.00000000000E+00  0.17130362896E+04  0.17130362896E+04  0.25500000920E-02 0.  1.
        2   -1    0    0  501    0  0.00000000000E+00  0.00000000000E+00 -0.10509489041E+04  0.10509489041E+04  0.25500000920E-02 0. -1.
    10030    2    1    2    0    0  0.00000000000E+00  0.00000000000E+00  0.66208738546E+03  0.27639851937E+04  0.26835153149E+04 0.  0.
        1    1    3    3  502    0 -0.71141493399E+03  0.47543642261E+03  0.13955551013E+04  0.16369865733E+04  0.50400001928E-02 0.  1.
       -1    1    3    3    0  502  0.71141493399E+03 -0.47543642261E+03 -0.73346771585E+03  0.11269986204E+04  0.50400001928E-02 0. -1.
</event>
<event>
 5   0  0.1232559E-05  0.2705933E+04  0.7818609E-02  0.8333083E-01
       -2   -1    0    0    0  501  0.00000000000E+00  0.00000000000E+00  0.14314014724E+04  0.14314014724E+04  0.25500000920E-02 0.  1.
        2   -1    0    0  501    0  0.00000000000E+00  0.00000000000E+00 -0.12788290236E+04  0.12788290236E+04  0.25500000920E-02 0. -1.
    10030    2    1    2    0    0  0.00000000000E+00  0.00000000000E+00  0.15257244876E+03  0.27102304960E+04  0.27059325544E+04 0.  0.
        3    1    3    3  502    0  0.20322740245E+03 -0.38392049467E+03  0.13596572143E+04  0.14273626288E+04  0.10100000352E+00 0.  1.
       -3    1    3    3    0  502 -0.20322740245E+03  0.38392049467E+03 -0.12070847656E+04  0.12828678672E+04  0.10100000352E+00 0. -1.
</event>
<event>
 5   0  0.4756800E-06  0.2686166E+04  0.7818609E-02  0.8339508E-01
       -1   -1    0    0    0  501  0.00000000000E+00  0.00000000000E+00  0.11557987463E+04  0.11557987463E+04  0.50400001928E-02 0.  1.
        1   -1    0    0  501    0  0.00000000000E+00  0.00000000000E+00 -0.15607140319E+04  0.15607140319E+04  0.50400001928E-02 0. -1.
    10030    2    1    2    0    0  0.00000000000E+00  0.00000000000E+00 -0.40491528566E+03  0.27165127782E+04  0.26861655358E+04 0.  0.
        4    1    3    3  502    0 -0.11348896688E+04  0.90087111505E+02 -0.92309462279E+03  0.14656723862E+04  0.12699999809E+01 0. -1.
       -4    1    3    3    0  502  0.11348896688E+04 -0.90087111505E+02  0.51817933713E+03  0.12508403920E+04  0.12699999809E+01 0.  1.
</event>
<event>
 5   0  0.4756800E-06  0.2708710E+04  0.7818609E-02  0.8332184E-01
        1   -1    0    0  501    0  0.00000000000E+00  0.00000000000E+00  0.14420991583E+04  0.14420991583E+04  0.50400001928E-02 0.  1.
       -1   -1    0    0    0  501  0.00000000000E+00  0.00000000000E+00 -0.12719496126E+04  0.12719496126E+04  0.50400001928E-02 0. -1.
    10030    2    1    2    0    0  0.00000000000E+00  0.00000000000E+00  0.17014954565E+03  0.27140487709E+04  0.27087099998E+04 0.  0.
        4    1    3    3  502    0 -0.17428112051E+03  0.10016978991E+04 -0.81139714503E+03  0.13008226358E+04  0.12699999809E+01 0. -1.
       -4    1    3    3    0  502  0.17428112051E+03 -0.10016978991E+04  0.98154669068E+03  0.14132261351E+04  0.12699999809E+01 0.  1.
</event>
<event>
 5   0  0.4826140E-06  0.2710972E+04  0.7818609E-02  0.8331454E-01
        1   -1    0    0  501    0  0.00000000000E+00  0.00000000000E+00  0.24876529179E+04  0.24876529179E+04  0.50400001928E-02 0. -1.
       -1   -1    0    0    0  501  0.00000000000E+00  0.00000000000E+00 -0.73858446209E+03  0.73858446210E+03  0.50400001928E-02 0.  1.
    10030    2    1    2    0    0  0.00000000000E+00  0.00000000000E+00  0.17490684558E+04  0.32262373800E+04  0.27109716282E+04 0.  0.
        1    1    3    3  502    0  0.97343621619E+03  0.31266276131E+03  0.19336306628E+04  0.21872959584E+04  0.50400001928E-02 0. -1.
       -1    1    3    3    0  502 -0.97343621619E+03 -0.31266276131E+03 -0.18456220701E+03  0.10389414216E+04  0.50400001928E-02 0.  1.
</event>
<event>
 5   0  0.1261364E-05  0.2697398E+04  0.7818609E-02  0.8335850E-01
       -2   -1    0    0    0  501  0.00000000000E+00  0.00000000000E+00  0.96681087293E+03  0.96681087294E+03  0.25500000920E-02 0. -1.
        2   -1    0    0  501    0  0.00000000000E+00  0.00000000000E+00 -0.18814326364E+04  0.18814326364E+04  0.25500000920E-02 0.  1.
    10030    2    1    2    0    0  0.00000000000E+00  0.00000000000E+00 -0.91462176347E+03  0.28482435093E+04  0.26973983981E+04 0.  0.
        5    1    3    3  502    0 -0.53953348892E+03 -0.74340233363E+03  0.58544876633E+03  0.10892730435E+04  0.46999998093E+01 0. -1.
       -5    1    3    3    0  502  0.53953348892E+03  0.74340233363E+03 -0.15000705298E+04  0.17589704658E+04  0.46999998093E+01 0.  1.
</event>
<event>
 5   0  0.4826140E-06  0.2702507E+04  0.7818609E-02  0.8334192E-01
       -1   -1    0    0    0  501  0.00000000000E+00  0.00000000000E+00  0.18764787638E+04  0.18764787638E+04  0.50400001928E-02 0. -1.
        1   -1    0    0  501    0  0.00000000000E+00  0.00000000000E+00 -0.97303830042E+03  0.97303830044E+03  0.50400001928E-02 0.  1.
    10030    2    1    2    0    0  0.00000000000E+00  0.00000000000E+00  0.90344046341E+03  0.28495170643E+04  0.27025067676E+04 0.  0.
        1    1    3    3  502    0  0.61604988517E+03 -0.50125880460E+03  0.16043982805E+04  0.17902155437E+04  0.50400001928E-02 0. -1.
       -1    1    3    3    0  502 -0.61604988517E+03  0.50125880460E+03 -0.70095781710E+03  0.10593015206E+04  0.50400001928E-02 0.  1.
</event>
<event>
 5   0  0.1261364E-05  0.3035104E+04  0.7818609E-02  0.8233777E-01
        2   -1    0    0  501    0  0.00000000000E+00  0.00000000000E+00  0.31605413379E+04  0.31605413379E+04  0.25500000920E-02 0. -1.
       -2   -1    0    0    0  501  0.00000000000E+00  0.00000000000E+00 -0.72866125549E+03  0.72866125549E+03  0.25500000920E-02 0.  1.
    10030    2    1    2    0    0  0.00000000000E+00  0.00000000000E+00  0.24318800824E+04  0.38892025933E+04  0.30351039648E+04 0.  0.
        5    1    3    3  502    0 -0.76831198032E+03  0.77308229536E+03 -0.13713224753E+03  0.10985385190E+04  0.46999998093E+01 0.  1.
       -5    1    3    3    0  502  0.76831198032E+03 -0.77308229536E+03  0.25690123299E+04  0.27906640743E+04  0.46999998093E+01 0. -1.
</event>
<event>
 5   0  0.1276517E-05  0.2664334E+04  0.7818609E-02  0.8346671E-01
        2   -1    0    0  501    0  0.00000000000E+00  0.00000000000E+00  0.23468027593E+04  0.23468027593E+04  0.25500000920E-02 0.  1.
       -2   -1    0    0    0  501  0.00000000000E+00  0.00000000000E+00 -0.75620723321E+03  0.75620723322E+03  0.25500000920E-02 0. -1.
    10030    2    1    2    0    0  0.00000000000E+00  0.00000000000E+00  0.15905955260E+04  0.31030099925E+04  0.26643342294E+04 0.  0.
        1    1    3    3  502    0 -0.14052194487E+03  0.44024149222E+03 -0.65986393543E+03  0.80559257802E+03  0.50400001928E-02 0. -1.
       -1    1    3    3    0  502  0.14052194487E+03 -0.44024149222E+03  0.22504594615E+04  0.22974174144E+04  0.50400001928E-02 0.  1.
</event>
<event>
 5   0  0.1286641E-05  0.2673046E+04  0.7818609E-02  0.8343804E-01
       -2   -1    0    0    0  501  0.00000000000E+00  0.00000000000E+00  0.77384699042E+03  0.77384699043E+03  0.25500000920E-02 0. -1.
        2   -1    0    0  501    0  0.00000000000E+00  0.00000000000E+00 -0.23083297655E+04  0.23083297655E+04  0.25500000920E-02 0.  1.
    10030    2    1    2    0    0  0.00000000000E+00  0.00000000000E+00 -0.15344827750E+04  0.30821767559E+04  0.26730462337E+04 0.  0.
        4    1    3    3  502    0 -0.62258780517E+03 -0.50656202236E+03  0.46500561107E+03  0.92760578312E+03  0.12699999809E+01 0. -1.
       -4    1    3    3    0  502  0.62258780517E+03  0.50656202236E+03 -0.19994883861E+04  0.21545709728E+04  0.12699999809E+01 0.  1.
</event>
<event>
 5   0  0.1261364E-05  0.2699994E+04  0.7818609E-02  0.8335007E-01
       -2   -1    0    0    0  501  0.00000000000E+00  0.00000000000E+00  0.77781112777E+03  0.77781112777E+03  0.25500000920E-02 0.  1.
        2   -1    0    0  501    0  0.00000000000E+00  0.00000000000E+00 -0.23431032641E+04  0.23431032641E+04  0.25500000920E-02 0. -1.
    10030    2    1    2    0    0  0.00000000000E+00  0.00000000000E+00 -0.15652921364E+04  0.31209143919E+04  0.26999939203E+04 0.  0.
        5    1    3    3  502    0  0.90426018431E+03 -0.45561223346E+03  0.24940909110E+03  0.10428307499E+04  0.46999998093E+01 0.  1.
       -5    1    3    3    0  502 -0.90426018431E+03  0.45561223346E+03 -0.18147012275E+04  0.20780836420E+04  0.46999998093E+01 0. -1.
</event>
<event>
 5   0  0.4756800E-06  0.2699185E+04  0.7818609E-02  0.8335269E-01
        1   -1    0    0  501    0  0.00000000000E+00  0.00000000000E+00  0.98806186131E+03  0.98806186133E+03  0.50400001928E-02 0.  1.
       -1   -1    0    0    0  501  0.00000000000E+00  0.00000000000E+00 -0.18434067862E+04  0.18434067862E+04  0.50400001928E-02 0. -1.
    10030    2    1    2    0    0  0.00000000000E+00  0.00000000000E+00 -0.85534492490E+03  0.28314686475E+04  0.26991850180E+04 0.  0.
        4    1    3    3  502    0  0.41628572792E+03  0.60237820412E+03 -0.16169194698E+04  0.17749883078E+04  0.12699999809E+01 0. -1.
       -4    1    3    3    0  502 -0.41628572792E+03 -0.60237820412E+03  0.76157454487E+03  0.10564803398E+04  0.12699999809E+01 0.  1.
</event>
<event>
 5   0  0.1276517E-05  0.2689624E+04  0.7818609E-02  0.8338379E-01
        2   -1    0    0  501    0  0.00000000000E+00  0.00000000000E+00  0.19326547337E+04  0.19326547337E+04  0.25500000920E-02 0. -1.
       -2   -1    0    0    0  501  0.00000000000E+00  0.00000000000E+00 -0.93576952010E+03  0.93576952010E+03  0.25500000920E-02 0.  1.
    10030    2    1    2    0    0  0.00000000000E+00  0.00000000000E+00  0.99688521363E+03  0.28684242538E+04  0.26896240575E+04 0.  0.
        1    1    3    3  502    0 -0.48199359650E+03  0.90579534689E+03  0.14255647690E+04  0.17564219163E+04  0.50400001928E-02 0. -1.
       -1    1    3    3    0  502  0.48199359650E+03 -0.90579534689E+03 -0.42867955532E+03  0.11120023375E+04  0.50400001928E-02 0.  1.
</event>
<event>
 5   0  0.4756800E-06  0.2721794E+04  0.7818609E-02  0.8327968E-01
        1   -1    0    0  501    0  0.00000000000E+00  0.00000000000E+00  0.12947588731E+04  0.12947588731E+04  0.50400001928E-02 0.  1.
       -1   -1    0    0    0  501  0.00000000000E+00  0.00000000000E+00 -0.14304131811E+04  0.14304131811E+04  0.50400001928E-02 0. -1.
    10030    2    1    2    0    0  0.00000000000E+00  0.00000000000E+00 -0.13565430797E+03  0.27251720542E+04  0.27217936427E+04 0.  0.
        4    1    3    3  502    0  0.66806175791E+01  0.13069526158E+04 -0.44759833412E+03  0.13814903735E+04  0.12699999809E+01 0. -1.
       -4    1    3    3    0  502 -0.66806175791E+01 -0.13069526158E+04  0.31194402615E+03  0.13436816806E+04  0.12699999809E+01 0.  1.
</event>
<event>
 5   0  0.4846214E-06  0.2746996E+04  0.7818609E-02  0.8319916E-01
        1   -1    0    0  501    0  0.00000000000E+00  0.00000000000E+00  0.16777214955E+04  0.16777214955E+04  0.50400001928E-02 0.  1.
       -1   -1    0    0    0  501  0.00000000000E+00  0.00000000000E+00 -0.11244396486E+04  0.11244396486E+04  0.50400001928E-02 0. -1.
    10030    2    1    2    0    0  0.00000000000E+00  0.00000000000E+00  0.55328184693E+03  0.28021611441E+04  0.27469958638E+04 0.  0.
        2    1    3    3  502    0 -0.84563221626E+03 -0.15494753145E+03  0.13693168774E+04  0.16168275398E+04  0.25500000920E-02 0.  1.
       -2    1    3    3    0  502  0.84563221626E+03  0.15494753145E+03 -0.81603503046E+03  0.11853336044E+04  0.25500000920E-02 0. -1.
</event>
<event>
 5   0  0.4846214E-06  0.2705041E+04  0.7818609E-02  0.8333371E-01
        1   -1    0    0  501    0  0.00000000000E+00  0.00000000000E+00  0.20762627564E+04  0.20762627564E+04  0.50400001928E-02 0.  1.
       -1   -1    0    0    0  501  0.00000000000E+00  0.00000000000E+00 -0.88105991392E+03  0.88105991394E+03  0.50400001928E-02 0. -1.
    10030    2    1    2    0    0  0.00000000000E+00  0.00000000000E+00  0.11952028425E+04  0.29573226704E+04  0.27050411350E+04 0.  0.
        2    1    3    3  502    0  0.59225348368E+03 -0.83180572153E+03 -0.37204805480E+03  0.10867772092E+04  0.25500000920E-02 0. -1.
       -2    1    3    3    0  502 -0.59225348368E+03  0.83180572153E+03  0.15672508973E+04  0.18705454612E+04  0.25500000920E-02 0.  1.
</event>
<event>
 5   0  0.4826140E-06  0.2710565E+04  0.7818609E-02  0.8331585E-01
       -1   -1    0    0    0  501  0.00000000000E+00  0.00000000000E+00  0.78235176963E+03  0.78235176965E+03  0.50400001928E-02 0.  1.
        1   -1    0    0  501    0  0.00000000000E+00  0.00000000000E+00 -0.23477802018E+04  0.23477802018E+04  0.50400001928E-02 0. -1.
    10030    2    1    2    0    0  0.00000000000E+00  0.00000000000E+00 -0.15654284322E+04  0.31301319715E+04  0.27105645136E+04 0.  0.
        1    1    3    3  502    0 -0.12361520520E+03 -0.12784748367E+04 -0.12821008388E+04  0.18148171224E+04  0.50400001928E-02 0.  1.
       -1    1    3    3    0  502  0.12361520520E+03  0.12784748367E+04 -0.28332759335E+03  0.13153148490E+04  0.50400001928E-02 0. -1.
</event>
<event>
 5   0  0.4756800E-06  0.2825037E+04  0.7818609E-02  0.8295537E-01
        1   -1    0    0  501    0  0.00000000000E+00  0.00000000000E+00  0.13779897640E+04  0.13779897640E+04  0.50400001928E-02 0.  1.
       -1   -1    0    0    0  501  0.00000000000E+00  0.00000000000E+00 -0.14479121309E+04  0.14479121309E+04  0.50400001928E-02 0. -1.
    10030    2    1    2    0    0  0.00000000000E+00  0.00000000000E+00 -0.69922366893E+02  0.28259018949E+04  0.28250367046E+04 0.  0.
        4    1    3    3  502    0 -0.13359733759E+04  0.39292715725E+03  0.20173307208E+03  0.14070943313E+04  0.12699999809E+01 0. -1.
       -4    1    3    3    0  502  0.13359733759E+04 -0.39292715725E+03 -0.27165543897E+03  0.14188075636E+04  0.12699999809E+01 0.  1.
</event>
<event>
 5   0  0.1286641E-05  0.2763509E+04  0.7818609E-02  0.8314688E-01
       -2   -1    0    0    0  501  0.00000000000E+00  0.00000000000E+00  0.13582872591E+04  0.13582872591E+04  0.25500000920E-02 0. -1.
        2   -1    0    0  501    0  0.00000000000E+00  0.00000000000E+00 -0.14056273574E+04  0.14056273574E+04  0.25500000920E-02 0.  1.
    10030    2    1    2    0    0  0.00000000000E+00  0.00000000000E+00 -0.47340098348E+02  0.27639146165E+04  0.27635091682E+04 0.  0.
        4    1    3    3  502    0  0.11887163579E+04  0.63923664173E+03 -0.31964260319E+03  0.13870267014E+04  0.12699999809E+01 0.  1.
       -4    1    3    3    0  502 -0.11887163579E+04 -0.63923664173E+03  0.27230250484E+03  0.13768879151E+04  0.12699999809E+01 0. -1.
</event>
<event>
 5   0  0.1220908E-05  0.2659375E+04  0.7818609E-02  0.8348308E-01
        2   -1    0    0  501    0  0.00000000000E+00  0.00000000000E+00  0.20146628185E+04  0.20146628185E+04  0.25500000920E-02 0. -1.
       -2   -1    0    0    0  501  0.00000000000E+00  0.00000000000E+00 -0.87760054448E+03  0.87760054449E+03  0.25500000920E-02 0.  1.
    10030    2    1    2    0    0  0.00000000000E+00  0.00000000000E+00  0.11370622740E+04  0.28922633630E+04  0.26593752548E+04 0.  0.
        2    1    3    3  502    0 -0.69668099752E+03  0.11859146770E+03 -0.65644479703E+03  0.96454555106E+03  0.25500000920E-02 0.  1.
       -2    1    3    3    0  502  0.69668099752E+03 -0.11859146770E+03  0.17935070710E+04  0.19277178119E+04  0.25500000920E-02 0. -1.
</event>
<event>
 5   0  0.4824715E-06  0.2694210E+04  0.7818609E-02  0.8336886E-01
       -1   -1    0    0    0  501  0.00000000000E+00  0.00000000000E+00  0.75241579384E+03  0.75241579385E+03  0.50400001928E-02 0. -1.
        1   -1    0    0  501    0  0.00000000000E+00  0.00000000000E+00 -0.24118206000E+04  0.24118206001E+04  0.50400001928E-02 0.  1.
    10030    2    1    2    0    0  0.00000000000E+00  0.00000000000E+00 -0.16594048062E+04  0.31642363939E+04  0.26942100226E+04 0.  0.
        5    1    3    3  502    0  0.38026948389E+03 -0.11277452011E+04 -0.88531305517E+02  0.11934295124E+04  0.46999998093E+01 0.  1.
       -5    1    3    3    0  502 -0.38026948389E+03  0.11277452011E+04 -0.15708735007E+04  0.19708068815E+04  0.46999998093E+01 0. -1.
</event>
<event>
 5   0  0.1220908E-05  0.2733111E+04  0.7818609E-02  0.8324341E-01
       -2   -1    0    0    0  501  0.00000000000E+00  0.00000000000E+00  0.74365280404E+03  0.74365280405E+03  0.25500000920E-02 0. -1.
        2   -1    0    0  501    0  0.00000000000E+00  0.00000000000E+00 -0.25112171303E+04  0.25112171303E+04  0.25500000920E-02 0.  1.
    10030    2    1    2    0    0  0.00000000000E+00  0.00000000000E+00 -0.17675643263E+04  0.32548699344E+04  0.27331107995E+04 0.  0.
        2    1    3    3  502    0 -0.20551775200E+03 -0.17997685495E+03  0.71080295109E+03  0.76149198945E+03  0.25500000920E-02 0. -1.
       -2    1    3    3    0  502  0.20551775200E+03  0.17997685495E+03 -0.24783672774E+04  0.24933779449E+04  0.25500000920E-02 0.  1.
</event>
<event>
 5   0  0.4824715E-06  0.2685075E+04  0.7818609E-02  0.8339864E-01
       -1   -1    0    0    0  501  0.00000000000E+00  0.00000000000E+00  0.91956679316E+03  0.91956679317E+03  0.50400001928E-02 0.  1.
        1   -1    0    0  501    0  0.00000000000E+00  0.00000000000E+00 -0.19600606517E+04  0.19600606517E+04  0.50400001928E-02 0. -1.
    10030    2    1    2    0    0  0.00000000000E+00  0.00000000000E+00 -0.10404938585E+04  0.28796274448E+04  0.26850748130E+04 0.  0.
        5    1    3    3  502    0  0.63669246907E+03  0.20143147903E+03 -0.17692946518E+04  0.18911313006E+04  0.46999998093E+01 0. -1.
       -5    1    3    3    0  502 -0.63669246907E+03 -0.20143147903E+03  0.72880079334E+03  0.98849614429E+03  0.46999998093E+01 0.  1.
</event>
<event>
 5   0  0.1276517E-05  0.2718713E+04  0.7818609E-02  0.8328959E-01
        2   -1    0    0  501    0  0.00000000000E+00  0.00000000000E+00  0.11036505644E+04  0.11036505644E+04  0.25500000920E-02 0. -1.
       -2   -1    0    0    0  501  0.00000000000E+00  0.00000000000E+00 -0.16743068262E+04  0.16743068262E+04  0.25500000920E-02 0.  1.
    10030    2    1    2    0    0  0.00000000000E+00  0.00000000000E+00 -0.57065626186E+03  0.27779573906E+04  0.27187126908E+04 0.  0.
        1    1    3    3  502    0  0.22439828999E+03 -0.59730821881E+03 -0.15117835109E+04  0.16409208039E+04  0.50400001928E-02 0.  1.
       -1    1    3    3    0  502 -0.22439828999E+03  0.59730821881E+03  0.94112724899E+03  0.11370365868E+04  0.50400001928E-02 0. -1.
</event>
<event>
 5   0  0.1286641E-05  0.2722987E+04  0.7818609E-02  0.8327585E-01
        2   -1    0    0  501    0  0.00000000000E+00  0.00000000000E+00  0.16307250717E+04  0.16307250717E+04  0.25500000920E-02 0.  1.
       -2   -1    0    0    0  501  0.00000000000E+00  0.00000000000E+00 -0.11367122259E+04  0.11367122259E+04  0.25500000920E-02 0. -1.
    10030    2    1    2    0    0  0.00000000000E+00  0.00000000000E+00  0.49401284575E+03  0.27674372976E+04  0.27229874227E+04 0.  0.
        4    1    3    3  502    0  0.30571614337E+03  0.77619599950E+03 -0.84653212183E+03  0.11885120261E+04  0.12699999809E+01 0. -1.
       -4    1    3    3    0  502 -0.30571614337E+03 -0.77619599950E+03  0.13405449676E+04  0.15789252715E+04  0.12699999809E+01 0.  1.
</event>
<event>
 5   0  0.4824715E-06  0.2672730E+04  0.7818609E-02  0.8343908E-01
       -1   -1    0    0    0  501  0.00000000000E+00  0.00000000000E+00  0.97022982784E+03  0.97022982785E+03  0.50400001928E-02 0. -1.
        1   -1    0    0  501    0  0.00000000000E+00  0.00000000000E+00 -0.18406689672E+04  0.18406689672E+04  0.50400001928E-02 0.  1.
    10030    2    1    2    0    0  0.00000000000E+00  0.00000000000E+00 -0.87043913936E+03  0.28108987951E+04  0.26727303906E+04 0.  0.
        5    1    3    3  502    0 -0.31020915094E+03  0.12297693675E+04  0.76022685409E+01  0.12683226321E+04  0.46999998093E+01 0. -1.
       -5    1    3    3    0  502  0.31020915094E+03 -0.12297693675E+04 -0.87804140790E+03  0.15425761630E+04  0.46999998093E+01 0.  1.
</event>
<event>
 5   0  0.1286641E-05  0.2713198E+04  0.7818609E-02  0.8330735E-01
       -2   -1    0    0    0  501  0.00000000000E+00  0.00000000000E+00  0.15001142872E+04  0.15001142872E+04  0.25500000920E-02 0. -1.
        2   -1    0    0  501    0  0.00000000000E+00  0.00000000000E+00 -0.12268133806E+04  0.12268133806E+04  0.25500000920E-02 0.  1.
    10030    2    1    2    0    0  0.00000000000E+00  0.00000000000E+00  0.27330090658E+03  0.27269276678E+04  0.27131975822E+04 0.  0.
        4    1    3    3  502    0 -0.74625962792E+03 -0.60628286260E+03 -0.82520677600E+03  0.12670636045E+04  0.12699999809E+01 0.  1.
       -4    1    3    3    0  502  0.74625962792E+03  0.60628286260E+03  0.10985076826E+04  0.14598640633E+04  0.12699999809E+01 0. -1.
</event>
<event>
 5   0  0.1261364E-05  0.2688044E+04  0.7818609E-02  0.8338895E-01
        2   -1    0    0  501    0  0.00000000000E+00  0.00000000000E+00  0.24213380239E+04  0.24213380239E+04  0.25500000920E-02 0. -1.
       -2   -1    0    0    0  501  0.00000000000E+00  0.00000000000E+00 -0.74603186668E+03  0.74603186668E+03  0.25500000920E-02 0.  1.
    10030    2    1    2    0    0  0.00000000000E+00  0.00000000000E+00  0.16753061573E+04  0.31673698906E+04  0.26880441409E+04 0.  0.
        5    1    3    3  502    0 -0.11230554196E+04  0.70921738091E+03  0.59579504125E+03  0.14557597982E+04  0.46999998093E+01 0.  1.
       -5    1    3    3    0  502  0.11230554196E+04 -0.70921738091E+03  0.10795111160E+04  0.17116100924E+04  0.46999998093E+01 0. -1.
</event>
<event>
 5   0  0.1276517E-05  0.2715809E+04  0.7818609E-02  0.8329894E-01
        2   -1    0    0  501    0  0.00000000000E+00  0.00000000000E+00  0.89564608801E+03  0.89564608802E+03  0.25500000920E-02 0.  1.
       -2   -1    0    0    0  501  0.00000000000E+00  0.00000000000E+00 -0.20587427749E+04  0.20587427749E+04  0.25500000920E-02 0. -1.
    10030    2    1    2    0    0  0.00000000000E+00  0.00000000000E+00 -0.11630966869E+04  0.29543888629E+04  0.27158092073E+04 0.  0.
        1    1    3    3  502    0  0.12226655708E+04 -0.59062060932E+03 -0.56774036833E+03  0.14717584476E+04  0.50400001928E-02 0.  1.
       -1    1    3    3    0  502 -0.12226655708E+04  0.59062060932E+03 -0.59535631856E+03  0.14826304153E+04  0.50400001928E-02 0. -1.
</event>
<event>
 5   0  0.4756800E-06  0.2706894E+04  0.7818609E-02  0.8332771E-01
       -1   -1    0    0    0  501  0.00000000000E+00  0.00000000000E+00  0.96167082006E+03  0.96167082008E+03  0.50400001928E-02 0.  1.
        1   -1    0    0  501    0  0.00000000000E+00  0.00000000000E+00 -0.19048298944E+04  0.19048298944E+04  0.50400001928E-02 0. -1.
    10030    2    1    2    0    0  0.00000000000E+00  0.00000000000E+00 -0.94315907434E+03  0.28665007145E+04  0.27068944026E+04 0.  0.
        4    1    3    3  502    0 -0.12787817668E+04  0.20535653799E+03 -0.55522197316E+02  0.12963558316E+04  0.12699999809E+01 0. -1.
       -4    1    3    3    0  502  0.12787817668E+04 -0.20535653799E+03 -0.88763687703E+03  0.15701448829E+04  0.12699999809E+01 0.  1.
</event>
<event>
 5   0  0.1276517E-05  0.2700935E+04  0.7818609E-02  0.8334702E-01
        2   -1    0    0  501    0  0.00000000000E+00  0.00000000000E+00  0.20561095464E+04  0.20561095464E+04  0.25500000920E-02 0. -1.
       -2   -1    0    0    0  501  0.00000000000E+00  0.00000000000E+00 -0.88699662478E+03  0.88699662478E+03  0.25500000920E-02 0.  1.
    10030    2    1    2    0    0  0.00000000000E+00  0.00000000000E+00  0.11691129216E+04  0.29431061712E+04  0.27009348217E+04 0.  0.
        1    1    3    3  502    0  0.62305923008E+03 -0.35099358275E+03  0.18328559773E+04  0.19674247973E+04  0.50400001928E-02 0. -1.
       -1    1    3    3    0  502 -0.62305923008E+03  0.35099358275E+03 -0.66374305571E+03  0.97568137389E+03  0.50400001928E-02 0.  1.
</event>
<event>
 5   0  0.4846214E-06  0.2860939E+04  0.7818609E-02  0.8284595E-01
       -1   -1    0    0    0  501  0.00000000000E+00  0.00000000000E+00  0.12183033067E+04  0.12183033067E+04  0.50400001928E-02 0.  1.
        1   -1    0    0  501    0  0.00000000000E+00  0.00000000000E+00 -0.16795844301E+04  0.16795844302E+04  0.50400001928E-02 0. -1.
    10030    2    1    2    0    0  0.00000000000E+00  0.00000000000E+00 -0.46128112349E+03  0.28978877368E+04  0.28609391920E+04 0.  0.
        2    1    3    3  502    0  0.50152950399E+03  0.41195575744E+03  0.10605790996E+04  0.12434095930E+04  0.25500000920E-02 0.  1.
       -2    1    3    3    0  502 -0.50152950399E+03 -0.41195575744E+03 -0.15218602231E+04  0.16544781438E+04  0.25500000920E-02 0. -1.
</event>
<event>
 5   0  0.1232559E-05  0.2659212E+04  0.7818609E-02  0.8348362E-01
       -2   -1    0    0    0  501  0.00000000000E+00  0.00000000000E+00  0.64571108705E+03  0.64571108705E+03  0.25500000920E-02 0.  1.
        2   -1    0    0  501    0  0.00000000000E+00  0.00000000000E+00 -0.27378385119E+04  0.27378385119E+04  0.25500000920E-02 0. -1.
    10030    2    1    2    0    0  0.00000000000E+00  0.00000000000E+00 -0.20921274248E+04  0.33835495989E+04  0.26592124260E+04 0.  0.
        3    1    3    3  502    0 -0.28695546018E+03  0.12919611961E+04 -0.88338951879E+03  0.15911895614E+04  0.10100000352E+00 0.  1.
       -3    1    3    3    0  502  0.28695546018E+03 -0.12919611961E+04 -0.12087379061E+04  0.17923600375E+04  0.10100000352E+00 0. -1.
</event>
<event>
 5   0  0.4756800E-06  0.2504860E+04  0.7818609E-02  0.8401256E-01
       -1   -1    0    0    0  501  0.00000000000E+00  0.00000000000E+00  0.74377494916E+03  0.74377494918E+03  0.50400001928E-02 0. -1.
        1   -1    0    0  501    0  0.00000000000E+00  0.00000000000E+00 -0.21089457009E+04  0.21089457009E+04  0.50400001928E-02 0.  1.
    10030    2    1    2    0    0  0.00000000000E+00  0.00000000000E+00 -0.13651707517E+04  0.28527206501E+04  0.25048600612E+04 0.  0.
        4    1    3    3  502    0  0.65514754983E+02 -0.19548230226E+03 -0.20894864256E+04  0.20996334560E+04  0.12699999809E+01 0.  1.
       -4    1    3    3    0  502 -0.65514754983E+02  0.19548230226E+03  0.72431567388E+03  0.75308719412E+03  0.12699999809E+01 0. -1.
</event>
<event>
 5   0  0.4826140E-06  0.2694216E+04  0.7818609E-02  0.8336884E-01
       -1   -1    0    0    0  501  0.00000000000E+00  0.00000000000E+00  0.14438738319E+04  0.14438738319E+04  0.50400001928E-02 0.  1.
        1   -1    0    0  501    0  0.00000000000E+00  0.00000000000E+00 -0.12568274350E+04  0.12568274351E+04  0.50400001928E-02 0. -1.
    10030    2    1    2    0    0  0.00000000000E+00  0.00000000000E+00  0.18704639685E+03  0.27007012670E+04  0.26942162086E+04 0.  0.
        1    1    3    3  502    0  0.99606934745E+02 -0.46114336158E+03  0.13583549320E+04  0.14379509250E+04  0.50400001928E-02 0.  1.
       -1    1    3    3    0  502 -0.99606934745E+02  0.46114336158E+03 -0.11713085352E+04  0.12627503419E+04  0.50400001928E-02 0. -1.
</event>
<event>
 5   0  0.1276517E-05  0.2677856E+04  0.7818609E-02  0.8342226E-01
        2   -1    0    0  501    0  0.00000000000E+00  0.00000000000E+00  0.11438463600E+04  0.11438463600E+04  0.25500000920E-02 0.  1.
       -2   -1    0    0    0  501  0.00000000000E+00  0.00000000000E+00 -0.15672805414E+04  0.15672805414E+04  0.25500000920E-02 0. -1.
    10030    2    1    2    0    0  0.00000000000E+00  0.00000000000E+00 -0.42343418134E+03  0.27111269014E+04  0.26778559650E+04 0.  0.
        1    1    3    3  502    0 -0.12076701580E+04  0.52287342175E+03 -0.46148923816E+03  0.13945738212E+04  0.50400001928E-02 0. -1.
       -1    1    3    3    0  502  0.12076701580E+04 -0.52287342175E+03  0.38055056814E+02  0.13165530802E+04  0.50400001928E-02 0.  1.
</event>
<event>
 5   0  0.1286641E-05  0.2710367E+04  0.7818609E-02  0.8331649E-01
       -2   -1    0    0    0  501  0.00000000000E+00  0.00000000000E+00  0.17668054667E+04  0.17668054667E+04  0.25500000920E-02 0.  1.
        2   -1    0    0  501    0  0.00000000000E+00  0.00000000000E+00 -0.10394594645E+04  0.10394594645E+04  0.25500000920E-02 0. -1.
    10030    2    1    2    0    0  0.00000000000E+00  0.00000000000E+00  0.72734600225E+03  0.28062649312E+04  0.27103672550E+04 0.  0.
        4    1    3    3  502    0 -0.76469243088E+03 -0.11146001491E+04  0.46423328354E+03  0.14291963338E+04  0.12699999809E+01 0. -1.
       -4    1    3    3    0  502  0.76469243088E+03  0.11146001491E+04  0.26311271871E+03  0.13770685974E+04  0.12699999809E+01 0.  1.
</event>
<event>
 5   0  0.4824715E-06  0.2787155E+04  0.7818609E-02  0.8307267E-01
        1   -1    0    0  501    0  0.00000000000E+00  0.00000000000E+00  0.21587617555E+04  0.21587617555E+04  0.50400001928E-02 0.  1.
       -1   -1    0    0    0  501  0.00000000000E+00  0.00000000000E+00 -0.89961662897E+03  0.89961662898E+03  0.50400001928E-02 0. -1.
    10030    2    1    2    0    0  0.00000000000E+00  0.00000000000E+00  0.12591451265E+04  0.30583783845E+04  0.27871548025E+04 0.  0.
        5    1    3    3  502    0  0.82181644776E+03  0.38528326594E+03  0.17899302705E+04  0.20069125372E+04  0.46999998093E+01 0.  1.
       -5    1    3    3    0  502 -0.82181644776E+03 -0.38528326594E+03 -0.53078514400E+03  0.10514658472E+04  0.46999998093E+01 0. -1.
</event>
<event>
 5   0  0.1276517E-05  0.2719875E+04  0.7818609E-02  0.8328585E-01
        2   -1    0    0  501    0  0.00000000000E+00  0.00000000000E+00  0.17139473570E+04  0.17139473570E+04  0.25500000920E-02 0. -1.
       -2   -1    0    0    0  501  0.00000000000E+00  0.00000000000E+00 -0.10790469427E+04  0.10790469427E+04  0.25500000920E-02 0.  1.
    10030    2    1    2    0    0  0.00000000000E+00  0.00000000000E+00  0.63490041430E+03  0.27929942996E+04  0.27198747438E+04 0.  0.
        1    1    3    3  502    0 -0.29749841535E+03  0.78706367213E+03 -0.77966078437E+03  0.11471030772E+04  0.50400001928E-02 0.  1.
       -1    1    3    3    0  502  0.29749841535E+03 -0.78706367213E+03  0.14145611987E+04  0.16458912224E+04  0.50400001928E-02 0. -1.
</event>
<event>
 5   0  0.1232559E-05  0.2651863E+04  0.7818609E-02  0.8350795E-01
       -2   -1    0    0    0  501  0.00000000000E+00  0.00000000000E+00  0.10481500176E+04  0.10481500176E+04  0.25500000920E-02 0.  1.
        2   -1    0    0  501    0  0.00000000000E+00  0.00000000000E+00 -0.16773303371E+04  0.16773303371E+04  0.25500000920E-02 0. -1.
    10030    2    1    2    0    0  0.00000000000E+00  0.00000000000E+00 -0.62918031957E+03  0.27254803547E+04  0.26518626076E+04 0.  0.
        3    1    3    3  502    0  0.11271577852E+04  0.30680033310E+03 -0.95928598062E+03  0.15115689597E+04  0.10100000352E+00 0. -1.
       -3    1    3    3    0  502 -0.11271577852E+04 -0.30680033310E+03  0.33010566104E+03  0.12139113950E+04  0.10100000352E+00 0.  1.
</event>
<event>
 5   0  0.4826140E-06  0.2713470E+04  0.7818609E-02  0.8330648E-01
       -1   -1    0    0    0  501  0.00000000000E+00  0.00000000000E+00  0.10510823675E+04  0.10510823675E+04  0.50400001928E-02 0.  1.
        1   -1    0    0  501    0  0.00000000000E+00  0.00000000000E+00 -0.17512701745E+04  0.17512701745E+04  0.50400001928E-02 0. -1.
    10030    2    1    2    0    0  0.00000000000E+00  0.00000000000E+00 -0.70018780698E+03  0.28023525420E+04  0.27134695142E+04 0.  0.
        1    1    3    3  502    0 -0.29961271507E+03 -0.37686939232E+03 -0.16600794890E+04  0.17284855301E+04  0.50400001928E-02 0. -1.
       -1    1    3    3    0  502  0.29961271507E+03  0.37686939232E+03  0.95989168204E+03  0.10738670119E+04  0.50400001928E-02 0.  1.
</event>
<event>
 5   0  0.4826140E-06  0.2783031E+04  0.7818609E-02  0.8308556E-01
        1   -1    0    0  501    0  0.00000000000E+00  0.00000000000E+00  0.21642215881E+04  0.21642215881E+04  0.50400001928E-02 0. -1.
       -1   -1    0    0    0  501  0.00000000000E+00  0.00000000000E+00 -0.89469358322E+03  0.89469358323E+03  0.50400001928E-02 0.  1.
    10030    2    1    2    0    0  0.00000000000E+00  0.00000000000E+00  0.12695280049E+04  0.30589151713E+04  0.27830308425E+04 0.  0.
        1    1    3    3  502    0 -0.75456305059E+03  0.45599532846E+03  0.18180630371E+04  0.20205569390E+04  0.50400001928E-02 0. -1.
       -1    1    3    3    0  502  0.75456305059E+03 -0.45599532846E+03 -0.54853503227E+03  0.10383582323E+04  0.50400001928E-02 0.  1.
</event>
<event>
 5   0  0.5152288E-06  0.2724935E+04  0.7818609E-02  0.8326960E-01
        1   -1    0    0  501    0  0.00000000000E+00  0.00000000000E+00  0.27889363476E+04  0.27889363476E+04  0.50400001928E-02 0.  1.
       -1   -1    0    0    0  501  0.00000000000E+00  0.00000000000E+00 -0.66560036678E+03  0.66560036680E+03  0.50400001928E-02 0. -1.
    10030    2    1    2    0    0  0.00000000000E+00  0.00000000000E+00  0.21233359808E+04  0.34545367144E+04  0.27249345356E+04 0.  0.
        3    1    3    3  502    0  0.10593685706E+04  0.70087879770E+03  0.16863797947E+04  0.21112483700E+04  0.10100000352E+00 0.  1.
       -3    1    3    3    0  502 -0.10593685706E+04 -0.70087879770E+03  0.43695618604E+03  0.13432883444E+04  0.10100000352E+00 0. -1.
</event>
<event>
 5   0  0.4824715E-06  0.2715472E+04  0.7818609E-02  0.8330002E-01
        1   -1    0    0  501    0  0.00000000000E+00  0.00000000000E+00  0.17813131640E+04  0.17813131640E+04  0.50400001928E-02 0. -1.
       -1   -1    0    0    0  501  0.00000000000E+00  0.00000000000E+00 -0.10348806112E+04  0.10348806113E+04  0.50400001928E-02 0.  1.
    10030    2    1    2    0    0  0.00000000000E+00  0.00000000000E+00  0.74643255279E+03  0.28161937753E+04  0.27154715657E+04 0.  0.
        5    1    3    3  502    0 -0.61050373668E+03 -0.68998083316E+03  0.14075230348E+04  0.16822400382E+04  0.46999998093E+01 0. -1.
       -5    1    3    3    0  502  0.61050373668E+03  0.68998083316E+03 -0.66109048197E+03  0.11339537371E+04  0.46999998093E+01 0.  1.
</event>
<event>
 5   0  0.4824715E-06  0.2700809E+04  0.7818609E-02  0.8334743E-01
        1   -1    0    0  501    0  0.00000000000E+00  0.00000000000E+00  0.14895322817E+04  0.14895322817E+04  0.50400001928E-02 0.  1.
       -1   -1    0    0    0  501  0.00000000000E+00  0.00000000000E+00 -0.12242717595E+04  0.12242717595E+04  0.50400001928E-02 0. -1.
    10030    2    1    2    0    0  0.00000000000E+00  0.00000000000E+00  0.26526052221E+03  0.27138040412E+04  0.27008089953E+04 0.  0.
        5    1    3    3  502    0  0.44725964610E+03  0.47750850241E+03 -0.10543727331E+04  0.12408785239E+04  0.46999998093E+01 0. -1.
       -5    1    3    3    0  502 -0.44725964610E+03 -0.47750850241E+03  0.13196332553E+04  0.14729255172E+04  0.46999998093E+01 0.  1.
</event>
<event>
 5   0  0.1286641E-05  0.2709519E+04  0.7818609E-02  0.8331923E-01
        2   -1    0    0  501    0  0.00000000000E+00  0.00000000000E+00  0.24695121351E+04  0.24695121351E+04  0.25500000920E-02 0. -1.
       -2   -1    0    0    0  501  0.00000000000E+00  0.00000000000E+00 -0.74321300353E+03  0.74321300353E+03  0.25500000920E-02 0.  1.
    10030    2    1    2    0    0  0.00000000000E+00  0.00000000000E+00  0.17262991316E+04  0.32127251387E+04  0.27095191686E+04 0.  0.
        4    1    3    3  502    0 -0.48508868598E+03  0.53096470235E+03 -0.49817499509E+03  0.87487969861E+03  0.12699999809E+01 0.  1.
       -4    1    3    3    0  502  0.48508868598E+03 -0.53096470235E+03  0.22244741267E+04  0.23378454400E+04  0.12699999809E+01 0. -1.
</event>
<event>
 5   0  0.1276517E-05  0.2755724E+04  0.7818609E-02  0.8317148E-01
        2   -1    0    0  501    0  0.00000000000E+00  0.00000000000E+00  0.17469289310E+04  0.17469289310E+04  0.25500000920E-02 0.  1.
       -2   -1    0    0    0  501  0.00000000000E+00  0.00000000000E+00 -0.10867660238E+04  0.10867660238E+04  0.25500000920E-02 0. -1.
    10030    2    1    2    0    0  0.00000000000E+00  0.00000000000E+00  0.66016290722E+03  0.28336949548E+04  0.27557235045E+04 0.  0.
        1    1    3    3  502    0  0.17402807664E+03 -0.18567803893E+03  0.17225533623E+04  0.17412501806E+04  0.50400001928E-02 0.  1.
       -1    1    3    3    0  502 -0.17402807664E+03  0.18567803893E+03 -0.10623904551E+04  0.10924447742E+04  0.50400001928E-02 0. -1.
</event>
<event>
 5   0  0.4846214E-06  0.2694622E+04  0.7818609E-02  0.8336752E-01
        1   -1    0    0  501    0  0.00000000000E+00  0.00000000000E+00  0.14676739764E+04  0.14676739764E+04  0.50400001928E-02 0. -1.
       -1   -1    0    0    0  501  0.00000000000E+00  0.00000000000E+00 -0.12368192675E+04  0.12368192675E+04  0.50400001928E-02 0.  1.
    10030    2    1    2    0    0  0.00000000000E+00  0.00000000000E+00  0.23085470895E+03  0.27044932439E+04  0.26946223872E+04 0.  0.
        2    1    3    3  502    0 -0.87809721137E+03 -0.52507240876E+02  0.11396732303E+04  0.14396759339E+04  0.25500000920E-02 0. -1.
       -2    1    3    3    0  502  0.87809721137E+03  0.52507240876E+02 -0.90881852132E+03  0.12648173100E+04  0.25500000920E-02 0.  1.
</event>
<event>
 5   0  0.1261364E-05  0.2727277E+04  0.7818609E-02  0.8326209E-01
        2   -1    0    0  501    0  0.00000000000E+00  0.00000000000E+00  0.14779291324E+04  0.14779291324E+04  0.25500000920E-02 0.  1.
       -2   -1    0    0    0  501  0.00000000000E+00  0.00000000000E+00 -0.12581857649E+04  0.12581857649E+04  0.25500000920E-02 0. -1.
    10030    2    1    2    0    0  0.00000000000E+00  0.00000000000E+00  0.21974336750E+03  0.27361148972E+04  0.27272765872E+04 0.  0.
        5    1    3    3  502    0  0.66227741633E+03  0.84518378897E+03 -0.73341183666E+03  0.13003315060E+04  0.46999998093E+01 0. -1.
       -5    1    3    3    0  502 -0.66227741633E+03 -0.84518378897E+03  0.95315520417E+03  0.14357833912E+04  0.46999998093E+01 0.  1.
</event>
<event>
 5   0  0.4846214E-06  0.2702377E+04  0.7818609E-02  0.8334234E-01
        1   -1    0    0  501    0  0.00000000000E+00  0.00000000000E+00  0.10211024149E+04  0.10211024149E+04  0.50400001928E-02 0. -1.
       -1   -1    0    0    0  501  0.00000000000E+00  0.00000000000E+00 -0.17879797446E+04  0.17879797446E+04  0.50400001928E-02 0.  1.
    10030    2    1    2    0    0  0.00000000000E+00  0.00000000000E+00 -0.76687732968E+03  0.28090821596E+04  0.27023770537E+04 0.  0.
        2    1    3    3  502    0  0.53030275447E+01 -0.86181344656E+03  0.69830580622E+03  0.11092256478E+04  0.25500000920E-02 0. -1.
       -2    1    3    3    0  502 -0.53030275447E+01  0.86181344656E+03 -0.14651831359E+04  0.16998565117E+04  0.25500000920E-02 0.  1.
</event>
<event>
 5   0  0.1220908E-05  0.2704417E+04  0.7818609E-02  0.8333573E-01
        2   -1    0    0  501    0  0.00000000000E+00  0.00000000000E+00  0.15117687968E+04  0.15117687968E+04  0.25500000920E-02 0. -1.
       -2   -1    0    0    0  501  0.00000000000E+00  0.00000000000E+00 -0.12094890248E+04  0.12094890248E+04  0.25500000920E-02 0.  1.
    10030    2    1    2    0    0  0.00000000000E+00  0.00000000000E+00  0.30227977196E+03  0.27212578216E+04  0.27044169558E+04 0.  0.
        2    1    3    3  502    0 -0.10710060625E+03  0.90134066559E+03 -0.85739003309E+03  0.12486004982E+04  0.25500000920E-02 0.  1.
       -2    1    3    3    0  502  0.10710060625E+03 -0.90134066559E+03  0.11596698051E+04  0.14726573234E+04  0.25500000920E-02 0. -1.
</event>
<event>
 5   0  0.1232559E-05  0.2712787E+04  0.7818609E-02  0.8330868E-01
        2   -1    0    0  501    0  0.00000000000E+00  0.00000000000E+00  0.18834135731E+04  0.18834135731E+04  0.25500000920E-02 0. -1.
       -2   -1    0    0    0  501  0.00000000000E+00  0.00000000000E+00 -0.97684505622E+03  0.97684505623E+03  0.25500000920E-02 0.  1.
    10030    2    1    2    0    0  0.00000000000E+00  0.00000000000E+00  0.90656851691E+03  0.28602586294E+04  0.27127869343E+04 0.  0.
        3    1    3    3  502    0  0.69698828872E+03  0.66517156284E+03  0.14599414880E+04  0.17491926827E+04  0.10100000352E+00 0. -1.
       -3    1    3    3    0  502 -0.69698828872E+03 -0.66517156284E+03 -0.55337297105E+03  0.11110659467E+04  0.10100000352E+00 0.  1.
</event>
<event>
 5   0  0.1276517E-05  0.2701423E+04  0.7818609E-02  0.8334543E-01
        2   -1    0    0  501    0  0.00000000000E+00  0.00000000000E+00  0.22796000963E+04  0.22796000963E+04  0.25500000920E-02 0. -1.
       -2   -1    0    0    0  501  0.00000000000E+00  0.00000000000E+00 -0.80032535438E+03  0.80032535439E+03  0.25500000920E-02 0.  1.
    10030    2    1    2    0    0  0.00000000000E+00  0.00000000000E+00  0.14792747419E+04  0.30799254507E+04  0.27014231471E+04 0.  0.
        1    1    3    3  502    0  0.19852056786E+03 -0.72046504525E+03 -0.54314918304E+03  0.92384594623E+03  0.50400001928E-02 0.  1.
       -1    1    3    3    0  502 -0.19852056786E+03  0.72046504525E+03  0.20224239250E+04  0.21560795045E+04  0.50400001928E-02 0. -1.
</event>
<event>
 5   0  0.1286641E-05  0.2682623E+04  0.7818609E-02  0.8340665E-01
        2   -1    0    0  501    0  0.00000000000E+00  0.00000000000E+00  0.21897508452E+04  0.21897508452E+04  0.25500000920E-02 0. -1.
       -2   -1    0    0    0  501  0.00000000000E+00  0.00000000000E+00 -0.82160778009E+03  0.82160778009E+03  0.25500000920E-02 0.  1.
    10030    2    1    2    0    0  0.00000000000E+00  0.00000000000E+00  0.13681430651E+04  0.30113586253E+04  0.26826228441E+04 0.  0.
        4    1    3    3  502    0  0.60327743212E+03 -0.92726822190E+03  0.15355367662E+04  0.18925233919E+04  0.12699999809E+01 0. -1.
       -4    1    3    3    0  502 -0.60327743212E+03  0.92726822190E+03 -0.16739370112E+03  0.11188352334E+04  0.12699999809E+01 0.  1.
</event>
<event>
 5   0  0.4824715E-06  0.2696431E+04  0.7818609E-02  0.8336164E-01
       -1   -1    0    0    0  501  0.00000000000E+00  0.00000000000E+00  0.98297578137E+03  0.98297578138E+03  0.50400001928E-02 0.  1.
        1   -1    0    0  501    0  0.00000000000E+00  0.00000000000E+00 -0.18491658145E+04  0.18491658145E+04  0.50400001928E-02 0. -1.
    10030    2    1    2    0    0  0.00000000000E+00  0.00000000000E+00 -0.86619003315E+03  0.28321415959E+04  0.26964311313E+04 0.  0.
        5    1    3    3  502    0 -0.35880236755E+03 -0.58645306543E+03  0.78501426680E+03  0.10435208795E+04  0.46999998093E+01 0.  1.
       -5    1    3    3    0  502  0.35880236755E+03  0.58645306543E+03 -0.16512043000E+04  0.17886207164E+04  0.46999998093E+01 0. -1.
</event>
<event>
 5   0  0.4756800E-06  0.2714928E+04  0.7818609E-02  0.8330178E-01
        1   -1    0    0  501    0  0.00000000000E+00  0.00000000000E+00  0.21037203552E+04  0.21037203552E+04  0.50400001928E-02 0. -1.
       -1   -1    0    0    0  501  0.00000000000E+00  0.00000000000E+00 -0.87592830978E+03  0.87592830979E+03  0.50400001928E-02 0.  1.
    10030    2    1    2    0    0  0.00000000000E+00  0.00000000000E+00  0.12277920454E+04  0.29796486650E+04  0.27149277817E+04 0.  0.
        4    1    3    3  502    0 -0.13025756120E+04 -0.24305124732E+03  0.29030960166E+03  0.13564875272E+04  0.12699999809E+01 0.  1.
       -4    1    3    3    0  502  0.13025756120E+04  0.24305124732E+03  0.93748244377E+03  0.16231611378E+04  0.12699999809E+01 0. -1.
</event>
<event>
 5   0  0.4824715E-06  0.2679370E+04  0.7818609E-02  0.8341730E-01
       -1   -1    0    0    0  501  0.00000000000E+00  0.00000000000E+00  0.18033718469E+04  0.18033718469E+04  0.50400001928E-02 0. -1.
        1   -1    0    0  501    0  0.00000000000E+00  0.00000000000E+00 -0.99522239067E+03  0.99522239069E+03  0.50400001928E-02 0.  1.
    10030    2    1    2    0    0  0.00000000000E+00  0.00000000000E+00  0.80814945625E+03  0.27985942376E+04  0.26793701057E+04 0.  0.
        5    1    3    3  502    0  0.82821423881E+03 -0.48519399774E+03 -0.57205901141E+03  0.11174191887E+04  0.46999998093E+01 0.  1.
       -5    1    3    3    0  502 -0.82821423881E+03  0.48519399774E+03  0.13802084677E+04  0.16811750489E+04  0.46999998093E+01 0. -1.
</event>
<event>
 5   0  0.1232559E-05  0.2704810E+04  0.7818609E-02  0.8333446E-01
        2   -1    0    0  501    0  0.00000000000E+00  0.00000000000E+00  0.10885634456E+04  0.10885634456E+04  0.25500000920E-02 0. -1.
       -2   -1    0    0    0  501  0.00000000000E+00  0.00000000000E+00 -0.16801948221E+04  0.16801948221E+04  0.25500000920E-02 0.  1.
    10030    2    1    2    0    0  0.00000000000E+00  0.00000000000E+00 -0.59163137655E+03  0.27687582677E+04  0.27048095421E+04 0.  0.
        3    1    3    3  502    0  0.10207459966E+04 -0.84547061247E+03 -0.20656238454E+02  0.13255827535E+04  0.10100000352E+00 0. -1.
       -3    1    3    3    0  502 -0.10207459966E+04  0.84547061247E+03 -0.57097513809E+03  0.14431755141E+04  0.10100000352E+00 0.  1.
</event>
<event>
 5   0  0.1220908E-05  0.2557096E+04  0.7818609E-02  0.8382923E-01
       -2   -1    0    0    0  501  0.00000000000E+00  0.00000000000E+00  0.84380331466E+03  0.84380331467E+03  0.25500000920E-02 0. -1.
        2   -1    0    0  501    0  0.00000000000E+00  0.00000000000E+00 -0.19372817742E+04  0.19372817742E+04  0.25500000920E-02 0.  1.
    10030    2    1    2    0    0  0.00000000000E+00  0.00000000000E+00 -0.10934784596E+04  0.27810850889E+04  0.25570958391E+04 0.  0.
        2    1    3    3  502    0  0.12348572988E+03  0.31757593384E+03  0.79351237323E+03  0.86357691361E+03  0.25500000920E-02 0. -1.
       -2    1    3    3    0  502 -0.12348572988E+03 -0.31757593384E+03 -0.18869908328E+04  0.19175081753E+04  0.25500000920E-02 0.  1.
</event>
<event>
 5   0  0.1261364E-05  0.2702458E+04  0.7818609E-02  0.8334208E-01
        2   -1    0    0  501    0  0.00000000000E+00  0.00000000000E+00  0.24062131163E+04  0.24062131163E+04  0.25500000920E-02 0.  1.
       -2   -1    0    0    0  501  0.00000000000E+00  0.00000000000E+00 -0.75879391314E+03  0.75879391315E+03  0.25500000920E-02 0. -1.
    10030    2    1    2    0    0  0.00000000000E+00  0.00000000000E+00  0.16474192032E+04  0.31650070295E+04  0.27024580414E+04 0.  0.
        5    1    3    3  502    0 -0.12707442128E+04  0.30641137851E+03  0.12245111371E+04  0.17911248986E+04  0.46999998093E+01 0.  1.
       -5    1    3    3    0  502  0.12707442128E+04 -0.30641137851E+03  0.42290806610E+03  0.13738821309E+04  0.46999998093E+01 0. -1.
</event>
<event>
 5   0  0.4756800E-06  0.2693980E+04  0.7818609E-02  0.8336961E-01
       -1   -1    0    0    0  501  0.00000000000E+00  0.00000000000E+00  0.11978276332E+04  0.11978276332E+04  0.50400001928E-02 0. -1.
        1   -1    0    0  501    0  0.00000000000E+00  0.00000000000E+00 -0.15147274361E+04  0.15147274361E+04  0.50400001928E-02 0.  1.
    10030    2    1    2    0    0  0.00000000000E+00  0.00000000000E+00 -0.31689980291E+03  0.27125550693E+04  0.26939802373E+04 0.  0.
        4    1    3    3  502    0  0.69778480823E+03  0.10585452811E+04  0.29961428065E+03  0.13027632482E+04  0.12699999809E+01 0. -1.
       -4    1    3    3    0  502 -0.69778480823E+03 -0.10585452811E+04 -0.61651408356E+03  0.14097918211E+04  0.12699999809E+01 0.  1.
</event>
<event>
 5   0  0.4826140E-06  0.2619963E+04  0.7818609E-02  0.8361452E-01
       -1   -1    0    0    0  501  0.00000000000E+00  0.00000000000E+00  0.77434540006E+03  0.77434540008E+03  0.50400001928E-02 0.  1.
        1   -1    0    0  501    0  0.00000000000E+00  0.00000000000E+00 -0.22161314538E+04  0.22161314538E+04  0.50400001928E-02 0. -1.
    10030    2    1    2    0    0  0.00000000000E+00  0.00000000000E+00 -0.14417860537E+04  0.29904768539E+04  0.26199627457E+04 0.  0.
        1    1    3    3  502    0  0.16334226801E+03 -0.85032792766E+03  0.40113633431E+03  0.95427912049E+03  0.50400001928E-02 0.  1.
       -1    1    3    3    0  502 -0.16334226801E+03  0.85032792766E+03 -0.18429223880E+04  0.20361977334E+04  0.50400001928E-02 0. -1.
</event>
<event>
 5   0  0.1220908E-05  0.2642557E+04  0.7818609E-02  0.8353888E-01
       -2   -1    0    0    0  501  0.00000000000E+00  0.00000000000E+00  0.10811090024E+04  0.10811090024E+04  0.25500000920E-02 0.  1.
        2   -1    0    0  501    0  0.00000000000E+00  0.00000000000E+00 -0.16148013910E+04  0.16148013910E+04  0.25500000920E-02 0. -1.
    10030    2    1    2    0    0  0.00000000000E+00  0.00000000000E+00 -0.53369238854E+03  0.26959103934E+04  0.26425565810E+04 0.  0.
        2    1    3    3  502    0  0.11043208312E+04 -0.46302815095E+03 -0.83656261240E+03  0.14607383651E+04  0.25500000920E-02 0. -1.
       -2    1    3    3    0  502 -0.11043208312E+04  0.46302815095E+03  0.30287022385E+03  0.12351720283E+04  0.25500000920E-02 0.  1.
</event>
<event>
 5   0  0.4756800E-06  0.2660874E+04  0.7818609E-02  0.8347813E-01
        1   -1    0    0  501    0  0.00000000000E+00  0.00000000000E+00  0.20804426304E+04  0.20804426304E+04  0.50400001928E-02 0. -1.
       -1   -1    0    0    0  501  0.00000000000E+00  0.00000000000E+00 -0.85081029926E+03  0.85081029927E+03  0.50400001928E-02 0.  1.
    10030    2    1    2    0    0  0.00000000000E+00  0.00000000000E+00  0.12296323312E+04  0.29312529297E+04  0.26608735536E+04 0.  0.
        4    1    3    3  502    0  0.92164248499E+03  0.78068616160E+03  0.31291545205E+00  0.12078482785E+04  0.12699999809E+01 0. -1.
       -4    1    3    3    0  502 -0.92164248499E+03 -0.78068616160E+03  0.12293194157E+04  0.17234046512E+04  0.12699999809E+01 0.  1.
</event>
<event>
 5   0  0.1286641E-05  0.2694757E+04  0.7818609E-02  0.8336708E-01
        2   -1    0    0  501    0  0.00000000000E+00  0.00000000000E+00  0.26222279644E+04  0.26222279644E+04  0.25500000920E-02 0.  1.
       -2   -1    0    0    0  501  0.00000000000E+00  0.00000000000E+00 -0.69232278730E+03  0.69232278731E+03  0.25500000920E-02 0. -1.
    10030    2    1    2    0    0  0.00000000000E+00  0.00000000000E+00  0.19299051771E+04  0.33145507517E+04  0.26947565183E+04 0.  0.
        4    1    3    3  502    0  0.12655043691E+04 -0.44625737880E+03  0.11144854153E+04  0.17443412253E+04  0.12699999809E+01 0. -1.
       -4    1    3    3    0  502 -0.12655043691E+04  0.44625737880E+03  0.81541976176E+03  0.15702095265E+04  0.12699999809E+01 0.  1.
</event>
<event>
 5   0  0.4824715E-06  0.2709393E+04  0.7818609E-02  0.8331964E-01
       -1   -1    0    0    0  501  0.00000000000E+00  0.00000000000E+00  0.15357332120E+04  0.15357332120E+04  0.50400001928E-02 0. -1.
        1   -1    0    0  501    0  0.00000000000E+00  0.00000000000E+00 -0.11950012209E+04  0.11950012209E+04  0.50400001928E-02 0.  1.
    10030    2    1    2    0    0  0.00000000000E+00  0.00000000000E+00  0.34073199108E+03  0.27307344330E+04  0.27093933368E+04 0.  0.
        5    1    3    3  502    0  0.10826043491E+04 -0.39687640232E+03 -0.54631720642E+03  0.12759418621E+04  0.46999998093E+01 0.  1.
       -5    1    3    3    0  502 -0.10826043491E+04  0.39687640232E+03  0.88704919749E+03  0.14547925709E+04  0.46999998093E+01 0. -1.
</event>
<event>
 5   0  0.1261364E-05  0.2741200E+04  0.7818609E-02  0.8321760E-01
       -2   -1    0    0    0  501  0.00000000000E+00  0.00000000000E+00  0.93742876445E+03  0.93742876445E+03  0.25500000920E-02 0. -1.
        2   -1    0    0  501    0  0.00000000000E+00  0.00000000000E+00 -0.20039324465E+04  0.20039324465E+04  0.25500000920E-02 0.  1.
    10030    2    1    2    0    0  0.00000000000E+00  0.00000000000E+00 -0.10665036821E+04  0.29413612110E+04  0.27411996771E+04 0.  0.
        5    1    3    3  502    0  0.11538530594E+04 -0.70109109986E+03 -0.28020064118E+03  0.13789271563E+04  0.46999998093E+01 0.  1.
       -5    1    3    3    0  502 -0.11538530594E+04  0.70109109986E+03 -0.78630304091E+03  0.15624340547E+04  0.46999998093E+01 0. -1.
</event>
<event>
 5   0  0.1276517E-05  0.2689297E+04  0.7818609E-02  0.8338486E-01
       -2   -1    0    0    0  501  0.00000000000E+00  0.00000000000E+00  0.17131299230E+04  0.17131299230E+04  0.25500000920E-02 0. -1.
        2   -1    0    0  501    0  0.00000000000E+00  0.00000000000E+00 -0.10554248605E+04  0.10554248605E+04  0.25500000920E-02 0.  1.
    10030    2    1    2    0    0  0.00000000000E+00  0.00000000000E+00  0.65770506248E+03  0.27685547835E+04  0.26892972391E+04 0.  0.
        1    1    3    3  502    0  0.60302090716E+03 -0.22005466972E+03 -0.88750259712E+03  0.10953169094E+04  0.50400001928E-02 0.  1.
       -1    1    3    3    0  502 -0.60302090716E+03  0.22005466972E+03  0.15452076596E+04  0.16732378741E+04  0.50400001928E-02 0. -1.
</event>
<event>
 5   0  0.5152288E-06  0.2634374E+04  0.7818609E-02  0.8356618E-01
        1   -1    0    0  501    0  0.00000000000E+00  0.00000000000E+00  0.20997371031E+04  0.20997371031E+04  0.50400001928E-02 0. -1.
       -1   -1    0    0    0  501  0.00000000000E+00  0.00000000000E+00 -0.82628545292E+03  0.82628545294E+03  0.50400001928E-02 0.  1.
    10030    2    1    2    0    0  0.00000000000E+00  0.00000000000E+00  0.12734516502E+04  0.29260225561E+04  0.26343744785E+04 0.  0.
        3    1    3    3  502    0  0.21639802111E+03 -0.11097650596E+04 -0.11378423674E+03  0.11363773378E+04  0.10100000352E+00 0.  1.
       -3    1    3    3    0  502 -0.21639802111E+03  0.11097650596E+04  0.13872358869E+04  0.17896452183E+04  0.10100000352E+00 0. -1.
</event>
<event>
 5   0  0.4756800E-06  0.2698263E+04  0.7818609E-02  0.8335569E-01
        1   -1    0    0  501    0  0.00000000000E+00  0.00000000000E+00  0.12509656329E+04  0.12509656329E+04  0.50400001928E-02 0.  1.
       -1   -1    0    0    0  501  0.00000000000E+00  0.00000000000E+00 -0.14550008303E+04  0.14550008303E+04  0.50400001928E-02 0. -1.
    10030    2    1    2    0    0  0.00000000000E+00  0.00000000000E+00 -0.20403519737E+03  0.27059664632E+04  0.26982631706E+04 0.  0.
        4    1    3    3  502    0 -0.61030201659E+03  0.85766242128E+03  0.74425234102E+03  0.12891728124E+04  0.12699999809E+01 0.  1.
       -4    1    3    3    0  502  0.61030201659E+03 -0.85766242128E+03 -0.94828753840E+03  0.14167936507E+04  0.12699999809E+01 0. -1.
</event>
<event>
 5   0  0.4756800E-06  0.2758104E+04  0.7818609E-02  0.8316395E-01
        1   -1    0    0  501    0  0.00000000000E+00  0.00000000000E+00  0.17724505316E+04  0.17724505317E+04  0.50400001928E-02 0. -1.
       -1   -1    0    0    0  501  0.00000000000E+00  0.00000000000E+00 -0.10729690768E+04  0.10729690768E+04  0.50400001928E-02 0.  1.
    10030    2    1    2    0    0  0.00000000000E+00  0.00000000000E+00  0.69948145482E+03  0.28454196085E+04  0.27581041392E+04 0.  0.
        4    1    3    3  502    0 -0.61374985992E+03  0.11569484381E+04 -0.95864287381E+02  0.13131679837E+04  0.12699999809E+01 0.  1.
       -4    1    3    3    0  502  0.61374985992E+03 -0.11569484381E+04  0.79534574220E+03  0.15322516248E+04  0.12699999809E+01 0. -1.
</event>
<event>
 5   0  0.4756800E-06  0.2681878E+04  0.7818609E-02  0.8340909E-01
       -1   -1    0    0    0  501  0.00000000000E+00  0.00000000000E+00  0.12205282712E+04  0.12205282712E+04  0.50400001928E-02 0.  1.
        1   -1    0    0  501    0  0.00000000000E+00  0.00000000000E+00 -0.14732286821E+04  0.14732286821E+04  0.50400001928E-02 0. -1.
    10030    2    1    2    0    0  0.00000000000E+00  0.00000000000E+00 -0.25270041093E+03  0.26937569532E+04  0.26818778916E+04 0.  0.
        4    1    3    3  502    0 -0.34741617232E+03 -0.87632445318E+03  0.83153692271E+03  0.12570194154E+04  0.12699999809E+01 0.  1.
       -4    1    3    3    0  502  0.34741617232E+03  0.87632445318E+03 -0.10842373336E+04  0.14367375378E+04  0.12699999809E+01 0. -1.
</event>
<event>
 5   0  0.5152288E-06  0.2662907E+04  0.7818609E-02  0.8347142E-01
        1   -1    0    0  501    0  0.00000000000E+00  0.00000000000E+00  0.18788776714E+04  0.18788776714E+04  0.50400001928E-02 0.  1.
       -1   -1    0    0    0  501  0.00000000000E+00  0.00000000000E+00 -0.94352484148E+03  0.94352484150E+03  0.50400001928E-02 0. -1.
    10030    2    1    2    0    0  0.00000000000E+00  0.00000000000E+00  0.93535282991E+03  0.28224025129E+04  0.26629065001E+04 0.  0.
        3    1    3    3  502    0  0.35202086588E+03  0.12656795902E+04  0.69722205378E+03  0.14872733836E+04  0.10100000352E+00 0.  1.
       -3    1    3    3    0  502 -0.35202086588E+03 -0.12656795902E+04  0.23813077613E+03  0.13351291293E+04  0.10100000352E+00 0. -1.
</event>
<event>
 5   0  0.1261364E-05  0.2747897E+04  0.7818609E-02  0.8319629E-01
        2   -1    0    0  501    0  0.00000000000E+00  0.00000000000E+00  0.21854792800E+04  0.21854792800E+04  0.25500000920E-02 0. -1.
       -2   -1    0    0    0  501  0.00000000000E+00  0.00000000000E+00 -0.86376206747E+03  0.86376206747E+03  0.25500000920E-02 0.  1.
    10030    2    1    2    0    0  0.00000000000E+00  0.00000000000E+00  0.13217172125E+04  0.30492413475E+04  0.27478967239E+04 0.  0.
        5    1    3    3  502    0  0.15871561583E+03 -0.55579518155E+03  0.20439880558E+04  0.21241488161E+04  0.46999998093E+01 0. -1.
       -5    1    3    3    0  502 -0.15871561583E+03  0.55579518155E+03 -0.72227084329E+03  0.92509253138E+03  0.46999998093E+01 0.  1.
</event>
<event>
 5   0  0.1220908E-05  0.2823656E+04  0.7818609E-02  0.8295962E-01
       -2   -1    0    0    0  501  0.00000000000E+00  0.00000000000E+00  0.11332168149E+04  0.11332168149E+04  0.25500000920E-02 0.  1.
        2   -1    0    0  501    0  0.00000000000E+00  0.00000000000E+00 -0.17589378178E+04  0.17589378178E+04  0.25500000920E-02 0. -1.
    10030    2    1    2    0    0  0.00000000000E+00  0.00000000000E+00 -0.62572100290E+03  0.28921546327E+04  0.28236557237E+04 0.  0.
        2    1    3    3  502    0 -0.11206216248E+04 -0.70611441370E+03 -0.81345758602E+03  0.15543820751E+04  0.25500000920E-02 0. -1.
       -2    1    3    3    0  502  0.11206216248E+04  0.70611441370E+03  0.18773658312E+03  0.13377725576E+04  0.25500000920E-02 0.  1.
</event>
<event>
 5   0  0.4846214E-06  0.2749293E+04  0.7818609E-02  0.8319186E-01
       -1   -1    0    0    0  501  0.00000000000E+00  0.00000000000E+00  0.15373428875E+04  0.15373428875E+04  0.50400001928E-02 0. -1.
        1   -1    0    0  501    0  0.00000000000E+00  0.00000000000E+00 -0.12291685810E+04  0.12291685810E+04  0.50400001928E-02 0.  1.
    10030    2    1    2    0    0  0.00000000000E+00  0.00000000000E+00  0.30817430656E+03  0.27665114685E+04  0.27492934187E+04 0.  0.
        2    1    3    3  502    0  0.77265559497E+03  0.10286756943E+04  0.64135445624E+03  0.14375346574E+04  0.25500000920E-02 0. -1.
       -2    1    3    3    0  502 -0.77265559497E+03 -0.10286756943E+04 -0.33318014968E+03  0.13289768112E+04  0.25500000920E-02 0.  1.
</event>
<event>
 5   0  0.4826140E-06  0.2712446E+04  0.7818609E-02  0.8330978E-01
        1   -1    0    0  501    0  0.00000000000E+00  0.00000000000E+00  0.18419552723E+04  0.18419552723E+04  0.50400001928E-02 0.  1.
       -1   -1    0    0    0  501  0.00000000000E+00  0.00000000000E+00 -0.99858063583E+03  0.99858063584E+03  0.50400001928E-02 0. -1.
    10030    2    1    2    0    0  0.00000000000E+00  0.00000000000E+00  0.84337463647E+03  0.28405359082E+04  0.27124460304E+04 0.  0.
        1    1    3    3  502    0  0.88368171581E+03 -0.71717239294E+03 -0.35078518802E+03  0.11909155571E+04  0.50400001928E-02 0. -1.
       -1    1    3    3    0  502 -0.88368171581E+03  0.71717239294E+03  0.11941598245E+04  0.16496203510E+04  0.50400001928E-02 0.  1.
</event>
<event>
 5   0  0.5152288E-06  0.2668509E+04  0.7818609E-02  0.8345295E-01
       -1   -1    0    0    0  501  0.00000000000E+00  0.00000000000E+00  0.15759353870E+04  0.15759353870E+04  0.50400001928E-02 0. -1.
        1   -1    0    0  501    0  0.00000000000E+00  0.00000000000E+00 -0.11296374850E+04  0.11296374850E+04  0.50400001928E-02 0.  1.
    10030    2    1    2    0    0  0.00000000000E+00  0.00000000000E+00  0.44629790198E+03  0.27055728720E+04  0.26685094620E+04 0.  0.
        3    1    3    3  502    0 -0.10207830664E+04  0.63082095209E+03 -0.36830791892E+03  0.12552226399E+04  0.10100000352E+00 0.  1.
       -3    1    3    3    0  502  0.10207830664E+04 -0.63082095209E+03  0.81460582090E+03  0.14503502322E+04  0.10100000352E+00 0. -1.
</event>
<event>
 5   0  0.4826140E-06  0.2684945E+04  0.7818609E-02  0.8339906E-01
       -1   -1    0    0    0  501  0.00000000000E+00  0.00000000000E+00  0.14581170613E+04  0.14581170613E+04  0.50400001928E-02 0. -1.
        1   -1    0    0  501    0  0.00000000000E+00  0.00000000000E+00 -0.12360000077E+04  0.12360000077E+04  0.50400001928E-02 0.  1.
    10030    2    1    2    0    0  0.00000000000E+00  0.00000000000E+00  0.22211705360E+03  0.26941170690E+04  0.26849452128E+04 0.  0.
        1    1    3    3  502    0 -0.54270144280E+03  0.19923212923E+02  0.13429783860E+04  0.14486244288E+04  0.50400001928E-02 0. -1.
       -1    1    3    3    0  502  0.54270144280E+03 -0.19923212923E+02 -0.11208613324E+04  0.12454926402E+04  0.50400001928E-02 0.  1.
</event>
<event>
 5   0  0.4756800E-06  0.2664823E+04  0.7818609E-02  0.8346510E-01
       -1   -1    0    0    0  501  0.00000000000E+00  0.00000000000E+00  0.14253225612E+04  0.14253225612E+04  0.50400001928E-02 0. -1.
        1   -1    0    0  501    0  0.00000000000E+00  0.00000000000E+00 -0.12455570550E+04  0.12455570550E+04  0.50400001928E-02 0.  1.
    10030    2    1    2    0    0  0.00000000000E+00  0.00000000000E+00  0.17976550621E+03  0.26708796162E+04  0.26648231249E+04 0.  0.
        4    1    3    3  502    0 -0.32479258735E+03  0.93287909893E+03  0.98609917995E+03  0.13957603102E+04  0.12699999809E+01 0. -1.
       -4    1    3    3    0  502  0.32479258735E+03 -0.93287909893E+03 -0.80633367375E+03  0.12751193059E+04  0.12699999809E+01 0.  1.
</event>
<event>
 5   0  0.4756800E-06  0.2656751E+04  0.7818609E-02  0.8349176E-01
        1   -1    0    0  501    0  0.00000000000E+00  0.00000000000E+00  0.17747750255E+04  0.17747750255E+04  0.50400001928E-02 0.  1.
       -1   -1    0    0    0  501  0.00000000000E+00  0.00000000000E+00 -0.99425624079E+03  0.99425624080E+03  0.50400001928E-02 0. -1.
    10030    2    1    2    0    0  0.00000000000E+00  0.00000000000E+00  0.78051878469E+03  0.27690312663E+04  0.26567507562E+04 0.  0.
        4    1    3    3  502    0  0.10284750889E+04 -0.61367088833E+03  0.98919902221E+03  0.15533413296E+04  0.12699999809E+01 0.  1.
       -4    1    3    3    0  502 -0.10284750889E+04  0.61367088833E+03 -0.20868023752E+03  0.12156899367E+04  0.12699999809E+01 0. -1.
</event>
<event>
 5   0  0.5152288E-06  0.2700256E+04  0.7818609E-02  0.8334922E-01
        1   -1    0    0  501    0  0.00000000000E+00  0.00000000000E+00  0.21390773923E+04  0.21390773923E+04  0.50400001928E-02 0. -1.
       -1   -1    0    0    0  501  0.00000000000E+00  0.00000000000E+00 -0.85216425010E+03  0.85216425011E+03  0.50400001928E-02 0.  1.
    10030    2    1    2    0    0  0.00000000000E+00  0.00000000000E+00  0.12869131422E+04  0.29912416424E+04  0.27002557523E+04 0.  0.
        3    1    3    3  502    0 -0.10687646963E+04 -0.77395385910E+03  0.95986328301E+03  0.16317475554E+04  0.10100000352E+00 0. -1.
       -3    1    3    3    0  502  0.10687646963E+04  0.77395385910E+03  0.32704985919E+03  0.13594940871E+04  0.10100000352E+00 0.  1.
</event>
<event>
 5   0  0.1220908E-05  0.2720591E+04  0.7818609E-02  0.8328355E-01
        2   -1    0    0  501    0  0.00000000000E+00  0.00000000000E+00  0.23149479989E+04  0.23149479989E+04  0.25500000920E-02 0.  1.
       -2   -1    0    0    0  501  0.00000000000E+00  0.00000000000E+00 -0.79932831452E+03  0.79932831453E+03  0.25500000920E-02 0. -1.
    10030    2    1    2    0    0  0.00000000000E+00  0.00000000000E+00  0.15156196843E+04  0.31142763134E+04  0.27205907315E+04 0.  0.
        2    1    3    3  502    0  0.47259000667E+03 -0.11670555395E+04  0.16848800185E+03  0.12703338748E+04  0.25500000920E-02 0. -1.
       -2    1    3    3    0  502 -0.47259000667E+03  0.11670555395E+04  0.13471316825E+04  0.18439424386E+04  0.25500000920E-02 0.  1.
</event>
<event>
 5   0  0.4824715E-06  0.2699293E+04  0.7818609E-02  0.8335234E-01
       -1   -1    0    0    0  501  0.00000000000E+00  0.00000000000E+00  0.12710157824E+04  0.12710157824E+04  0.50400001928E-02 0. -1.
        1   -1    0    0  501    0  0.00000000000E+00  0.00000000000E+00 -0.14331418946E+04  0.14331418946E+04  0.50400001928E-02 0.  1.
    10030    2    1    2    0    0  0.00000000000E+00  0.00000000000E+00 -0.16212611219E+03  0.27041576770E+04  0.26992932160E+04 0.  0.
        5    1    3    3  502    0  0.12275249784E+03 -0.94615227748E+03 -0.10373783308E+04  0.14094141333E+04  0.46999998093E+01 0.  1.
       -5    1    3    3    0  502 -0.12275249784E+03  0.94615227748E+03  0.87525221860E+03  0.12947435437E+04  0.46999998093E+01 0. -1.
</event>
<event>
 5   0  0.1276517E-05  0.2624068E+04  0.7818609E-02  0.8360072E-01
       -2   -1    0    0    0  501  0.00000000000E+00  0.00000000000E+00  0.12013317928E+04  0.12013317928E+04  0.25500000920E-02 0. -1.
        2   -1    0    0  501    0  0.00000000000E+00  0.00000000000E+00 -0.14329372938E+04  0.14329372938E+04  0.25500000920E-02 0.  1.
    10030    2    1    2    0    0  0.00000000000E+00  0.00000000000E+00 -0.23160550102E+03  0.26342690866E+04  0.26240679322E+04 0.  0.
        1    1    3    3  502    0  0.60016626324E+03 -0.97095038563E+03 -0.76522483060E+03  0.13742318714E+04  0.50400001928E-02 0.  1.
       -1    1    3    3    0  502 -0.60016626324E+03  0.97095038563E+03  0.53361932958E+03  0.12600372153E+04  0.50400001928E-02 0. -1.
</event>
<event>
 5   0  0.5152288E-06  0.2613162E+04  0.7818609E-02  0.8363744E-01
       -1   -1    0    0    0  501  0.00000000000E+00  0.00000000000E+00  0.10965876546E+04  0.10965876547E+04  0.50400001928E-02 0. -1.
        1   -1    0    0  501    0  0.00000000000E+00  0.00000000000E+00 -0.15567877091E+04  0.15567877092E+04  0.50400001928E-02 0.  1.
    10030    2    1    2    0    0  0.00000000000E+00  0.00000000000E+00 -0.46020005450E+03  0.26533753638E+04  0.26131622091E+04 0.  0.
        3    1    3    3  502    0 -0.65300943437E+03 -0.27988241707E+03 -0.13435137500E+04  0.15197975837E+04  0.10100000352E+00 0.  1.
       -3    1    3    3    0  502  0.65300943437E+03  0.27988241707E+03  0.88331369549E+03  0.11335777801E+04  0.10100000352E+00 0. -1.
</event>
<event>
 5   0  0.1276517E-05  0.2647665E+04  0.7818609E-02  0.8352189E-01
        2   -1    0    0  501    0  0.00000000000E+00  0.00000000000E+00  0.20615324408E+04  0.20615324408E+04  0.25500000920E-02 0.  1.
       -2   -1    0    0    0  501  0.00000000000E+00  0.00000000000E+00 -0.85011126692E+03  0.85011126692E+03  0.25500000920E-02 0. -1.
    10030    2    1    2    0    0  0.00000000000E+00  0.00000000000E+00  0.12114211739E+04  0.29116437077E+04  0.26476645974E+04 0.  0.
        1    1    3    3  502    0 -0.10512606959E+04  0.53271167533E+03 -0.57402960701E+02  0.11799262179E+04  0.50400001928E-02 0. -1.
       -1    1    3    3    0  502  0.10512606959E+04 -0.53271167533E+03  0.12688241346E+04  0.17317174898E+04  0.50400001928E-02 0.  1.
</event>
<event>
 5   0  0.4826140E-06  0.2674854E+04  0.7818609E-02  0.8343210E-01
        1   -1    0    0  501    0  0.00000000000E+00  0.00000000000E+00  0.22174076654E+04  0.22174076654E+04  0.50400001928E-02 0. -1.
       -1   -1    0    0    0  501  0.00000000000E+00  0.00000000000E+00 -0.80666766038E+03  0.80666766040E+03  0.50400001928E-02 0.  1.
    10030    2    1    2    0    0  0.00000000000E+00  0.00000000000E+00  0.14107400050E+04  0.30240753258E+04  0.26748540548E+04 0.  0.
        1    1    3    3  502    0 -0.12916165972E+04  0.11064362131E+03  0.10772452999E+04  0.16855185793E+04  0.50400001928E-02 0. -1.
       -1    1    3    3    0  502  0.12916165972E+04 -0.11064362131E+03  0.33349470504E+03  0.13385567464E+04  0.50400001928E-02 0.  1.
</event>
<event>
 5   0  0.1261364E-05  0.2725855E+04  0.7818609E-02  0.8326665E-01
        2   -1    0    0  501    0  0.00000000000E+00  0.00000000000E+00  0.29224453088E+04  0.29224453088E+04  0.25500000920E-02 0.  1.
       -2   -1    0    0    0  501  0.00000000000E+00  0.00000000000E+00 -0.63562207477E+03  0.63562207478E+03  0.25500000920E-02 0. -1.
    10030    2    1    2    0    0  0.00000000000E+00  0.00000000000E+00  0.22868232340E+04  0.35580673836E+04  0.27258545453E+04 0.  0.
        5    1    3    3  502    0  0.80879130461E+03  0.84718545004E+03  0.20530892982E+04  0.23636971713E+04  0.46999998093E+01 0.  1.
       -5    1    3    3    0  502 -0.80879130461E+03 -0.84718545004E+03  0.23373393578E+03  0.11943702122E+04  0.46999998093E+01 0. -1.
</event>
<event>
 5   0  0.4846214E-06  0.2711106E+04  0.7818609E-02  0.8331410E-01
        1   -1    0    0  501    0  0.00000000000E+00  0.00000000000E+00  0.16370498177E+04  0.16370498177E+04  0.50400001928E-02 0.  1.
       -1   -1    0    0    0  501  0.00000000000E+00  0.00000000000E+00 -0.11224607990E+04  0.11224607990E+04  0.50400001928E-02 0. -1.
    10030    2    1    2    0    0  0.00000000000E+00  0.00000000000E+00  0.51458901871E+03  0.27595106167E+04  0.27111062291E+04 0.  0.
        2    1    3    3  502    0 -0.61527769136E+03 -0.61867497900E+03  0.13132164211E+04  0.15766618965E+04  0.25500000920E-02 0.  1.
       -2    1    3    3    0  502  0.61527769136E+03  0.61867497900E+03 -0.79862740238E+03  0.11828487202E+04  0.25500000920E-02 0. -1.
</event>
<event>
 5   0  0.1232559E-05  0.2701593E+04  0.7818609E-02  0.8334488E-01
        2   -1    0    0  501    0  0.00000000000E+00  0.00000000000E+00  0.22245889037E+04  0.22245889037E+04  0.25500000920E-02 0. -1.
       -2   -1    0    0    0  501  0.00000000000E+00  0.00000000000E+00 -0.82021969580E+03  0.82021969580E+03  0.25500000920E-02 0.  1.
    10030    2    1    2    0    0  0.00000000000E+00  0.00000000000E+00  0.14043692079E+04  0.30448085995E+04  0.27015933327E+04 0.  0.
        3    1    3    3  502    0  0.99744591973E+03  0.83509382484E+03  0.11122351294E+04  0.17115335382E+04  0.10100000352E+00 0. -1.
       -3    1    3    3    0  502 -0.99744591973E+03 -0.83509382484E+03  0.29213407850E+03  0.13332750613E+04  0.10100000352E+00 0.  1.
</event>
<event>
 5   0  0.1220908E-05  0.2701195E+04  0.7818609E-02  0.8334617E-01
       -2   -1    0    0    0  501  0.00000000000E+00  0.00000000000E+00  0.12258688389E+04  0.12258688389E+04  0.25500000920E-02 0.  1.
        2   -1    0    0  501    0  0.00000000000E+00  0.00000000000E+00 -0.14880164392E+04  0.14880164392E+04  0.25500000920E-02 0. -1.
    10030    2    1    2    0    0  0.00000000000E+00  0.00000000000E+00 -0.26214760032E+03  0.27138852781E+04  0.27011945392E+04 0.  0.
        2    1    3    3  502    0  0.80164444117E+03 -0.36355697117E+03  0.89809496568E+03  0.12575301383E+04  0.25500000920E-02 0.  1.
       -2    1    3    3    0  502 -0.80164444117E+03  0.36355697117E+03 -0.11602425660E+04  0.14563551398E+04  0.25500000920E-02 0. -1.
</event>
<event>
 5   0  0.4846214E-06  0.2695371E+04  0.7818609E-02  0.8336508E-01
       -1   -1    0    0    0  501  0.00000000000E+00  0.00000000000E+00  0.91196783770E+03  0.91196783772E+03  0.50400001928E-02 0. -1.
        1   -1    0    0  501    0  0.00000000000E+00  0.00000000000E+00 -0.19915796311E+04  0.19915796311E+04  0.50400001928E-02 0.  1.
    10030    2    1    2    0    0  0.00000000000E+00  0.00000000000E+00 -0.10796117934E+04  0.29035474688E+04  0.26953712693E+04 0.  0.
        2    1    3    3  502    0  0.39428874234E+03  0.34230851409E+03  0.79857654397E+03  0.95412956549E+03  0.25500000920E-02 0. -1.
       -2    1    3    3    0  502 -0.39428874234E+03 -0.34230851409E+03 -0.18781883373E+04  0.19494179033E+04  0.25500000920E-02 0.  1.
</event>
<event>
 5   0  0.1261364E-05  0.2689501E+04  0.7818609E-02  0.8338419E-01
        2   -1    0    0  501    0  0.00000000000E+00  0.00000000000E+00  0.22212615300E+04  0.22212615300E+04  0.25500000920E-02 0. -1.
       -2   -1    0    0    0  501  0.00000000000E+00  0.00000000000E+00 -0.81411137087E+03  0.81411137088E+03  0.25500000920E-02 0.  1.
    10030    2    1    2    0    0  0.00000000000E+00  0.00000000000E+00  0.14071501592E+04  0.30353729009E+04  0.26895012692E+04 0.  0.
        5    1    3    3  502    0  0.89913106301E+03  0.96568978015E+02 -0.41969158913E+03  0.99695805126E+03  0.46999998093E+01 0.  1.
       -5    1    3    3    0  502 -0.89913106301E+03 -0.96568978015E+02  0.18268417483E+04  0.20384148496E+04  0.46999998093E+01 0. -1.
</event>
<event>
 5   0  0.1261364E-05  0.2692088E+04  0.7818609E-02  0.8337577E-01
        2   -1    0    0  501    0  0.00000000000E+00  0.00000000000E+00  0.10438813990E+04  0.10438813990E+04  0.25500000920E-02 0. -1.
       -2   -1    0    0    0  501  0.00000000000E+00  0.00000000000E+00 -0.17356710806E+04  0.17356710806E+04  0.25500000920E-02 0.  1.
    10030    2    1    2    0    0  0.00000000000E+00  0.00000000000E+00 -0.69178968165E+03  0.27795524796E+04  0.26920882273E+04 0.  0.
        5    1    3    3  502    0 -0.66956755669E+03 -0.11008114391E+04  0.56254306352E+02  0.12896872390E+04  0.46999998093E+01 0. -1.
       -5    1    3    3    0  502  0.66956755669E+03  0.11008114391E+04 -0.74804398800E+03  0.14898652407E+04  0.46999998093E+01 0.  1.
</event>
<event>
 5   0  0.1232559E-05  0.2682466E+04  0.7818609E-02  0.8340717E-01
       -2   -1    0    0    0  501  0.00000000000E+00  0.00000000000E+00  0.10292224424E+04  0.10292224424E+04  0.25500000920E-02 0.  1.
        2   -1    0    0  501    0  0.00000000000E+00  0.00000000000E+00 -0.17478304655E+04  0.17478304655E+04  0.25500000920E-02 0. -1.
    10030    2    1    2    0    0  0.00000000000E+00  0.00000000000E+00 -0.71860802310E+03  0.27770529079E+04  0.26824662836E+04 0.  0.
        3    1    3    3  502    0 -0.12459987874E+03 -0.11507038277E+04 -0.10608886830E+04  0.15700730037E+04  0.10100000352E+00 0. -1.
       -3    1    3    3    0  502  0.12459987874E+03  0.11507038277E+04  0.34228065987E+03  0.12069799043E+04  0.10100000352E+00 0.  1.
</event>
<event>
 5   0  0.1276517E-05  0.2633645E+04  0.7818609E-02  0.8356862E-01
        2   -1    0    0  501    0  0.00000000000E+00  0.00000000000E+00  0.13405947817E+04  0.13405947817E+04  0.25500000920E-02 0.  1.
       -2   -1    0    0    0  501  0.00000000000E+00  0.00000000000E+00 -0.12934716950E+04  0.12934716950E+04  0.25500000920E-02 0. -1.
    10030    2    1    2    0    0  0.00000000000E+00  0.00000000000E+00  0.47123086715E+02  0.26340664767E+04  0.26336449302E+04 0.  0.
        1    1    3    3  502    0  0.71043348507E+03 -0.77907240959E+03  0.81258061421E+03  0.13311486809E+04  0.50400001928E-02 0.  1.
       -1    1    3    3    0  502 -0.71043348507E+03  0.77907240959E+03 -0.76545752749E+03  0.13029177958E+04  0.50400001928E-02 0. -1.
</event>
<event>
 5   0  0.4824715E-06  0.2706661E+04  0.7818609E-02  0.8332847E-01
       -1   -1    0    0    0  501  0.00000000000E+00  0.00000000000E+00  0.13272910034E+04  0.13272910034E+04  0.50400001928E-02 0.  1.
        1   -1    0    0  501    0  0.00000000000E+00  0.00000000000E+00 -0.13798808216E+04  0.13798808216E+04  0.50400001928E-02 0. -1.
    10030    2    1    2    0    0  0.00000000000E+00  0.00000000000E+00 -0.52589818233E+02  0.27071718250E+04  0.27066609690E+04 0.  0.
        5    1    3    3  502    0 -0.12782200398E+04 -0.39893745416E+03 -0.22250468438E+03  0.13573975052E+04  0.46999998093E+01 0.  1.
       -5    1    3    3    0  502  0.12782200398E+04  0.39893745416E+03  0.16991486615E+03  0.13497743198E+04  0.46999998093E+01 0. -1.
</event>
<event>
 5   0  0.4826140E-06  0.2678226E+04  0.7818609E-02  0.8342105E-01
       -1   -1    0    0    0  501  0.00000000000E+00  0.00000000000E+00  0.81035988121E+03  0.81035988122E+03  0.50400001928E-02 0. -1.
        1   -1    0    0  501    0  0.00000000000E+00  0.00000000000E+00 -0.22128727825E+04  0.22128727825E+04  0.50400001928E-02 0.  1.
    10030    2    1    2    0    0  0.00000000000E+00  0.00000000000E+00 -0.14025129013E+04  0.30232326638E+04  0.26782257748E+04 0.  0.
        1    1    3    3  502    0  0.48253541322E+03  0.54748298208E+03  0.56616437125E+03  0.92364502704E+03  0.50400001928E-02 0. -1.
       -1    1    3    3    0  502 -0.48253541322E+03 -0.54748298208E+03 -0.19686772726E+04  0.20995876367E+04  0.50400001928E-02 0.  1.
</event>
<event>
 5   0  0.1220908E-05  0.2746504E+04  0.7818609E-02  0.8320072E-01
       -2   -1    0    0    0  501  0.00000000000E+00  0.00000000000E+00  0.77581795713E+03  0.77581795713E+03  0.25500000920E-02 0.  1.
        2   -1    0    0  501    0  0.00000000000E+00  0.00000000000E+00 -0.24307522659E+04  0.24307522659E+04  0.25500000920E-02 0. -1.
    10030    2    1    2    0    0  0.00000000000E+00  0.00000000000E+00 -0.16549343087E+04  0.32065702230E+04  0.27465041469E+04 0.  0.
        2    1    3    3  502    0  0.14859641001E+02 -0.89810858047E+03  0.38528346615E+03  0.97737565989E+03  0.25500000920E-02 0.  1.
       -2    1    3    3    0  502 -0.14859641001E+02  0.89810858047E+03 -0.20402177749E+04  0.22291945631E+04  0.25500000920E-02 0. -1.
</event>
<event>
 5   0  0.4846214E-06  0.2568302E+04  0.7818609E-02  0.8379049E-01
       -1   -1    0    0    0  501  0.00000000000E+00  0.00000000000E+00  0.88602980223E+03  0.88602980224E+03  0.50400001928E-02 0. -1.
        1   -1    0    0  501    0  0.00000000000E+00  0.00000000000E+00 -0.18611606602E+04  0.18611606602E+04  0.50400001928E-02 0.  1.
    10030    2    1    2    0    0  0.00000000000E+00  0.00000000000E+00 -0.97513085798E+03  0.27471904625E+04  0.25683020163E+04 0.  0.
        2    1    3    3  502    0  0.19230236198E+03  0.10257735474E+03 -0.18412322232E+04  0.18540869483E+04  0.25500000920E-02 0.  1.
       -2    1    3    3    0  502 -0.19230236198E+03 -0.10257735474E+03  0.86610136523E+03  0.89310351415E+03  0.25500000920E-02 0. -1.
</event>
<event>
 5   0  0.1232559E-05  0.2242544E+04  0.7818609E-02  0.8500926E-01
       -2   -1    0    0    0  501  0.00000000000E+00  0.00000000000E+00  0.53425099057E+03  0.53425099057E+03  0.25500000920E-02 0.  1.
        2   -1    0    0  501    0  0.00000000000E+00  0.00000000000E+00 -0.23532972036E+04  0.23532972036E+04  0.25500000920E-02 0. -1.
    10030    2    1    2    0    0  0.00000000000E+00  0.00000000000E+00 -0.18190462130E+04  0.28875481941E+04  0.22425444139E+04 0.  0.
        3    1    3    3  502    0 -0.33685534866E+02  0.10055949913E+04 -0.27231915854E+03  0.10423596962E+04  0.10100000352E+00 0.  1.
       -3    1    3    3    0  502  0.33685534866E+02 -0.10055949913E+04 -0.15467270545E+04  0.18451884980E+04  0.10100000352E+00 0. -1.
</event>
<event>
 5   0  0.1261364E-05  0.2774562E+04  0.7818609E-02  0.8311210E-01
       -2   -1    0    0    0  501  0.00000000000E+00  0.00000000000E+00  0.93949551120E+03  0.93949551120E+03  0.25500000920E-02 0.  1.
        2   -1    0    0  501    0  0.00000000000E+00  0.00000000000E+00 -0.20484919782E+04  0.20484919782E+04  0.25500000920E-02 0. -1.
    10030    2    1    2    0    0  0.00000000000E+00  0.00000000000E+00 -0.11089964670E+04  0.29879874894E+04  0.27745623210E+04 0.  0.
        5    1    3    3  502    0 -0.57938584080E+03  0.66290964204E+03  0.60006561975E+03  0.10654754732E+04  0.46999998093E+01 0.  1.
       -5    1    3    3    0  502  0.57938584080E+03 -0.66290964204E+03 -0.17090620867E+04  0.19225120162E+04  0.46999998093E+01 0. -1.
</event>
<event>
 5   0  0.4824715E-06  0.2593387E+04  0.7818609E-02  0.8370451E-01
        1   -1    0    0  501    0  0.00000000000E+00  0.00000000000E+00  0.12925021535E+04  0.12925021535E+04  0.50400001928E-02 0.  1.
       -1   -1    0    0    0  501  0.00000000000E+00  0.00000000000E+00 -0.13008980678E+04  0.13008980678E+04  0.50400001928E-02 0. -1.
    10030    2    1    2    0    0  0.00000000000E+00  0.00000000000E+00 -0.83959143219E+01  0.25934002213E+04  0.25933866307E+04 0.  0.
        5    1    3    3  502    0  0.71471580284E+03  0.69414947507E+03  0.82570354910E+03  0.12940133746E+04  0.46999998093E+01 0.  1.
       -5    1    3    3    0  502 -0.71471580284E+03 -0.69414947507E+03 -0.83409946342E+03  0.12993868467E+04  0.46999998093E+01 0. -1.
</event>
<event>
 5   0  0.4824715E-06  0.2730498E+04  0.7818609E-02  0.8325177E-01
        1   -1    0    0  501    0  0.00000000000E+00  0.00000000000E+00  0.14111852928E+04  0.14111852928E+04  0.50400001928E-02 0.  1.
       -1   -1    0    0    0  501  0.00000000000E+00  0.00000000000E+00 -0.13208080074E+04  0.13208080075E+04  0.50400001928E-02 0. -1.
    10030    2    1    2    0    0  0.00000000000E+00  0.00000000000E+00  0.90377285376E+02  0.27319933003E+04  0.27304980020E+04 0.  0.
        5    1    3    3  502    0  0.32731882727E+02 -0.13569679249E+04  0.19172504898E+03  0.13708442325E+04  0.46999998093E+01 0.  1.
       -5    1    3    3    0  502 -0.32731882727E+02  0.13569679249E+04 -0.10134776360E+03  0.13611490678E+04  0.46999998093E+01 0. -1.
</event>
<event>
 5   0  0.1276517E-05  0.2706681E+04  0.7818609E-02  0.8332841E-01
        2   -1    0    0  501    0  0.00000000000E+00  0.00000000000E+00  0.23068427231E+04  0.23068427231E+04  0.25500000920E-02 0.  1.
       -2   -1    0    0    0  501  0.00000000000E+00  0.00000000000E+00 -0.79395533151E+03  0.79395533151E+03  0.25500000920E-02 0. -1.
    10030    2    1    2    0    0  0.00000000000E+00  0.00000000000E+00  0.15128873916E+04  0.31007980546E+04  0.27066806823E+04 0.  0.
        1    1    3    3  502    0 -0.96910547224E+03 -0.53084014090E+03 -0.13872606310E+03  0.11136433864E+04  0.50400001928E-02 0. -1.
       -1    1    3    3    0  502  0.96910547224E+03  0.53084014090E+03  0.16516134547E+04  0.19871546682E+04  0.50400001928E-02 0.  1.
</event>
<event>
 5   0  0.1286641E-05  0.2730038E+04  0.7818609E-02  0.8325324E-01
        2   -1    0    0  501    0  0.00000000000E+00  0.00000000000E+00  0.23690625015E+04  0.23690625015E+04  0.25500000920E-02 0.  1.
       -2   -1    0    0    0  501  0.00000000000E+00  0.00000000000E+00 -0.78650378351E+03  0.78650378352E+03  0.25500000920E-02 0. -1.
    10030    2    1    2    0    0  0.00000000000E+00  0.00000000000E+00  0.15825587180E+04  0.31555662850E+04  0.27300378172E+04 0.  0.
        4    1    3    3  502    0 -0.51630418188E+03 -0.11637788054E+04  0.13602721473E+04  0.18631406398E+04  0.12699999809E+01 0.  1.
       -4    1    3    3    0  502  0.51630418188E+03  0.11637788054E+04  0.22228657068E+03  0.12924256452E+04  0.12699999809E+01 0. -1.
</event>
<event>
 5   0  0.4846214E-06  0.2649851E+04  0.7818609E-02  0.8351462E-01
       -1   -1    0    0    0  501  0.00000000000E+00  0.00000000000E+00  0.10246080210E+04  0.10246080210E+04  0.50400001928E-02 0. -1.
        1   -1    0    0  501    0  0.00000000000E+00  0.00000000000E+00 -0.17132680281E+04  0.17132680281E+04  0.50400001928E-02 0.  1.
    10030    2    1    2    0    0  0.00000000000E+00  0.00000000000E+00 -0.68866000709E+03  0.27378760491E+04  0.26498514402E+04 0.  0.
        2    1    3    3  502    0 -0.58098343551E+03 -0.27114844467E+02  0.88565651107E+03  0.10595585981E+04  0.25500000920E-02 0. -1.
       -2    1    3    3    0  502  0.58098343551E+03  0.27114844467E+02 -0.15743165182E+04  0.16783174510E+04  0.25500000920E-02 0.  1.
</event>
<event>
 5   0  0.4756800E-06  0.2662805E+04  0.7818609E-02  0.8347175E-01
        1   -1    0    0  501    0  0.00000000000E+00  0.00000000000E+00  0.33875633916E+04  0.33875633916E+04  0.50400001928E-02 0.  1.
       -1   -1    0    0    0  501  0.00000000000E+00  0.00000000000E+00 -0.52327648134E+03  0.52327648137E+03  0.50400001928E-02 0. -1.
    10030    2    1    2    0    0  0.00000000000E+00  0.00000000000E+00  0.28642869103E+04  0.39108398730E+04  0.26628047258E+04 0.  0.
        4    1    3    3  502    0  0.12226499191E+04  0.49973202048E+03  0.11862714285E+04  0.17753440320E+04  0.12699999809E+01 0.  1.
       -4    1    3    3    0  502 -0.12226499191E+04 -0.49973202048E+03  0.16780154818E+04  0.21354958410E+04  0.12699999809E+01 0. -1.
</event>
<event>
 5   0  0.1232559E-05  0.2711939E+04  0.7818609E-02  0.8331142E-01
        2   -1    0    0  501    0  0.00000000000E+00  0.00000000000E+00  0.27767321680E+04  0.27767321680E+04  0.25500000920E-02 0.  1.
       -2   -1    0    0    0  501  0.00000000000E+00  0.00000000000E+00 -0.66216439176E+03  0.66216439177E+03  0.25500000920E-02 0. -1.
    10030    2    1    2    0    0  0.00000000000E+00  0.00000000000E+00  0.21145677762E+04  0.34388965598E+04  0.27119389131E+04 0.  0.
        3    1    3    3  502    0 -0.30019817425E+03  0.43196635763E+03 -0.52750450998E+03  0.74496637253E+03  0.10100000352E+00 0. -1.
       -3    1    3    3    0  502  0.30019817425E+03 -0.43196635763E+03  0.26420722862E+04  0.26939301872E+04  0.10100000352E+00 0.  1.
</event>
<event>
 5   0  0.4826140E-06  0.2684259E+04  0.7818609E-02  0.8340131E-01
       -1   -1    0    0    0  501  0.00000000000E+00  0.00000000000E+00  0.12834052001E+04  0.12834052001E+04  0.50400001928E-02 0. -1.
        1   -1    0    0  501    0  0.00000000000E+00  0.00000000000E+00 -0.14035403665E+04  0.14035403665E+04  0.50400001928E-02 0.  1.
    10030    2    1    2    0    0  0.00000000000E+00  0.00000000000E+00 -0.12013516641E+03  0.26869455667E+04  0.26842585606E+04 0.  0.
        1    1    3    3  502    0  0.46064651131E+03 -0.10587235870E+04  0.62488353244E+03  0.13128481524E+04  0.50400001928E-02 0. -1.
       -1    1    3    3    0  502 -0.46064651131E+03  0.10587235870E+04 -0.74501869885E+03  0.13740974142E+04  0.50400001928E-02 0.  1.
</event>
<event>
 5   0  0.1261364E-05  0.2693834E+04  0.7818609E-02  0.8337009E-01
       -2   -1    0    0    0  501  0.00000000000E+00  0.00000000000E+00  0.81369528481E+03  0.81369528482E+03  0.25500000920E-02 0.  1.
        2   -1    0    0  501    0  0.00000000000E+00  0.00000000000E+00 -0.22295628174E+04  0.22295628174E+04  0.25500000920E-02 0. -1.
    10030    2    1    2    0    0  0.00000000000E+00  0.00000000000E+00 -0.14158675326E+04  0.30432581022E+04  0.26938335150E+04 0.  0.
        5    1    3    3  502    0 -0.24466463079E+03 -0.56616622602E+03  0.64478001445E+03  0.89228265369E+03  0.46999998093E+01 0.  1.
       -5    1    3    3    0  502  0.24466463079E+03  0.56616622602E+03 -0.20606475470E+04  0.21509754485E+04  0.46999998093E+01 0. -1.
</event>
<event>
 5   0  0.4846214E-06  0.2686234E+04  0.7818609E-02  0.8339485E-01
        1   -1    0    0  501    0  0.00000000000E+00  0.00000000000E+00  0.23109899668E+04  0.23109899668E+04  0.50400001928E-02 0.  1.
       -1   -1    0    0    0  501  0.00000000000E+00  0.00000000000E+00 -0.78060223955E+03  0.78060223956E+03  0.50400001928E-02 0. -1.
    10030    2    1    2    0    0  0.00000000000E+00  0.00000000000E+00  0.15303877272E+04  0.30915922063E+04  0.26862344973E+04 0.  0.
        2    1    3    3  502    0 -0.64965553806E+03  0.81941117702E+03 -0.20489892808E+03  0.10655846123E+04  0.25500000920E-02 0. -1.
       -2    1    3    3    0  502  0.64965553806E+03 -0.81941117702E+03  0.17352866553E+04  0.20260075941E+04  0.25500000920E-02 0.  1.
</event>
<event>
 5   0  0.1276517E-05  0.2704256E+04  0.7818609E-02  0.8333625E-01
       -2   -1    0    0    0  501  0.00000000000E+00  0.00000000000E+00  0.11671717955E+04  0.11671717955E+04  0.25500000920E-02 0.  1.
        2   -1    0    0  501    0  0.00000000000E+00  0.00000000000E+00 -0.15663936266E+04  0.15663936266E+04  0.25500000920E-02 0. -1.
    10030    2    1    2    0    0  0.00000000000E+00  0.00000000000E+00 -0.39922183106E+03  0.27335654220E+04  0.27042562464E+04 0.  0.
        1    1    3    3  502    0  0.34639370424E+03  0.12720227371E+04 -0.50323281234E+03  0.14111249787E+04  0.50400001928E-02 0. -1.
       -1    1    3    3    0  502 -0.34639370424E+03 -0.12720227371E+04  0.10401098128E+03  0.13224404434E+04  0.50400001928E-02 0.  1.
</event>
<event>
 5   0  0.1220908E-05  0.2716988E+04  0.7818609E-02  0.8329514E-01
       -2   -1    0    0    0  501  0.00000000000E+00  0.00000000000E+00  0.76553411896E+03  0.76553411897E+03  0.25500000920E-02 0. -1.
        2   -1    0    0  501    0  0.00000000000E+00  0.00000000000E+00 -0.24107425988E+04  0.24107425988E+04  0.25500000920E-02 0.  1.
    10030    2    1    2    0    0  0.00000000000E+00  0.00000000000E+00 -0.16452084798E+04  0.31762767177E+04  0.27169878258E+04 0.  0.
        2    1    3    3  502    0  0.30610028235E+03 -0.43095649080E+03 -0.22855838738E+04  0.23459144323E+04  0.25500000920E-02 0.  1.
       -2    1    3    3    0  502 -0.30610028235E+03  0.43095649080E+03  0.64037539396E+03  0.83036228540E+03  0.25500000920E-02 0. -1.
</event>
<event>
 5   0  0.4188000E-06  0.2698552E+04  0.7818609E-02  0.8335475E-01
       -3   -1    0    0    0  501  0.00000000000E+00  0.00000000000E+00  0.14116468040E+04  0.14116468076E+04  0.10100000352E+00 0. -1.
        3   -1    0    0  501    0  0.00000000000E+00  0.00000000000E+00 -0.12896605249E+04  0.12896605288E+04  0.10100000352E+00 0.  1.
    10030    2    1    2    0    0  0.00000000000E+00  0.00000000000E+00  0.12198627910E+03  0.27013073364E+04  0.26985515881E+04 0.  0.
        3    1    3    3  502    0 -0.40987888953E+03  0.11094718986E+04  0.71097629749E+03  0.13800057622E+04  0.10100000352E+00 0. -1.
       -3    1    3    3    0  502  0.40987888953E+03 -0.11094718986E+04 -0.58899001839E+03  0.13213015742E+04  0.10100000352E+00 0.  1.
</event>
<event>
 5   0  0.4756800E-06  0.2675502E+04  0.7818609E-02  0.8342998E-01
       -1   -1    0    0    0  501  0.00000000000E+00  0.00000000000E+00  0.98409933743E+03  0.98409933744E+03  0.50400001928E-02 0.  1.
        1   -1    0    0  501    0  0.00000000000E+00  0.00000000000E+00 -0.18184929588E+04  0.18184929588E+04  0.50400001928E-02 0. -1.
    10030    2    1    2    0    0  0.00000000000E+00  0.00000000000E+00 -0.83439362135E+03  0.28025922962E+04  0.26755019835E+04 0.  0.
        4    1    3    3  502    0 -0.52541198290E+03 -0.37864462208E+03  0.80893783915E+03  0.10362487839E+04  0.12699999809E+01 0.  1.
       -4    1    3    3    0  502  0.52541198290E+03  0.37864462208E+03 -0.16433314605E+04  0.17663435123E+04  0.12699999809E+01 0. -1.
</event>
<event>
 5   0  0.1286641E-05  0.2706428E+04  0.7818609E-02  0.8332922E-01
        2   -1    0    0  501    0  0.00000000000E+00  0.00000000000E+00  0.24301113588E+04  0.24301113588E+04  0.25500000920E-02 0.  1.
       -2   -1    0    0    0  501  0.00000000000E+00  0.00000000000E+00 -0.75354057655E+03  0.75354057655E+03  0.25500000920E-02 0. -1.
    10030    2    1    2    0    0  0.00000000000E+00  0.00000000000E+00  0.16765707823E+04  0.31836519354E+04  0.27064275453E+04 0.  0.
        4    1    3    3  502    0 -0.25893368988E+03  0.44700950906E+03 -0.63298405801E+03  0.81702789888E+03  0.12699999809E+01 0. -1.
       -4    1    3    3    0  502  0.25893368988E+03 -0.44700950906E+03  0.23095548403E+04  0.23666240365E+04  0.12699999809E+01 0.  1.
</event>
<event>
 5   0  0.1261364E-05  0.2699176E+04  0.7818609E-02  0.8335272E-01
       -2   -1    0    0    0  501  0.00000000000E+00  0.00000000000E+00  0.11364999994E+04  0.11364999994E+04  0.25500000920E-02 0. -1.
        2   -1    0    0  501    0  0.00000000000E+00  0.00000000000E+00 -0.16026294013E+04  0.16026294013E+04  0.25500000920E-02 0.  1.
    10030    2    1    2    0    0  0.00000000000E+00  0.00000000000E+00 -0.46612940196E+03  0.27391294007E+04  0.26991764030E+04 0.  0.
        5    1    3    3  502    0  0.15840700784E+03 -0.10743847119E+03  0.11226477785E+04  0.11388572912E+04  0.46999998093E+01 0. -1.
       -5    1    3    3    0  502 -0.15840700784E+03  0.10743847119E+03 -0.15887771804E+04  0.16002721095E+04  0.46999998093E+01 0.  1.
</event>
<event>
 5   0  0.4826140E-06  0.2491119E+04  0.7818609E-02  0.8406156E-01
        1   -1    0    0  501    0  0.00000000000E+00  0.00000000000E+00  0.97527956221E+03  0.97527956223E+03  0.50400001928E-02 0. -1.
       -1   -1    0    0    0  501  0.00000000000E+00  0.00000000000E+00 -0.15907421413E+04  0.15907421414E+04  0.50400001928E-02 0.  1.
    10030    2    1    2    0    0  0.00000000000E+00  0.00000000000E+00 -0.61546257913E+03  0.25660217036E+04  0.24911188645E+04 0.  0.
        1    1    3    3  502    0  0.99167941142E+03  0.24225862477E+03 -0.10428426603E+04  0.14593279654E+04  0.50400001928E-02 0.  1.
       -1    1    3    3    0  502 -0.99167941142E+03 -0.24225862477E+03  0.42738008121E+03  0.11066937382E+04  0.50400001928E-02 0. -1.
</event>
<event>
 5   0  0.1286641E-05  0.2620917E+04  0.7818609E-02  0.8361131E-01
        2   -1    0    0  501    0  0.00000000000E+00  0.00000000000E+00  0.27999229045E+04  0.27999229045E+04  0.25500000920E-02 0. -1.
       -2   -1    0    0    0  501  0.00000000000E+00  0.00000000000E+00 -0.61333902210E+03  0.61333902211E+03  0.25500000920E-02 0.  1.
    10030    2    1    2    0    0  0.00000000000E+00  0.00000000000E+00  0.21865838824E+04  0.34132619266E+04  0.26209173785E+04 0.  0.
        4    1    3    3  502    0 -0.11278359919E+03 -0.70840986340E+03  0.25215325754E+04  0.26215821209E+04  0.12699999809E+01 0. -1.
       -4    1    3    3    0  502  0.11278359919E+03  0.70840986340E+03 -0.33494869308E+03  0.79167980566E+03  0.12699999809E+01 0.  1.
</event>
<event>
 5   0  0.5152288E-06  0.2710049E+04  0.7818609E-02  0.8331752E-01
       -1   -1    0    0    0  501  0.00000000000E+00  0.00000000000E+00  0.12983766467E+04  0.12983766467E+04  0.50400001928E-02 0. -1.
        1   -1    0    0  501    0  0.00000000000E+00  0.00000000000E+00 -0.14141435361E+04  0.14141435361E+04  0.50400001928E-02 0.  1.
    10030    2    1    2    0    0  0.00000000000E+00  0.00000000000E+00 -0.11576688944E+03  0.27125201828E+04  0.27100486655E+04 0.  0.
        3    1    3    3  502    0  0.87370196512E+03  0.13722446157E+03 -0.10854185627E+04  0.14001139750E+04  0.10100000352E+00 0. -1.
       -3    1    3    3    0  502 -0.87370196512E+03 -0.13722446157E+03  0.96965167321E+03  0.13124062078E+04  0.10100000352E+00 0.  1.
</event>
<event>
 5   0  0.4846214E-06  0.2697960E+04  0.7818609E-02  0.8335667E-01
       -1   -1    0    0    0  501  0.00000000000E+00  0.00000000000E+00  0.16059799466E+04  0.16059799466E+04  0.50400001928E-02 0.  1.
        1   -1    0    0  501    0  0.00000000000E+00  0.00000000000E+00 -0.11331070075E+04  0.11331070075E+04  0.50400001928E-02 0. -1.
    10030    2    1    2    0    0  0.00000000000E+00  0.00000000000E+00  0.47287293916E+03  0.27390869541E+04  0.26979600674E+04 0.  0.
        2    1    3    3  502    0 -0.78607587105E+03  0.56723786858E+03 -0.71598607017E+03  0.12051183043E+04  0.25500000920E-02 0. -1.
       -2    1    3    3    0  502  0.78607587105E+03 -0.56723786858E+03  0.11888590093E+04  0.15339686498E+04  0.25500000920E-02 0.  1.
</event>
<event>
 5   0  0.4846214E-06  0.2753850E+04  0.7818609E-02  0.8317741E-01
       -1   -1    0    0    0  501  0.00000000000E+00  0.00000000000E+00  0.17023428147E+04  0.17023428147E+04  0.50400001928E-02 0.  1.
        1   -1    0    0  501    0  0.00000000000E+00  0.00000000000E+00 -0.11137134969E+04  0.11137134969E+04  0.50400001928E-02 0. -1.
    10030    2    1    2    0    0  0.00000000000E+00  0.00000000000E+00  0.58862931780E+03  0.28160563116E+04  0.27538497919E+04 0.  0.
        2    1    3    3  502    0  0.12001698391E+04  0.35091008121E+03  0.88385880913E+03  0.15312582807E+04  0.25500000920E-02 0.  1.
       -2    1    3    3    0  502 -0.12001698391E+04 -0.35091008121E+03 -0.29522949133E+03  0.12847980309E+04  0.25500000920E-02 0. -1.
</event>
<event>
 5   0  0.4826140E-06  0.2811564E+04  0.7818609E-02  0.8299687E-01
        1   -1    0    0  501    0  0.00000000000E+00  0.00000000000E+00  0.14278791351E+04  0.14278791351E+04  0.50400001928E-02 0.  1.
       -1   -1    0    0    0  501  0.00000000000E+00  0.00000000000E+00 -0.13840268639E+04  0.13840268639E+04  0.50400001928E-02 0. -1.
    10030    2    1    2    0    0  0.00000000000E+00  0.00000000000E+00  0.43852271196E+02  0.28119059991E+04  0.28115640355E+04 0.  0.
        1    1    3    3  502    0 -0.47243297581E+03 -0.62680349680E+02  0.13446229422E+04  0.14265807371E+04  0.50400001928E-02 0.  1.
       -1    1    3    3    0  502  0.47243297581E+03  0.62680349680E+02 -0.13007706710E+04  0.13853252619E+04  0.50400001928E-02 0. -1.
</event>
<event>
 5   0  0.4824715E-06  0.2690757E+04  0.7818609E-02  0.8338010E-01
       -1   -1    0    0    0  501  0.00000000000E+00  0.00000000000E+00  0.10246851696E+04  0.10246851696E+04  0.50400001928E-02 0.  1.
        1   -1    0    0  501    0  0.00000000000E+00  0.00000000000E+00 -0.17664378429E+04  0.17664378429E+04  0.50400001928E-02 0. -1.
    10030    2    1    2    0    0  0.00000000000E+00  0.00000000000E+00 -0.74175267328E+03  0.27911230125E+04  0.26907565186E+04 0.  0.
        5    1    3    3  502    0 -0.93878150837E+03 -0.36929531709E+03  0.55245558596E+03  0.11501821665E+04  0.46999998093E+01 0.  1.
       -5    1    3    3    0  502  0.93878150837E+03  0.36929531709E+03 -0.12942082592E+04  0.16409408460E+04  0.46999998093E+01 0. -1.
</event>
<event>
 5   0  0.4846214E-06  0.2460734E+04  0.7818609E-02  0.8417109E-01
        1   -1    0    0  501    0  0.00000000000E+00  0.00000000000E+00  0.16048965631E+04  0.16048965631E+04  0.50400001928E-02 0.  1.
       -1   -1    0    0    0  501  0.00000000000E+00  0.00000000000E+00 -0.94324036592E+03  0.94324036593E+03  0.50400001928E-02 0. -1.
    10030    2    1    2    0    0  0.00000000000E+00  0.00000000000E+00  0.66165619719E+03  0.25481369290E+04  0.24607342168E+04 0.  0.
        2    1    3    3  502    0 -0.10190771101E+02  0.10888053217E+04 -0.26240980430E+03  0.11200266898E+04  0.25500000920E-02 0. -1.
       -2    1    3    3    0  502  0.10190771101E+02 -0.10888053217E+04  0.92406600149E+03  0.14281102393E+04  0.25500000920E-02 0.  1.
</event>
<event>
 5   0  0.1286641E-05  0.2742302E+04  0.7818609E-02  0.8321408E-01
        2   -1    0    0  501    0  0.00000000000E+00  0.00000000000E+00  0.19071060365E+04  0.19071060365E+04  0.25500000920E-02 0. -1.
       -2   -1    0    0    0  501  0.00000000000E+00  0.00000000000E+00 -0.98581597993E+03  0.98581597994E+03  0.25500000920E-02 0.  1.
    10030    2    1    2    0    0  0.00000000000E+00  0.00000000000E+00  0.92129005658E+03  0.28929220165E+04  0.27423023949E+04 0.  0.
        4    1    3    3  502    0 -0.58411135649E+03 -0.11688627000E+04  0.22339565230E+02  0.13068767185E+04  0.12699999809E+01 0.  1.
       -4    1    3    3    0  502  0.58411135649E+03  0.11688627000E+04  0.89895049135E+03  0.15860452979E+04  0.12699999809E+01 0. -1.
</event>
<event>
 5   0  0.1286641E-05  0.2706174E+04  0.7818609E-02  0.8333005E-01
        2   -1    0    0  501    0  0.00000000000E+00  0.00000000000E+00  0.25823800541E+04  0.25823800541E+04  0.25500000920E-02 0. -1.
       -2   -1    0    0    0  501  0.00000000000E+00  0.00000000000E+00 -0.70897545266E+03  0.70897545267E+03  0.25500000920E-02 0.  1.
    10030    2    1    2    0    0  0.00000000000E+00  0.00000000000E+00  0.18734046015E+04  0.32913555068E+04  0.27061737327E+04 0.  0.
        4    1    3    3  502    0 -0.12363361726E+04  0.29340459764E+03  0.15022590053E+04  0.19675866236E+04  0.12699999809E+01 0. -1.
       -4    1    3    3    0  502  0.12363361726E+04 -0.29340459764E+03  0.37114559620E+03  0.13237688832E+04  0.12699999809E+01 0.  1.
</event>
<event>
 5   0  0.1276517E-05  0.2662905E+04  0.7818609E-02  0.8347142E-01
       -2   -1    0    0    0  501  0.00000000000E+00  0.00000000000E+00  0.10464130101E+04  0.10464130101E+04  0.25500000920E-02 0. -1.
        2   -1    0    0  501    0  0.00000000000E+00  0.00000000000E+00 -0.16941358569E+04  0.16941358569E+04  0.25500000920E-02 0.  1.
    10030    2    1    2    0    0  0.00000000000E+00  0.00000000000E+00 -0.64772284683E+03  0.27405488670E+04  0.26629050313E+04 0.  0.
        1    1    3    3  502    0 -0.16701091108E+03 -0.82102291596E+03  0.74110261761E+03  0.11185724665E+04  0.50400001928E-02 0. -1.
       -1    1    3    3    0  502  0.16701091108E+03  0.82102291596E+03 -0.13888254644E+04  0.16219764005E+04  0.50400001928E-02 0.  1.
</event>
<event>
 5   0  0.4756800E-06  0.2682181E+04  0.7818609E-02  0.8340810E-01
        1   -1    0    0  501    0  0.00000000000E+00  0.00000000000E+00  0.14152265291E+04  0.14152265291E+04  0.50400001928E-02 0. -1.
       -1   -1    0    0    0  501  0.00000000000E+00  0.00000000000E+00 -0.12708381042E+04  0.12708381042E+04  0.50400001928E-02 0.  1.
    10030    2    1    2    0    0  0.00000000000E+00  0.00000000000E+00  0.14438842494E+03  0.26860646333E+04  0.26821810523E+04 0.  0.
        4    1    3    3  502    0 -0.58304318669E+03  0.59445721781E+03 -0.98061453194E+03  0.12864389665E+04  0.12699999809E+01 0.  1.
       -4    1    3    3    0  502  0.58304318669E+03 -0.59445721781E+03  0.11250029569E+04  0.13996256668E+04  0.12699999809E+01 0. -1.
</event>
<event>
 5   0  0.4756800E-06  0.2516568E+04  0.7818609E-02  0.8397107E-01
        1   -1    0    0  501    0  0.00000000000E+00  0.00000000000E+00  0.19688723435E+04  0.19688723435E+04  0.50400001928E-02 0.  1.
       -1   -1    0    0    0  501  0.00000000000E+00  0.00000000000E+00 -0.80415526266E+03  0.80415526268E+03  0.50400001928E-02 0. -1.
    10030    2    1    2    0    0  0.00000000000E+00  0.00000000000E+00  0.11647170808E+04  0.27730276062E+04  0.25165683433E+04 0.  0.
        4    1    3    3  502    0 -0.11849907543E+04 -0.10061486368E+03  0.12943399845E+03  0.11962780661E+04  0.12699999809E+01 0. -1.
       -4    1    3    3    0  502  0.11849907543E+04  0.10061486368E+03  0.10352830824E+04  0.15767495401E+04  0.12699999809E+01 0.  1.
</event>
<event>
 5   0  0.1261364E-05  0.2684918E+04  0.7818609E-02  0.8339915E-01
        2   -1    0    0  501    0  0.00000000000E+00  0.00000000000E+00  0.18548146032E+04  0.18548146032E+04  0.25500000920E-02 0. -1.
       -2   -1    0    0    0  501  0.00000000000E+00  0.00000000000E+00 -0.97163161048E+03  0.97163161049E+03  0.25500000920E-02 0.  1.
    10030    2    1    2    0    0  0.00000000000E+00  0.00000000000E+00  0.88318299276E+03  0.28264462137E+04  0.26849182484E+04 0.  0.
        5    1    3    3  502    0  0.33635899994E+03 -0.11760382172E+04 -0.14071266608E+03  0.12312698362E+04  0.46999998093E+01 0. -1.
       -5    1    3    3    0  502 -0.33635899994E+03  0.11760382172E+04  0.10238956588E+04  0.15951763775E+04  0.46999998093E+01 0.  1.
</event>
<event>
 5   0  0.4824715E-06  0.2692908E+04  0.7818609E-02  0.8337310E-01
       -1   -1    0    0    0  501  0.00000000000E+00  0.00000000000E+00  0.75304776960E+03  0.75304776962E+03  0.50400001928E-02 0.  1.
        1   -1    0    0  501    0  0.00000000000E+00  0.00000000000E+00 -0.24074673256E+04  0.24074673256E+04  0.50400001928E-02 0. -1.
    10030    2    1    2    0    0  0.00000000000E+00  0.00000000000E+00 -0.16544195560E+04  0.31605150952E+04  0.26929076479E+04 0.  0.
        5    1    3    3  502    0  0.66262099849E+03  0.44090281087E+03 -0.21018185435E+04  0.22474708354E+04  0.46999998093E+01 0. -1.
       -5    1    3    3    0  502 -0.66262099849E+03 -0.44090281087E+03  0.44739898753E+03  0.91304425978E+03  0.46999998093E+01 0.  1.
</event>
<event>
 5   0  0.4824715E-06  0.2702051E+04  0.7818609E-02  0.8334340E-01
       -1   -1    0    0    0  501  0.00000000000E+00  0.00000000000E+00  0.86167623328E+03  0.86167623329E+03  0.50400001928E-02 0.  1.
        1   -1    0    0  501    0  0.00000000000E+00  0.00000000000E+00 -0.21182783355E+04  0.21182783355E+04  0.50400001928E-02 0. -1.
    10030    2    1    2    0    0  0.00000000000E+00  0.00000000000E+00 -0.12566021022E+04  0.29799545688E+04  0.27020511447E+04 0.  0.
        5    1    3    3  502    0  0.57556795513E+03 -0.93263301465E+03 -0.14995973157E+04  0.18573898380E+04  0.46999998093E+01 0. -1.
       -5    1    3    3    0  502 -0.57556795513E+03  0.93263301465E+03  0.24299521352E+03  0.11225647308E+04  0.46999998093E+01 0.  1.
</event>
<event>
 5   0  0.1220908E-05  0.2703477E+04  0.7818609E-02  0.8333878E-01
        2   -1    0    0  501    0  0.00000000000E+00  0.00000000000E+00  0.13889155733E+04  0.13889155733E+04  0.25500000920E-02 0. -1.
       -2   -1    0    0    0  501  0.00000000000E+00  0.00000000000E+00 -0.13155562272E+04  0.13155562272E+04  0.25500000920E-02 0.  1.
    10030    2    1    2    0    0  0.00000000000E+00  0.00000000000E+00  0.73359346168E+02  0.27044718005E+04  0.27034766738E+04 0.  0.
        2    1    3    3  502    0  0.12671835593E+04  0.30678186451E+03  0.39364045476E+03  0.13619185339E+04  0.25500000920E-02 0. -1.
       -2    1    3    3    0  502 -0.12671835593E+04 -0.30678186451E+03 -0.32028110859E+03  0.13425532666E+04  0.25500000920E-02 0.  1.
</event>
<event>
 5   0  0.5152288E-06  0.2705777E+04  0.7818609E-02  0.8333133E-01
       -1   -1    0    0    0  501  0.00000000000E+00  0.00000000000E+00  0.10546709349E+04  0.10546709349E+04  0.50400001928E-02 0. -1.
        1   -1    0    0  501    0  0.00000000000E+00  0.00000000000E+00 -0.17354291744E+04  0.17354291744E+04  0.50400001928E-02 0.  1.
    10030    2    1    2    0    0  0.00000000000E+00  0.00000000000E+00 -0.68075823949E+03  0.27901001093E+04  0.27057765686E+04 0.  0.
        3    1    3    3  502    0  0.52686216788E+02  0.12170210308E+04  0.26651223250E+03  0.12469742608E+04  0.10100000352E+00 0. -1.
       -3    1    3    3    0  502 -0.52686216788E+02 -0.12170210308E+04 -0.94727047199E+03  0.15431258484E+04  0.10100000352E+00 0.  1.
</event>
<event>
 5   0  0.1232559E-05  0.2640992E+04  0.7818609E-02  0.8354409E-01
        2   -1    0    0  501    0  0.00000000000E+00  0.00000000000E+00  0.12030405154E+04  0.12030405154E+04  0.25500000920E-02 0. -1.
       -2   -1    0    0    0  501  0.00000000000E+00  0.00000000000E+00 -0.14494192313E+04  0.14494192313E+04  0.25500000920E-02 0.  1.
    10030    2    1    2    0    0  0.00000000000E+00  0.00000000000E+00 -0.24637871586E+03  0.26524597467E+04  0.26409922825E+04 0.  0.
        3    1    3    3  502    0  0.64399959858E+03 -0.25296238721E+03  0.10064096137E+04  0.12213049468E+04  0.10100000352E+00 0. -1.
       -3    1    3    3    0  502 -0.64399959858E+03  0.25296238721E+03 -0.12527883296E+04  0.14311547999E+04  0.10100000352E+00 0.  1.
</event>
<event>
 5   0  0.1286641E-05  0.2713550E+04  0.7818609E-02  0.8330622E-01
        2   -1    0    0  501    0  0.00000000000E+00  0.00000000000E+00  0.22050804757E+04  0.22050804757E+04  0.25500000920E-02 0. -1.
       -2   -1    0    0    0  501  0.00000000000E+00  0.00000000000E+00 -0.83481714454E+03  0.83481714454E+03  0.25500000920E-02 0.  1.
    10030    2    1    2    0    0  0.00000000000E+00  0.00000000000E+00  0.13702633312E+04  0.30398976203E+04  0.27135504316E+04 0.  0.
        4    1    3    3  502    0  0.11989371186E+04  0.56618763326E+03  0.10075244587E+04  0.16652704880E+04  0.12699999809E+01 0. -1.
       -4    1    3    3    0  502 -0.11989371186E+04 -0.56618763326E+03  0.36273887245E+03  0.13746271323E+04  0.12699999809E+01 0.  1.
</event>
<event>
 5   0  0.1286641E-05  0.2711491E+04  0.7818609E-02  0.8331286E-01
        2   -1    0    0  501    0  0.00000000000E+00  0.00000000000E+00  0.15497291545E+04  0.15497291545E+04  0.25500000920E-02 0.  1.
       -2   -1    0    0    0  501  0.00000000000E+00  0.00000000000E+00 -0.11860436736E+04  0.11860436736E+04  0.25500000920E-02 0. -1.
    10030    2    1    2    0    0  0.00000000000E+00  0.00000000000E+00  0.36368548086E+03  0.27357728281E+04  0.27114914416E+04 0.  0.
        4    1    3    3  502    0 -0.84428978721E+02  0.12561455696E+04  0.68935302125E+03  0.14353533172E+04  0.12699999809E+01 0.  1.
       -4    1    3    3    0  502  0.84428978721E+02 -0.12561455696E+04 -0.32566754038E+03  0.13004195109E+04  0.12699999809E+01 0. -1.
</event>
<event>
 5   0  0.4846214E-06  0.2695687E+04  0.7818609E-02  0.8336406E-01
        1   -1    0    0  501    0  0.00000000000E+00  0.00000000000E+00  0.15123256990E+04  0.15123256990E+04  0.50400001928E-02 0. -1.
       -1   -1    0    0    0  501  0.00000000000E+00  0.00000000000E+00 -0.12012506208E+04  0.12012506208E+04  0.50400001928E-02 0.  1.
    10030    2    1    2    0    0  0.00000000000E+00  0.00000000000E+00  0.31107507818E+03  0.27135763198E+04  0.26956870626E+04 0.  0.
        2    1    3    3  502    0 -0.10696942856E+04 -0.68124532702E+03  0.61501061557E+03  0.14094605768E+04  0.25500000920E-02 0. -1.
       -2    1    3    3    0  502  0.10696942856E+04  0.68124532702E+03 -0.30393553740E+03  0.13041157430E+04  0.25500000920E-02 0.  1.
</event>
<event>
 5   0  0.1276517E-05  0.2570494E+04  0.7818609E-02  0.8378293E-01
        2   -1    0    0  501    0  0.00000000000E+00  0.00000000000E+00  0.18811550217E+04  0.18811550217E+04  0.25500000920E-02 0. -1.
       -2   -1    0    0    0  501  0.00000000000E+00  0.00000000000E+00 -0.87810945784E+03  0.87810945784E+03  0.25500000920E-02 0.  1.
    10030    2    1    2    0    0  0.00000000000E+00  0.00000000000E+00  0.10030455639E+04  0.27592644796E+04  0.25704941285E+04 0.  0.
        1    1    3    3  502    0  0.87699183675E+03  0.21945548486E+03 -0.47912241104E+03  0.10231489023E+04  0.50400001928E-02 0.  1.
       -1    1    3    3    0  502 -0.87699183675E+03 -0.21945548486E+03  0.14821679749E+04  0.17361155772E+04  0.50400001928E-02 0. -1.
</event>
<event>
 5   0  0.4826140E-06  0.2283308E+04  0.7818609E-02  0.8484532E-01
        1   -1    0    0  501    0  0.00000000000E+00  0.00000000000E+00  0.19912552632E+04  0.19912552632E+04  0.50400001928E-02 0. -1.
       -1   -1    0    0    0  501  0.00000000000E+00  0.00000000000E+00 -0.65454912343E+03  0.65454912345E+03  0.50400001928E-02 0.  1.
    10030    2    1    2    0    0  0.00000000000E+00  0.00000000000E+00  0.13367061398E+04  0.26458043867E+04  0.22833084655E+04 0.  0.
        1    1    3    3  502    0 -0.32668689619E+03  0.58764870364E+03 -0.40079861269E+03  0.78274827051E+03  0.50400001928E-02 0.  1.
       -1    1    3    3    0  502  0.32668689619E+03 -0.58764870364E+03  0.17375047525E+04  0.18630561162E+04  0.50400001928E-02 0. -1.
</event>
<event>
 5   0  0.4824715E-06  0.2691496E+04  0.7818609E-02  0.8337769E-01
       -1   -1    0    0    0  501  0.00000000000E+00  0.00000000000E+00  0.74529069220E+03  0.74529069222E+03  0.50400001928E-02 0.  1.
        1   -1    0    0  501    0  0.00000000000E+00  0.00000000000E+00 -0.24299751922E+04  0.24299751922E+04  0.50400001928E-02 0. -1.
    10030    2    1    2    0    0  0.00000000000E+00  0.00000000000E+00 -0.16846845000E+04  0.31752658844E+04  0.26914961587E+04 0.  0.
        5    1    3    3  502    0 -0.11800084095E+04 -0.58798183738E+03 -0.11608137673E+04  0.17566027382E+04  0.46999998093E+01 0.  1.
       -5    1    3    3    0  502  0.11800084095E+04  0.58798183738E+03 -0.52387073265E+03  0.14186631461E+04  0.46999998093E+01 0. -1.
</event>
<event>
 5   0  0.1276517E-05  0.2698478E+04  0.7818609E-02  0.8335499E-01
        2   -1    0    0  501    0  0.00000000000E+00  0.00000000000E+00  0.20004785344E+04  0.20004785344E+04  0.25500000920E-02 0. -1.
       -2   -1    0    0    0  501  0.00000000000E+00  0.00000000000E+00 -0.91000489500E+03  0.91000489501E+03  0.25500000920E-02 0.  1.
    10030    2    1    2    0    0  0.00000000000E+00  0.00000000000E+00  0.10904736394E+04  0.29104834294E+04  0.26984775402E+04 0.  0.
        1    1    3    3  502    0  0.43019482322E+02  0.13443630373E+04  0.65980157990E+03  0.14981658041E+04  0.50400001928E-02 0.  1.
       -1    1    3    3    0  502 -0.43019482322E+02 -0.13443630373E+04  0.43067205951E+03  0.14123176253E+04  0.50400001928E-02 0. -1.
</event>
<event>
 5   0  0.4824715E-06  0.2588438E+04  0.7818609E-02  0.8372139E-01
       -1   -1    0    0    0  501  0.00000000000E+00  0.00000000000E+00  0.15688834752E+04  0.15688834752E+04  0.50400001928E-02 0. -1.
        1   -1    0    0  501    0  0.00000000000E+00  0.00000000000E+00 -0.10676404102E+04  0.10676404102E+04  0.50400001928E-02 0.  1.
    10030    2    1    2    0    0  0.00000000000E+00  0.00000000000E+00  0.50124306502E+03  0.26365238854E+04  0.25884384459E+04 0.  0.
        5    1    3    3  502    0  0.82475699581E+03  0.71439125215E+03 -0.45829807160E+03  0.11834856044E+04  0.46999998093E+01 0.  1.
       -5    1    3    3    0  502 -0.82475699581E+03 -0.71439125215E+03  0.95954113663E+03  0.14530382810E+04  0.46999998093E+01 0. -1.
</event>
<event>
 5   0  0.5152288E-06  0.2791854E+04  0.7818609E-02  0.8305802E-01
        1   -1    0    0  501    0  0.00000000000E+00  0.00000000000E+00  0.14290006452E+04  0.14290006452E+04  0.50400001928E-02 0.  1.
       -1   -1    0    0    0  501  0.00000000000E+00  0.00000000000E+00 -0.13636192056E+04  0.13636192056E+04  0.50400001928E-02 0. -1.
    10030    2    1    2    0    0  0.00000000000E+00  0.00000000000E+00  0.65381439645E+02  0.27926198508E+04  0.27918543835E+04 0.  0.
        3    1    3    3  502    0  0.84537013848E+03 -0.67505966553E+03 -0.84973962463E+03  0.13756502691E+04  0.10100000352E+00 0. -1.
       -3    1    3    3    0  502 -0.84537013848E+03  0.67505966553E+03  0.91512106427E+03  0.14169695817E+04  0.10100000352E+00 0.  1.
</event>
<event>
 5   0  0.4756800E-06  0.2549121E+04  0.7818609E-02  0.8385692E-01
       -1   -1    0    0    0  501  0.00000000000E+00  0.00000000000E+00  0.11213285912E+04  0.11213285912E+04  0.50400001928E-02 0. -1.
        1   -1    0    0  501    0  0.00000000000E+00  0.00000000000E+00 -0.14487323633E+04  0.14487323633E+04  0.50400001928E-02 0.  1.
    10030    2    1    2    0    0  0.00000000000E+00  0.00000000000E+00 -0.32740377210E+03  0.25700609546E+04  0.25491214330E+04 0.  0.
        4    1    3    3  502    0  0.12237425495E+04 -0.20916648023E+03 -0.45452755490E+03  0.13220791787E+04  0.12699999809E+01 0.  1.
       -4    1    3    3    0  502 -0.12237425495E+04  0.20916648023E+03  0.12712378280E+03  0.12479817758E+04  0.12699999809E+01 0. -1.
</event>
<event>
 5   0  0.1261364E-05  0.2704215E+04  0.7818609E-02  0.8333638E-01
       -2   -1    0    0    0  501  0.00000000000E+00  0.00000000000E+00  0.84267524541E+03  0.84267524541E+03  0.25500000920E-02 0.  1.
        2   -1    0    0  501    0  0.00000000000E+00  0.00000000000E+00 -0.21695135224E+04  0.21695135224E+04  0.25500000920E-02 0. -1.
    10030    2    1    2    0    0  0.00000000000E+00  0.00000000000E+00 -0.13268382770E+04  0.30121887678E+04  0.27042154795E+04 0.  0.
        5    1    3    3  502    0  0.20512887660E+03 -0.11377493731E+04 -0.14444288569E+04  0.18501211594E+04  0.46999998093E+01 0. -1.
       -5    1    3    3    0  502 -0.20512887660E+03  0.11377493731E+04  0.11759057989E+03  0.11620676084E+04  0.46999998093E+01 0.  1.
</event>
<event>
 5   0  0.1276517E-05  0.2665792E+04  0.7818609E-02  0.8346190E-01
        2   -1    0    0  501    0  0.00000000000E+00  0.00000000000E+00  0.18789818241E+04  0.18789818241E+04  0.25500000920E-02 0. -1.
       -2   -1    0    0    0  501  0.00000000000E+00  0.00000000000E+00 -0.94551863876E+03  0.94551863877E+03  0.25500000920E-02 0.  1.
    10030    2    1    2    0    0  0.00000000000E+00  0.00000000000E+00  0.93346318530E+03  0.28245004628E+04  0.26657924425E+04 0.  0.
        1    1    3    3  502    0  0.71526433075E+03  0.15030897774E+03 -0.71426575002E+03  0.10219449170E+04  0.50400001928E-02 0.  1.
       -1    1    3    3    0  502 -0.71526433075E+03 -0.15030897774E+03  0.16477289353E+04  0.18025555459E+04  0.50400001928E-02 0. -1.
</event>
<event>
 5   0  0.4846214E-06  0.2738859E+04  0.7818609E-02  0.8322506E-01
        1   -1    0    0  501    0  0.00000000000E+00  0.00000000000E+00  0.79323709323E+03  0.79323709325E+03  0.50400001928E-02 0. -1.
       -1   -1    0    0    0  501  0.00000000000E+00  0.00000000000E+00 -0.23641569621E+04  0.23641569621E+04  0.50400001928E-02 0.  1.
    10030    2    1    2    0    0  0.00000000000E+00  0.00000000000E+00 -0.15709198689E+04  0.31573940554E+04  0.27388588840E+04 0.  0.
        2    1    3    3  502    0 -0.81542535872E+03 -0.82112067465E+03 -0.16295993120E+04  0.19986874682E+04  0.25500000920E-02 0.  1.
       -2    1    3    3    0  502  0.81542535872E+03  0.82112067465E+03  0.58679443142E+02  0.11587065871E+04  0.25500000920E-02 0. -1.
</event>
<event>
 5   0  0.4824715E-06  0.2413526E+04  0.7818609E-02  0.8434457E-01
       -1   -1    0    0    0  501  0.00000000000E+00  0.00000000000E+00  0.71318959100E+03  0.71318959101E+03  0.50400001928E-02 0.  1.
        1   -1    0    0  501    0  0.00000000000E+00  0.00000000000E+00 -0.20419211056E+04  0.20419211056E+04  0.50400001928E-02 0. -1.
    10030    2    1    2    0    0  0.00000000000E+00  0.00000000000E+00 -0.13287315146E+04  0.27551106966E+04  0.24135259503E+04 0.  0.
        5    1    3    3  502    0 -0.25144344642E+03  0.11784485299E+04 -0.73913413252E+03  0.14136145515E+04  0.46999998093E+01 0.  1.
       -5    1    3    3    0  502  0.25144344642E+03 -0.11784485299E+04 -0.58959738211E+03  0.13414961451E+04  0.46999998093E+01 0. -1.
</event>
<event>
 5   0  0.1232559E-05  0.2706122E+04  0.7818609E-02  0.8333021E-01
       -2   -1    0    0    0  501  0.00000000000E+00  0.00000000000E+00  0.18791819059E+04  0.18791819059E+04  0.25500000920E-02 0. -1.
        2   -1    0    0  501    0  0.00000000000E+00  0.00000000000E+00 -0.97424017521E+03  0.97424017521E+03  0.25500000920E-02 0.  1.
    10030    2    1    2    0    0  0.00000000000E+00  0.00000000000E+00  0.90494173074E+03  0.28534220812E+04  0.27061223249E+04 0.  0.
        3    1    3    3  502    0 -0.15513720491E+03 -0.12197688360E+04  0.10478944871E+04  0.16155452430E+04  0.10100000352E+00 0. -1.
       -3    1    3    3    0  502  0.15513720491E+03  0.12197688360E+04 -0.14295275639E+03  0.12378768382E+04  0.10100000352E+00 0.  1.
</event>
<event>
 5   0  0.1276517E-05  0.2653229E+04  0.7818609E-02  0.8350342E-01
        2   -1    0    0  501    0  0.00000000000E+00  0.00000000000E+00  0.22575100656E+04  0.22575100656E+04  0.25500000920E-02 0.  1.
       -2   -1    0    0    0  501  0.00000000000E+00  0.00000000000E+00 -0.77957813906E+03  0.77957813906E+03  0.25500000920E-02 0. -1.
    10030    2    1    2    0    0  0.00000000000E+00  0.00000000000E+00  0.14779319266E+04  0.30370882047E+04  0.26532285962E+04 0.  0.
        1    1    3    3  502    0 -0.16315168097E+03  0.39888224174E+03  0.21751494484E+04  0.22174310895E+04  0.50400001928E-02 0.  1.
       -1    1    3    3    0  502  0.16315168097E+03 -0.39888224174E+03 -0.69721752181E+03  0.81965711521E+03  0.50400001928E-02 0. -1.
</event>
<event>
 5   0  0.4188000E-06  0.2734832E+04  0.7818609E-02  0.8323791E-01
       -3   -1    0    0    0  501  0.00000000000E+00  0.00000000000E+00  0.12397108248E+04  0.12397108290E+04  0.10100000352E+00 0.  1.
        3   -1    0    0  501    0  0.00000000000E+00  0.00000000000E+00 -0.15082768796E+04  0.15082768830E+04  0.10100000352E+00 0. -1.
    10030    2    1    2    0    0  0.00000000000E+00  0.00000000000E+00 -0.26856605475E+03  0.27479877119E+04  0.27348324883E+04 0.  0.
        4    1    3    3  502    0  0.48868676982E+03  0.65278173516E+02 -0.14158591478E+04  0.14992447226E+04  0.12699999809E+01 0. -1.
       -4    1    3    3    0  502 -0.48868676982E+03 -0.65278173516E+02  0.11472930931E+04  0.12487429893E+04  0.12699999809E+01 0.  1.
</event>
<event>
 5   0  0.4846214E-06  0.2654310E+04  0.7818609E-02  0.8349984E-01
       -1   -1    0    0    0  501  0.00000000000E+00  0.00000000000E+00  0.10925002762E+04  0.10925002762E+04  0.50400001928E-02 0.  1.
        1   -1    0    0  501    0  0.00000000000E+00  0.00000000000E+00 -0.16122105496E+04  0.16122105496E+04  0.50400001928E-02 0. -1.
    10030    2    1    2    0    0  0.00000000000E+00  0.00000000000E+00 -0.51971027342E+03  0.27047108258E+04  0.26543100577E+04 0.  0.
        2    1    3    3  502    0 -0.92240708910E+03 -0.64755924735E+03 -0.97399993345E+03  0.14895783589E+04  0.25500000920E-02 0. -1.
       -2    1    3    3    0  502  0.92240708910E+03  0.64755924735E+03  0.45428966003E+03  0.12151324669E+04  0.25500000920E-02 0.  1.
</event>
<event>
 5   0  0.4824715E-06  0.2657214E+04  0.7818609E-02  0.8349023E-01
        1   -1    0    0  501    0  0.00000000000E+00  0.00000000000E+00  0.20367654662E+04  0.20367654662E+04  0.50400001928E-02 0. -1.
       -1   -1    0    0    0  501  0.00000000000E+00  0.00000000000E+00 -0.86666644701E+03  0.86666644702E+03  0.50400001928E-02 0.  1.
    10030    2    1    2    0    0  0.00000000000E+00  0.00000000000E+00  0.11700990192E+04  0.29034319132E+04  0.26572137964E+04 0.  0.
        5    1    3    3  502    0 -0.11520383671E+04 -0.66088712101E+03  0.54704104394E+03  0.14363983360E+04  0.46999998093E+01 0.  1.
       -5    1    3    3    0  502  0.11520383671E+04  0.66088712101E+03  0.62305797523E+03  0.14670335772E+04  0.46999998093E+01 0. -1.
</event>
<event>
 5   0  0.4846214E-06  0.2728266E+04  0.7818609E-02  0.8325891E-01
        1   -1    0    0  501    0  0.00000000000E+00  0.00000000000E+00  0.13592567034E+04  0.13592567034E+04  0.50400001928E-02 0.  1.
       -1   -1    0    0    0  501  0.00000000000E+00  0.00000000000E+00 -0.13690271586E+04  0.13690271586E+04  0.50400001928E-02 0. -1.
    10030    2    1    2    0    0  0.00000000000E+00  0.00000000000E+00 -0.97704551742E+01  0.27282838620E+04  0.27282663671E+04 0.  0.
        2    1    3    3  502    0 -0.77215945284E+03  0.66003633822E+03  0.90560463275E+03  0.13608813098E+04  0.25500000920E-02 0.  1.
       -2    1    3    3    0  502  0.77215945284E+03 -0.66003633822E+03 -0.91537508792E+03  0.13674025523E+04  0.25500000920E-02 0. -1.
</event>
<event>
 5   0  0.4824715E-06  0.2690067E+04  0.7818609E-02  0.8338235E-01
        1   -1    0    0  501    0  0.00000000000E+00  0.00000000000E+00  0.19602648902E+04  0.19602648902E+04  0.50400001928E-02 0.  1.
       -1   -1    0    0    0  501  0.00000000000E+00  0.00000000000E+00 -0.92289332343E+03  0.92289332345E+03  0.50400001928E-02 0. -1.
    10030    2    1    2    0    0  0.00000000000E+00  0.00000000000E+00  0.10373715668E+04  0.28831582137E+04  0.26900671957E+04 0.  0.
        5    1    3    3  502    0 -0.13056985921E+02  0.94513038554E+03 -0.50689628444E+03  0.10725706801E+04  0.46999998093E+01 0. -1.
       -5    1    3    3    0  502  0.13056985921E+02 -0.94513038554E+03  0.15442678512E+04  0.18105875336E+04  0.46999998093E+01 0.  1.
</event>
<event>
 5   0  0.4846214E-06  0.2697584E+04  0.7818609E-02  0.8335789E-01
       -1   -1    0    0    0  501  0.00000000000E+00  0.00000000000E+00  0.68757205061E+03  0.68757205062E+03  0.50400001928E-02 0. -1.
        1   -1    0    0  501    0  0.00000000000E+00  0.00000000000E+00 -0.26458899784E+04  0.26458899784E+04  0.50400001928E-02 0.  1.
    10030    2    1    2    0    0  0.00000000000E+00  0.00000000000E+00 -0.19583179278E+04  0.33334620290E+04  0.26975841030E+04 0.  0.
        2    1    3    3  502    0  0.50327308858E+03 -0.12266559021E+04 -0.12850380297E+04  0.18464266142E+04  0.25500000920E-02 0.  1.
       -2    1    3    3    0  502 -0.50327308858E+03  0.12266559021E+04 -0.67327989809E+03  0.14870354148E+04  0.25500000920E-02 0. -1.
</event>
<event>
 5   0  0.1232559E-05  0.2708021E+04  0.7818609E-02  0.8332407E-01
        2   -1    0    0  501    0  0.00000000000E+00  0.00000000000E+00  0.15717733856E+04  0.15717733856E+04  0.25500000920E-02 0. -1.
       -2   -1    0    0    0  501  0.00000000000E+00  0.00000000000E+00 -0.11664178488E+04  0.11664178488E+04  0.25500000920E-02 0.  1.
    10030    2    1    2    0    0  0.00000000000E+00  0.00000000000E+00  0.40535553678E+03  0.27381912344E+04  0.27080210717E+04 0.  0.
        3    1    3    3  502    0 -0.96517769066E+03  0.25267183510E+03 -0.72290766398E+03  0.12320740772E+04  0.10100000352E+00 0.  1.
       -3    1    3    3    0  502  0.96517769066E+03 -0.25267183510E+03  0.11282632008E+04  0.15061171572E+04  0.10100000352E+00 0. -1.
</event>
<event>
 5   0  0.1220908E-05  0.2685844E+04  0.7818609E-02  0.8339613E-01
        2   -1    0    0  501    0  0.00000000000E+00  0.00000000000E+00  0.13069571237E+04  0.13069571237E+04  0.25500000920E-02 0. -1.
       -2   -1    0    0    0  501  0.00000000000E+00  0.00000000000E+00 -0.13798760466E+04  0.13798760466E+04  0.25500000920E-02 0.  1.
    10030    2    1    2    0    0  0.00000000000E+00  0.00000000000E+00 -0.72918922943E+02  0.26868331703E+04  0.26858435017E+04 0.  0.
        2    1    3    3  502    0 -0.78165789651E+02 -0.13147241383E+04 -0.29890966920E+03  0.13505393148E+04  0.25500000920E-02 0. -1.
       -2    1    3    3    0  502  0.78165789651E+02  0.13147241383E+04  0.22599074626E+03  0.13362938554E+04  0.25500000920E-02 0.  1.
</event>
<event>
 5   0  0.1276517E-05  0.2645559E+04  0.7818609E-02  0.8352888E-01
        2   -1    0    0  501    0  0.00000000000E+00  0.00000000000E+00  0.13691002913E+04  0.13691002913E+04  0.25500000920E-02 0.  1.
       -2   -1    0    0    0  501  0.00000000000E+00  0.00000000000E+00 -0.12780263452E+04  0.12780263452E+04  0.25500000920E-02 0. -1.
    10030    2    1    2    0    0  0.00000000000E+00  0.00000000000E+00  0.91073946107E+02  0.26471266365E+04  0.26455594807E+04 0.  0.
        1    1    3    3  502    0 -0.10732863450E+04 -0.59381205483E+03  0.54099684020E+03  0.13406095315E+04  0.50400001928E-02 0.  1.
       -1    1    3    3    0  502  0.10732863450E+04  0.59381205483E+03 -0.44992289410E+03  0.13065171050E+04  0.50400001928E-02 0. -1.
</event>
<event>
 5   0  0.4846214E-06  0.2729749E+04  0.7818609E-02  0.8325416E-01
       -1   -1    0    0    0  501  0.00000000000E+00  0.00000000000E+00  0.14667241199E+04  0.14667241199E+04  0.50400001928E-02 0.  1.
        1   -1    0    0  501    0  0.00000000000E+00  0.00000000000E+00 -0.12700975326E+04  0.12700975327E+04  0.50400001928E-02 0. -1.
    10030    2    1    2    0    0  0.00000000000E+00  0.00000000000E+00  0.19662658723E+03  0.27368216525E+04  0.27297492088E+04 0.  0.
        2    1    3    3  502    0  0.99373421598E+03 -0.87589080091E+03 -0.23146184236E+03  0.13447181755E+04  0.25500000920E-02 0.  1.
       -2    1    3    3    0  502 -0.99373421598E+03  0.87589080091E+03  0.42808842960E+03  0.13921034770E+04  0.25500000920E-02 0. -1.
</event>
<event>
 5   0  0.1286641E-05  0.2690937E+04  0.7818609E-02  0.8337952E-01
       -2   -1    0    0    0  501  0.00000000000E+00  0.00000000000E+00  0.89198634976E+03  0.89198634976E+03  0.25500000920E-02 0. -1.
        2   -1    0    0  501    0  0.00000000000E+00  0.00000000000E+00 -0.20294992323E+04  0.20294992323E+04  0.25500000920E-02 0.  1.
    10030    2    1    2    0    0  0.00000000000E+00  0.00000000000E+00 -0.11375128825E+04  0.29214855821E+04  0.26909370948E+04 0.  0.
        4    1    3    3  502    0 -0.21075027161E+02 -0.19047773988E+03 -0.20146053401E+04  0.20237001298E+04  0.12699999809E+01 0.  1.
       -4    1    3    3    0  502  0.21075027161E+02  0.19047773988E+03  0.87709245758E+03  0.89778545222E+03  0.12699999809E+01 0. -1.
</event>
<event>
 5   0  0.4826140E-06  0.2702656E+04  0.7818609E-02  0.8334144E-01
       -1   -1    0    0    0  501  0.00000000000E+00  0.00000000000E+00  0.58759769838E+03  0.58759769840E+03  0.50400001928E-02 0.  1.
        1   -1    0    0  501    0  0.00000000000E+00  0.00000000000E+00 -0.31077158704E+04  0.31077158704E+04  0.50400001928E-02 0. -1.
    10030    2    1    2    0    0  0.00000000000E+00  0.00000000000E+00 -0.25201181720E+04  0.36953135688E+04  0.27026555035E+04 0.  0.
        1    1    3    3  502    0  0.28385799954E+03 -0.92132694815E+03  0.34662643016E+02  0.96468658545E+03  0.50400001928E-02 0.  1.
       -1    1    3    3    0  502 -0.28385799954E+03  0.92132694815E+03 -0.25547808150E+04  0.27306269833E+04  0.50400001928E-02 0. -1.
</event>
<event>
 5   0  0.4756800E-06  0.2790090E+04  0.7818609E-02  0.8306352E-01
       -1   -1    0    0    0  501  0.00000000000E+00  0.00000000000E+00  0.74009697689E+03  0.74009697691E+03  0.50400001928E-02 0.  1.
        1   -1    0    0  501    0  0.00000000000E+00  0.00000000000E+00 -0.26295882484E+04  0.26295882484E+04  0.50400001928E-02 0. -1.
    10030    2    1    2    0    0  0.00000000000E+00  0.00000000000E+00 -0.18894912715E+04  0.33696852253E+04  0.27900898287E+04 0.  0.
        4    1    3    3  502    0 -0.62159865110E+03 -0.12405302683E+04 -0.11191302836E+04  0.17826257134E+04  0.12699999809E+01 0.  1.
       -4    1    3    3    0  502  0.62159865110E+03  0.12405302683E+04 -0.77036098790E+03  0.15870595119E+04  0.12699999809E+01 0. -1.
</event>
<event>
 5   0  0.1232559E-05  0.2748531E+04  0.7818609E-02  0.8319428E-01
        2   -1    0    0  501    0  0.00000000000E+00  0.00000000000E+00  0.23704294344E+04  0.23704294344E+04  0.25500000920E-02 0.  1.
       -2   -1    0    0    0  501  0.00000000000E+00  0.00000000000E+00 -0.79673556954E+03  0.79673556955E+03  0.25500000920E-02 0. -1.
    10030    2    1    2    0    0  0.00000000000E+00  0.00000000000E+00  0.15736938648E+04  0.31671650039E+04  0.27485308406E+04 0.  0.
        3    1    3    3  502    0  0.15725359673E+03 -0.99304400372E+03  0.18664226481E+04  0.21199996695E+04  0.10100000352E+00 0.  1.
       -3    1    3    3    0  502 -0.15725359673E+03  0.99304400372E+03 -0.29272878324E+03  0.10471653345E+04  0.10100000352E+00 0. -1.
</event>
<event>
 5   0  0.4824715E-06  0.2633399E+04  0.7818609E-02  0.8356944E-01
       -1   -1    0    0    0  501  0.00000000000E+00  0.00000000000E+00  0.12529867403E+04  0.12529867403E+04  0.50400001928E-02 0. -1.
        1   -1    0    0  501    0  0.00000000000E+00  0.00000000000E+00 -0.13836515533E+04  0.13836515533E+04  0.50400001928E-02 0.  1.
    10030    2    1    2    0    0  0.00000000000E+00  0.00000000000E+00 -0.13066481298E+03  0.26366382936E+04  0.26333986022E+04 0.  0.
        5    1    3    3  502    0 -0.40665303840E+03  0.28112057786E+03  0.11565293121E+04  0.12577669151E+04  0.46999998093E+01 0. -1.
       -5    1    3    3    0  502  0.40665303840E+03 -0.28112057786E+03 -0.12871941251E+04  0.13788713785E+04  0.46999998093E+01 0.  1.
</event>
<event>
 5   0  0.1232559E-05  0.2749804E+04  0.7818609E-02  0.8319024E-01
        2   -1    0    0  501    0  0.00000000000E+00  0.00000000000E+00  0.12618857461E+04  0.12618857461E+04  0.25500000920E-02 0.  1.
       -2   -1    0    0    0  501  0.00000000000E+00  0.00000000000E+00 -0.14980402984E+04  0.14980402984E+04  0.25500000920E-02 0. -1.
    10030    2    1    2    0    0  0.00000000000E+00  0.00000000000E+00 -0.23615455233E+03  0.27599260444E+04  0.27498041381E+04 0.  0.
        3    1    3    3  502    0  0.51651154071E+03 -0.24417291755E+03  0.11371063610E+04  0.12725625611E+04  0.10100000352E+00 0.  1.
       -3    1    3    3    0  502 -0.51651154071E+03  0.24417291755E+03 -0.13732609133E+04  0.14873634834E+04  0.10100000352E+00 0. -1.
</event>
<event>
 5   0  0.4756800E-06  0.2711946E+04  0.7818609E-02  0.8331139E-01
        1   -1    0    0  501    0  0.00000000000E+00  0.00000000000E+00  0.97056677701E+03  0.97056677702E+03  0.50400001928E-02 0.  1.
       -1   -1    0    0    0  501  0.00000000000E+00  0.00000000000E+00 -0.18944211748E+04  0.18944211748E+04  0.50400001928E-02 0. -1.
    10030    2    1    2    0    0  0.00000000000E+00  0.00000000000E+00 -0.92385439778E+03  0.28649879518E+04  0.27119456145E+04 0.  0.
        4    1    3    3  502    0 -0.41609605415E+03  0.38304522893E+03 -0.17638710981E+04  0.18523235240E+04  0.12699999809E+01 0. -1.
       -4    1    3    3    0  502  0.41609605415E+03 -0.38304522893E+03  0.84001670035E+03  0.10126644279E+04  0.12699999809E+01 0.  1.
</event>
<event>
 5   0  0.4824715E-06  0.2738406E+04  0.7818609E-02  0.8322650E-01
        1   -1    0    0  501    0  0.00000000000E+00  0.00000000000E+00  0.76890663356E+03  0.76890663357E+03  0.50400001928E-02 0.  1.
       -1   -1    0    0    0  501  0.00000000000E+00  0.00000000000E+00 -0.24381591814E+04  0.24381591814E+04  0.50400001928E-02 0. -1.
    10030    2    1    2    0    0  0.00000000000E+00  0.00000000000E+00 -0.16692525479E+04  0.32070658150E+04  0.27384059365E+04 0.  0.
        5    1    3    3  502    0  0.17691886874E+03  0.17372249936E+03 -0.24116371292E+04  0.24243546617E+04  0.46999998093E+01 0. -1.
       -5    1    3    3    0  502 -0.17691886874E+03 -0.17372249936E+03  0.74238458132E+03  0.78271115329E+03  0.46999998093E+01 0.  1.
</event>
<event>
 5   0  0.1261364E-05  0.2706475E+04  0.7818609E-02  0.8332907E-01
       -2   -1    0    0    0  501  0.00000000000E+00  0.00000000000E+00  0.93858776458E+03  0.93858776458E+03  0.25500000920E-02 0. -1.
        2   -1    0    0  501    0  0.00000000000E+00  0.00000000000E+00 -0.19510714318E+04  0.19510714318E+04  0.25500000920E-02 0.  1.
    10030    2    1    2    0    0  0.00000000000E+00  0.00000000000E+00 -0.10124836672E+04  0.28896591964E+04  0.27064750313E+04 0.  0.
        5    1    3    3  502    0  0.74761886831E+03 -0.72313950871E+03 -0.14304914783E+04  0.17686697489E+04  0.46999998093E+01 0.  1.
       -5    1    3    3    0  502 -0.74761886831E+03  0.72313950871E+03  0.41800781103E+03  0.11209894475E+04  0.46999998093E+01 0. -1.
</event>
<event>
 5   0  0.4826140E-06  0.2684729E+04  0.7818609E-02  0.8339977E-01
       -1   -1    0    0    0  501  0.00000000000E+00  0.00000000000E+00  0.11054169339E+04  0.11054169339E+04  0.50400001928E-02 0. -1.
        1   -1    0    0  501    0  0.00000000000E+00  0.00000000000E+00 -0.16301025681E+04  0.16301025681E+04  0.50400001928E-02 0.  1.
    10030    2    1    2    0    0  0.00000000000E+00  0.00000000000E+00 -0.52468563421E+03  0.27355195020E+04  0.26847293963E+04 0.  0.
        1    1    3    3  502    0 -0.88802535218E+03 -0.77697349715E+03 -0.91450307969E+03  0.14928471871E+04  0.50400001928E-02 0.  1.
       -1    1    3    3    0  502  0.88802535218E+03  0.77697349715E+03  0.38981744548E+03  0.12426723149E+04  0.50400001928E-02 0. -1.
</event>
<event>
 5   0  0.1261364E-05  0.2690694E+04  0.7818609E-02  0.8338031E-01
       -2   -1    0    0    0  501  0.00000000000E+00  0.00000000000E+00  0.13986949094E+04  0.13986949094E+04  0.25500000920E-02 0. -1.
        2   -1    0    0  501    0  0.00000000000E+00  0.00000000000E+00 -0.12940340890E+04  0.12940340890E+04  0.25500000920E-02 0.  1.
    10030    2    1    2    0    0  0.00000000000E+00  0.00000000000E+00  0.10466082032E+03  0.26927289984E+04  0.26906942545E+04 0.  0.
        5    1    3    3  502    0 -0.80286398460E+03 -0.55966996443E+03 -0.87146881534E+03  0.13104583294E+04  0.46999998093E+01 0.  1.
       -5    1    3    3    0  502  0.80286398460E+03  0.55966996443E+03  0.97612963567E+03  0.13822706690E+04  0.46999998093E+01 0. -1.
</event>
<event>
 5   0  0.4846214E-06  0.2691640E+04  0.7818609E-02  0.8337723E-01
        1   -1    0    0  501    0  0.00000000000E+00  0.00000000000E+00  0.13640035991E+04  0.13640035991E+04  0.50400001928E-02 0. -1.
       -1   -1    0    0    0  501  0.00000000000E+00  0.00000000000E+00 -0.13278787328E+04  0.13278787328E+04  0.50400001928E-02 0.  1.
    10030    2    1    2    0    0  0.00000000000E+00  0.00000000000E+00  0.36124866291E+02  0.26918823318E+04  0.26916399244E+04 0.  0.
        2    1    3    3  502    0  0.20201613898E+03 -0.27458824049E+03 -0.12839849805E+04  0.13284677838E+04  0.25500000920E-02 0.  1.
       -2    1    3    3    0  502 -0.20201613898E+03  0.27458824049E+03  0.13201098468E+04  0.13634145481E+04  0.25500000920E-02 0. -1.
</event>
<event>
 5   0  0.5152288E-06  0.2475199E+04  0.7818609E-02  0.8411875E-01
        1   -1    0    0  501    0  0.00000000000E+00  0.00000000000E+00  0.63197390069E+03  0.63197390071E+03  0.50400001928E-02 0. -1.
       -1   -1    0    0    0  501  0.00000000000E+00  0.00000000000E+00 -0.24236011047E+04  0.24236011047E+04  0.50400001928E-02 0.  1.
    10030    2    1    2    0    0  0.00000000000E+00  0.00000000000E+00 -0.17916272040E+04  0.30555750054E+04  0.24751990982E+04 0.  0.
        3    1    3    3  502    0  0.85899831851E+03 -0.82106691441E+03 -0.46884953598E+03  0.12774384082E+04  0.10100000352E+00 0. -1.
       -3    1    3    3    0  502 -0.85899831851E+03  0.82106691441E+03 -0.13227776680E+04  0.17781365972E+04  0.10100000352E+00 0.  1.
</event>
<event>
 5   0  0.4824715E-06  0.2694556E+04  0.7818609E-02  0.8336773E-01
       -1   -1    0    0    0  501  0.00000000000E+00  0.00000000000E+00  0.13625284814E+04  0.13625284814E+04  0.50400001928E-02 0. -1.
        1   -1    0    0  501    0  0.00000000000E+00  0.00000000000E+00 -0.13321986807E+04  0.13321986807E+04  0.50400001928E-02 0.  1.
    10030    2    1    2    0    0  0.00000000000E+00  0.00000000000E+00  0.30329800654E+02  0.26947271621E+04  0.26945564721E+04 0.  0.
        5    1    3    3  502    0 -0.97424418062E+03  0.90658289694E+03  0.22515982675E+03  0.13497271243E+04  0.46999998093E+01 0. -1.
       -5    1    3    3    0  502  0.97424418062E+03 -0.90658289694E+03 -0.19483002610E+03  0.13450000378E+04  0.46999998093E+01 0.  1.
</event>
<event>
 5   0  0.1220908E-05  0.2704057E+04  0.7818609E-02  0.8333690E-01
       -2   -1    0    0    0  501  0.00000000000E+00  0.00000000000E+00  0.14395133025E+04  0.14395133025E+04  0.25500000920E-02 0.  1.
        2   -1    0    0  501    0  0.00000000000E+00  0.00000000000E+00 -0.12698605363E+04  0.12698605363E+04  0.25500000920E-02 0. -1.
    10030    2    1    2    0    0  0.00000000000E+00  0.00000000000E+00  0.16965276622E+03  0.27093738388E+04  0.27040570514E+04 0.  0.
        2    1    3    3  502    0  0.84265265068E+03  0.52863265797E+03  0.10023042428E+04  0.14121365982E+04  0.25500000920E-02 0.  1.
       -2    1    3    3    0  502 -0.84265265068E+03 -0.52863265797E+03 -0.83265147661E+03  0.12972372406E+04  0.25500000920E-02 0. -1.
</event>
<event>
 5   0  0.1276517E-05  0.2346499E+04  0.7818609E-02  0.8459810E-01
       -2   -1    0    0    0  501  0.00000000000E+00  0.00000000000E+00  0.94960389122E+03  0.94960389123E+03  0.25500000920E-02 0.  1.
        2   -1    0    0  501    0  0.00000000000E+00  0.00000000000E+00 -0.14495663621E+04  0.14495663621E+04  0.25500000920E-02 0. -1.
    10030    2    1    2    0    0  0.00000000000E+00  0.00000000000E+00 -0.49996247085E+03  0.23991702533E+04  0.23464985472E+04 0.  0.
        1    1    3    3  502    0  0.83703806751E+03  0.66152062203E+03 -0.74906899343E+03  0.13035898959E+04  0.50400001928E-02 0. -1.
       -1    1    3    3    0  502 -0.83703806751E+03 -0.66152062203E+03  0.24910652259E+03  0.10955803574E+04  0.50400001928E-02 0.  1.
</event>
<event>
 5   0  0.4826140E-06  0.2675210E+04  0.7818609E-02  0.8343093E-01
       -1   -1    0    0    0  501  0.00000000000E+00  0.00000000000E+00  0.21519858281E+04  0.21519858281E+04  0.50400001928E-02 0.  1.
        1   -1    0    0  501    0  0.00000000000E+00  0.00000000000E+00 -0.83141232691E+03  0.83141232693E+03  0.50400001928E-02 0. -1.
    10030    2    1    2    0    0  0.00000000000E+00  0.00000000000E+00  0.13205735012E+04  0.29833981550E+04  0.26752103056E+04 0.  0.
        1    1    3    3  502    0  0.48964037209E+03  0.91003661253E+03  0.16074027874E+04  0.19109312000E+04  0.50400001928E-02 0.  1.
       -1    1    3    3    0  502 -0.48964037209E+03 -0.91003661253E+03 -0.28682928625E+03  0.10724669550E+04  0.50400001928E-02 0. -1.
</event>
<event>
 5   0  0.5152288E-06  0.2689648E+04  0.7818609E-02  0.8338372E-01
       -1   -1    0    0    0  501  0.00000000000E+00  0.00000000000E+00  0.15246512662E+04  0.15246512662E+04  0.50400001928E-02 0.  1.
        1   -1    0    0  501    0  0.00000000000E+00  0.00000000000E+00 -0.11862065759E+04  0.11862065759E+04  0.50400001928E-02 0. -1.
    10030    2    1    2    0    0  0.00000000000E+00  0.00000000000E+00  0.33844469027E+03  0.27108578420E+04  0.26896478267E+04 0.  0.
        3    1    3    3  502    0 -0.63801877789E+03  0.37413497522E+03 -0.96280275193E+03  0.12140980562E+04  0.10100000352E+00 0. -1.
       -3    1    3    3    0  502  0.63801877789E+03 -0.37413497522E+03  0.13012474422E+04  0.14967597859E+04  0.10100000352E+00 0.  1.
</event>
<event>
 5   0  0.5152288E-06  0.2703591E+04  0.7818609E-02  0.8333841E-01
       -1   -1    0    0    0  501  0.00000000000E+00  0.00000000000E+00  0.10147559672E+04  0.10147559673E+04  0.50400001928E-02 0. -1.
        1   -1    0    0  501    0  0.00000000000E+00  0.00000000000E+00 -0.18007790663E+04  0.18007790663E+04  0.50400001928E-02 0.  1.
    10030    2    1    2    0    0  0.00000000000E+00  0.00000000000E+00 -0.78602309904E+03  0.28155350336E+04  0.27035911697E+04 0.  0.
        3    1    3    3  502    0 -0.31011087828E+03 -0.82694170519E+03 -0.14587872765E+04  0.17053039814E+04  0.10100000352E+00 0.  1.
       -3    1    3    3    0  502  0.31011087828E+03  0.82694170519E+03  0.67276417744E+03  0.11102310522E+04  0.10100000352E+00 0. -1.
</event>
<event>
 5   0  0.4756800E-06  0.2694766E+04  0.7818609E-02  0.8336705E-01
        1   -1    0    0  501    0  0.00000000000E+00  0.00000000000E+00  0.22445291157E+04  0.22445291157E+04  0.50400001928E-02 0.  1.
       -1   -1    0    0    0  501  0.00000000000E+00  0.00000000000E+00 -0.80882957370E+03  0.80882957372E+03  0.50400001928E-02 0. -1.
    10030    2    1    2    0    0  0.00000000000E+00  0.00000000000E+00  0.14356995420E+04  0.30533586894E+04  0.26947664298E+04 0.  0.
        4    1    3    3  502    0 -0.14940458766E+03 -0.10925380675E+04 -0.15944107031E+03  0.11141742357E+04  0.12699999809E+01 0. -1.
       -4    1    3    3    0  502  0.14940458766E+03  0.10925380675E+04  0.15951406123E+04  0.19391844537E+04  0.12699999809E+01 0.  1.
</event>
<event>
 5   0  0.1276517E-05  0.2698578E+04  0.7818609E-02  0.8335466E-01
        2   -1    0    0  501    0  0.00000000000E+00  0.00000000000E+00  0.12535018747E+04  0.12535018747E+04  0.25500000920E-02 0. -1.
       -2   -1    0    0    0  501  0.00000000000E+00  0.00000000000E+00 -0.14523962852E+04  0.14523962852E+04  0.25500000920E-02 0.  1.
    10030    2    1    2    0    0  0.00000000000E+00  0.00000000000E+00 -0.19889441047E+03  0.27058981599E+04  0.26985784897E+04 0.  0.
        1    1    3    3  502    0  0.54017414864E+03 -0.12364314656E+04 -0.10499269561E+03  0.13533566958E+04  0.50400001928E-02 0.  1.
       -1    1    3    3    0  502 -0.54017414864E+03  0.12364314656E+04 -0.93901714853E+02  0.13525414641E+04  0.50400001928E-02 0. -1.
</event>
<event>
 5   0  0.1232559E-05  0.2689260E+04  0.7818609E-02  0.8338498E-01
       -2   -1    0    0    0  501  0.00000000000E+00  0.00000000000E+00  0.10746090300E+04  0.10746090300E+04  0.25500000920E-02 0.  1.
        2   -1    0    0  501    0  0.00000000000E+00  0.00000000000E+00 -0.16824996058E+04  0.16824996058E+04  0.25500000920E-02 0. -1.
    10030    2    1    2    0    0  0.00000000000E+00  0.00000000000E+00 -0.60789057578E+03  0.27571086358E+04  0.26892595780E+04 0.  0.
        3    1    3    3  502    0 -0.13135339774E+04 -0.25318727375E+03 -0.44359479007E+03  0.14093444055E+04  0.10100000352E+00 0. -1.
       -3    1    3    3    0  502  0.13135339774E+04  0.25318727375E+03 -0.16429578571E+03  0.13477642304E+04  0.10100000352E+00 0.  1.
</event>
<event>
 5   0  0.5152288E-06  0.2687745E+04  0.7818609E-02  0.8338992E-01
       -1   -1    0    0    0  501  0.00000000000E+00  0.00000000000E+00  0.11362063487E+04  0.11362063487E+04  0.50400001928E-02 0.  1.
        1   -1    0    0  501    0  0.00000000000E+00  0.00000000000E+00 -0.15894942760E+04  0.15894942760E+04  0.50400001928E-02 0. -1.
    10030    2    1    2    0    0  0.00000000000E+00  0.00000000000E+00 -0.45328792729E+03  0.27257006248E+04  0.26877451425E+04 0.  0.
        3    1    3    3  502    0  0.68218329745E+02 -0.41642935281E+03  0.10672760846E+04  0.11476695506E+04  0.10100000352E+00 0.  1.
       -3    1    3    3    0  502 -0.68218329745E+02  0.41642935281E+03 -0.15205640119E+04  0.15780310741E+04  0.10100000352E+00 0. -1.
</event>
<event>
 5   0  0.1286641E-05  0.2706313E+04  0.7818609E-02  0.8332960E-01
        2   -1    0    0  501    0  0.00000000000E+00  0.00000000000E+00  0.24224581935E+04  0.24224581935E+04  0.25500000920E-02 0.  1.
       -2   -1    0    0    0  501  0.00000000000E+00  0.00000000000E+00 -0.75585706330E+03  0.75585706331E+03  0.25500000920E-02 0. -1.
    10030    2    1    2    0    0  0.00000000000E+00  0.00000000000E+00  0.16666011302E+04  0.31783152568E+04  0.27063127211E+04 0.  0.
        4    1    3    3  502    0  0.55195667929E+03 -0.11924225100E+04  0.45365076507E+03  0.13900821011E+04  0.12699999809E+01 0. -1.
       -4    1    3    3    0  502 -0.55195667929E+03  0.11924225100E+04  0.12129503651E+04  0.17882331557E+04  0.12699999809E+01 0.  1.
</event>
<event>
 5   0  0.5152288E-06  0.2701485E+04  0.7818609E-02  0.8334523E-01
        1   -1    0    0  501    0  0.00000000000E+00  0.00000000000E+00  0.20991032525E+04  0.20991032525E+04  0.50400001928E-02 0.  1.
       -1   -1    0    0    0  501  0.00000000000E+00  0.00000000000E+00 -0.86918329625E+03  0.86918329627E+03  0.50400001928E-02 0. -1.
    10030    2    1    2    0    0  0.00000000000E+00  0.00000000000E+00  0.12299199562E+04  0.29682865488E+04  0.27014851354E+04 0.  0.
        3    1    3    3  502    0 -0.52313031731E+03 -0.64388486462E+03 -0.55626588398E+03  0.99884172503E+03  0.10100000352E+00 0. -1.
       -3    1    3    3    0  502  0.52313031731E+03  0.64388486462E+03  0.17861858402E+04  0.19694448237E+04  0.10100000352E+00 0.  1.
</event>
<event>
 5   0  0.5152288E-06  0.2702155E+04  0.7818609E-02  0.8334306E-01
       -1   -1    0    0    0  501  0.00000000000E+00  0.00000000000E+00  0.27733356477E+04  0.27733356477E+04  0.50400001928E-02 0. -1.
        1   -1    0    0  501    0  0.00000000000E+00  0.00000000000E+00 -0.65820024007E+03  0.65820024009E+03  0.50400001928E-02 0.  1.
    10030    2    1    2    0    0  0.00000000000E+00  0.00000000000E+00  0.21151354076E+04  0.34315358878E+04  0.27021548358E+04 0.  0.
        3    1    3    3  502    0 -0.43192788525E+03  0.11031438957E+04  0.23268079086E+03  0.12073228703E+04  0.10100000352E+00 0.  1.
       -3    1    3    3    0  502  0.43192788525E+03 -0.11031438957E+04  0.18824546168E+04  0.22242130174E+04  0.10100000352E+00 0. -1.
</event>
<event>
 5   0  0.1261364E-05  0.2694873E+04  0.7818609E-02  0.8336670E-01
        2   -1    0    0  501    0  0.00000000000E+00  0.00000000000E+00  0.13705020997E+04  0.13705020997E+04  0.25500000920E-02 0.  1.
       -2   -1    0    0    0  501  0.00000000000E+00  0.00000000000E+00 -0.13247595063E+04  0.13247595063E+04  0.25500000920E-02 0. -1.
    10030    2    1    2    0    0  0.00000000000E+00  0.00000000000E+00  0.45742593434E+02  0.26952616060E+04  0.26948734182E+04 0.  0.
        5    1    3    3  502    0 -0.23578486035E+03 -0.24220421278E+03  0.13274004779E+04  0.13697706012E+04  0.46999998093E+01 0.  1.
       -5    1    3    3    0  502  0.23578486035E+03  0.24220421278E+03 -0.12816578845E+04  0.13254910048E+04  0.46999998093E+01 0. -1.
</event>
<event>
 5   0  0.4756800E-06  0.2512147E+04  0.7818609E-02  0.8398671E-01
        1   -1    0    0  501    0  0.00000000000E+00  0.00000000000E+00  0.12220647790E+04  0.12220647790E+04  0.50400001928E-02 0.  1.
       -1   -1    0    0    0  501  0.00000000000E+00  0.00000000000E+00 -0.12910281874E+04  0.12910281874E+04  0.50400001928E-02 0. -1.
    10030    2    1    2    0    0  0.00000000000E+00  0.00000000000E+00 -0.68963408361E+02  0.25130929665E+04  0.25121465535E+04 0.  0.
        4    1    3    3  502    0 -0.13414614802E+03  0.12409070858E+04  0.10654260376E+03  0.12526765440E+04  0.12699999809E+01 0.  1.
       -4    1    3    3    0  502  0.13414614802E+03 -0.12409070858E+04 -0.17550601212E+03  0.12604164224E+04  0.12699999809E+01 0. -1.
</event>
<event>
 5   0  0.5152288E-06  0.2663271E+04  0.7818609E-02  0.8347022E-01
        1   -1    0    0  501    0  0.00000000000E+00  0.00000000000E+00  0.13715070067E+04  0.13715070067E+04  0.50400001928E-02 0. -1.
       -1   -1    0    0    0  501  0.00000000000E+00  0.00000000000E+00 -0.12929226894E+04  0.12929226894E+04  0.50400001928E-02 0.  1.
    10030    2    1    2    0    0  0.00000000000E+00  0.00000000000E+00  0.78584317355E+02  0.26644296961E+04  0.26632705665E+04 0.  0.
        3    1    3    3  502    0 -0.12661871076E+04  0.32557252019E+03  0.29243441792E+03  0.13396809905E+04  0.10100000352E+00 0.  1.
       -3    1    3    3    0  502  0.12661871076E+04 -0.32557252019E+03 -0.21385010057E+03  0.13247487056E+04  0.10100000352E+00 0. -1.
</event>
<event>
 5   0  0.1220908E-05  0.2708710E+04  0.7818609E-02  0.8332184E-01
        2   -1    0    0  501    0  0.00000000000E+00  0.00000000000E+00  0.18265043238E+04  0.18265043238E+04  0.25500000920E-02 0. -1.
       -2   -1    0    0    0  501  0.00000000000E+00  0.00000000000E+00 -0.10042558076E+04  0.10042558076E+04  0.25500000920E-02 0.  1.
    10030    2    1    2    0    0  0.00000000000E+00  0.00000000000E+00  0.82224851622E+03  0.28307601315E+04  0.27087100804E+04 0.  0.
        2    1    3    3  502    0 -0.58391984951E+03 -0.11994224800E+04  0.16670367428E+03  0.13443834242E+04  0.25500000920E-02 0.  1.
       -2    1    3    3    0  502  0.58391984951E+03  0.11994224800E+04  0.65554484194E+03  0.14863767073E+04  0.25500000920E-02 0. -1.
</event>
<event>
 5   0  0.4756800E-06  0.2755600E+04  0.7818609E-02  0.8317187E-01
       -1   -1    0    0    0  501  0.00000000000E+00  0.00000000000E+00  0.72698715267E+03  0.72698715269E+03  0.50400001928E-02 0.  1.
        1   -1    0    0  501    0  0.00000000000E+00  0.00000000000E+00 -0.26112335235E+04  0.26112335235E+04  0.50400001928E-02 0. -1.
    10030    2    1    2    0    0  0.00000000000E+00  0.00000000000E+00 -0.18842463708E+04  0.33382206762E+04  0.27556002789E+04 0.  0.
        4    1    3    3  502    0 -0.10755654714E+04  0.18412679961E+03  0.76911592825E+02  0.10939199092E+04  0.12699999809E+01 0.  1.
       -4    1    3    3    0  502  0.10755654714E+04 -0.18412679961E+03 -0.19611579637E+04  0.22443007670E+04  0.12699999809E+01 0. -1.
</event>
<event>
 5   0  0.1276517E-05  0.2711253E+04  0.7818609E-02  0.8331363E-01
       -2   -1    0    0    0  501  0.00000000000E+00  0.00000000000E+00  0.14324209458E+04  0.14324209458E+04  0.25500000920E-02 0. -1.
        2   -1    0    0  501    0  0.00000000000E+00  0.00000000000E+00 -0.12829488823E+04  0.12829488823E+04  0.25500000920E-02 0.  1.
    10030    2    1    2    0    0  0.00000000000E+00  0.00000000000E+00  0.14947206352E+03  0.27153698281E+04  0.27112527373E+04 0.  0.
        1    1    3    3  502    0  0.89272098056E+03 -0.93987424717E+03  0.47208590341E+03  0.13795577008E+04  0.50400001928E-02 0. -1.
       -1    1    3    3    0  502 -0.89272098056E+03  0.93987424717E+03 -0.32261383989E+03  0.13358121273E+04  0.50400001928E-02 0.  1.
</event>
<event>
 5   0  0.4846214E-06  0.2612162E+04  0.7818609E-02  0.8364082E-01
       -1   -1    0    0    0  501  0.00000000000E+00  0.00000000000E+00  0.12066349210E+04  0.12066349210E+04  0.50400001928E-02 0.  1.
        1   -1    0    0  501    0  0.00000000000E+00  0.00000000000E+00 -0.14137235660E+04  0.14137235660E+04  0.50400001928E-02 0. -1.
    10030    2    1    2    0    0  0.00000000000E+00  0.00000000000E+00 -0.20708864501E+03  0.26203584869E+04  0.26121624936E+04 0.  0.
        2    1    3    3  502    0  0.26013206241E+03  0.22861245862E+03 -0.13668271559E+04  0.14100173120E+04  0.25500000920E-02 0. -1.
       -2    1    3    3    0  502 -0.26013206241E+03 -0.22861245862E+03  0.11597385109E+04  0.12103411749E+04  0.25500000920E-02 0.  1.
</event>
<event>
 5   0  0.4756800E-06  0.2708468E+04  0.7818609E-02  0.8332263E-01
        1   -1    0    0  501    0  0.00000000000E+00  0.00000000000E+00  0.26300881300E+04  0.26300881300E+04  0.50400001928E-02 0. -1.
       -1   -1    0    0    0  501  0.00000000000E+00  0.00000000000E+00 -0.69729597266E+03  0.69729597267E+03  0.50400001928E-02 0.  1.
    10030    2    1    2    0    0  0.00000000000E+00  0.00000000000E+00  0.19327921573E+04  0.33273841026E+04  0.27084680990E+04 0.  0.
        4    1    3    3  502    0  0.26035483436E+03 -0.23220364512E+03  0.25739375124E+04  0.25974716751E+04  0.12699999809E+01 0. -1.
       -4    1    3    3    0  502 -0.26035483436E+03  0.23220364512E+03 -0.64114535508E+03  0.72991242750E+03  0.12699999809E+01 0.  1.
</event>
<event>
 5   0  0.1232559E-05  0.2688515E+04  0.7818609E-02  0.8338741E-01
       -2   -1    0    0    0  501  0.00000000000E+00  0.00000000000E+00  0.12742290091E+04  0.12742290091E+04  0.25500000920E-02 0.  1.
        2   -1    0    0  501    0  0.00000000000E+00  0.00000000000E+00 -0.14181343740E+04  0.14181343740E+04  0.25500000920E-02 0. -1.
    10030    2    1    2    0    0  0.00000000000E+00  0.00000000000E+00 -0.14390536490E+03  0.26923633831E+04  0.26885148005E+04 0.  0.
        3    1    3    3  502    0 -0.56994758293E+01 -0.85050159905E+03  0.97051897747E+03  0.12904621458E+04  0.10100000352E+00 0.  1.
       -3    1    3    3    0  502  0.56994758293E+01  0.85050159905E+03 -0.11144243424E+04  0.14019012373E+04  0.10100000352E+00 0. -1.
</event>
<event>
 5   0  0.5152288E-06  0.2643573E+04  0.7818609E-02  0.8353549E-01
       -1   -1    0    0    0  501  0.00000000000E+00  0.00000000000E+00  0.10922086082E+04  0.10922086082E+04  0.50400001928E-02 0.  1.
        1   -1    0    0  501    0  0.00000000000E+00  0.00000000000E+00 -0.15996201933E+04  0.15996201933E+04  0.50400001928E-02 0. -1.
    10030    2    1    2    0    0  0.00000000000E+00  0.00000000000E+00 -0.50741158507E+03  0.26918288016E+04  0.26435725411E+04 0.  0.
        3    1    3    3  502    0  0.12719706934E+04  0.17935067255E+03 -0.57090925656E+03  0.14057074725E+04  0.10100000352E+00 0. -1.
       -3    1    3    3    0  502 -0.12719706934E+04 -0.17935067255E+03  0.63497671492E+02  0.12861213291E+04  0.10100000352E+00 0.  1.
</event>
<event>
 5   0  0.1220908E-05  0.2710469E+04  0.7818609E-02  0.8331616E-01
        2   -1    0    0  501    0  0.00000000000E+00  0.00000000000E+00  0.12322341964E+04  0.12322341964E+04  0.25500000920E-02 0.  1.
       -2   -1    0    0    0  501  0.00000000000E+00  0.00000000000E+00 -0.14905129377E+04  0.14905129377E+04  0.25500000920E-02 0. -1.
    10030    2    1    2    0    0  0.00000000000E+00  0.00000000000E+00 -0.25827874130E+03  0.27227471342E+04  0.27104693410E+04 0.  0.
        2    1    3    3  502    0  0.57073466306E+03  0.65534741407E+03 -0.11737743688E+04  0.14604672395E+04  0.25500000920E-02 0. -1.
       -2    1    3    3    0  502 -0.57073466306E+03 -0.65534741407E+03  0.91549562746E+03  0.12622798947E+04  0.25500000920E-02 0.  1.
</event>
<event>
 5   0  0.1232559E-05  0.2697196E+04  0.7818609E-02  0.8335915E-01
       -2   -1    0    0    0  501  0.00000000000E+00  0.00000000000E+00  0.12033708505E+04  0.12033708505E+04  0.25500000920E-02 0.  1.
        2   -1    0    0  501    0  0.00000000000E+00  0.00000000000E+00 -0.15113520190E+04  0.15113520190E+04  0.25500000920E-02 0. -1.
    10030    2    1    2    0    0  0.00000000000E+00  0.00000000000E+00 -0.30798116846E+03  0.27147228695E+04  0.26971962958E+04 0.  0.
        3    1    3    3  502    0  0.87395216369E+02 -0.13314021328E+04 -0.35134478970E+03  0.13797509683E+04  0.10100000352E+00 0. -1.
       -3    1    3    3    0  502 -0.87395216369E+02  0.13314021328E+04  0.43363621239E+02  0.13349719012E+04  0.10100000352E+00 0.  1.
</event>
<event>
 5   0  0.1220908E-05  0.2532148E+04  0.7818609E-02  0.8391621E-01
       -2   -1    0    0    0  501  0.00000000000E+00  0.00000000000E+00  0.15725441010E+04  0.15725441010E+04  0.25500000920E-02 0.  1.
        2   -1    0    0  501    0  0.00000000000E+00  0.00000000000E+00 -0.10193315979E+04  0.10193315979E+04  0.25500000920E-02 0. -1.
    10030    2    1    2    0    0  0.00000000000E+00  0.00000000000E+00  0.55321250308E+03  0.25918756989E+04  0.25321484089E+04 0.  0.
        2    1    3    3  502    0 -0.57977884653E+03 -0.26803740264E+02  0.14283501512E+04  0.15417672023E+04  0.25500000920E-02 0.  1.
       -2    1    3    3    0  502  0.57977884653E+03  0.26803740264E+02 -0.87513764817E+03  0.10501084966E+04  0.25500000920E-02 0. -1.
</event>
<event>
 5   0  0.1220908E-05  0.2689848E+04  0.7818609E-02  0.8338306E-01
       -2   -1    0    0    0  501  0.00000000000E+00  0.00000000000E+00  0.10706959668E+04  0.10706959668E+04  0.25500000920E-02 0.  1.
        2   -1    0    0  501    0  0.00000000000E+00  0.00000000000E+00 -0.16893880370E+04  0.16893880370E+04  0.25500000920E-02 0. -1.
    10030    2    1    2    0    0  0.00000000000E+00  0.00000000000E+00 -0.61869207018E+03  0.27600840038E+04  0.26898482913E+04 0.  0.
        2    1    3    3  502    0  0.25297321956E+03 -0.10328116920E+03  0.10419139286E+04  0.10771476613E+04  0.25500000920E-02 0.  1.
       -2    1    3    3    0  502 -0.25297321956E+03  0.10328116920E+03 -0.16606059987E+04  0.16829363425E+04  0.25500000920E-02 0. -1.
</event>
<event>
 5   0  0.4824715E-06  0.2406736E+04  0.7818609E-02  0.8436986E-01
       -1   -1    0    0    0  501  0.00000000000E+00  0.00000000000E+00  0.10448446738E+04  0.10448446738E+04  0.50400001928E-02 0.  1.
        1   -1    0    0  501    0  0.00000000000E+00  0.00000000000E+00 -0.13859421199E+04  0.13859421199E+04  0.50400001928E-02 0. -1.
    10030    2    1    2    0    0  0.00000000000E+00  0.00000000000E+00 -0.34109744609E+03  0.24307867938E+04  0.24067357497E+04 0.  0.
        5    1    3    3  502    0 -0.48260249606E+03 -0.41547409708E+03  0.86070740570E+03  0.10706835306E+04  0.46999998093E+01 0.  1.
       -5    1    3    3    0  502  0.48260249606E+03  0.41547409708E+03 -0.12018048518E+04  0.13601032631E+04  0.46999998093E+01 0. -1.
</event>
<event>
 5   0  0.4756800E-06  0.2628331E+04  0.7818609E-02  0.8358641E-01
       -1   -1    0    0    0  501  0.00000000000E+00  0.00000000000E+00  0.11267110281E+04  0.11267110281E+04  0.50400001928E-02 0.  1.
        1   -1    0    0  501    0  0.00000000000E+00  0.00000000000E+00 -0.15328069091E+04  0.15328069091E+04  0.50400001928E-02 0. -1.
    10030    2    1    2    0    0  0.00000000000E+00  0.00000000000E+00 -0.40609588102E+03  0.26595179373E+04  0.26283306097E+04 0.  0.
        4    1    3    3  502    0 -0.82323140320E+03 -0.17806046951E+03  0.81769017300E+03  0.11738970593E+04  0.12699999809E+01 0.  1.
       -4    1    3    3    0  502  0.82323140320E+03  0.17806046951E+03 -0.12237860540E+04  0.14856208779E+04  0.12699999809E+01 0. -1.
</event>
<event>
 5   0  0.1220908E-05  0.2724492E+04  0.7818609E-02  0.8327102E-01
       -2   -1    0    0    0  501  0.00000000000E+00  0.00000000000E+00  0.13157966216E+04  0.13157966216E+04  0.25500000920E-02 0. -1.
        2   -1    0    0  501    0  0.00000000000E+00  0.00000000000E+00 -0.14103352067E+04  0.14103352067E+04  0.25500000920E-02 0.  1.
    10030    2    1    2    0    0  0.00000000000E+00  0.00000000000E+00 -0.94538585155E+02  0.27261318283E+04  0.27244920997E+04 0.  0.
        2    1    3    3  502    0  0.53929794766E+03 -0.11735610158E+04 -0.48068881141E+03  0.13780963201E+04  0.25500000920E-02 0.  1.
       -2    1    3    3    0  502 -0.53929794766E+03  0.11735610158E+04  0.38615022626E+03  0.13480355082E+04  0.25500000920E-02 0. -1.
</event>
<event>
 5   0  0.1220908E-05  0.2703268E+04  0.7818609E-02  0.8333945E-01
        2   -1    0    0  501    0  0.00000000000E+00  0.00000000000E+00  0.15924569512E+04  0.15924569512E+04  0.25500000920E-02 0. -1.
       -2   -1    0    0    0  501  0.00000000000E+00  0.00000000000E+00 -0.11472301150E+04  0.11472301150E+04  0.25500000920E-02 0.  1.
    10030    2    1    2    0    0  0.00000000000E+00  0.00000000000E+00  0.44522683621E+03  0.27396870661E+04  0.27032680749E+04 0.  0.
        2    1    3    3  502    0  0.16747652622E+03  0.10416171259E+04 -0.63369560228E+03  0.12306846632E+04  0.25500000920E-02 0.  1.
       -2    1    3    3    0  502 -0.16747652622E+03 -0.10416171259E+04  0.10789224385E+04  0.15090024030E+04  0.25500000920E-02 0. -1.
</event>
<event>
 5   0  0.1232559E-05  0.2708684E+04  0.7818609E-02  0.8332193E-01
        2   -1    0    0  501    0  0.00000000000E+00  0.00000000000E+00  0.98765141554E+03  0.98765141554E+03  0.25500000920E-02 0.  1.
       -2   -1    0    0    0  501  0.00000000000E+00  0.00000000000E+00 -0.18571759818E+04  0.18571759818E+04  0.25500000920E-02 0. -1.
    10030    2    1    2    0    0  0.00000000000E+00  0.00000000000E+00 -0.86952456622E+03  0.28448273973E+04  0.27086841730E+04 0.  0.
        3    1    3    3  502    0 -0.10560958283E+04 -0.66859102252E+03  0.11287658902E+03  0.12550272860E+04  0.10100000352E+00 0.  1.
       -3    1    3    3    0  502  0.10560958283E+04  0.66859102252E+03 -0.98240115525E+03  0.15898001113E+04  0.10100000352E+00 0. -1.
</event>
<event>
 5   0  0.4846214E-06  0.2685921E+04  0.7818609E-02  0.8339588E-01
        1   -1    0    0  501    0  0.00000000000E+00  0.00000000000E+00  0.16517349097E+04  0.16517349097E+04  0.50400001928E-02 0. -1.
       -1   -1    0    0    0  501  0.00000000000E+00  0.00000000000E+00 -0.10919079518E+04  0.10919079518E+04  0.50400001928E-02 0.  1.
    10030    2    1    2    0    0  0.00000000000E+00  0.00000000000E+00  0.55982695787E+03  0.27436428616E+04  0.26859206855E+04 0.  0.
        2    1    3    3  502    0  0.45116432013E+03 -0.11322086863E+04 -0.29620790679E+03  0.12542666691E+04  0.25500000920E-02 0.  1.
       -2    1    3    3    0  502 -0.45116432013E+03  0.11322086863E+04  0.85603486466E+03  0.14893761925E+04  0.25500000920E-02 0. -1.
</event>
<event>
 5   0  0.4826140E-06  0.2706059E+04  0.7818609E-02  0.8333042E-01
        1   -1    0    0  501    0  0.00000000000E+00  0.00000000000E+00  0.15085099135E+04  0.15085099135E+04  0.50400001928E-02 0. -1.
       -1   -1    0    0    0  501  0.00000000000E+00  0.00000000000E+00 -0.12135740976E+04  0.12135740976E+04  0.50400001928E-02 0.  1.
    10030    2    1    2    0    0  0.00000000000E+00  0.00000000000E+00  0.29493581592E+03  0.27220840111E+04  0.27060587998E+04 0.  0.
        1    1    3    3  502    0  0.91349984820E+03 -0.45093757991E+02 -0.85551910028E+03  0.12523690952E+04  0.50400001928E-02 0.  1.
       -1    1    3    3    0  502 -0.91349984820E+03  0.45093757991E+02  0.11504549162E+04  0.14697149159E+04  0.50400001928E-02 0. -1.
</event>
<event>
 5   0  0.1220908E-05  0.2726955E+04  0.7818609E-02  0.8326312E-01
       -2   -1    0    0    0  501  0.00000000000E+00  0.00000000000E+00  0.73645411187E+03  0.73645411188E+03  0.25500000920E-02 0. -1.
        2   -1    0    0  501    0  0.00000000000E+00  0.00000000000E+00 -0.25243548981E+04  0.25243548981E+04  0.25500000920E-02 0.  1.
    10030    2    1    2    0    0  0.00000000000E+00  0.00000000000E+00 -0.17879007862E+04  0.32608090100E+04  0.27269554778E+04 0.  0.
        2    1    3    3  502    0  0.11779593667E+04  0.53263960240E+03 -0.14121177494E+04  0.19145155403E+04  0.25500000920E-02 0.  1.
       -2    1    3    3    0  502 -0.11779593667E+04 -0.53263960240E+03 -0.37578303676E+03  0.13462934697E+04  0.25500000920E-02 0. -1.
</event>
<event>
 5   0  0.1261364E-05  0.2715981E+04  0.7818609E-02  0.8329838E-01
        2   -1    0    0  501    0  0.00000000000E+00  0.00000000000E+00  0.14367576635E+04  0.14367576635E+04  0.25500000920E-02 0. -1.
       -2   -1    0    0    0  501  0.00000000000E+00  0.00000000000E+00 -0.12835418885E+04  0.12835418885E+04  0.25500000920E-02 0.  1.
    10030    2    1    2    0    0  0.00000000000E+00  0.00000000000E+00  0.15321577501E+03  0.27202995520E+04  0.27159813289E+04 0.  0.
        5    1    3    3  502    0 -0.16420846166E+03  0.35334135440E+03  0.13795612974E+04  0.14335361854E+04  0.46999998093E+01 0. -1.
       -5    1    3    3    0  502  0.16420846166E+03 -0.35334135440E+03 -0.12263455223E+04  0.12867633667E+04  0.46999998093E+01 0.  1.
</event>
<event>
 5   0  0.4846214E-06  0.2784924E+04  0.7818609E-02  0.8307964E-01
        1   -1    0    0  501    0  0.00000000000E+00  0.00000000000E+00  0.17744521267E+04  0.17744521267E+04  0.50400001928E-02 0. -1.
       -1   -1    0    0    0  501  0.00000000000E+00  0.00000000000E+00 -0.10927039771E+04  0.10927039771E+04  0.50400001928E-02 0.  1.
    10030    2    1    2    0    0  0.00000000000E+00  0.00000000000E+00  0.68174814959E+03  0.28671561038E+04  0.27849243408E+04 0.  0.
        2    1    3    3  502    0 -0.10899592937E+04  0.56008257542E+03 -0.33989752250E+03  0.12717051856E+04  0.25500000920E-02 0.  1.
       -2    1    3    3    0  502  0.10899592937E+04 -0.56008257542E+03  0.10216456721E+04  0.15954509182E+04  0.25500000920E-02 0. -1.
</event>
<event>
 5   0  0.4824715E-06  0.2696908E+04  0.7818609E-02  0.8336009E-01
        1   -1    0    0  501    0  0.00000000000E+00  0.00000000000E+00  0.11149194993E+04  0.11149194993E+04  0.50400001928E-02 0.  1.
       -1   -1    0    0    0  501  0.00000000000E+00  0.00000000000E+00 -0.16309055105E+04  0.16309055105E+04  0.50400001928E-02 0. -1.
    10030    2    1    2    0    0  0.00000000000E+00  0.00000000000E+00 -0.51598601121E+03  0.27458250098E+04  0.26969081224E+04 0.  0.
        5    1    3    3  502    0 -0.81871465697E+03  0.64370420632E+03 -0.11300670830E+04  0.15367896723E+04  0.46999998093E+01 0. -1.
       -5    1    3    3    0  502  0.81871465697E+03 -0.64370420632E+03  0.61408107175E+03  0.12090353375E+04  0.46999998093E+01 0.  1.
</event>
<event>
 5   0  0.1286641E-05  0.2720749E+04  0.7818609E-02  0.8328304E-01
        2   -1    0    0  501    0  0.00000000000E+00  0.00000000000E+00  0.20192391281E+04  0.20192391281E+04  0.25500000920E-02 0.  1.
       -2   -1    0    0    0  501  0.00000000000E+00  0.00000000000E+00 -0.91649321857E+03  0.91649321857E+03  0.25500000920E-02 0. -1.
    10030    2    1    2    0    0  0.00000000000E+00  0.00000000000E+00  0.11027459095E+04  0.29357323466E+04  0.27207491377E+04 0.  0.
        4    1    3    3  502    0  0.99459465017E+02 -0.91384585533E+03  0.16334120402E+04  0.18743113238E+04  0.12699999809E+01 0.  1.
       -4    1    3    3    0  502 -0.99459465017E+02  0.91384585533E+03 -0.53066613074E+03  0.10614210228E+04  0.12699999809E+01 0. -1.
</event>
<event>
 5   0  0.5152288E-06  0.2651393E+04  0.7818609E-02  0.8350951E-01
        1   -1    0    0  501    0  0.00000000000E+00  0.00000000000E+00  0.12057651955E+04  0.12057651956E+04  0.50400001928E-02 0.  1.
       -1   -1    0    0    0  501  0.00000000000E+00  0.00000000000E+00 -0.14575562811E+04  0.14575562811E+04  0.50400001928E-02 0. -1.
    10030    2    1    2    0    0  0.00000000000E+00  0.00000000000E+00 -0.25179108558E+03  0.26633214767E+04  0.26513925657E+04 0.  0.
        3    1    3    3  502    0 -0.24872295383E+03 -0.11892360775E+04 -0.65868273181E+03  0.13820305739E+04  0.10100000352E+00 0. -1.
       -3    1    3    3    0  502  0.24872295383E+03  0.11892360775E+04  0.40689164623E+03  0.12812909028E+04  0.10100000352E+00 0.  1.
</event>
<event>
 5   0  0.4846214E-06  0.2718030E+04  0.7818609E-02  0.8329178E-01
        1   -1    0    0  501    0  0.00000000000E+00  0.00000000000E+00  0.13450031714E+04  0.13450031714E+04  0.50400001928E-02 0. -1.
       -1   -1    0    0    0  501  0.00000000000E+00  0.00000000000E+00 -0.13731731312E+04  0.13731731312E+04  0.50400001928E-02 0.  1.
    10030    2    1    2    0    0  0.00000000000E+00  0.00000000000E+00 -0.28169959843E+02  0.27181763026E+04  0.27180303283E+04 0.  0.
        2    1    3    3  502    0  0.56726982115E+03 -0.12152475926E+04 -0.23387042789E+03  0.13613659091E+04  0.25500000920E-02 0.  1.
       -2    1    3    3    0  502 -0.56726982115E+03  0.12152475926E+04  0.20570046804E+03  0.13568103935E+04  0.25500000920E-02 0. -1.
</event>
<event>
 5   0  0.1220908E-05  0.2684890E+04  0.7818609E-02  0.8339924E-01
       -2   -1    0    0    0  501  0.00000000000E+00  0.00000000000E+00  0.12503663104E+04  0.12503663104E+04  0.25500000920E-02 0. -1.
        2   -1    0    0  501    0  0.00000000000E+00  0.00000000000E+00 -0.14413045035E+04  0.14413045036E+04  0.25500000920E-02 0.  1.
    10030    2    1    2    0    0  0.00000000000E+00  0.00000000000E+00 -0.19093819311E+03  0.26916708140E+04  0.26848900121E+04 0.  0.
        2    1    3    3  502    0  0.98492309536E+03 -0.25161241712E+03 -0.97448237224E+03  0.14081896911E+04  0.25500000920E-02 0.  1.
       -2    1    3    3    0  502 -0.98492309536E+03  0.25161241712E+03  0.78354417913E+03  0.12834811229E+04  0.25500000920E-02 0. -1.
</event>
<event>
 5   0  0.1261364E-05  0.2707350E+04  0.7818609E-02  0.8332624E-01
        2   -1    0    0  501    0  0.00000000000E+00  0.00000000000E+00  0.12436665674E+04  0.12436665674E+04  0.25500000920E-02 0. -1.
       -2   -1    0    0    0  501  0.00000000000E+00  0.00000000000E+00 -0.14734145702E+04  0.14734145702E+04  0.25500000920E-02 0.  1.
    10030    2    1    2    0    0  0.00000000000E+00  0.00000000000E+00 -0.22974800281E+03  0.27170811376E+04  0.27073503216E+04 0.  0.
        5    1    3    3  502    0 -0.12719980543E+03 -0.13244797553E+04 -0.36474263829E+03  0.13796686903E+04  0.46999998093E+01 0.  1.
       -5    1    3    3    0  502  0.12719980543E+03  0.13244797553E+04  0.13499463548E+03  0.13374124473E+04  0.46999998093E+01 0. -1.
</event>
<event>
 5   0  0.4756800E-06  0.2710160E+04  0.7818609E-02  0.8331716E-01
        1   -1    0    0  501    0  0.00000000000E+00  0.00000000000E+00  0.17761830278E+04  0.17761830278E+04  0.50400001928E-02 0.  1.
       -1   -1    0    0    0  501  0.00000000000E+00  0.00000000000E+00 -0.10338135122E+04  0.10338135122E+04  0.50400001928E-02 0. -1.
    10030    2    1    2    0    0  0.00000000000E+00  0.00000000000E+00  0.74236951560E+03  0.28099965400E+04  0.27101601534E+04 0.  0.
        4    1    3    3  502    0  0.85482680188E+03 -0.69672779683E+03  0.11876456041E+04  0.16206980527E+04  0.12699999809E+01 0.  1.
       -4    1    3    3    0  502 -0.85482680188E+03  0.69672779683E+03 -0.44527608849E+03  0.11892984873E+04  0.12699999809E+01 0. -1.
</event>
<event>
 5   0  0.1261364E-05  0.2728352E+04  0.7818609E-02  0.8325864E-01
        2   -1    0    0  501    0  0.00000000000E+00  0.00000000000E+00  0.12053384921E+04  0.12053384921E+04  0.25500000920E-02 0. -1.
       -2   -1    0    0    0  501  0.00000000000E+00  0.00000000000E+00 -0.15439444635E+04  0.15439444635E+04  0.25500000920E-02 0.  1.
    10030    2    1    2    0    0  0.00000000000E+00  0.00000000000E+00 -0.33860597145E+03  0.27492829556E+04  0.27283516573E+04 0.  0.
        5    1    3    3  502    0 -0.13008122486E+04  0.40963466135E+03 -0.20180785228E+03  0.13786448278E+04  0.46999998093E+01 0.  1.
       -5    1    3    3    0  502  0.13008122486E+04 -0.40963466135E+03 -0.13679811917E+03  0.13706381278E+04  0.46999998093E+01 0. -1.
</event>
<event>
 5   0  0.5152288E-06  0.2733981E+04  0.7818609E-02  0.8324063E-01
        1   -1    0    0  501    0  0.00000000000E+00  0.00000000000E+00  0.11974262457E+04  0.11974262457E+04  0.50400001928E-02 0. -1.
       -1   -1    0    0    0  501  0.00000000000E+00  0.00000000000E+00 -0.15605657754E+04  0.15605657754E+04  0.50400001928E-02 0.  1.
    10030    2    1    2    0    0  0.00000000000E+00  0.00000000000E+00 -0.36313952969E+03  0.27579920211E+04  0.27339805542E+04 0.  0.
        3    1    3    3  502    0  0.56675590618E+03  0.10771921121E+04  0.44607406957E+03  0.12963553484E+04  0.10100000352E+00 0. -1.
       -3    1    3    3    0  502 -0.56675590618E+03 -0.10771921121E+04 -0.80921359926E+03  0.14616366727E+04  0.10100000352E+00 0.  1.
</event>
<event>
 5   0  0.1220908E-05  0.2682695E+04  0.7818609E-02  0.8340642E-01
       -2   -1    0    0    0  501  0.00000000000E+00  0.00000000000E+00  0.20774121486E+04  0.20774121486E+04  0.25500000920E-02 0.  1.
        2   -1    0    0  501    0  0.00000000000E+00  0.00000000000E+00 -0.86608408739E+03  0.86608408739E+03  0.25500000920E-02 0. -1.
    10030    2    1    2    0    0  0.00000000000E+00  0.00000000000E+00  0.12113280612E+04  0.29434962360E+04  0.26826953646E+04 0.  0.
        2    1    3    3  502    0 -0.82680618501E+03 -0.55404653801E+03  0.15923275790E+04  0.18777867698E+04  0.25500000920E-02 0.  1.
       -2    1    3    3    0  502  0.82680618501E+03  0.55404653801E+03 -0.38099951779E+03  0.10657094662E+04  0.25500000920E-02 0. -1.
</event>
<event>
 5   0  0.1232559E-05  0.2738900E+04  0.7818609E-02  0.8322492E-01
       -2   -1    0    0    0  501  0.00000000000E+00  0.00000000000E+00  0.14312054986E+04  0.14312054986E+04  0.25500000920E-02 0. -1.
        2   -1    0    0  501    0  0.00000000000E+00  0.00000000000E+00 -0.13103594323E+04  0.13103594323E+04  0.25500000920E-02 0.  1.
    10030    2    1    2    0    0  0.00000000000E+00  0.00000000000E+00  0.12084606623E+03  0.27415649309E+04  0.27389002353E+04 0.  0.
        3    1    3    3  502    0  0.71549265432E+03  0.10065056722E+04 -0.53210744946E+03  0.13446641791E+04  0.10100000352E+00 0.  1.
       -3    1    3    3    0  502 -0.71549265432E+03 -0.10065056722E+04  0.65295351569E+03  0.13969007518E+04  0.10100000352E+00 0. -1.
</event>
<event>
 5   0  0.1276517E-05  0.2687532E+04  0.7818609E-02  0.8339062E-01
       -2   -1    0    0    0  501  0.00000000000E+00  0.00000000000E+00  0.80963226471E+03  0.80963226471E+03  0.25500000920E-02 0. -1.
        2   -1    0    0  501    0  0.00000000000E+00  0.00000000000E+00 -0.22302803966E+04  0.22302803966E+04  0.25500000920E-02 0.  1.
    10030    2    1    2    0    0  0.00000000000E+00  0.00000000000E+00 -0.14206481318E+04  0.30399126613E+04  0.26875319298E+04 0.  0.
        1    1    3    3  502    0 -0.70507517944E+03  0.80696628324E+03  0.20677483306E+03  0.10913667681E+04  0.50400001928E-02 0. -1.
       -1    1    3    3    0  502  0.70507517944E+03 -0.80696628324E+03 -0.16274229649E+04  0.19485458931E+04  0.50400001928E-02 0.  1.
</event>
<event>
 5   0  0.4826140E-06  0.2742707E+04  0.7818609E-02  0.8321280E-01
       -1   -1    0    0    0  501  0.00000000000E+00  0.00000000000E+00  0.13122204235E+04  0.13122204235E+04  0.50400001928E-02 0. -1.
        1   -1    0    0  501    0  0.00000000000E+00  0.00000000000E+00 -0.14331511777E+04  0.14331511777E+04  0.50400001928E-02 0.  1.
    10030    2    1    2    0    0  0.00000000000E+00  0.00000000000E+00 -0.12093075419E+03  0.27453716012E+04  0.27427068712E+04 0.  0.
        1    1    3    3  502    0 -0.13396000610E+03 -0.54875690537E+03 -0.13112917303E+04  0.14277833962E+04  0.50400001928E-02 0.  1.
       -1    1    3    3    0  502  0.13396000610E+03  0.54875690537E+03  0.11903609761E+04  0.13175882050E+04  0.50400001928E-02 0. -1.
</event>
<event>
 5   0  0.1232559E-05  0.2676528E+04  0.7818609E-02  0.8342661E-01
       -2   -1    0    0    0  501  0.00000000000E+00  0.00000000000E+00  0.95268549518E+03  0.95268549519E+03  0.25500000920E-02 0.  1.
        2   -1    0    0  501    0  0.00000000000E+00  0.00000000000E+00 -0.18798964616E+04  0.18798964616E+04  0.25500000920E-02 0. -1.
    10030    2    1    2    0    0  0.00000000000E+00  0.00000000000E+00 -0.92721096643E+03  0.28325819568E+04  0.26765276695E+04 0.  0.
        3    1    3    3  502    0 -0.13133079516E+04 -0.19846965713E+03 -0.29041139387E+03  0.13595980172E+04  0.10100000352E+00 0.  1.
       -3    1    3    3    0  502  0.13133079516E+04  0.19846965713E+03 -0.63679957256E+03  0.14729839396E+04  0.10100000352E+00 0. -1.
</event>
<event>
 5   0  0.4756800E-06  0.2697057E+04  0.7818609E-02  0.8335960E-01
        1   -1    0    0  501    0  0.00000000000E+00  0.00000000000E+00  0.25482725547E+04  0.25482725547E+04  0.50400001928E-02 0.  1.
       -1   -1    0    0    0  501  0.00000000000E+00  0.00000000000E+00 -0.71363236541E+03  0.71363236543E+03  0.50400001928E-02 0. -1.
    10030    2    1    2    0    0  0.00000000000E+00  0.00000000000E+00  0.18346401893E+04  0.32619049201E+04  0.26970574862E+04 0.  0.
        4    1    3    3  502    0  0.12723896267E+04 -0.43384137891E+03  0.10460802214E+04  0.17033728736E+04  0.12699999809E+01 0. -1.
       -4    1    3    3    0  502 -0.12723896267E+04  0.43384137891E+03  0.78855996783E+03  0.15585320465E+04  0.12699999809E+01 0.  1.
</event>
<event>
 5   0  0.1261364E-05  0.2766360E+04  0.7818609E-02  0.8313789E-01
       -2   -1    0    0    0  501  0.00000000000E+00  0.00000000000E+00  0.12207426493E+04  0.12207426493E+04  0.25500000920E-02 0. -1.
        2   -1    0    0  501    0  0.00000000000E+00  0.00000000000E+00 -0.15672318606E+04  0.15672318606E+04  0.25500000920E-02 0.  1.
    10030    2    1    2    0    0  0.00000000000E+00  0.00000000000E+00 -0.34648921128E+03  0.27879745098E+04  0.27663598996E+04 0.  0.
        5    1    3    3  502    0  0.11268805777E+04 -0.26577818487E+03  0.58941566365E+03  0.12992039080E+04  0.46999998093E+01 0. -1.
       -5    1    3    3    0  502 -0.11268805777E+04  0.26577818487E+03 -0.93590487493E+03  0.14887706018E+04  0.46999998093E+01 0.  1.
</event>
<event>
 5   0  0.4756800E-06  0.2617161E+04  0.7818609E-02  0.8362395E-01
       -1   -1    0    0    0  501  0.00000000000E+00  0.00000000000E+00  0.74166732555E+03  0.74166732556E+03  0.50400001928E-02 0.  1.
        1   -1    0    0  501    0  0.00000000000E+00  0.00000000000E+00 -0.23088297042E+04  0.23088297042E+04  0.50400001928E-02 0. -1.
    10030    2    1    2    0    0  0.00000000000E+00  0.00000000000E+00 -0.15671623786E+04  0.30504970298E+04  0.26171614791E+04 0.  0.
        4    1    3    3  502    0  0.12118619585E+04  0.47689419227E+03 -0.63456776344E+03  0.14486943558E+04  0.12699999809E+01 0. -1.
       -4    1    3    3    0  502 -0.12118619585E+04 -0.47689419227E+03 -0.93259461520E+03  0.16018026740E+04  0.12699999809E+01 0.  1.
</event>
<event>
 5   0  0.5152288E-06  0.2773338E+04  0.7818609E-02  0.8311594E-01
        1   -1    0    0  501    0  0.00000000000E+00  0.00000000000E+00  0.17296647601E+04  0.17296647601E+04  0.50400001928E-02 0. -1.
       -1   -1    0    0    0  501  0.00000000000E+00  0.00000000000E+00 -0.11116896570E+04  0.11116896570E+04  0.50400001928E-02 0.  1.
    10030    2    1    2    0    0  0.00000000000E+00  0.00000000000E+00  0.61797510318E+03  0.28413544171E+04  0.27733376454E+04 0.  0.
        3    1    3    3  502    0  0.21152066988E+03 -0.87294408350E+03 -0.77336798983E+03  0.11852722998E+04  0.10100000352E+00 0.  1.
       -3    1    3    3    0  502 -0.21152066988E+03  0.87294408350E+03  0.13913430930E+04  0.16560821173E+04  0.10100000352E+00 0. -1.
</event>
<event>
 5   0  0.1276517E-05  0.2520648E+04  0.7818609E-02  0.8395666E-01
       -2   -1    0    0    0  501  0.00000000000E+00  0.00000000000E+00  0.67419530627E+03  0.67419530628E+03  0.25500000920E-02 0. -1.
        2   -1    0    0  501    0  0.00000000000E+00  0.00000000000E+00 -0.23560183135E+04  0.23560183135E+04  0.25500000920E-02 0.  1.
    10030    2    1    2    0    0  0.00000000000E+00  0.00000000000E+00 -0.16818230072E+04  0.30302136198E+04  0.25206479234E+04 0.  0.
        1    1    3    3  502    0 -0.26547206470E+03  0.11838592720E+04 -0.12510888535E+04  0.17427626093E+04  0.50400001928E-02 0.  1.
       -1    1    3    3    0  502  0.26547206470E+03 -0.11838592720E+04 -0.43073415373E+03  0.12874510105E+04  0.50400001928E-02 0. -1.
</event>
<event>
 5   0  0.1286641E-05  0.2689949E+04  0.7818609E-02  0.8338273E-01
       -2   -1    0    0    0  501  0.00000000000E+00  0.00000000000E+00  0.10726813681E+04  0.10726813681E+04  0.25500000920E-02 0. -1.
        2   -1    0    0  501    0  0.00000000000E+00  0.00000000000E+00 -0.16863877917E+04  0.16863877917E+04  0.25500000920E-02 0.  1.
    10030    2    1    2    0    0  0.00000000000E+00  0.00000000000E+00 -0.61370642365E+03  0.27590691598E+04  0.26899492661E+04 0.  0.
        4    1    3    3  502    0  0.92571086069E+03  0.16851835856E+03  0.67889102997E+03  0.11602731050E+04  0.12699999809E+01 0. -1.
       -4    1    3    3    0  502 -0.92571086069E+03 -0.16851835856E+03 -0.12925974536E+04  0.15987960548E+04  0.12699999809E+01 0.  1.
</event>
<event>
 5   0  0.1232559E-05  0.2722685E+04  0.7818609E-02  0.8327682E-01
        2   -1    0    0  501    0  0.00000000000E+00  0.00000000000E+00  0.18320208790E+04  0.18320208790E+04  0.25500000920E-02 0. -1.
       -2   -1    0    0    0  501  0.00000000000E+00  0.00000000000E+00 -0.10115894199E+04  0.10115894199E+04  0.25500000920E-02 0.  1.
    10030    2    1    2    0    0  0.00000000000E+00  0.00000000000E+00  0.82043145910E+03  0.28436102988E+04  0.27226846590E+04 0.  0.
        3    1    3    3  502    0  0.56476470712E+03 -0.11320422797E+04  0.93531203284E+03  0.15733046451E+04  0.10100000352E+00 0. -1.
       -3    1    3    3    0  502 -0.56476470712E+03  0.11320422797E+04 -0.11488057373E+03  0.12703056537E+04  0.10100000352E+00 0.  1.
</event>
<event>
 5   0  0.4756800E-06  0.2703718E+04  0.7818609E-02  0.8333800E-01
       -1   -1    0    0    0  501  0.00000000000E+00  0.00000000000E+00  0.92450096552E+03  0.92450096554E+03  0.50400001928E-02 0. -1.
        1   -1    0    0  501    0  0.00000000000E+00  0.00000000000E+00 -0.19767666669E+04  0.19767666669E+04  0.50400001928E-02 0.  1.
    10030    2    1    2    0    0  0.00000000000E+00  0.00000000000E+00 -0.10522657014E+04  0.29012676325E+04  0.27037179529E+04 0.  0.
        4    1    3    3  502    0 -0.12686186420E+04  0.91437514609E+02 -0.34665136396E+02  0.12723825535E+04  0.12699999809E+01 0.  1.
       -4    1    3    3    0  502  0.12686186420E+04 -0.91437514609E+02 -0.10176005650E+04  0.16288850790E+04  0.12699999809E+01 0. -1.
</event>
<event>
 5   0  0.4846214E-06  0.2739243E+04  0.7818609E-02  0.8322383E-01
        1   -1    0    0  501    0  0.00000000000E+00  0.00000000000E+00  0.24767410297E+04  0.24767410297E+04  0.50400001928E-02 0. -1.
       -1   -1    0    0    0  501  0.00000000000E+00  0.00000000000E+00 -0.75739193598E+03  0.75739193599E+03  0.50400001928E-02 0.  1.
    10030    2    1    2    0    0  0.00000000000E+00  0.00000000000E+00  0.17193490937E+04  0.32341329657E+04  0.27392434601E+04 0.  0.
        2    1    3    3  502    0 -0.12356547943E+03  0.32522633667E+03 -0.70435123318E+03  0.78558975137E+03  0.25500000920E-02 0.  1.
       -2    1    3    3    0  502  0.12356547943E+03 -0.32522633667E+03  0.24237003269E+04  0.24485432143E+04  0.25500000920E-02 0. -1.
</event>
<event>
 5   0  0.1261364E-05  0.2711192E+04  0.7818609E-02  0.8331383E-01
        2   -1    0    0  501    0  0.00000000000E+00  0.00000000000E+00  0.26429624957E+04  0.26429624957E+04  0.25500000920E-02 0. -1.
       -2   -1    0    0    0  501  0.00000000000E+00  0.00000000000E+00 -0.69529584996E+03  0.69529584997E+03  0.25500000920E-02 0.  1.
    10030    2    1    2    0    0  0.00000000000E+00  0.00000000000E+00  0.19476666458E+04  0.33382583457E+04  0.27111922506E+04 0.  0.
        5    1    3    3  502    0 -0.11272571193E+04  0.12869258936E+03  0.18872700529E+04  0.22020628370E+04  0.46999998093E+01 0. -1.
       -5    1    3    3    0  502  0.11272571193E+04 -0.12869258936E+03  0.60396592868E+02  0.11361955087E+04  0.46999998093E+01 0.  1.
</event>
<event>
 5   0  0.4826140E-06  0.2727234E+04  0.7818609E-02  0.8326222E-01
        1   -1    0    0  501    0  0.00000000000E+00  0.00000000000E+00  0.15716035592E+04  0.15716035592E+04  0.50400001928E-02 0.  1.
       -1   -1    0    0    0  501  0.00000000000E+00  0.00000000000E+00 -0.11831557793E+04  0.11831557793E+04  0.50400001928E-02 0. -1.
    10030    2    1    2    0    0  0.00000000000E+00  0.00000000000E+00  0.38844777995E+03  0.27547593385E+04  0.27272343749E+04 0.  0.
        1    1    3    3  502    0 -0.47083937575E+03 -0.11831256876E+02  0.14868354989E+04  0.15596504407E+04  0.50400001928E-02 0.  1.
       -1    1    3    3    0  502  0.47083937575E+03  0.11831256876E+02 -0.10983877190E+04  0.11951088978E+04  0.50400001928E-02 0. -1.
</event>
<event>
 5   0  0.1232559E-05  0.2227970E+04  0.7818609E-02  0.8506876E-01
        2   -1    0    0  501    0  0.00000000000E+00  0.00000000000E+00  0.48494590900E+03  0.48494590900E+03  0.25500000920E-02 0. -1.
       -2   -1    0    0    0  501  0.00000000000E+00  0.00000000000E+00 -0.25589721247E+04  0.25589721247E+04  0.25500000920E-02 0.  1.
    10030    2    1    2    0    0  0.00000000000E+00  0.00000000000E+00 -0.20740262157E+04  0.30439180337E+04  0.22279704335E+04 0.  0.
        3    1    3    3  502    0 -0.70265060699E+03 -0.32798099102E+03 -0.21297176794E+04  0.22664921817E+04  0.10100000352E+00 0.  1.
       -3    1    3    3    0  502  0.70265060699E+03  0.32798099102E+03  0.55691463646E+02  0.77742585196E+03  0.10100000352E+00 0. -1.
</event>
<event>
 5   0  0.4846214E-06  0.2659587E+04  0.7818609E-02  0.8348238E-01
        1   -1    0    0  501    0  0.00000000000E+00  0.00000000000E+00  0.12902224725E+04  0.12902224725E+04  0.50400001928E-02 0.  1.
       -1   -1    0    0    0  501  0.00000000000E+00  0.00000000000E+00 -0.13705784740E+04  0.13705784740E+04  0.50400001928E-02 0. -1.
    10030    2    1    2    0    0  0.00000000000E+00  0.00000000000E+00 -0.80356001548E+02  0.26608009465E+04  0.26595872969E+04 0.  0.
        2    1    3    3  502    0 -0.17549807904E+03 -0.52047150788E+02 -0.13579133114E+04  0.13701959870E+04  0.25500000920E-02 0. -1.
       -2    1    3    3    0  502  0.17549807904E+03  0.52047150788E+02  0.12775573098E+04  0.12906049595E+04  0.25500000920E-02 0.  1.
</event>
<event>
 5   0  0.4756800E-06  0.2721771E+04  0.7818609E-02  0.8327975E-01
       -1   -1    0    0    0  501  0.00000000000E+00  0.00000000000E+00  0.13073597957E+04  0.13073597957E+04  0.50400001928E-02 0. -1.
        1   -1    0    0  501    0  0.00000000000E+00  0.00000000000E+00 -0.14166028104E+04  0.14166028104E+04  0.50400001928E-02 0.  1.
    10030    2    1    2    0    0  0.00000000000E+00  0.00000000000E+00 -0.10924301478E+03  0.27239626061E+04  0.27217711592E+04 0.  0.
        4    1    3    3  502    0 -0.23472242508E+03  0.78677384513E+03 -0.11408064802E+04  0.14055421511E+04  0.12699999809E+01 0.  1.
       -4    1    3    3    0  502  0.23472242508E+03 -0.78677384513E+03  0.10315634654E+04  0.13184204551E+04  0.12699999809E+01 0. -1.
</event>
<event>
 5   0  0.4188000E-06  0.2966846E+04  0.7818609E-02  0.8253262E-01
       -3   -1    0    0    0  501  0.00000000000E+00  0.00000000000E+00  0.23697783607E+04  0.23697783629E+04  0.10100000352E+00 0.  1.
        3   -1    0    0  501    0  0.00000000000E+00  0.00000000000E+00 -0.92858659813E+03  0.92858660362E+03  0.10100000352E+00 0. -1.
    10030    2    1    2    0    0  0.00000000000E+00  0.00000000000E+00  0.14411917626E+04  0.32983649665E+04  0.29668464328E+04 0.  0.
        4    1    3    3  502    0 -0.14271589450E+04  0.25277266338E+03  0.36926785143E+03  0.14956727693E+04  0.12699999809E+01 0. -1.
       -4    1    3    3    0  502  0.14271589450E+04 -0.25277266338E+03  0.10719239112E+04  0.18026921972E+04  0.12699999809E+01 0.  1.
</event>
<event>
 5   0  0.1286641E-05  0.2683793E+04  0.7818609E-02  0.8340283E-01
        2   -1    0    0  501    0  0.00000000000E+00  0.00000000000E+00  0.14255474970E+04  0.14255474970E+04  0.25500000920E-02 0. -1.
       -2   -1    0    0    0  501  0.00000000000E+00  0.00000000000E+00 -0.12631539398E+04  0.12631539398E+04  0.25500000920E-02 0.  1.
    10030    2    1    2    0    0  0.00000000000E+00  0.00000000000E+00  0.16239355723E+03  0.26887014368E+04  0.26837927917E+04 0.  0.
        4    1    3    3  502    0  0.53705744144E+03  0.29336207665E+03 -0.11152204106E+04  0.12720889043E+04  0.12699999809E+01 0.  1.
       -4    1    3    3    0  502 -0.53705744144E+03 -0.29336207665E+03  0.12776139678E+04  0.14166125324E+04  0.12699999809E+01 0. -1.
</event>
<event>
 5   0  0.4824715E-06  0.2629604E+04  0.7818609E-02  0.8358215E-01
        1   -1    0    0  501    0  0.00000000000E+00  0.00000000000E+00  0.11641387535E+04  0.11641387535E+04  0.50400001928E-02 0. -1.
       -1   -1    0    0    0  501  0.00000000000E+00  0.00000000000E+00 -0.14849636605E+04  0.14849636605E+04  0.50400001928E-02 0.  1.
    10030    2    1    2    0    0  0.00000000000E+00  0.00000000000E+00 -0.32082490698E+03  0.26491024140E+04  0.26296035782E+04 0.  0.
        5    1    3    3  502    0 -0.17881139719E+03 -0.66614327328E+02  0.11501067226E+04  0.11658381310E+04  0.46999998093E+01 0. -1.
       -5    1    3    3    0  502  0.17881139719E+03  0.66614327328E+02 -0.14709316295E+04  0.14832642830E+04  0.46999998093E+01 0.  1.
</event>
<event>
 5   0  0.1220908E-05  0.2704613E+04  0.7818609E-02  0.8333510E-01
       -2   -1    0    0    0  501  0.00000000000E+00  0.00000000000E+00  0.84451949314E+03  0.84451949314E+03  0.25500000920E-02 0. -1.
        2   -1    0    0  501    0  0.00000000000E+00  0.00000000000E+00 -0.21654121612E+04  0.21654121612E+04  0.25500000920E-02 0.  1.
    10030    2    1    2    0    0  0.00000000000E+00  0.00000000000E+00 -0.13208926681E+04  0.30099316544E+04  0.27046129341E+04 0.  0.
        2    1    3    3  502    0 -0.38505497556E+03  0.11609656669E+04 -0.18603918510E+02  0.12232966605E+04  0.25500000920E-02 0. -1.
       -2    1    3    3    0  502  0.38505497556E+03 -0.11609656669E+04 -0.13022887496E+04  0.17866349938E+04  0.25500000920E-02 0.  1.
</event>
<event>
 5   0  0.4756800E-06  0.2688361E+04  0.7818609E-02  0.8338791E-01
        1   -1    0    0  501    0  0.00000000000E+00  0.00000000000E+00  0.20515967586E+04  0.20515967586E+04  0.50400001928E-02 0.  1.
       -1   -1    0    0    0  501  0.00000000000E+00  0.00000000000E+00 -0.88069047924E+03  0.88069047926E+03  0.50400001928E-02 0. -1.
    10030    2    1    2    0    0  0.00000000000E+00  0.00000000000E+00  0.11709062794E+04  0.29322872379E+04  0.26883613839E+04 0.  0.
        4    1    3    3  502    0 -0.89072535863E+02  0.11939322327E+04 -0.81066594548E+02  0.11999922910E+04  0.12699999809E+01 0. -1.
       -4    1    3    3    0  502  0.89072535863E+02 -0.11939322327E+04  0.12519728739E+04  0.17322949468E+04  0.12699999809E+01 0.  1.
</event>
<event>
 5   0  0.4826140E-06  0.2634266E+04  0.7818609E-02  0.8356654E-01
       -1   -1    0    0    0  501  0.00000000000E+00  0.00000000000E+00  0.12135168650E+04  0.12135168650E+04  0.50400001928E-02 0. -1.
        1   -1    0    0  501    0  0.00000000000E+00  0.00000000000E+00 -0.14295963258E+04  0.14295963258E+04  0.50400001928E-02 0.  1.
    10030    2    1    2    0    0  0.00000000000E+00  0.00000000000E+00 -0.21607946086E+03  0.26431131908E+04  0.26342659331E+04 0.  0.
        1    1    3    3  502    0 -0.80710886260E+03 -0.32513386283E+03 -0.11001490080E+04  0.14026633897E+04  0.50400001928E-02 0.  1.
       -1    1    3    3    0  502  0.80710886260E+03  0.32513386283E+03  0.88406954719E+03  0.12404498011E+04  0.50400001928E-02 0. -1.
</event>
<event>
 5   0  0.1220908E-05  0.2692957E+04  0.7818609E-02  0.8337294E-01
       -2   -1    0    0    0  501  0.00000000000E+00  0.00000000000E+00  0.15233051950E+04  0.15233051950E+04  0.25500000920E-02 0. -1.
        2   -1    0    0  501    0  0.00000000000E+00  0.00000000000E+00 -0.11901784192E+04  0.11901784192E+04  0.25500000920E-02 0.  1.
    10030    2    1    2    0    0  0.00000000000E+00  0.00000000000E+00  0.33312677583E+03  0.27134836141E+04  0.26929574589E+04 0.  0.
        2    1    3    3  502    0  0.28466539143E+03 -0.88102047836E+03 -0.81852500778E+03  0.12358052665E+04  0.25500000920E-02 0.  1.
       -2    1    3    3    0  502 -0.28466539143E+03  0.88102047836E+03  0.11516517836E+04  0.14776783476E+04  0.25500000920E-02 0. -1.
</event>
<event>
 5   0  0.1276517E-05  0.2672771E+04  0.7818609E-02  0.8343894E-01
        2   -1    0    0  501    0  0.00000000000E+00  0.00000000000E+00  0.15653418387E+04  0.15653418387E+04  0.25500000920E-02 0. -1.
       -2   -1    0    0    0  501  0.00000000000E+00  0.00000000000E+00 -0.11409172822E+04  0.11409172822E+04  0.25500000920E-02 0.  1.
    10030    2    1    2    0    0  0.00000000000E+00  0.00000000000E+00  0.42442455648E+03  0.27062591209E+04  0.26727705149E+04 0.  0.
        1    1    3    3  502    0 -0.11477913532E+04  0.28841352618E+03  0.84072991557E+03  0.14517004317E+04  0.50400001928E-02 0. -1.
       -1    1    3    3    0  502  0.11477913532E+04 -0.28841352618E+03 -0.41630535909E+03  0.12545586892E+04  0.50400001928E-02 0.  1.
</event>
<event>
 5   0  0.4846214E-06  0.2656598E+04  0.7818609E-02  0.8349226E-01
        1   -1    0    0  501    0  0.00000000000E+00  0.00000000000E+00  0.21621545081E+04  0.21621545081E+04  0.50400001928E-02 0.  1.
       -1   -1    0    0    0  501  0.00000000000E+00  0.00000000000E+00 -0.81602754220E+03  0.81602754221E+03  0.50400001928E-02 0. -1.
    10030    2    1    2    0    0  0.00000000000E+00  0.00000000000E+00  0.13461269659E+04  0.29781820503E+04  0.26565975451E+04 0.  0.
        2    1    3    3  502    0 -0.52933532943E+03  0.37438728417E+03 -0.62659030826E+03  0.90165245185E+03  0.25500000920E-02 0. -1.
       -2    1    3    3    0  502  0.52933532943E+03 -0.37438728417E+03  0.19727172741E+04  0.20765295984E+04  0.25500000920E-02 0.  1.
</event>
<event>
 5   0  0.4826140E-06  0.2437922E+04  0.7818609E-02  0.8425441E-01
        1   -1    0    0  501    0  0.00000000000E+00  0.00000000000E+00  0.10820440277E+04  0.10820440277E+04  0.50400001928E-02 0. -1.
       -1   -1    0    0    0  501  0.00000000000E+00  0.00000000000E+00 -0.13732025658E+04  0.13732025658E+04  0.50400001928E-02 0.  1.
    10030    2    1    2    0    0  0.00000000000E+00  0.00000000000E+00 -0.29115853813E+03  0.24552465936E+04  0.24379217668E+04 0.  0.
        1    1    3    3  502    0  0.59817865116E+03 -0.10577569319E+04 -0.48990418035E+02  0.12161691851E+04  0.50400001928E-02 0. -1.
       -1    1    3    3    0  502 -0.59817865116E+03  0.10577569319E+04 -0.24216812009E+03  0.12390774085E+04  0.50400001928E-02 0.  1.
</event>
<event>
 5   0  0.4756800E-06  0.2669254E+04  0.7818609E-02  0.8345050E-01
        1   -1    0    0  501    0  0.00000000000E+00  0.00000000000E+00  0.16074848334E+04  0.16074848334E+04  0.50400001928E-02 0.  1.
       -1   -1    0    0    0  501  0.00000000000E+00  0.00000000000E+00 -0.11080847935E+04  0.11080847935E+04  0.50400001928E-02 0. -1.
    10030    2    1    2    0    0  0.00000000000E+00  0.00000000000E+00  0.49940003994E+03  0.27155696270E+04  0.26692542028E+04 0.  0.
        4    1    3    3  502    0 -0.71062107050E+03  0.28355045744E+03  0.13622214935E+04  0.15623802924E+04  0.12699999809E+01 0.  1.
       -4    1    3    3    0  502  0.71062107050E+03 -0.28355045744E+03 -0.86282145356E+03  0.11531893346E+04  0.12699999809E+01 0. -1.
</event>
<event>
 5   0  0.1286641E-05  0.2713642E+04  0.7818609E-02  0.8330592E-01
        2   -1    0    0  501    0  0.00000000000E+00  0.00000000000E+00  0.21659466833E+04  0.21659466833E+04  0.25500000920E-02 0.  1.
       -2   -1    0    0    0  501  0.00000000000E+00  0.00000000000E+00 -0.84995752339E+03  0.84995752340E+03  0.25500000920E-02 0. -1.
    10030    2    1    2    0    0  0.00000000000E+00  0.00000000000E+00  0.13159891599E+04  0.30159042067E+04  0.27136415967E+04 0.  0.
        4    1    3    3  502    0 -0.36290133071E+03 -0.13006345519E+04  0.51049618236E+03  0.14435912089E+04  0.12699999809E+01 0. -1.
       -4    1    3    3    0  502  0.36290133071E+03  0.13006345519E+04  0.80549297757E+03  0.15723129978E+04  0.12699999809E+01 0.  1.
</event>
<event>
 5   0  0.5152288E-06  0.2634514E+04  0.7818609E-02  0.8356571E-01
        1   -1    0    0  501    0  0.00000000000E+00  0.00000000000E+00  0.13868868412E+04  0.13868868412E+04  0.50400001928E-02 0. -1.
       -1   -1    0    0    0  501  0.00000000000E+00  0.00000000000E+00 -0.12511232608E+04  0.12511232608E+04  0.50400001928E-02 0.  1.
    10030    2    1    2    0    0  0.00000000000E+00  0.00000000000E+00  0.13576358037E+03  0.26380101020E+04  0.26345142908E+04 0.  0.
        3    1    3    3  502    0  0.21642028351E+03  0.92909833943E+03 -0.84167638616E+03  0.12721951944E+04  0.10100000352E+00 0.  1.
       -3    1    3    3    0  502 -0.21642028351E+03 -0.92909833943E+03  0.97743996653E+03  0.13658149076E+04  0.10100000352E+00 0. -1.
</event>
<event>
 5   0  0.4826140E-06  0.2589829E+04  0.7818609E-02  0.8371664E-01
        1   -1    0    0  501    0  0.00000000000E+00  0.00000000000E+00  0.16642652220E+04  0.16642652221E+04  0.50400001928E-02 0. -1.
       -1   -1    0    0    0  501  0.00000000000E+00  0.00000000000E+00 -0.10075335336E+04  0.10075335336E+04  0.50400001928E-02 0.  1.
    10030    2    1    2    0    0  0.00000000000E+00  0.00000000000E+00  0.65673168847E+03  0.26717987556E+04  0.25898285812E+04 0.  0.
        1    1    3    3  502    0 -0.22222780343E+03 -0.73704421850E+03  0.14025633740E+04  0.15999385597E+04  0.50400001928E-02 0. -1.
       -1    1    3    3    0  502  0.22222780343E+03  0.73704421850E+03 -0.74583168550E+03  0.10718601960E+04  0.50400001928E-02 0.  1.
</event>
<event>
 5   0  0.4826140E-06  0.2699193E+04  0.7818609E-02  0.8335267E-01
        1   -1    0    0  501    0  0.00000000000E+00  0.00000000000E+00  0.23792660397E+04  0.23792660397E+04  0.50400001928E-02 0.  1.
       -1   -1    0    0    0  501  0.00000000000E+00  0.00000000000E+00 -0.76553497009E+03  0.76553497011E+03  0.50400001928E-02 0. -1.
    10030    2    1    2    0    0  0.00000000000E+00  0.00000000000E+00  0.16137310696E+04  0.31448010098E+04  0.26991934770E+04 0.  0.
        1    1    3    3  502    0 -0.11524199536E+04 -0.35759698346E+03  0.10252698484E+03  0.12109744566E+04  0.50400001928E-02 0. -1.
       -1    1    3    3    0  502  0.11524199536E+04  0.35759698346E+03  0.15112040848E+04  0.19338265532E+04  0.50400001928E-02 0.  1.
</event>
<event>
 5   0  0.1286641E-05  0.2692576E+04  0.7818609E-02  0.8337418E-01
       -2   -1    0    0    0  501  0.00000000000E+00  0.00000000000E+00  0.11511943541E+04  0.11511943541E+04  0.25500000920E-02 0.  1.
        2   -1    0    0  501    0  0.00000000000E+00  0.00000000000E+00 -0.15744445700E+04  0.15744445700E+04  0.25500000920E-02 0. -1.
    10030    2    1    2    0    0  0.00000000000E+00  0.00000000000E+00 -0.42325021591E+03  0.27256389241E+04  0.26925762383E+04 0.  0.
        4    1    3    3  502    0 -0.97158812484E+03 -0.74450718586E+03  0.35580741170E+03  0.12747058332E+04  0.12699999809E+01 0. -1.
       -4    1    3    3    0  502  0.97158812484E+03  0.74450718586E+03 -0.77905762761E+03  0.14509330909E+04  0.12699999809E+01 0.  1.
</event>
<event>
 5   0  0.1232559E-05  0.2719944E+04  0.7818609E-02  0.8328563E-01
       -2   -1    0    0    0  501  0.00000000000E+00  0.00000000000E+00  0.11349436053E+04  0.11349436053E+04  0.25500000920E-02 0.  1.
        2   -1    0    0  501    0  0.00000000000E+00  0.00000000000E+00 -0.16296177316E+04  0.16296177316E+04  0.25500000920E-02 0. -1.
    10030    2    1    2    0    0  0.00000000000E+00  0.00000000000E+00 -0.49467412629E+03  0.27645613369E+04  0.27199442815E+04 0.  0.
        3    1    3    3  502    0 -0.12983190754E+04 -0.33886080727E+03 -0.22197008800E+02  0.13419954492E+04  0.10100000352E+00 0. -1.
       -3    1    3    3    0  502  0.12983190754E+04  0.33886080727E+03 -0.47247711749E+03  0.14225658877E+04  0.10100000352E+00 0.  1.
</event>
<event>
 5   0  0.1261364E-05  0.2705985E+04  0.7818609E-02  0.8333066E-01
       -2   -1    0    0    0  501  0.00000000000E+00  0.00000000000E+00  0.12123447860E+04  0.12123447860E+04  0.25500000920E-02 0.  1.
        2   -1    0    0  501    0  0.00000000000E+00  0.00000000000E+00 -0.15099568279E+04  0.15099568279E+04  0.25500000920E-02 0. -1.
    10030    2    1    2    0    0  0.00000000000E+00  0.00000000000E+00 -0.29761204189E+03  0.27223016140E+04  0.27059846914E+04 0.  0.
        5    1    3    3  502    0 -0.13413950544E+04 -0.15155318798E+03 -0.57389299667E+02  0.13511567942E+04  0.46999998093E+01 0.  1.
       -5    1    3    3    0  502  0.13413950544E+04  0.15155318798E+03 -0.24022274222E+03  0.13711448198E+04  0.46999998093E+01 0. -1.
</event>
<event>
 5   0  0.1232559E-05  0.2682666E+04  0.7818609E-02  0.8340651E-01
        2   -1    0    0  501    0  0.00000000000E+00  0.00000000000E+00  0.15477797995E+04  0.15477797995E+04  0.25500000920E-02 0.  1.
       -2   -1    0    0    0  501  0.00000000000E+00  0.00000000000E+00 -0.11624222348E+04  0.11624222348E+04  0.25500000920E-02 0. -1.
    10030    2    1    2    0    0  0.00000000000E+00  0.00000000000E+00  0.38535756469E+03  0.27102020342E+04  0.26826655799E+04 0.  0.
        3    1    3    3  502    0 -0.53360449608E+02 -0.12426381097E+03 -0.11555172502E+04  0.11634040391E+04  0.10100000352E+00 0. -1.
       -3    1    3    3    0  502  0.53360449608E+02  0.12426381097E+03  0.15408748149E+04  0.15467979952E+04  0.10100000352E+00 0.  1.
</event>
<event>
 5   0  0.4824715E-06  0.2710993E+04  0.7818609E-02  0.8331447E-01
       -1   -1    0    0    0  501  0.00000000000E+00  0.00000000000E+00  0.12490941040E+04  0.12490941040E+04  0.50400001928E-02 0. -1.
        1   -1    0    0  501    0  0.00000000000E+00  0.00000000000E+00 -0.14709629730E+04  0.14709629730E+04  0.50400001928E-02 0.  1.
    10030    2    1    2    0    0  0.00000000000E+00  0.00000000000E+00 -0.22186886906E+03  0.27200570770E+04  0.27109933064E+04 0.  0.
        5    1    3    3  502    0  0.17797316550E+03  0.10317428375E+04  0.75286281185E+03  0.12895705618E+04  0.46999998093E+01 0. -1.
       -5    1    3    3    0  502 -0.17797316550E+03 -0.10317428375E+04 -0.97473168091E+03  0.14304865152E+04  0.46999998093E+01 0.  1.
</event>
<event>
 5   0  0.1261364E-05  0.2697188E+04  0.7818609E-02  0.8335918E-01
       -2   -1    0    0    0  501  0.00000000000E+00  0.00000000000E+00  0.10102905290E+04  0.10102905290E+04  0.25500000920E-02 0.  1.
        2   -1    0    0  501    0  0.00000000000E+00  0.00000000000E+00 -0.18001803610E+04  0.18001803610E+04  0.25500000920E-02 0. -1.
    10030    2    1    2    0    0  0.00000000000E+00  0.00000000000E+00 -0.78988983197E+03  0.28104708900E+04  0.26971875494E+04 0.  0.
        5    1    3    3  502    0 -0.12882534128E+04 -0.31115847215E+03 -0.65495825100E+03  0.14783128393E+04  0.46999998093E+01 0. -1.
       -5    1    3    3    0  502  0.12882534128E+04  0.31115847215E+03 -0.13493158097E+03  0.13321580507E+04  0.46999998093E+01 0.  1.
</event>
<event>
 5   0  0.1220908E-05  0.2724395E+04  0.7818609E-02  0.8327133E-01
        2   -1    0    0  501    0  0.00000000000E+00  0.00000000000E+00  0.15859247689E+04  0.15859247689E+04  0.25500000920E-02 0. -1.
       -2   -1    0    0    0  501  0.00000000000E+00  0.00000000000E+00 -0.11700318560E+04  0.11700318560E+04  0.25500000920E-02 0.  1.
    10030    2    1    2    0    0  0.00000000000E+00  0.00000000000E+00  0.41589291290E+03  0.27559566249E+04  0.27243953464E+04 0.  0.
        2    1    3    3  502    0 -0.11086386097E+04  0.27772513248E+03 -0.54183618924E+03  0.12648309263E+04  0.25500000920E-02 0.  1.
       -2    1    3    3    0  502  0.11086386097E+04 -0.27772513248E+03  0.95772910214E+03  0.14911256986E+04  0.25500000920E-02 0. -1.
</event>
<event>
 5   0  0.1261364E-05  0.2696998E+04  0.7818609E-02  0.8335980E-01
       -2   -1    0    0    0  501  0.00000000000E+00  0.00000000000E+00  0.89876398556E+03  0.89876398556E+03  0.25500000920E-02 0.  1.
        2   -1    0    0  501    0  0.00000000000E+00  0.00000000000E+00 -0.20232782925E+04  0.20232782925E+04  0.25500000920E-02 0. -1.
    10030    2    1    2    0    0  0.00000000000E+00  0.00000000000E+00 -0.11245143069E+04  0.29220422780E+04  0.26969980809E+04 0.  0.
        5    1    3    3  502    0 -0.57453003189E+03 -0.57114924503E+03  0.60571763198E+03  0.10115394987E+04  0.46999998093E+01 0.  1.
       -5    1    3    3    0  502  0.57453003189E+03  0.57114924503E+03 -0.17302319389E+04  0.19105027794E+04  0.46999998093E+01 0. -1.
</event>
<event>
 5   0  0.4826140E-06  0.2694439E+04  0.7818609E-02  0.8336812E-01
        1   -1    0    0  501    0  0.00000000000E+00  0.00000000000E+00  0.13416246153E+04  0.13416246153E+04  0.50400001928E-02 0. -1.
       -1   -1    0    0    0  501  0.00000000000E+00  0.00000000000E+00 -0.13528375942E+04  0.13528375942E+04  0.50400001928E-02 0.  1.
    10030    2    1    2    0    0  0.00000000000E+00  0.00000000000E+00 -0.11212978889E+02  0.26944622095E+04  0.26944388780E+04 0.  0.
        1    1    3    3  502    0 -0.57993505886E+03  0.11119100526E+04 -0.49788260706E+03  0.13492797071E+04  0.50400001928E-02 0.  1.
       -1    1    3    3    0  502  0.57993505886E+03 -0.11119100526E+04  0.48666962817E+03  0.13451825024E+04  0.50400001928E-02 0. -1.
</event>
<event>
 5   0  0.1220908E-05  0.2729908E+04  0.7818609E-02  0.8325366E-01
        2   -1    0    0  501    0  0.00000000000E+00  0.00000000000E+00  0.18570995565E+04  0.18570995565E+04  0.25500000920E-02 0.  1.
       -2   -1    0    0    0  501  0.00000000000E+00  0.00000000000E+00 -0.10032308225E+04  0.10032308225E+04  0.25500000920E-02 0. -1.
    10030    2    1    2    0    0  0.00000000000E+00  0.00000000000E+00  0.85386873400E+03  0.28603303789E+04  0.27299080683E+04 0.  0.
        2    1    3    3  502    0 -0.12029153475E+03  0.13542522449E+04  0.30019980254E+03  0.13923322584E+04  0.25500000920E-02 0. -1.
       -2    1    3    3    0  502  0.12029153475E+03 -0.13542522449E+04  0.55366893146E+03  0.14679981205E+04  0.25500000920E-02 0.  1.
</event>
<event>
 5   0  0.4824715E-06  0.2694465E+04  0.7818609E-02  0.8336803E-01
       -1   -1    0    0    0  501  0.00000000000E+00  0.00000000000E+00  0.13887338907E+04  0.13887338907E+04  0.50400001928E-02 0.  1.
        1   -1    0    0  501    0  0.00000000000E+00  0.00000000000E+00 -0.13069714279E+04  0.13069714279E+04  0.50400001928E-02 0. -1.
    10030    2    1    2    0    0  0.00000000000E+00  0.00000000000E+00  0.81762462807E+02  0.26957053186E+04  0.26944650795E+04 0.  0.
        5    1    3    3  502    0 -0.11511068433E+04 -0.67603885483E+03  0.22245286291E+03  0.13533598428E+04  0.46999998093E+01 0.  1.
       -5    1    3    3    0  502  0.11511068433E+04  0.67603885483E+03 -0.14069040010E+03  0.13423454758E+04  0.46999998093E+01 0. -1.
</event>
<event>
 5   0  0.5152288E-06  0.2709937E+04  0.7818609E-02  0.8331788E-01
       -1   -1    0    0    0  501  0.00000000000E+00  0.00000000000E+00  0.13479691350E+04  0.13479691350E+04  0.50400001928E-02 0. -1.
        1   -1    0    0  501    0  0.00000000000E+00  0.00000000000E+00 -0.13620043238E+04  0.13620043239E+04  0.50400001928E-02 0.  1.
    10030    2    1    2    0    0  0.00000000000E+00  0.00000000000E+00 -0.14035188857E+02  0.27099734588E+04  0.27099371139E+04 0.  0.
        3    1    3    3  502    0  0.67737350776E+03  0.59327327074E+03  0.10054838797E+04  0.13497428960E+04  0.10100000352E+00 0.  1.
       -3    1    3    3    0  502 -0.67737350776E+03 -0.59327327074E+03 -0.10195190685E+04  0.13602305628E+04  0.10100000352E+00 0. -1.
</event>
<event>
 5   0  0.1286641E-05  0.2708700E+04  0.7818609E-02  0.8332188E-01
       -2   -1    0    0    0  501  0.00000000000E+00  0.00000000000E+00  0.10024545956E+04  0.10024545956E+04  0.25500000920E-02 0. -1.
        2   -1    0    0  501    0  0.00000000000E+00  0.00000000000E+00 -0.18297720934E+04  0.18297720934E+04  0.25500000920E-02 0.  1.
    10030    2    1    2    0    0  0.00000000000E+00  0.00000000000E+00 -0.82731749776E+03  0.28322266890E+04  0.27086996466E+04 0.  0.
        4    1    3    3  502    0 -0.48873804058E+03 -0.84184041717E+03 -0.13982498886E+04  0.17037207882E+04  0.12699999809E+01 0.  1.
       -4    1    3    3    0  502  0.48873804058E+03  0.84184041717E+03  0.57093239084E+03  0.11285059008E+04  0.12699999809E+01 0. -1.
</event>
<event>
 5   0  0.4824715E-06  0.2721214E+04  0.7818609E-02  0.8328154E-01
        1   -1    0    0  501    0  0.00000000000E+00  0.00000000000E+00  0.15597040022E+04  0.15597040022E+04  0.50400001928E-02 0. -1.
       -1   -1    0    0    0  501  0.00000000000E+00  0.00000000000E+00 -0.11869247097E+04  0.11869247097E+04  0.50400001928E-02 0.  1.
    10030    2    1    2    0    0  0.00000000000E+00  0.00000000000E+00  0.37277929243E+03  0.27466287119E+04  0.27212138615E+04 0.  0.
        5    1    3    3  502    0  0.33337048326E+03  0.10178801447E+04  0.10332810044E+04  0.14882565612E+04  0.46999998093E+01 0. -1.
       -5    1    3    3    0  502 -0.33337048326E+03 -0.10178801447E+04 -0.66050171193E+03  0.12583721507E+04  0.46999998093E+01 0.  1.
</event>
<event>
 5   0  0.4826140E-06  0.2715413E+04  0.7818609E-02  0.8330021E-01
        1   -1    0    0  501    0  0.00000000000E+00  0.00000000000E+00  0.11370125727E+04  0.11370125727E+04  0.50400001928E-02 0.  1.
       -1   -1    0    0    0  501  0.00000000000E+00  0.00000000000E+00 -0.16212375946E+04  0.16212375946E+04  0.50400001928E-02 0. -1.
    10030    2    1    2    0    0  0.00000000000E+00  0.00000000000E+00 -0.48422502185E+03  0.27582501673E+04  0.27154134333E+04 0.  0.
        1    1    3    3  502    0 -0.41809248508E+03  0.34143588347E+03  0.10233282930E+04  0.11569704335E+04  0.50400001928E-02 0.  1.
       -1    1    3    3    0  502  0.41809248508E+03 -0.34143588347E+03 -0.15075533149E+04  0.16012797338E+04  0.50400001928E-02 0. -1.
</event>
<event>
 5   0  0.4824715E-06  0.2696547E+04  0.7818609E-02  0.8336126E-01
       -1   -1    0    0    0  501  0.00000000000E+00  0.00000000000E+00  0.23368918574E+04  0.23368918574E+04  0.50400001928E-02 0.  1.
        1   -1    0    0  501    0  0.00000000000E+00  0.00000000000E+00 -0.77788867390E+03  0.77788867392E+03  0.50400001928E-02 0. -1.
    10030    2    1    2    0    0  0.00000000000E+00  0.00000000000E+00  0.15590031835E+04  0.31147805313E+04  0.26965472056E+04 0.  0.
        5    1    3    3  502    0  0.19508657180E+03 -0.31140099372E+03  0.22779245552E+04  0.23073776714E+04  0.46999998093E+01 0.  1.
       -5    1    3    3    0  502 -0.19508657180E+03  0.31140099372E+03 -0.71892137173E+03  0.80740285987E+03  0.46999998093E+01 0. -1.
</event>
<event>
 5   0  0.1261364E-05  0.2659157E+04  0.7818609E-02  0.8348380E-01
        2   -1    0    0  501    0  0.00000000000E+00  0.00000000000E+00  0.13742219896E+04  0.13742219896E+04  0.25500000920E-02 0.  1.
       -2   -1    0    0    0  501  0.00000000000E+00  0.00000000000E+00 -0.12863853636E+04  0.12863853636E+04  0.25500000920E-02 0. -1.
    10030    2    1    2    0    0  0.00000000000E+00  0.00000000000E+00  0.87836625984E+02  0.26606073532E+04  0.26591570497E+04 0.  0.
        5    1    3    3  502    0  0.52408912495E+03  0.36094953777E+03  0.12119465379E+04  0.13688646684E+04  0.46999998093E+01 0.  1.
       -5    1    3    3    0  502 -0.52408912495E+03 -0.36094953777E+03 -0.11241099119E+04  0.12917426848E+04  0.46999998093E+01 0. -1.
</event>
<event>
 5   0  0.4756800E-06  0.2737949E+04  0.7818609E-02  0.8322796E-01
       -1   -1    0    0    0  501  0.00000000000E+00  0.00000000000E+00  0.15495637643E+04  0.15495637643E+04  0.50400001928E-02 0. -1.
        1   -1    0    0  501    0  0.00000000000E+00  0.00000000000E+00 -0.12094315788E+04  0.12094315788E+04  0.50400001928E-02 0.  1.
    10030    2    1    2    0    0  0.00000000000E+00  0.00000000000E+00  0.34013218554E+03  0.27589953431E+04  0.27379491229E+04 0.  0.
        4    1    3    3  502    0 -0.19191706978E+03  0.11777491533E+04 -0.50603434786E+03  0.12961472153E+04  0.12699999809E+01 0.  1.
       -4    1    3    3    0  502  0.19191706978E+03 -0.11777491533E+04  0.84616653340E+03  0.14628481278E+04  0.12699999809E+01 0. -1.
</event>
<event>
 5   0  0.4188000E-06  0.2664601E+04  0.7818609E-02  0.8346583E-01
       -3   -1    0    0    0  501  0.00000000000E+00  0.00000000000E+00  0.14136589401E+04  0.14136589437E+04  0.10100000352E+00 0.  1.
        3   -1    0    0  501    0  0.00000000000E+00  0.00000000000E+00 -0.12556243514E+04  0.12556243555E+04  0.10100000352E+00 0. -1.
    10030    2    1    2    0    0  0.00000000000E+00  0.00000000000E+00  0.15803458867E+03  0.26692832992E+04  0.26646009833E+04 0.  0.
        2    1    3    3  502    0  0.54912592077E+02  0.45345597198E+03 -0.11747357629E+04  0.12604133544E+04  0.25500000920E-02 0. -1.
       -2    1    3    3    0  502 -0.54912592077E+02 -0.45345597198E+03  0.13327703516E+04  0.14088699448E+04  0.25500000920E-02 0.  1.
</event>
<event>
 5   0  0.1261364E-05  0.2652047E+04  0.7818609E-02  0.8350734E-01
       -2   -1    0    0    0  501  0.00000000000E+00  0.00000000000E+00  0.10602333522E+04  0.10602333522E+04  0.25500000920E-02 0.  1.
        2   -1    0    0  501    0  0.00000000000E+00  0.00000000000E+00 -0.16584449632E+04  0.16584449632E+04  0.25500000920E-02 0. -1.
    10030    2    1    2    0    0  0.00000000000E+00  0.00000000000E+00 -0.59821161102E+03  0.27186783154E+04  0.26520472565E+04 0.  0.
        5    1    3    3  502    0 -0.13766380634E+03  0.11274015886E+04 -0.10006466716E+04  0.15137045673E+04  0.46999998093E+01 0. -1.
       -5    1    3    3    0  502  0.13766380634E+03 -0.11274015886E+04  0.40243506054E+03  0.12049737481E+04  0.46999998093E+01 0.  1.
</event>
<event>
 5   0  0.4824715E-06  0.2694412E+04  0.7818609E-02  0.8336820E-01
        1   -1    0    0  501    0  0.00000000000E+00  0.00000000000E+00  0.14049961110E+04  0.14049961111E+04  0.50400001928E-02 0. -1.
       -1   -1    0    0    0  501  0.00000000000E+00  0.00000000000E+00 -0.12917928283E+04  0.12917928283E+04  0.50400001928E-02 0.  1.
    10030    2    1    2    0    0  0.00000000000E+00  0.00000000000E+00  0.11320328271E+03  0.26967889394E+04  0.26944119211E+04 0.  0.
        5    1    3    3  502    0 -0.65998017051E+03 -0.11073234563E+04  0.44835817142E+03  0.13648392588E+04  0.46999998093E+01 0. -1.
       -5    1    3    3    0  502  0.65998017051E+03  0.11073234563E+04 -0.33515488871E+03  0.13319496806E+04  0.46999998093E+01 0.  1.
</event>
<event>
 5   0  0.1286641E-05  0.2713695E+04  0.7818609E-02  0.8330575E-01
        2   -1    0    0  501    0  0.00000000000E+00  0.00000000000E+00  0.12557967210E+04  0.12557967210E+04  0.25500000920E-02 0.  1.
       -2   -1    0    0    0  501  0.00000000000E+00  0.00000000000E+00 -0.14660293843E+04  0.14660293843E+04  0.25500000920E-02 0. -1.
    10030    2    1    2    0    0  0.00000000000E+00  0.00000000000E+00 -0.21023266326E+03  0.27218261054E+04  0.27136948198E+04 0.  0.
        4    1    3    3  502    0 -0.61084005407E+03  0.41821722415E+02  0.11093622314E+04  0.12671072573E+04  0.12699999809E+01 0.  1.
       -4    1    3    3    0  502  0.61084005407E+03 -0.41821722415E+02 -0.13195948946E+04  0.14547188481E+04  0.12699999809E+01 0. -1.
</event>
<event>
 5   0  0.4756800E-06  0.2759907E+04  0.7818609E-02  0.8315825E-01
       -1   -1    0    0    0  501  0.00000000000E+00  0.00000000000E+00  0.10965106483E+04  0.10965106483E+04  0.50400001928E-02 0.  1.
        1   -1    0    0  501    0  0.00000000000E+00  0.00000000000E+00 -0.17366647073E+04  0.17366647073E+04  0.50400001928E-02 0. -1.
    10030    2    1    2    0    0  0.00000000000E+00  0.00000000000E+00 -0.64015405897E+03  0.28331753556E+04  0.27599067695E+04 0.  0.
        4    1    3    3  502    0  0.39892776010E+02 -0.31704894982E+03  0.10580063890E+04  0.11052106597E+04  0.12699999809E+01 0.  1.
       -4    1    3    3    0  502 -0.39892776010E+02  0.31704894982E+03 -0.16981604480E+04  0.17279646959E+04  0.12699999809E+01 0. -1.
</event>
<event>
 5   0  0.4846214E-06  0.2660849E+04  0.7818609E-02  0.8347821E-01
       -1   -1    0    0    0  501  0.00000000000E+00  0.00000000000E+00  0.12564454972E+04  0.12564454972E+04  0.50400001928E-02 0. -1.
        1   -1    0    0  501    0  0.00000000000E+00  0.00000000000E+00 -0.14087588610E+04  0.14087588610E+04  0.50400001928E-02 0.  1.
    10030    2    1    2    0    0  0.00000000000E+00  0.00000000000E+00 -0.15231336380E+03  0.26652043582E+04  0.26608485320E+04 0.  0.
        2    1    3    3  502    0  0.12360367179E+04 -0.15809627009E+03 -0.54301788446E+03  0.13592827599E+04  0.25500000920E-02 0.  1.
       -2    1    3    3    0  502 -0.12360367179E+04  0.15809627009E+03  0.39070452067E+03  0.13059215983E+04  0.25500000920E-02 0. -1.
</event>
<event>
 5   0  0.5152288E-06  0.2820844E+04  0.7818609E-02  0.8296826E-01
        1   -1    0    0  501    0  0.00000000000E+00  0.00000000000E+00  0.26871715015E+04  0.26871715015E+04  0.50400001928E-02 0. -1.
       -1   -1    0    0    0  501  0.00000000000E+00  0.00000000000E+00 -0.74029165909E+03  0.74029165911E+03  0.50400001928E-02 0.  1.
    10030    2    1    2    0    0  0.00000000000E+00  0.00000000000E+00  0.19468798424E+04  0.34274631606E+04  0.28208443056E+04 0.  0.
        3    1    3    3  502    0 -0.10448753233E+04  0.20021377467E+03 -0.15167196231E+03  0.10746415175E+04  0.10100000352E+00 0.  1.
       -3    1    3    3    0  502  0.10448753233E+04 -0.20021377467E+03  0.20985518047E+04  0.23528216431E+04  0.10100000352E+00 0. -1.
</event>
<event>
 5   0  0.1232559E-05  0.2694988E+04  0.7818609E-02  0.8336633E-01
        2   -1    0    0  501    0  0.00000000000E+00  0.00000000000E+00  0.24976738462E+04  0.24976738462E+04  0.25500000920E-02 0. -1.
       -2   -1    0    0    0  501  0.00000000000E+00  0.00000000000E+00 -0.72697231279E+03  0.72697231279E+03  0.25500000920E-02 0.  1.
    10030    2    1    2    0    0  0.00000000000E+00  0.00000000000E+00  0.17707015334E+04  0.32246461590E+04  0.26949877421E+04 0.  0.
        3    1    3    3  502    0  0.75456827216E+03 -0.93689616102E+03  0.15891328961E+03  0.12134253738E+04  0.10100000352E+00 0. -1.
       -3    1    3    3    0  502 -0.75456827216E+03  0.93689616102E+03  0.16117882438E+04  0.20112207852E+04  0.10100000352E+00 0.  1.
</event>
<event>
 5   0  0.4846214E-06  0.2700929E+04  0.7818609E-02  0.8334704E-01
        1   -1    0    0  501    0  0.00000000000E+00  0.00000000000E+00  0.20500448015E+04  0.20500448015E+04  0.50400001928E-02 0.  1.
       -1   -1    0    0    0  501  0.00000000000E+00  0.00000000000E+00 -0.88961678619E+03  0.88961678620E+03  0.50400001928E-02 0. -1.
    10030    2    1    2    0    0  0.00000000000E+00  0.00000000000E+00  0.11604280153E+04  0.29396615877E+04  0.27009289275E+04 0.  0.
        2    1    3    3  502    0  0.78271634865E+03 -0.13975543851E+03 -0.60786516725E+03  0.10008379122E+04  0.25500000920E-02 0. -1.
       -2    1    3    3    0  502 -0.78271634865E+03  0.13975543851E+03  0.17682931826E+04  0.19388236755E+04  0.25500000920E-02 0.  1.
</event>
<event>
 5   0  0.4846214E-06  0.2650740E+04  0.7818609E-02  0.8351167E-01
       -1   -1    0    0    0  501  0.00000000000E+00  0.00000000000E+00  0.12793417772E+04  0.12793417772E+04  0.50400001928E-02 0. -1.
        1   -1    0    0  501    0  0.00000000000E+00  0.00000000000E+00 -0.13730541069E+04  0.13730541069E+04  0.50400001928E-02 0.  1.
    10030    2    1    2    0    0  0.00000000000E+00  0.00000000000E+00 -0.93712329734E+02  0.26523958841E+04  0.26507398826E+04 0.  0.
        2    1    3    3  502    0 -0.34535992948E+02 -0.78609018997E+03 -0.11140471680E+04  0.13639030809E+04  0.25500000920E-02 0.  1.
       -2    1    3    3    0  502  0.34535992948E+02  0.78609018997E+03  0.10203348383E+04  0.12884928032E+04  0.25500000920E-02 0. -1.
</event>
<event>
 5   0  0.1261364E-05  0.2718861E+04  0.7818609E-02  0.8328911E-01
        2   -1    0    0  501    0  0.00000000000E+00  0.00000000000E+00  0.96857181027E+03  0.96857181027E+03  0.25500000920E-02 0. -1.
       -2   -1    0    0    0  501  0.00000000000E+00  0.00000000000E+00 -0.19080171331E+04  0.19080171331E+04  0.25500000920E-02 0.  1.
    10030    2    1    2    0    0  0.00000000000E+00  0.00000000000E+00 -0.93944532278E+03  0.28765889433E+04  0.27188612385E+04 0.  0.
        5    1    3    3  502    0 -0.59736767974E+03 -0.23369268400E+03 -0.17378241853E+04  0.18524349933E+04  0.46999998093E+01 0.  1.
       -5    1    3    3    0  502  0.59736767974E+03  0.23369268400E+03  0.79837886249E+03  0.10241539501E+04  0.46999998093E+01 0. -1.
</event>
<event>
 5   0  0.1286641E-05  0.2696704E+04  0.7818609E-02  0.8336075E-01
        2   -1    0    0  501    0  0.00000000000E+00  0.00000000000E+00  0.18703876778E+04  0.18703876778E+04  0.25500000920E-02 0.  1.
       -2   -1    0    0    0  501  0.00000000000E+00  0.00000000000E+00 -0.97201934316E+03  0.97201934317E+03  0.25500000920E-02 0. -1.
    10030    2    1    2    0    0  0.00000000000E+00  0.00000000000E+00  0.89836833462E+03  0.28424070210E+04  0.26967039155E+04 0.  0.
        4    1    3    3  502    0  0.96166967104E+03 -0.90915555694E+03  0.72135874686E+03  0.15072267373E+04  0.12699999809E+01 0.  1.
       -4    1    3    3    0  502 -0.96166967104E+03  0.90915555694E+03  0.17700958776E+03  0.13351802837E+04  0.12699999809E+01 0. -1.
</event>
<event>
 5   0  0.4846214E-06  0.2732540E+04  0.7818609E-02  0.8324524E-01
       -1   -1    0    0    0  501  0.00000000000E+00  0.00000000000E+00  0.93555969543E+03  0.93555969544E+03  0.50400001928E-02 0. -1.
        1   -1    0    0  501    0  0.00000000000E+00  0.00000000000E+00 -0.19952691370E+04  0.19952691370E+04  0.50400001928E-02 0.  1.
    10030    2    1    2    0    0  0.00000000000E+00  0.00000000000E+00 -0.10597094415E+04  0.29308288324E+04  0.27325397608E+04 0.  0.
        2    1    3    3  502    0  0.11876619385E+04 -0.16412659946E+03 -0.12325408701E+04  0.17194869634E+04  0.25500000920E-02 0.  1.
       -2    1    3    3    0  502 -0.11876619385E+04  0.16412659946E+03  0.17283142858E+03  0.12113418690E+04  0.25500000920E-02 0. -1.
</event>
<event>
 5   0  0.5152288E-06  0.2615505E+04  0.7818609E-02  0.8362953E-01
       -1   -1    0    0    0  501  0.00000000000E+00  0.00000000000E+00  0.18192744464E+04  0.18192744464E+04  0.50400001928E-02 0. -1.
        1   -1    0    0  501    0  0.00000000000E+00  0.00000000000E+00 -0.94005454052E+03  0.94005454054E+03  0.50400001928E-02 0.  1.
    10030    2    1    2    0    0  0.00000000000E+00  0.00000000000E+00  0.87921990586E+03  0.27593289869E+04  0.26155054608E+04 0.  0.
        3    1    3    3  502    0 -0.10280324630E+03 -0.42254300719E+03 -0.86154076345E+03  0.96507180959E+03  0.10100000352E+00 0.  1.
       -3    1    3    3    0  502  0.10280324630E+03  0.42254300719E+03  0.17407606693E+04  0.17942571773E+04  0.10100000352E+00 0. -1.
</event>
<event>
 5   0  0.5152288E-06  0.2596854E+04  0.7818609E-02  0.8369271E-01
       -1   -1    0    0    0  501  0.00000000000E+00  0.00000000000E+00  0.67972250889E+03  0.67972250891E+03  0.50400001928E-02 0.  1.
        1   -1    0    0  501    0  0.00000000000E+00  0.00000000000E+00 -0.24802947545E+04  0.24802947545E+04  0.50400001928E-02 0. -1.
    10030    2    1    2    0    0  0.00000000000E+00  0.00000000000E+00 -0.18005722456E+04  0.31600172634E+04  0.25968536142E+04 0.  0.
        3    1    3    3  502    0  0.53048417228E+03 -0.18908506658E+03 -0.23239364930E+04  0.23912020937E+04  0.10100000352E+00 0. -1.
       -3    1    3    3    0  502 -0.53048417228E+03  0.18908506658E+03  0.52336424740E+03  0.76881516966E+03  0.10100000352E+00 0.  1.
</event>
<event>
 5   0  0.1220908E-05  0.2711032E+04  0.7818609E-02  0.8331434E-01
       -2   -1    0    0    0  501  0.00000000000E+00  0.00000000000E+00  0.13879623976E+04  0.13879623976E+04  0.25500000920E-02 0. -1.
        2   -1    0    0  501    0  0.00000000000E+00  0.00000000000E+00 -0.13238276946E+04  0.13238276946E+04  0.25500000920E-02 0.  1.
    10030    2    1    2    0    0  0.00000000000E+00  0.00000000000E+00  0.64134703046E+02  0.27117900922E+04  0.27110315830E+04 0.  0.
        2    1    3    3  502    0  0.35306230823E+03  0.15682575818E+03 -0.12675943498E+04  0.13251576312E+04  0.25500000920E-02 0.  1.
       -2    1    3    3    0  502 -0.35306230823E+03 -0.15682575818E+03  0.13317290528E+04  0.13866324610E+04  0.25500000920E-02 0. -1.
</event>
<event>
 5   0  0.4826140E-06  0.2702920E+04  0.7818609E-02  0.8334058E-01
       -1   -1    0    0    0  501  0.00000000000E+00  0.00000000000E+00  0.82973852623E+03  0.82973852625E+03  0.50400001928E-02 0. -1.
        1   -1    0    0  501    0  0.00000000000E+00  0.00000000000E+00 -0.22012278459E+04  0.22012278459E+04  0.50400001928E-02 0.  1.
    10030    2    1    2    0    0  0.00000000000E+00  0.00000000000E+00 -0.13714893196E+04  0.30309663721E+04  0.27029195687E+04 0.  0.
        1    1    3    3  502    0 -0.67279685763E+03  0.81636917684E+02 -0.19968930501E+04  0.21087678989E+04  0.50400001928E-02 0.  1.
       -1    1    3    3    0  502  0.67279685763E+03 -0.81636917684E+02  0.62540373043E+03  0.92219847323E+03  0.50400001928E-02 0. -1.
</event>
<event>
 5   0  0.1261364E-05  0.2710230E+04  0.7818609E-02  0.8331693E-01
       -2   -1    0    0    0  501  0.00000000000E+00  0.00000000000E+00  0.79548205459E+03  0.79548205460E+03  0.25500000920E-02 0.  1.
        2   -1    0    0  501    0  0.00000000000E+00  0.00000000000E+00 -0.23084576408E+04  0.23084576408E+04  0.25500000920E-02 0. -1.
    10030    2    1    2    0    0  0.00000000000E+00  0.00000000000E+00 -0.15129755862E+04  0.31039396954E+04  0.27102299733E+04 0.  0.
        5    1    3    3  502    0  0.70545639598E+03 -0.11545214621E+04 -0.66982494664E+03  0.15097271549E+04  0.46999998093E+01 0.  1.
       -5    1    3    3    0  502 -0.70545639598E+03  0.11545214621E+04 -0.84315063954E+03  0.15942125404E+04  0.46999998093E+01 0. -1.
</event>
<event>
 5   0  0.5152288E-06  0.2669334E+04  0.7818609E-02  0.8345024E-01
       -1   -1    0    0    0  501  0.00000000000E+00  0.00000000000E+00  0.88630846200E+03  0.88630846201E+03  0.50400001928E-02 0. -1.
        1   -1    0    0  501    0  0.00000000000E+00  0.00000000000E+00 -0.20098374075E+04  0.20098374075E+04  0.50400001928E-02 0.  1.
    10030    2    1    2    0    0  0.00000000000E+00  0.00000000000E+00 -0.11235289455E+04  0.28961458695E+04  0.26693339255E+04 0.  0.
        3    1    3    3  502    0  0.64092086543E+03 -0.11672618502E+04 -0.46438213852E+03  0.14102944953E+04  0.10100000352E+00 0. -1.
       -3    1    3    3    0  502 -0.64092086543E+03  0.11672618502E+04 -0.65914680695E+03  0.14858513742E+04  0.10100000352E+00 0.  1.
</event>
<event>
 5   0  0.1220908E-05  0.2710337E+04  0.7818609E-02  0.8331659E-01
       -2   -1    0    0    0  501  0.00000000000E+00  0.00000000000E+00  0.10615359670E+04  0.10615359670E+04  0.25500000920E-02 0.  1.
        2   -1    0    0  501    0  0.00000000000E+00  0.00000000000E+00 -0.17300223998E+04  0.17300223998E+04  0.25500000920E-02 0. -1.
    10030    2    1    2    0    0  0.00000000000E+00  0.00000000000E+00 -0.66848643282E+03  0.27915583667E+04  0.27103365112E+04 0.  0.
        2    1    3    3  502    0 -0.12277799407E+04 -0.53355025071E+03 -0.55117682654E+03  0.14477276495E+04  0.25500000920E-02 0. -1.
       -2    1    3    3    0  502  0.12277799407E+04  0.53355025071E+03 -0.11730960627E+03  0.13438307173E+04  0.25500000920E-02 0.  1.
</event>
<event>
 5   0  0.1261364E-05  0.2545541E+04  0.7818609E-02  0.8386939E-01
       -2   -1    0    0    0  501  0.00000000000E+00  0.00000000000E+00  0.11772037379E+04  0.11772037379E+04  0.25500000920E-02 0.  1.
        2   -1    0    0  501    0  0.00000000000E+00  0.00000000000E+00 -0.13760956159E+04  0.13760956159E+04  0.25500000920E-02 0. -1.
    10030    2    1    2    0    0  0.00000000000E+00  0.00000000000E+00 -0.19889187803E+03  0.25532993538E+04  0.25455411234E+04 0.  0.
        5    1    3    3  502    0  0.20377077263E+02 -0.74244636275E+02  0.11748572019E+04  0.11773865237E+04  0.46999998093E+01 0.  1.
       -5    1    3    3    0  502 -0.20377077263E+02  0.74244636275E+02 -0.13737490800E+04  0.13759128301E+04  0.46999998093E+01 0. -1.
</event>
<event>
 5   0  0.4826140E-06  0.2689267E+04  0.7818609E-02  0.8338496E-01
        1   -1    0    0  501    0  0.00000000000E+00  0.00000000000E+00  0.19616987365E+04  0.19616987365E+04  0.50400001928E-02 0.  1.
       -1   -1    0    0    0  501  0.00000000000E+00  0.00000000000E+00 -0.92167010500E+03  0.92167010502E+03  0.50400001928E-02 0. -1.
    10030    2    1    2    0    0  0.00000000000E+00  0.00000000000E+00  0.10400286315E+04  0.28833688415E+04  0.26892668744E+04 0.  0.
        1    1    3    3  502    0  0.99196155745E+03  0.90607727978E+03  0.46055623360E+03  0.14202379423E+04  0.50400001928E-02 0. -1.
       -1    1    3    3    0  502 -0.99196155745E+03 -0.90607727978E+03  0.57947239791E+03  0.14631308993E+04  0.50400001928E-02 0.  1.
</event>
<event>
 5   0  0.4756800E-06  0.2967976E+04  0.7818609E-02  0.8252935E-01
       -1   -1    0    0    0  501  0.00000000000E+00  0.00000000000E+00  0.15614482508E+04  0.15614482508E+04  0.50400001928E-02 0. -1.
        1   -1    0    0  501    0  0.00000000000E+00  0.00000000000E+00 -0.14103700809E+04  0.14103700810E+04  0.50400001928E-02 0.  1.
    10030    2    1    2    0    0  0.00000000000E+00  0.00000000000E+00  0.15107816986E+03  0.29718183318E+04  0.29679756710E+04 0.  0.
        4    1    3    3  502    0  0.50604505463E+03 -0.74480344079E+03 -0.11055662350E+04  0.14258653778E+04  0.12699999809E+01 0.  1.
       -4    1    3    3    0  502 -0.50604505463E+03  0.74480344079E+03  0.12566444049E+04  0.15459529540E+04  0.12699999809E+01 0. -1.
</event>
<event>
 5   0  0.1232559E-05  0.2716759E+04  0.7818609E-02  0.8329588E-01
        2   -1    0    0  501    0  0.00000000000E+00  0.00000000000E+00  0.23391629395E+04  0.23391629395E+04  0.25500000920E-02 0. -1.
       -2   -1    0    0    0  501  0.00000000000E+00  0.00000000000E+00 -0.78882714598E+03  0.78882714599E+03  0.25500000920E-02 0.  1.
    10030    2    1    2    0    0  0.00000000000E+00  0.00000000000E+00  0.15503357935E+04  0.31279900855E+04  0.27167592647E+04 0.  0.
        3    1    3    3  502    0 -0.86161435855E+03  0.65566614934E+03  0.17196532415E+04  0.20321133540E+04  0.10100000352E+00 0. -1.
       -3    1    3    3    0  502  0.86161435855E+03 -0.65566614934E+03 -0.16931744798E+03  0.10958767315E+04  0.10100000352E+00 0.  1.
</event>
<event>
 5   0  0.4824715E-06  0.2670114E+04  0.7818609E-02  0.8344768E-01
        1   -1    0    0  501    0  0.00000000000E+00  0.00000000000E+00  0.20203749031E+04  0.20203749031E+04  0.50400001928E-02 0.  1.
       -1   -1    0    0    0  501  0.00000000000E+00  0.00000000000E+00 -0.88220097742E+03  0.88220097743E+03  0.50400001928E-02 0. -1.
    10030    2    1    2    0    0  0.00000000000E+00  0.00000000000E+00  0.11381739256E+04  0.29025758805E+04  0.26701136412E+04 0.  0.
        5    1    3    3  502    0 -0.11820021802E+04  0.58244301808E+03  0.33597488793E+03  0.13598787588E+04  0.46999998093E+01 0. -1.
       -5    1    3    3    0  502  0.11820021802E+04 -0.58244301808E+03  0.80219903771E+03  0.15426971217E+04  0.46999998093E+01 0.  1.
</event>
<event>
 5   0  0.1276517E-05  0.2685316E+04  0.7818609E-02  0.8339785E-01
       -2   -1    0    0    0  501  0.00000000000E+00  0.00000000000E+00  0.12386973271E+04  0.12386973271E+04  0.25500000920E-02 0. -1.
        2   -1    0    0  501    0  0.00000000000E+00  0.00000000000E+00 -0.14553443135E+04  0.14553443135E+04  0.25500000920E-02 0.  1.
    10030    2    1    2    0    0  0.00000000000E+00  0.00000000000E+00 -0.21664698637E+03  0.26940416406E+04  0.26853164515E+04 0.  0.
        1    1    3    3  502    0 -0.10362718181E+04  0.13270037251E+03 -0.95442753496E+03  0.14150620443E+04  0.50400001928E-02 0.  1.
       -1    1    3    3    0  502  0.10362718181E+04 -0.13270037251E+03  0.73778054859E+03  0.12789795963E+04  0.50400001928E-02 0. -1.
</event>
<event>
 5   0  0.4826140E-06  0.2680468E+04  0.7818609E-02  0.8341370E-01
       -1   -1    0    0    0  501  0.00000000000E+00  0.00000000000E+00  0.99283342929E+03  0.99283342931E+03  0.50400001928E-02 0.  1.
        1   -1    0    0  501    0  0.00000000000E+00  0.00000000000E+00 -0.18091928090E+04  0.18091928090E+04  0.50400001928E-02 0. -1.
    10030    2    1    2    0    0  0.00000000000E+00  0.00000000000E+00 -0.81635937973E+03  0.28020262383E+04  0.26804679449E+04 0.  0.
        1    1    3    3  502    0 -0.59002223690E+03 -0.44854261438E+03 -0.15754708606E+04  0.17410988340E+04  0.50400001928E-02 0. -1.
       -1    1    3    3    0  502  0.59002223690E+03  0.44854261438E+03  0.75911148088E+03  0.10609274044E+04  0.50400001928E-02 0.  1.
</event>
<event>
 5   0  0.1220908E-05  0.2689527E+04  0.7818609E-02  0.8338411E-01
        2   -1    0    0  501    0  0.00000000000E+00  0.00000000000E+00  0.12558187895E+04  0.12558187895E+04  0.25500000920E-02 0.  1.
       -2   -1    0    0    0  501  0.00000000000E+00  0.00000000000E+00 -0.14400081175E+04  0.14400081175E+04  0.25500000920E-02 0. -1.
    10030    2    1    2    0    0  0.00000000000E+00  0.00000000000E+00 -0.18418932806E+03  0.26958269070E+04  0.26895272826E+04 0.  0.
        2    1    3    3  502    0  0.56473708384E+03  0.10360095320E+04 -0.73869907781E+03  0.13920919696E+04  0.25500000920E-02 0. -1.
       -2    1    3    3    0  502 -0.56473708384E+03 -0.10360095320E+04  0.55450974975E+03  0.13037349374E+04  0.25500000920E-02 0.  1.
</event>
<event>
 5   0  0.5152288E-06  0.2701707E+04  0.7818609E-02  0.8334451E-01
        1   -1    0    0  501    0  0.00000000000E+00  0.00000000000E+00  0.23855377266E+04  0.23855377266E+04  0.50400001928E-02 0.  1.
       -1   -1    0    0    0  501  0.00000000000E+00  0.00000000000E+00 -0.76494523402E+03  0.76494523404E+03  0.50400001928E-02 0. -1.
    10030    2    1    2    0    0  0.00000000000E+00  0.00000000000E+00  0.16205924926E+04  0.31504829606E+04  0.27017073969E+04 0.  0.
        3    1    3    3  502    0 -0.79237190241E+03 -0.32928264815E+03 -0.40633259905E+03  0.94941375878E+03  0.10100000352E+00 0. -1.
       -3    1    3    3    0  502  0.79237190241E+03  0.32928264815E+03  0.20269250916E+04  0.22010692018E+04  0.10100000352E+00 0.  1.
</event>
<event>
 5   0  0.1286641E-05  0.2658898E+04  0.7818609E-02  0.8348466E-01
        2   -1    0    0  501    0  0.00000000000E+00  0.00000000000E+00  0.14738954395E+04  0.14738954395E+04  0.25500000920E-02 0. -1.
       -2   -1    0    0    0  501  0.00000000000E+00  0.00000000000E+00 -0.11991588684E+04  0.11991588684E+04  0.25500000920E-02 0.  1.
    10030    2    1    2    0    0  0.00000000000E+00  0.00000000000E+00  0.27473657106E+03  0.26730543079E+04  0.26588981082E+04 0.  0.
        4    1    3    3  502    0 -0.83806840867E+03  0.62897679174E+03  0.95993149995E+03  0.14210702163E+04  0.12699999809E+01 0. -1.
       -4    1    3    3    0  502  0.83806840867E+03 -0.62897679174E+03 -0.68519492890E+03  0.12519840916E+04  0.12699999809E+01 0.  1.
</event>
<event>
 5   0  0.1276517E-05  0.2718654E+04  0.7818609E-02  0.8328978E-01
        2   -1    0    0  501    0  0.00000000000E+00  0.00000000000E+00  0.21411957767E+04  0.21411957767E+04  0.25500000920E-02 0. -1.
       -2   -1    0    0    0  501  0.00000000000E+00  0.00000000000E+00 -0.86296172789E+03  0.86296172789E+03  0.25500000920E-02 0.  1.
    10030    2    1    2    0    0  0.00000000000E+00  0.00000000000E+00  0.12782340488E+04  0.30041575046E+04  0.27186540841E+04 0.  0.
        1    1    3    3  502    0 -0.13092340918E+04 -0.33585413222E+03  0.47945036013E+03  0.14341424452E+04  0.50400001928E-02 0. -1.
       -1    1    3    3    0  502  0.13092340918E+04  0.33585413222E+03  0.79878368871E+03  0.15700150594E+04  0.50400001928E-02 0.  1.
</event>
<event>
 5   0  0.5152288E-06  0.2661734E+04  0.7818609E-02  0.8347529E-01
        1   -1    0    0  501    0  0.00000000000E+00  0.00000000000E+00  0.13036175619E+04  0.13036175619E+04  0.50400001928E-02 0.  1.
       -1   -1    0    0    0  501  0.00000000000E+00  0.00000000000E+00 -0.13586863798E+04  0.13586863798E+04  0.50400001928E-02 0. -1.
    10030    2    1    2    0    0  0.00000000000E+00  0.00000000000E+00 -0.55068817854E+02  0.26623039417E+04  0.26617343412E+04 0.  0.
        3    1    3    3  502    0  0.68969939056E+03  0.10940861634E+04 -0.34144489624E+03  0.13376450985E+04  0.10100000352E+00 0. -1.
       -3    1    3    3    0  502 -0.68969939056E+03 -0.10940861634E+04  0.28637607839E+03  0.13246588431E+04  0.10100000352E+00 0.  1.
</event>
<event>
 5   0  0.4824715E-06  0.2679659E+04  0.7818609E-02  0.8341635E-01
       -1   -1    0    0    0  501  0.00000000000E+00  0.00000000000E+00  0.10019126857E+04  0.10019126857E+04  0.50400001928E-02 0. -1.
        1   -1    0    0  501    0  0.00000000000E+00  0.00000000000E+00 -0.17917161954E+04  0.17917161954E+04  0.50400001928E-02 0.  1.
    10030    2    1    2    0    0  0.00000000000E+00  0.00000000000E+00 -0.78980350975E+03  0.27936288811E+04  0.26796590718E+04 0.  0.
        5    1    3    3  502    0  0.79073845276E+03 -0.49372830094E+03 -0.13981649160E+04  0.16804529622E+04  0.46999998093E+01 0.  1.
       -5    1    3    3    0  502 -0.79073845276E+03  0.49372830094E+03  0.60836140623E+03  0.11131759189E+04  0.46999998093E+01 0. -1.
</event>
<event>
 5   0  0.5152288E-06  0.2700816E+04  0.7818609E-02  0.8334740E-01
        1   -1    0    0  501    0  0.00000000000E+00  0.00000000000E+00  0.16692475226E+04  0.16692475227E+04  0.50400001928E-02 0. -1.
       -1   -1    0    0    0  501  0.00000000000E+00  0.00000000000E+00 -0.10924695197E+04  0.10924695197E+04  0.50400001928E-02 0.  1.
    10030    2    1    2    0    0  0.00000000000E+00  0.00000000000E+00  0.57677800292E+03  0.27617170424E+04  0.27008162021E+04 0.  0.
        3    1    3    3  502    0  0.82095369869E+03 -0.91840875752E+03  0.85418527415E+03  0.14990237203E+04  0.10100000352E+00 0. -1.
       -3    1    3    3    0  502 -0.82095369869E+03  0.91840875752E+03 -0.27740727123E+03  0.12626933221E+04  0.10100000352E+00 0.  1.
</event>
<event>
 5   0  0.4824715E-06  0.2681644E+04  0.7818609E-02  0.8340986E-01
       -1   -1    0    0    0  501  0.00000000000E+00  0.00000000000E+00  0.84687531473E+03  0.84687531475E+03  0.50400001928E-02 0.  1.
        1   -1    0    0  501    0  0.00000000000E+00  0.00000000000E+00 -0.21228664612E+04  0.21228664613E+04  0.50400001928E-02 0. -1.
    10030    2    1    2    0    0  0.00000000000E+00  0.00000000000E+00 -0.12759911465E+04  0.29697417760E+04  0.26816436770E+04 0.  0.
        5    1    3    3  502    0  0.83806286875E+03  0.25485896448E+03 -0.17621788402E+04  0.19678919733E+04  0.46999998093E+01 0. -1.
       -5    1    3    3    0  502 -0.83806286875E+03 -0.25485896448E+03  0.48618769365E+03  0.10018498027E+04  0.46999998093E+01 0.  1.
</event>
<event>
 5   0  0.1220908E-05  0.2713506E+04  0.7818609E-02  0.8330636E-01
       -2   -1    0    0    0  501  0.00000000000E+00  0.00000000000E+00  0.12335325022E+04  0.12335325022E+04  0.25500000920E-02 0. -1.
        2   -1    0    0  501    0  0.00000000000E+00  0.00000000000E+00 -0.14922825655E+04  0.14922825655E+04  0.25500000920E-02 0.  1.
    10030    2    1    2    0    0  0.00000000000E+00  0.00000000000E+00 -0.25875006328E+03  0.27258150676E+04  0.27135062535E+04 0.  0.
        2    1    3    3  502    0 -0.85477794637E+03  0.11092120063E+03 -0.11819017936E+04  0.14628194352E+04  0.25500000920E-02 0.  1.
       -2    1    3    3    0  502  0.85477794637E+03 -0.11092120063E+03  0.92315173030E+03  0.12629956324E+04  0.25500000920E-02 0. -1.
</event>
<event>
 5   0  0.5152288E-06  0.2690619E+04  0.7818609E-02  0.8338055E-01
       -1   -1    0    0    0  501  0.00000000000E+00  0.00000000000E+00  0.96549192744E+03  0.96549192745E+03  0.50400001928E-02 0.  1.
        1   -1    0    0  501    0  0.00000000000E+00  0.00000000000E+00 -0.18745442116E+04  0.18745442116E+04  0.50400001928E-02 0. -1.
    10030    2    1    2    0    0  0.00000000000E+00  0.00000000000E+00 -0.90905228415E+03  0.28400361391E+04  0.26906187422E+04 0.  0.
        3    1    3    3  502    0  0.33745177010E+03 -0.78692752561E+03  0.64075306018E+03  0.10694358896E+04  0.10100000352E+00 0.  1.
       -3    1    3    3    0  502 -0.33745177010E+03  0.78692752561E+03 -0.15498053443E+04  0.17706002494E+04  0.10100000352E+00 0. -1.
</event>
<event>
 5   0  0.1276517E-05  0.2681970E+04  0.7818609E-02  0.8340879E-01
       -2   -1    0    0    0  501  0.00000000000E+00  0.00000000000E+00  0.71740145148E+03  0.71740145148E+03  0.25500000920E-02 0.  1.
        2   -1    0    0  501    0  0.00000000000E+00  0.00000000000E+00 -0.25066036304E+04  0.25066036304E+04  0.25500000920E-02 0. -1.
    10030    2    1    2    0    0  0.00000000000E+00  0.00000000000E+00 -0.17892021789E+04  0.32240050819E+04  0.26819702331E+04 0.  0.
        1    1    3    3  502    0  0.61538093862E+03  0.11329007712E+04 -0.13380504797E+04  0.18581003587E+04  0.50400001928E-02 0. -1.
       -1    1    3    3    0  502 -0.61538093862E+03 -0.11329007712E+04 -0.45115169926E+03  0.13659047232E+04  0.50400001928E-02 0.  1.
</event>
<event>
 5   0  0.1286641E-05  0.2758718E+04  0.7818609E-02  0.8316201E-01
       -2   -1    0    0    0  501  0.00000000000E+00  0.00000000000E+00  0.13057224185E+04  0.13057224185E+04  0.25500000920E-02 0. -1.
        2   -1    0    0  501    0  0.00000000000E+00  0.00000000000E+00 -0.14571484224E+04  0.14571484224E+04  0.25500000920E-02 0.  1.
    10030    2    1    2    0    0  0.00000000000E+00  0.00000000000E+00 -0.15142600392E+03  0.27628708409E+04  0.27587180807E+04 0.  0.
        4    1    3    3  502    0  0.21237393158E+03 -0.69488458405E+03  0.10985119394E+04  0.13170791039E+04  0.12699999809E+01 0. -1.
       -4    1    3    3    0  502 -0.21237393158E+03  0.69488458405E+03 -0.12499379433E+04  0.14457917371E+04  0.12699999809E+01 0.  1.
</event>
<event>
 5   0  0.4824715E-06  0.2225657E+04  0.7818609E-02  0.8507824E-01
        1   -1    0    0  501    0  0.00000000000E+00  0.00000000000E+00  0.40313134331E+03  0.40313134334E+03  0.50400001928E-02 0. -1.
       -1   -1    0    0    0  501  0.00000000000E+00  0.00000000000E+00 -0.30719200750E+04  0.30719200751E+04  0.50400001928E-02 0.  1.
    10030    2    1    2    0    0  0.00000000000E+00  0.00000000000E+00 -0.26687887317E+04  0.34750514184E+04  0.22256569964E+04 0.  0.
        5    1    3    3  502    0 -0.25429490329E+03  0.10521502143E+04 -0.17375736480E+04  0.20471615090E+04  0.46999998093E+01 0.  1.
       -5    1    3    3    0  502  0.25429490329E+03 -0.10521502143E+04 -0.93121508370E+03  0.14278899094E+04  0.46999998093E+01 0. -1.
</event>
<event>
 5   0  0.1232559E-05  0.2688587E+04  0.7818609E-02  0.8338718E-01
        2   -1    0    0  501    0  0.00000000000E+00  0.00000000000E+00  0.22734033305E+04  0.22734033305E+04  0.25500000920E-02 0.  1.
       -2   -1    0    0    0  501  0.00000000000E+00  0.00000000000E+00 -0.79489836893E+03  0.79489836894E+03  0.25500000920E-02 0. -1.
    10030    2    1    2    0    0  0.00000000000E+00  0.00000000000E+00  0.14785049616E+04  0.30683016995E+04  0.26885866915E+04 0.  0.
        3    1    3    3  502    0  0.10646689444E+04 -0.65972696512E+03  0.12964321003E+04  0.18026358009E+04  0.10100000352E+00 0. -1.
       -3    1    3    3    0  502 -0.10646689444E+04  0.65972696512E+03  0.18207286129E+03  0.12656658986E+04  0.10100000352E+00 0.  1.
</event>
<event>
 5   0  0.1232559E-05  0.2689841E+04  0.7818609E-02  0.8338309E-01
        2   -1    0    0  501    0  0.00000000000E+00  0.00000000000E+00  0.13654325994E+04  0.13654325994E+04  0.25500000920E-02 0.  1.
       -2   -1    0    0    0  501  0.00000000000E+00  0.00000000000E+00 -0.13247165653E+04  0.13247165653E+04  0.25500000920E-02 0. -1.
    10030    2    1    2    0    0  0.00000000000E+00  0.00000000000E+00  0.40716034104E+02  0.26901491646E+04  0.26898410236E+04 0.  0.
        3    1    3    3  502    0 -0.12838991060E+04 -0.27551860097E+03  0.31108662113E+03  0.13494748274E+04  0.10100000352E+00 0.  1.
       -3    1    3    3    0  502  0.12838991060E+04  0.27551860097E+03 -0.27037058702E+03  0.13406743372E+04  0.10100000352E+00 0. -1.
</event>
<event>
 5   0  0.4846214E-06  0.2754157E+04  0.7818609E-02  0.8317644E-01
        1   -1    0    0  501    0  0.00000000000E+00  0.00000000000E+00  0.12220977006E+04  0.12220977006E+04  0.50400001928E-02 0. -1.
       -1   -1    0    0    0  501  0.00000000000E+00  0.00000000000E+00 -0.15517133753E+04  0.15517133753E+04  0.50400001928E-02 0.  1.
    10030    2    1    2    0    0  0.00000000000E+00  0.00000000000E+00 -0.32961567472E+03  0.27738110759E+04  0.27541571109E+04 0.  0.
        2    1    3    3  502    0  0.20501256904E+03 -0.51608901899E+03  0.11043304530E+04  0.12360921399E+04  0.25500000920E-02 0. -1.
       -2    1    3    3    0  502 -0.20501256904E+03  0.51608901899E+03 -0.14339461277E+04  0.15377189360E+04  0.25500000920E-02 0.  1.
</event>
<event>
 5   0  0.4824715E-06  0.2652809E+04  0.7818609E-02  0.8350481E-01
        1   -1    0    0  501    0  0.00000000000E+00  0.00000000000E+00  0.86903676120E+03  0.86903676122E+03  0.50400001928E-02 0. -1.
       -1   -1    0    0    0  501  0.00000000000E+00  0.00000000000E+00 -0.20244817251E+04  0.20244817251E+04  0.50400001928E-02 0.  1.
    10030    2    1    2    0    0  0.00000000000E+00  0.00000000000E+00 -0.11554449639E+04  0.28935184863E+04  0.26528091085E+04 0.  0.
        5    1    3    3  502    0  0.69311349395E+03 -0.83885448968E+03 -0.14049904858E+04  0.17771053783E+04  0.46999998093E+01 0.  1.
       -5    1    3    3    0  502 -0.69311349395E+03  0.83885448968E+03  0.24954552188E+03  0.11164131081E+04  0.46999998093E+01 0. -1.
</event>
<event>
 5   0  0.4826140E-06  0.2685650E+04  0.7818609E-02  0.8339676E-01
       -1   -1    0    0    0  501  0.00000000000E+00  0.00000000000E+00  0.11258293557E+04  0.11258293558E+04  0.50400001928E-02 0. -1.
        1   -1    0    0  501    0  0.00000000000E+00  0.00000000000E+00 -0.16016453077E+04  0.16016453077E+04  0.50400001928E-02 0.  1.
    10030    2    1    2    0    0  0.00000000000E+00  0.00000000000E+00 -0.47581595196E+03  0.27274746635E+04  0.26856502415E+04 0.  0.
        1    1    3    3  502    0  0.81925326957E+03  0.46338650455E+03  0.73475271827E+03  0.11940538218E+04  0.50400001928E-02 0. -1.
       -1    1    3    3    0  502 -0.81925326957E+03 -0.46338650455E+03 -0.12105686702E+04  0.15334208417E+04  0.50400001928E-02 0.  1.
</event>
<event>
 5   0  0.1261364E-05  0.2619788E+04  0.7818609E-02  0.8361511E-01
        2   -1    0    0  501    0  0.00000000000E+00  0.00000000000E+00  0.14268393776E+04  0.14268393776E+04  0.25500000920E-02 0.  1.
       -2   -1    0    0    0  501  0.00000000000E+00  0.00000000000E+00 -0.12025336299E+04  0.12025336299E+04  0.25500000920E-02 0. -1.
    10030    2    1    2    0    0  0.00000000000E+00  0.00000000000E+00  0.22430574769E+03  0.26293730075E+04  0.26197880342E+04 0.  0.
        5    1    3    3  502    0 -0.75903570653E+03 -0.10320957130E+04  0.38599444870E+03  0.13380472970E+04  0.46999998093E+01 0. -1.
       -5    1    3    3    0  502  0.75903570653E+03  0.10320957130E+04 -0.16168870101E+03  0.12913257105E+04  0.46999998093E+01 0.  1.
</event>
<event>
 5   0  0.1232559E-05  0.2721716E+04  0.7818609E-02  0.8327993E-01
        2   -1    0    0  501    0  0.00000000000E+00  0.00000000000E+00  0.95392332942E+03  0.95392332942E+03  0.25500000920E-02 0.  1.
       -2   -1    0    0    0  501  0.00000000000E+00  0.00000000000E+00 -0.19413866759E+04  0.19413866759E+04  0.25500000920E-02 0. -1.
    10030    2    1    2    0    0  0.00000000000E+00  0.00000000000E+00 -0.98746334648E+03  0.28953100053E+04  0.27217156660E+04 0.  0.
        3    1    3    3  502    0  0.81462553075E+02 -0.30638832609E+03 -0.19015544135E+04  0.19278016370E+04  0.10100000352E+00 0. -1.
       -3    1    3    3    0  502 -0.81462553075E+02  0.30638832609E+03  0.91409106698E+03  0.96750836836E+03  0.10100000352E+00 0.  1.
</event>
<event>
 5   0  0.1286641E-05  0.2733532E+04  0.7818609E-02  0.8324206E-01
       -2   -1    0    0    0  501  0.00000000000E+00  0.00000000000E+00  0.86014250373E+03  0.86014250374E+03  0.25500000920E-02 0.  1.
        2   -1    0    0  501    0  0.00000000000E+00  0.00000000000E+00 -0.21717899659E+04  0.21717899659E+04  0.25500000920E-02 0. -1.
    10030    2    1    2    0    0  0.00000000000E+00  0.00000000000E+00 -0.13116474622E+04  0.30319324697E+04  0.27335316782E+04 0.  0.
        4    1    3    3  502    0  0.73967817665E+02 -0.11756498849E+04 -0.14246132771E+04  0.18485530807E+04  0.12699999809E+01 0. -1.
       -4    1    3    3    0  502 -0.73967817665E+02  0.11756498849E+04  0.11296581491E+03  0.11833793890E+04  0.12699999809E+01 0.  1.
</event>
<event>
 5   0  0.1232559E-05  0.2708432E+04  0.7818609E-02  0.8332274E-01
        2   -1    0    0  501    0  0.00000000000E+00  0.00000000000E+00  0.13096475631E+04  0.13096475631E+04  0.25500000920E-02 0. -1.
       -2   -1    0    0    0  501  0.00000000000E+00  0.00000000000E+00 -0.14003008779E+04  0.14003008779E+04  0.25500000920E-02 0.  1.
    10030    2    1    2    0    0  0.00000000000E+00  0.00000000000E+00 -0.90653314776E+02  0.27099484410E+04  0.27084317472E+04 0.  0.
        3    1    3    3  502    0 -0.12619179546E+04 -0.49061496528E+03 -0.72922054730E+02  0.13558973430E+04  0.10100000352E+00 0. -1.
       -3    1    3    3    0  502  0.12619179546E+04  0.49061496528E+03 -0.17731260047E+02  0.13540510981E+04  0.10100000352E+00 0.  1.
</event>
<event>
 5   0  0.4824715E-06  0.2713111E+04  0.7818609E-02  0.8330764E-01
        1   -1    0    0  501    0  0.00000000000E+00  0.00000000000E+00  0.20885640340E+04  0.20885640340E+04  0.50400001928E-02 0. -1.
       -1   -1    0    0    0  501  0.00000000000E+00  0.00000000000E+00 -0.88110410951E+03  0.88110410952E+03  0.50400001928E-02 0.  1.
    10030    2    1    2    0    0  0.00000000000E+00  0.00000000000E+00  0.12074599245E+04  0.29696681435E+04  0.27131106526E+04 0.  0.
        5    1    3    3  502    0 -0.12429274932E+04 -0.26005571949E+03  0.11260580934E+04  0.16972114336E+04  0.46999998093E+01 0. -1.
       -5    1    3    3    0  502  0.12429274932E+04  0.26005571949E+03  0.81401831087E+02  0.12724567099E+04  0.46999998093E+01 0.  1.
</event>
<event>
 5   0  0.4756800E-06  0.2717991E+04  0.7818609E-02  0.8329191E-01
       -1   -1    0    0    0  501  0.00000000000E+00  0.00000000000E+00  0.75018089278E+03  0.75018089280E+03  0.50400001928E-02 0. -1.
        1   -1    0    0  501    0  0.00000000000E+00  0.00000000000E+00 -0.24618972448E+04  0.24618972448E+04  0.50400001928E-02 0.  1.
    10030    2    1    2    0    0  0.00000000000E+00  0.00000000000E+00 -0.17117163520E+04  0.32120781376E+04  0.27179906351E+04 0.  0.
        4    1    3    3  502    0 -0.99196776959E+03 -0.85358227542E+03 -0.42282838050E+03  0.13752775026E+04  0.12699999809E+01 0. -1.
       -4    1    3    3    0  502  0.99196776959E+03  0.85358227542E+03 -0.12888879715E+04  0.18368006350E+04  0.12699999809E+01 0.  1.
</event>
<event>
 5   0  0.4824715E-06  0.2722011E+04  0.7818609E-02  0.8327898E-01
       -1   -1    0    0    0  501  0.00000000000E+00  0.00000000000E+00  0.12052703679E+04  0.12052703679E+04  0.50400001928E-02 0. -1.
        1   -1    0    0  501    0  0.00000000000E+00  0.00000000000E+00 -0.15368638973E+04  0.15368638973E+04  0.50400001928E-02 0.  1.
    10030    2    1    2    0    0  0.00000000000E+00  0.00000000000E+00 -0.33159352944E+03  0.27421342652E+04  0.27220113996E+04 0.  0.
        5    1    3    3  502    0 -0.87128314007E+03 -0.76108055990E+03  0.55639661938E+03  0.12837356491E+04  0.46999998093E+01 0.  1.
       -5    1    3    3    0  502  0.87128314007E+03  0.76108055990E+03 -0.88799014882E+03  0.14583986160E+04  0.46999998093E+01 0. -1.
</event>
<event>
 5   0  0.4756800E-06  0.2677642E+04  0.7818609E-02  0.8342296E-01
        1   -1    0    0  501    0  0.00000000000E+00  0.00000000000E+00  0.20449734093E+04  0.20449734093E+04  0.50400001928E-02 0. -1.
       -1   -1    0    0    0  501  0.00000000000E+00  0.00000000000E+00 -0.87651080766E+03  0.87651080768E+03  0.50400001928E-02 0.  1.
    10030    2    1    2    0    0  0.00000000000E+00  0.00000000000E+00  0.11684626016E+04  0.29214842170E+04  0.26776417196E+04 0.  0.
        4    1    3    3  502    0 -0.43935775077E+03 -0.99707998764E+02 -0.79131830718E+03  0.91058398534E+03  0.12699999809E+01 0.  1.
       -4    1    3    3    0  502  0.43935775077E+03  0.99707998764E+02  0.19597809088E+04  0.20109002316E+04  0.12699999809E+01 0. -1.
</event>
<event>
 5   0  0.1232559E-05  0.2312054E+04  0.7818609E-02  0.8473184E-01
       -2   -1    0    0    0  501  0.00000000000E+00  0.00000000000E+00  0.41999958066E+03  0.41999958067E+03  0.25500000920E-02 0. -1.
        2   -1    0    0  501    0  0.00000000000E+00  0.00000000000E+00 -0.31819029662E+04  0.31819029662E+04  0.25500000920E-02 0.  1.
    10030    2    1    2    0    0  0.00000000000E+00  0.00000000000E+00 -0.27619033855E+04  0.36019025468E+04  0.23120535560E+04 0.  0.
        3    1    3    3  502    0  0.37848328689E+03 -0.36023518300E+03  0.22553854611E+03  0.56911038605E+03  0.10100000352E+00 0. -1.
       -3    1    3    3    0  502 -0.37848328689E+03  0.36023518300E+03 -0.29874419316E+04  0.30327921608E+04  0.10100000352E+00 0.  1.
</event>
<event>
 5   0  0.5152288E-06  0.2652241E+04  0.7818609E-02  0.8350670E-01
       -1   -1    0    0    0  501  0.00000000000E+00  0.00000000000E+00  0.23670340405E+04  0.23670340405E+04  0.50400001928E-02 0.  1.
        1   -1    0    0  501    0  0.00000000000E+00  0.00000000000E+00 -0.74295328164E+03  0.74295328166E+03  0.50400001928E-02 0. -1.
    10030    2    1    2    0    0  0.00000000000E+00  0.00000000000E+00  0.16240807589E+04  0.31099873222E+04  0.26522410963E+04 0.  0.
        3    1    3    3  502    0 -0.97115445639E+03  0.12347655425E+03  0.18609718937E+04  0.21027610032E+04  0.10100000352E+00 0.  1.
       -3    1    3    3    0  502  0.97115445639E+03 -0.12347655425E+03 -0.23689113477E+03  0.10072263189E+04  0.10100000352E+00 0. -1.
</event>
<event>
 5   0  0.4188000E-06  0.2815369E+04  0.7818609E-02  0.8298513E-01
       -4   -1    0    0    0  501  0.00000000000E+00  0.00000000000E+00  0.14250006581E+04  0.14250012240E+04  0.12699999809E+01 0. -1.
        4   -1    0    0  501    0  0.00000000000E+00  0.00000000000E+00 -0.13905772876E+04  0.13905778676E+04  0.12699999809E+01 0.  1.
    10030    2    1    2    0    0  0.00000000000E+00  0.00000000000E+00  0.34423370443E+02  0.28155790916E+04  0.28153686531E+04 0.  0.
        4    1    3    3  502    0  0.10675253395E+04 -0.38455012208E+03 -0.81596786798E+03  0.13976030628E+04  0.12699999809E+01 0.  1.
       -4    1    3    3    0  502 -0.10675253395E+04  0.38455012208E+03  0.85039123842E+03  0.14179760287E+04  0.12699999809E+01 0. -1.
</event>
<event>
 5   0  0.1232559E-05  0.2644227E+04  0.7818609E-02  0.8353332E-01
       -2   -1    0    0    0  501  0.00000000000E+00  0.00000000000E+00  0.81323767491E+03  0.81323767492E+03  0.25500000920E-02 0. -1.
        2   -1    0    0  501    0  0.00000000000E+00  0.00000000000E+00 -0.21494133000E+04  0.21494133000E+04  0.25500000920E-02 0.  1.
    10030    2    1    2    0    0  0.00000000000E+00  0.00000000000E+00 -0.13361756251E+04  0.29626509749E+04  0.26442268242E+04 0.  0.
        3    1    3    3  502    0 -0.10504144189E+04 -0.14553361628E+03 -0.15527486659E+04  0.18803135150E+04  0.10100000352E+00 0.  1.
       -3    1    3    3    0  502  0.10504144189E+04  0.14553361628E+03  0.21657304081E+03  0.10823374599E+04  0.10100000352E+00 0. -1.
</event>
<event>
 5   0  0.5152288E-06  0.2707716E+04  0.7818609E-02  0.8332506E-01
       -1   -1    0    0    0  501  0.00000000000E+00  0.00000000000E+00  0.13234894965E+04  0.13234894965E+04  0.50400001928E-02 0.  1.
        1   -1    0    0  501    0  0.00000000000E+00  0.00000000000E+00 -0.13849235385E+04  0.13849235386E+04  0.50400001928E-02 0. -1.
    10030    2    1    2    0    0  0.00000000000E+00  0.00000000000E+00 -0.61434042068E+02  0.27084130350E+04  0.27077162013E+04 0.  0.
        3    1    3    3  502    0  0.88400895279E+02  0.11044851826E+04 -0.80888221081E+03  0.13718573826E+04  0.10100000352E+00 0. -1.
       -3    1    3    3    0  502 -0.88400895279E+02 -0.11044851826E+04  0.74744816874E+03  0.13365556525E+04  0.10100000352E+00 0.  1.
</event>
<event>
 5   0  0.1286641E-05  0.2688929E+04  0.7818609E-02  0.8338606E-01
       -2   -1    0    0    0  501  0.00000000000E+00  0.00000000000E+00  0.19748799925E+04  0.19748799925E+04  0.25500000920E-02 0. -1.
        2   -1    0    0  501    0  0.00000000000E+00  0.00000000000E+00 -0.91528823754E+03  0.91528823754E+03  0.25500000920E-02 0.  1.
    10030    2    1    2    0    0  0.00000000000E+00  0.00000000000E+00  0.10595917550E+04  0.28901682301E+04  0.26889287292E+04 0.  0.
        4    1    3    3  502    0 -0.45177906869E+03 -0.11443515005E+04  0.11125318068E+04  0.16587264143E+04  0.12699999809E+01 0. -1.
       -4    1    3    3    0  502  0.45177906869E+03  0.11443515005E+04 -0.52940051864E+02  0.12314418157E+04  0.12699999809E+01 0.  1.
</event>
<event>
 5   0  0.4188000E-06  0.2699258E+04  0.7818609E-02  0.8335246E-01
       -4   -1    0    0    0  501  0.00000000000E+00  0.00000000000E+00  0.12456059641E+04  0.12456066115E+04  0.12699999809E+01 0. -1.
        4   -1    0    0  501    0  0.00000000000E+00  0.00000000000E+00 -0.14623381163E+04  0.14623386677E+04  0.12699999809E+01 0.  1.
    10030    2    1    2    0    0  0.00000000000E+00  0.00000000000E+00 -0.21673215217E+03  0.27079452793E+04  0.26992581962E+04 0.  0.
        5    1    3    3  502    0 -0.68715705930E+03 -0.38083045723E+03  0.99255345680E+03  0.12658598326E+04  0.46999998093E+01 0. -1.
       -5    1    3    3    0  502  0.68715705930E+03  0.38083045723E+03 -0.12092856090E+04  0.14420854466E+04  0.46999998093E+01 0.  1.
</event>
<event>
 5   0  0.4846214E-06  0.2688514E+04  0.7818609E-02  0.8338741E-01
        1   -1    0    0  501    0  0.00000000000E+00  0.00000000000E+00  0.17670021226E+04  0.17670021226E+04  0.50400001928E-02 0. -1.
       -1   -1    0    0    0  501  0.00000000000E+00  0.00000000000E+00 -0.10226514233E+04  0.10226514234E+04  0.50400001928E-02 0.  1.
    10030    2    1    2    0    0  0.00000000000E+00  0.00000000000E+00  0.74435069923E+03  0.27896535459E+04  0.26885142631E+04 0.  0.
        2    1    3    3  502    0 -0.33273192870E+03 -0.43017625435E+03  0.16477569636E+04  0.17351844735E+04  0.25500000920E-02 0. -1.
       -2    1    3    3    0  502  0.33273192870E+03  0.43017625435E+03 -0.90340626435E+03  0.10544690724E+04  0.25500000920E-02 0.  1.
</event>
<event>
 5   0  0.4756800E-06  0.2687396E+04  0.7818609E-02  0.8339106E-01
       -1   -1    0    0    0  501  0.00000000000E+00  0.00000000000E+00  0.13380198559E+04  0.13380198559E+04  0.50400001928E-02 0.  1.
        1   -1    0    0  501    0  0.00000000000E+00  0.00000000000E+00 -0.13494003451E+04  0.13494003452E+04  0.50400001928E-02 0. -1.
    10030    2    1    2    0    0  0.00000000000E+00  0.00000000000E+00 -0.11380489255E+02  0.26874202011E+04  0.26873961043E+04 0.  0.
        4    1    3    3  502    0 -0.90318723230E+03  0.85081229357E+03 -0.52134407748E+03  0.13458937534E+04  0.12699999809E+01 0. -1.
       -4    1    3    3    0  502  0.90318723230E+03 -0.85081229357E+03  0.50996358823E+03  0.13415264476E+04  0.12699999809E+01 0.  1.
</event>
<event>
 5   0  0.5152288E-06  0.2729129E+04  0.7818609E-02  0.8325615E-01
       -1   -1    0    0    0  501  0.00000000000E+00  0.00000000000E+00  0.14468172118E+04  0.14468172119E+04  0.50400001928E-02 0. -1.
        1   -1    0    0  501    0  0.00000000000E+00  0.00000000000E+00 -0.12869879228E+04  0.12869879228E+04  0.50400001928E-02 0.  1.
    10030    2    1    2    0    0  0.00000000000E+00  0.00000000000E+00  0.15982928908E+03  0.27338051346E+04  0.27291290025E+04 0.  0.
        3    1    3    3  502    0 -0.12323201505E+03  0.56645875468E+03 -0.11575053952E+04  0.12945579943E+04  0.10100000352E+00 0.  1.
       -3    1    3    3    0  502  0.12323201505E+03 -0.56645875468E+03  0.13173346843E+04  0.14392471404E+04  0.10100000352E+00 0. -1.
</event>
<event>
 5   0  0.4824715E-06  0.2680234E+04  0.7818609E-02  0.8341447E-01
        1   -1    0    0  501    0  0.00000000000E+00  0.00000000000E+00  0.10165879226E+04  0.10165879227E+04  0.50400001928E-02 0. -1.
       -1   -1    0    0    0  501  0.00000000000E+00  0.00000000000E+00 -0.17666088032E+04  0.17666088032E+04  0.50400001928E-02 0.  1.
    10030    2    1    2    0    0  0.00000000000E+00  0.00000000000E+00 -0.75002088054E+03  0.27831967259E+04  0.26802337013E+04 0.  0.
        5    1    3    3  502    0 -0.81948109371E+03 -0.88843424719E+03 -0.97606066271E+03  0.15535704625E+04  0.46999998093E+01 0.  1.
       -5    1    3    3    0  502  0.81948109371E+03  0.88843424719E+03  0.22603978217E+03  0.12296262634E+04  0.46999998093E+01 0. -1.
</event>
<event>
 5   0  0.1232559E-05  0.2699862E+04  0.7818609E-02  0.8335050E-01
       -2   -1    0    0    0  501  0.00000000000E+00  0.00000000000E+00  0.11916671031E+04  0.11916671031E+04  0.25500000920E-02 0.  1.
        2   -1    0    0  501    0  0.00000000000E+00  0.00000000000E+00 -0.15292139302E+04  0.15292139302E+04  0.25500000920E-02 0. -1.
    10030    2    1    2    0    0  0.00000000000E+00  0.00000000000E+00 -0.33754682712E+03  0.27208810334E+04  0.26998621700E+04 0.  0.
        3    1    3    3  502    0  0.10644404673E+04 -0.69791986978E+03 -0.62192753974E+03  0.14166578726E+04  0.10100000352E+00 0. -1.
       -3    1    3    3    0  502 -0.10644404673E+04  0.69791986978E+03  0.28438071262E+03  0.13042231608E+04  0.10100000352E+00 0.  1.
</event>
<event>
 5   0  0.4826140E-06  0.2679080E+04  0.7818609E-02  0.8341825E-01
       -1   -1    0    0    0  501  0.00000000000E+00  0.00000000000E+00  0.91641863365E+03  0.91641863366E+03  0.50400001928E-02 0.  1.
        1   -1    0    0  501    0  0.00000000000E+00  0.00000000000E+00 -0.19580219670E+04  0.19580219670E+04  0.50400001928E-02 0. -1.
    10030    2    1    2    0    0  0.00000000000E+00  0.00000000000E+00 -0.10416033334E+04  0.28744406007E+04  0.26790803017E+04 0.  0.
        1    1    3    3  502    0  0.85243718771E+03 -0.73022019832E+03  0.26360322176E+03  0.11529776041E+04  0.50400001928E-02 0.  1.
       -1    1    3    3    0  502 -0.85243718771E+03  0.73022019832E+03 -0.13052065551E+04  0.17214629966E+04  0.50400001928E-02 0. -1.
</event>
<event>
 5   0  0.1276517E-05  0.2728299E+04  0.7818609E-02  0.8325881E-01
        2   -1    0    0  501    0  0.00000000000E+00  0.00000000000E+00  0.17594035545E+04  0.17594035545E+04  0.25500000920E-02 0.  1.
       -2   -1    0    0    0  501  0.00000000000E+00  0.00000000000E+00 -0.10576905074E+04  0.10576905074E+04  0.25500000920E-02 0. -1.
    10030    2    1    2    0    0  0.00000000000E+00  0.00000000000E+00  0.70171304714E+03  0.28170940619E+04  0.27282994251E+04 0.  0.
        1    1    3    3  502    0  0.13334917987E+04  0.26688560334E+03  0.46146977381E+03  0.14360998067E+04  0.50400001928E-02 0.  1.
       -1    1    3    3    0  502 -0.13334917987E+04 -0.26688560334E+03  0.24024327333E+03  0.13809942552E+04  0.50400001928E-02 0. -1.
</event>
<event>
 5   0  0.5152288E-06  0.2697248E+04  0.7818609E-02  0.8335898E-01
        1   -1    0    0  501    0  0.00000000000E+00  0.00000000000E+00  0.22660268037E+04  0.22660268037E+04  0.50400001928E-02 0.  1.
       -1   -1    0    0    0  501  0.00000000000E+00  0.00000000000E+00 -0.80263274516E+03  0.80263274518E+03  0.50400001928E-02 0. -1.
    10030    2    1    2    0    0  0.00000000000E+00  0.00000000000E+00  0.14633940586E+04  0.30686595489E+04  0.26972484603E+04 0.  0.
        3    1    3    3  502    0 -0.94072082825E+03 -0.55877918241E+03 -0.16528216097E+03  0.11065749203E+04  0.10100000352E+00 0. -1.
       -3    1    3    3    0  502  0.94072082825E+03  0.55877918241E+03  0.16286762195E+04  0.19620846286E+04  0.10100000352E+00 0.  1.
</event>
<event>
 5   0  0.4846214E-06  0.2697800E+04  0.7818609E-02  0.8335719E-01
       -1   -1    0    0    0  501  0.00000000000E+00  0.00000000000E+00  0.19045072855E+04  0.19045072855E+04  0.50400001928E-02 0. -1.
        1   -1    0    0  501    0  0.00000000000E+00  0.00000000000E+00 -0.95538174305E+03  0.95538174307E+03  0.50400001928E-02 0.  1.
    10030    2    1    2    0    0  0.00000000000E+00  0.00000000000E+00  0.94912554245E+03  0.28598890286E+04  0.26978002077E+04 0.  0.
        2    1    3    3  502    0 -0.38041225190E+03 -0.14748392164E+03 -0.88840177975E+03  0.97761071537E+03  0.25500000920E-02 0.  1.
       -2    1    3    3    0  502  0.38041225190E+03  0.14748392164E+03  0.18375273222E+04  0.18822783132E+04  0.25500000920E-02 0. -1.
</event>
<event>
 5   0  0.4824715E-06  0.2615969E+04  0.7818609E-02  0.8362797E-01
       -1   -1    0    0    0  501  0.00000000000E+00  0.00000000000E+00  0.13197317237E+04  0.13197317237E+04  0.50400001928E-02 0.  1.
        1   -1    0    0  501    0  0.00000000000E+00  0.00000000000E+00 -0.12963422222E+04  0.12963422222E+04  0.50400001928E-02 0. -1.
    10030    2    1    2    0    0  0.00000000000E+00  0.00000000000E+00  0.23389501551E+02  0.26160739459E+04  0.26159693847E+04 0.  0.
        5    1    3    3  502    0  0.85165289255E+03  0.65299147297E+03  0.75944875264E+03  0.13147224084E+04  0.46999998093E+01 0.  1.
       -5    1    3    3    0  502 -0.85165289255E+03 -0.65299147297E+03 -0.73605925108E+03  0.13013515375E+04  0.46999998093E+01 0. -1.
</event>
<event>
 5   0  0.1261364E-05  0.2700985E+04  0.7818609E-02  0.8334686E-01
       -2   -1    0    0    0  501  0.00000000000E+00  0.00000000000E+00  0.18394553279E+04  0.18394553279E+04  0.25500000920E-02 0. -1.
        2   -1    0    0  501    0  0.00000000000E+00  0.00000000000E+00 -0.99150522797E+03  0.99150522798E+03  0.25500000920E-02 0.  1.
    10030    2    1    2    0    0  0.00000000000E+00  0.00000000000E+00  0.84795009995E+03  0.28309605559E+04  0.27009846903E+04 0.  0.
        5    1    3    3  502    0  0.61978637946E+03  0.57334220398E+03  0.15287127039E+04  0.17463794147E+04  0.46999998093E+01 0. -1.
       -5    1    3    3    0  502 -0.61978637946E+03 -0.57334220398E+03 -0.68076260391E+03  0.10845811412E+04  0.46999998093E+01 0.  1.
</event>
<event>
 5   0  0.1261364E-05  0.2702114E+04  0.7818609E-02  0.8334319E-01
       -2   -1    0    0    0  501  0.00000000000E+00  0.00000000000E+00  0.93635164062E+03  0.93635164062E+03  0.25500000920E-02 0.  1.
        2   -1    0    0  501    0  0.00000000000E+00  0.00000000000E+00 -0.19494338147E+04  0.19494338147E+04  0.25500000920E-02 0. -1.
    10030    2    1    2    0    0  0.00000000000E+00  0.00000000000E+00 -0.10130821741E+04  0.28857854553E+04  0.27021143948E+04 0.  0.
        5    1    3    3  502    0 -0.91171561893E+03  0.90977220658E+03 -0.70862224142E+02  0.12899435579E+04  0.46999998093E+01 0. -1.
       -5    1    3    3    0  502  0.91171561893E+03 -0.90977220658E+03 -0.94221994995E+03  0.15958418975E+04  0.46999998093E+01 0.  1.
</event>
<event>
 5   0  0.1261364E-05  0.2701868E+04  0.7818609E-02  0.8334399E-01
       -2   -1    0    0    0  501  0.00000000000E+00  0.00000000000E+00  0.11182283372E+04  0.11182283372E+04  0.25500000920E-02 0. -1.
        2   -1    0    0  501    0  0.00000000000E+00  0.00000000000E+00 -0.16320663302E+04  0.16320663302E+04  0.25500000920E-02 0.  1.
    10030    2    1    2    0    0  0.00000000000E+00  0.00000000000E+00 -0.51383799305E+03  0.27502946674E+04  0.27018681083E+04 0.  0.
        5    1    3    3  502    0  0.60750304056E+02 -0.77187880167E+03 -0.13837896950E+04  0.15856807667E+04  0.46999998093E+01 0.  1.
       -5    1    3    3    0  502 -0.60750304056E+02  0.77187880167E+03  0.86995170198E+03  0.11646139007E+04  0.46999998093E+01 0. -1.
</event>
<event>
 5   0  0.4756800E-06  0.2683250E+04  0.7818609E-02  0.8340460E-01
       -1   -1    0    0    0  501  0.00000000000E+00  0.00000000000E+00  0.13840672971E+04  0.13840672972E+04  0.50400001928E-02 0. -1.
        1   -1    0    0  501    0  0.00000000000E+00  0.00000000000E+00 -0.13004838445E+04  0.13004838445E+04  0.50400001928E-02 0.  1.
    10030    2    1    2    0    0  0.00000000000E+00  0.00000000000E+00  0.83583452661E+02  0.26845511417E+04  0.26832496415E+04 0.  0.
        4    1    3    3  502    0 -0.61207565952E+03 -0.10764176909E+04  0.55841791648E+03  0.13583607182E+04  0.12699999809E+01 0. -1.
       -4    1    3    3    0  502  0.61207565952E+03  0.10764176909E+04 -0.47483446382E+03  0.13261904235E+04  0.12699999809E+01 0.  1.
</event>
<event>
 5   0  0.1220908E-05  0.2690879E+04  0.7818609E-02  0.8337971E-01
        2   -1    0    0  501    0  0.00000000000E+00  0.00000000000E+00  0.90831696582E+03  0.90831696583E+03  0.25500000920E-02 0.  1.
       -2   -1    0    0    0  501  0.00000000000E+00  0.00000000000E+00 -0.19929244951E+04  0.19929244951E+04  0.25500000920E-02 0. -1.
    10030    2    1    2    0    0  0.00000000000E+00  0.00000000000E+00 -0.10846075293E+04  0.29012414610E+04  0.26908787639E+04 0.  0.
        2    1    3    3  502    0 -0.34772083820E+03  0.38828481214E+03  0.79503996737E+03  0.95066472869E+03  0.25500000920E-02 0.  1.
       -2    1    3    3    0  502  0.34772083820E+03 -0.38828481214E+03 -0.18796474967E+04  0.19505767323E+04  0.25500000920E-02 0. -1.
</event>
<event>
 5   0  0.1232559E-05  0.2710633E+04  0.7818609E-02  0.8331563E-01
        2   -1    0    0  501    0  0.00000000000E+00  0.00000000000E+00  0.25508851483E+04  0.25508851483E+04  0.25500000920E-02 0. -1.
       -2   -1    0    0    0  501  0.00000000000E+00  0.00000000000E+00 -0.72009636630E+03  0.72009636630E+03  0.25500000920E-02 0.  1.
    10030    2    1    2    0    0  0.00000000000E+00  0.00000000000E+00  0.18307887820E+04  0.32709815146E+04  0.27106332294E+04 0.  0.
        3    1    3    3  502    0 -0.50626067785E+03  0.13671579557E+03 -0.59271497335E+03  0.79139252747E+03  0.10100000352E+00 0.  1.
       -3    1    3    3    0  502  0.50626067785E+03 -0.13671579557E+03  0.24235037553E+04  0.24795889871E+04  0.10100000352E+00 0. -1.
</event>
<event>
 5   0  0.4826140E-06  0.2761301E+04  0.7818609E-02  0.8315385E-01
       -1   -1    0    0    0  501  0.00000000000E+00  0.00000000000E+00  0.16640439653E+04  0.16640439653E+04  0.50400001928E-02 0. -1.
        1   -1    0    0  501    0  0.00000000000E+00  0.00000000000E+00 -0.11455200363E+04  0.11455200363E+04  0.50400001928E-02 0.  1.
    10030    2    1    2    0    0  0.00000000000E+00  0.00000000000E+00  0.51852392902E+03  0.28095640015E+04  0.27613009278E+04 0.  0.
        1    1    3    3  502    0 -0.38020349356E+02  0.97036768104E+03 -0.73928653023E+03  0.12204931615E+04  0.50400001928E-02 0.  1.
       -1    1    3    3    0  502  0.38020349356E+02 -0.97036768104E+03  0.12578104592E+04  0.15890708401E+04  0.50400001928E-02 0. -1.
</event>
<event>
 5   0  0.1232559E-05  0.2690707E+04  0.7818609E-02  0.8338027E-01
       -2   -1    0    0    0  501  0.00000000000E+00  0.00000000000E+00  0.13840151943E+04  0.13840151943E+04  0.25500000920E-02 0.  1.
        2   -1    0    0  501    0  0.00000000000E+00  0.00000000000E+00 -0.13077714723E+04  0.13077714723E+04  0.25500000920E-02 0. -1.
    10030    2    1    2    0    0  0.00000000000E+00  0.00000000000E+00  0.76243722020E+02  0.26917866666E+04  0.26907066643E+04 0.  0.
        3    1    3    3  502    0 -0.13049717758E+04  0.15214181446E+03 -0.25160983883E+03  0.13376868051E+04  0.10100000352E+00 0. -1.
       -3    1    3    3    0  502  0.13049717758E+04 -0.15214181446E+03  0.32785356085E+03  0.13540998615E+04  0.10100000352E+00 0.  1.
</event>
<event>
 5   0  0.4756800E-06  0.2677914E+04  0.7818609E-02  0.8342207E-01
        1   -1    0    0  501    0  0.00000000000E+00  0.00000000000E+00  0.30462453251E+04  0.30462453251E+04  0.50400001928E-02 0.  1.
       -1   -1    0    0    0  501  0.00000000000E+00  0.00000000000E+00 -0.58852970576E+03  0.58852970578E+03  0.50400001928E-02 0. -1.
    10030    2    1    2    0    0  0.00000000000E+00  0.00000000000E+00  0.24577156193E+04  0.36347750308E+04  0.26779140127E+04 0.  0.
        4    1    3    3  502    0 -0.79114797379E+03  0.74165383646E+03  0.22948811724E+04  0.25381975372E+04  0.12699999809E+01 0.  1.
       -4    1    3    3    0  502  0.79114797379E+03 -0.74165383646E+03  0.16283444692E+03  0.10965774936E+04  0.12699999809E+01 0. -1.
</event>
<event>
 5   0  0.1261364E-05  0.2683503E+04  0.7818609E-02  0.8340377E-01
       -2   -1    0    0    0  501  0.00000000000E+00  0.00000000000E+00  0.12056722632E+04  0.12056722632E+04  0.25500000920E-02 0.  1.
        2   -1    0    0  501    0  0.00000000000E+00  0.00000000000E+00 -0.14931897868E+04  0.14931897868E+04  0.25500000920E-02 0. -1.
    10030    2    1    2    0    0  0.00000000000E+00  0.00000000000E+00 -0.28751752365E+03  0.26988620500E+04  0.26835033144E+04 0.  0.
        5    1    3    3  502    0 -0.89432031615E+01  0.13339545769E+04 -0.28866889947E+03  0.13648687181E+04  0.46999998093E+01 0.  1.
       -5    1    3    3    0  502  0.89432031615E+01 -0.13339545769E+04  0.11513758236E+01  0.13339933319E+04  0.46999998093E+01 0. -1.
</event>
<event>
 5   0  0.5152288E-06  0.2709025E+04  0.7818609E-02  0.8332083E-01
        1   -1    0    0  501    0  0.00000000000E+00  0.00000000000E+00  0.16440862702E+04  0.16440862702E+04  0.50400001928E-02 0.  1.
       -1   -1    0    0    0  501  0.00000000000E+00  0.00000000000E+00 -0.11159412239E+04  0.11159412239E+04  0.50400001928E-02 0. -1.
    10030    2    1    2    0    0  0.00000000000E+00  0.00000000000E+00  0.52814504628E+03  0.27600274941E+04  0.27090246544E+04 0.  0.
        3    1    3    3  502    0 -0.11273762229E+04  0.21815812853E+03 -0.46787758998E+03  0.12399514371E+04  0.10100000352E+00 0. -1.
       -3    1    3    3    0  502  0.11273762229E+04 -0.21815812853E+03  0.99602263625E+03  0.15200760570E+04  0.10100000352E+00 0.  1.
</event>
<event>
 5   0  0.1220908E-05  0.2695889E+04  0.7818609E-02  0.8336340E-01
        2   -1    0    0  501    0  0.00000000000E+00  0.00000000000E+00  0.17608512647E+04  0.17608512647E+04  0.25500000920E-02 0.  1.
       -2   -1    0    0    0  501  0.00000000000E+00  0.00000000000E+00 -0.10318617378E+04  0.10318617378E+04  0.25500000920E-02 0. -1.
    10030    2    1    2    0    0  0.00000000000E+00  0.00000000000E+00  0.72898952689E+03  0.27927130025E+04  0.26958894977E+04 0.  0.
        2    1    3    3  502    0  0.12561017293E+04 -0.40870518233E+03  0.86291119294E+02  0.13237362418E+04  0.25500000920E-02 0. -1.
       -2    1    3    3    0  502 -0.12561017293E+04  0.40870518233E+03  0.64269840760E+03  0.14689767607E+04  0.25500000920E-02 0.  1.
</event>
<event>
 5   0  0.4824715E-06  0.2694743E+04  0.7818609E-02  0.8336713E-01
        1   -1    0    0  501    0  0.00000000000E+00  0.00000000000E+00  0.12542186454E+04  0.12542186454E+04  0.50400001928E-02 0. -1.
       -1   -1    0    0    0  501  0.00000000000E+00  0.00000000000E+00 -0.14474428711E+04  0.14474428711E+04  0.50400001928E-02 0.  1.
    10030    2    1    2    0    0  0.00000000000E+00  0.00000000000E+00 -0.19322422568E+03  0.27016615165E+04  0.26947429095E+04 0.  0.
        5    1    3    3  502    0 -0.39959770732E+03 -0.11518996071E+04  0.47830303157E+03  0.13097125305E+04  0.46999998093E+01 0. -1.
       -5    1    3    3    0  502  0.39959770732E+03  0.11518996071E+04 -0.67152725725E+03  0.13919489860E+04  0.46999998093E+01 0.  1.
</event>
<event>
 5   0  0.4846214E-06  0.2589479E+04  0.7818609E-02  0.8371784E-01
        1   -1    0    0  501    0  0.00000000000E+00  0.00000000000E+00  0.14534055983E+04  0.14534055983E+04  0.50400001928E-02 0. -1.
       -1   -1    0    0    0  501  0.00000000000E+00  0.00000000000E+00 -0.11533944557E+04  0.11533944557E+04  0.50400001928E-02 0.  1.
    10030    2    1    2    0    0  0.00000000000E+00  0.00000000000E+00  0.30001114261E+03  0.26068000540E+04  0.25894786803E+04 0.  0.
        2    1    3    3  502    0 -0.10240239465E+04  0.38212329212E+02  0.94666804375E+03  0.13950862376E+04  0.25500000920E-02 0. -1.
       -2    1    3    3    0  502  0.10240239465E+04 -0.38212329212E+02 -0.64665690114E+03  0.12117138164E+04  0.25500000920E-02 0.  1.
</event>
<event>
 5   0  0.4824715E-06  0.2715629E+04  0.7818609E-02  0.8329952E-01
       -1   -1    0    0    0  501  0.00000000000E+00  0.00000000000E+00  0.11199470443E+04  0.11199470443E+04  0.50400001928E-02 0.  1.
        1   -1    0    0  501    0  0.00000000000E+00  0.00000000000E+00 -0.16462030838E+04  0.16462030838E+04  0.50400001928E-02 0. -1.
    10030    2    1    2    0    0  0.00000000000E+00  0.00000000000E+00 -0.52625603953E+03  0.27661501281E+04  0.27156290454E+04 0.  0.
        5    1    3    3  502    0  0.20757917784E+03 -0.25423339082E+03 -0.16051803851E+04  0.16383985750E+04  0.46999998093E+01 0. -1.
       -5    1    3    3    0  502 -0.20757917784E+03  0.25423339082E+03  0.10789243455E+04  0.11277515531E+04  0.46999998093E+01 0.  1.
</event>
<event>
 5   0  0.1261364E-05  0.2671614E+04  0.7818609E-02  0.8344274E-01
        2   -1    0    0  501    0  0.00000000000E+00  0.00000000000E+00  0.24262916578E+04  0.24262916578E+04  0.25500000920E-02 0.  1.
       -2   -1    0    0    0  501  0.00000000000E+00  0.00000000000E+00 -0.73543509680E+03  0.73543509681E+03  0.25500000920E-02 0. -1.
    10030    2    1    2    0    0  0.00000000000E+00  0.00000000000E+00  0.16908565610E+04  0.31617267546E+04  0.26716137747E+04 0.  0.
        5    1    3    3  502    0  0.13453410518E+03 -0.10270730548E+04 -0.15273438654E+03  0.10470570033E+04  0.46999998093E+01 0. -1.
       -5    1    3    3    0  502 -0.13453410518E+03  0.10270730548E+04  0.18435909476E+04  0.21146697514E+04  0.46999998093E+01 0.  1.
</event>
<event>
 5   0  0.4824715E-06  0.2709128E+04  0.7818609E-02  0.8332049E-01
       -1   -1    0    0    0  501  0.00000000000E+00  0.00000000000E+00  0.12020575141E+04  0.12020575141E+04  0.50400001928E-02 0. -1.
        1   -1    0    0  501    0  0.00000000000E+00  0.00000000000E+00 -0.15264193237E+04  0.15264193237E+04  0.50400001928E-02 0.  1.
    10030    2    1    2    0    0  0.00000000000E+00  0.00000000000E+00 -0.32436180966E+03  0.27284768378E+04  0.27091281385E+04 0.  0.
        5    1    3    3  502    0  0.86213603637E+03  0.10393618024E+03  0.88483053800E+03  0.12397695132E+04  0.46999998093E+01 0. -1.
       -5    1    3    3    0  502 -0.86213603637E+03 -0.10393618024E+03 -0.12091923477E+04  0.14887073246E+04  0.46999998093E+01 0.  1.
</event>
<event>
 5   0  0.1276517E-05  0.2693819E+04  0.7818609E-02  0.8337013E-01
        2   -1    0    0  501    0  0.00000000000E+00  0.00000000000E+00  0.10381319263E+04  0.10381319263E+04  0.25500000920E-02 0. -1.
       -2   -1    0    0    0  501  0.00000000000E+00  0.00000000000E+00 -0.17475280317E+04  0.17475280317E+04  0.25500000920E-02 0.  1.
    10030    2    1    2    0    0  0.00000000000E+00  0.00000000000E+00 -0.70939610548E+03  0.27856599580E+04  0.26938185847E+04 0.  0.
        1    1    3    3  502    0 -0.92143962037E+02 -0.26034893602E+03 -0.17179345954E+04  0.17399917679E+04  0.50400001928E-02 0.  1.
       -1    1    3    3    0  502  0.92143962037E+02  0.26034893602E+03  0.10085384899E+04  0.10456681901E+04  0.50400001928E-02 0. -1.
</event>
<event>
 5   0  0.1261364E-05  0.2715077E+04  0.7818609E-02  0.8330129E-01
       -2   -1    0    0    0  501  0.00000000000E+00  0.00000000000E+00  0.88307295502E+03  0.88307295502E+03  0.25500000920E-02 0.  1.
        2   -1    0    0  501    0  0.00000000000E+00  0.00000000000E+00 -0.20869298298E+04  0.20869298298E+04  0.25500000920E-02 0. -1.
    10030    2    1    2    0    0  0.00000000000E+00  0.00000000000E+00 -0.12038568747E+04  0.29700027848E+04  0.27150773777E+04 0.  0.
        5    1    3    3  502    0  0.67515057026E+03  0.61520620837E+03 -0.17005049294E+04  0.19302968881E+04  0.46999998093E+01 0. -1.
       -5    1    3    3    0  502 -0.67515057026E+03 -0.61520620837E+03  0.49664805468E+03  0.10397058967E+04  0.46999998093E+01 0.  1.
</event>
<event>
 5   0  0.1261364E-05  0.2755215E+04  0.7818609E-02  0.8317309E-01
       -2   -1    0    0    0  501  0.00000000000E+00  0.00000000000E+00  0.85931098664E+03  0.85931098665E+03  0.25500000920E-02 0. -1.
        2   -1    0    0  501    0  0.00000000000E+00  0.00000000000E+00 -0.22085159196E+04  0.22085159196E+04  0.25500000920E-02 0.  1.
    10030    2    1    2    0    0  0.00000000000E+00  0.00000000000E+00 -0.13492049330E+04  0.30678269063E+04  0.27552146878E+04 0.  0.
        5    1    3    3  502    0  0.54057714284E+03  0.27297961793E+03  0.70314127429E+03  0.92799313617E+03  0.46999998093E+01 0. -1.
       -5    1    3    3    0  502 -0.54057714284E+03 -0.27297961793E+03 -0.20523462073E+04  0.21398337701E+04  0.46999998093E+01 0.  1.
</event>
<event>
 5   0  0.4824715E-06  0.2703720E+04  0.7818609E-02  0.8333799E-01
        1   -1    0    0  501    0  0.00000000000E+00  0.00000000000E+00  0.10174446516E+04  0.10174446516E+04  0.50400001928E-02 0. -1.
       -1   -1    0    0    0  501  0.00000000000E+00  0.00000000000E+00 -0.17961916630E+04  0.17961916630E+04  0.50400001928E-02 0.  1.
    10030    2    1    2    0    0  0.00000000000E+00  0.00000000000E+00 -0.77874701143E+03  0.28136363146E+04  0.27037201044E+04 0.  0.
        5    1    3    3  502    0  0.10157610339E+04 -0.52356698255E+03  0.36221383107E+03  0.11987968187E+04  0.46999998093E+01 0. -1.
       -5    1    3    3    0  502 -0.10157610339E+04  0.52356698255E+03 -0.11409608425E+04  0.16148394958E+04  0.46999998093E+01 0.  1.
</event>
<event>
 5   0  0.4824715E-06  0.2764719E+04  0.7818609E-02  0.8314306E-01
        1   -1    0    0  501    0  0.00000000000E+00  0.00000000000E+00  0.15693018905E+04  0.15693018905E+04  0.50400001928E-02 0. -1.
       -1   -1    0    0    0  501  0.00000000000E+00  0.00000000000E+00 -0.12176861780E+04  0.12176861780E+04  0.50400001928E-02 0.  1.
    10030    2    1    2    0    0  0.00000000000E+00  0.00000000000E+00  0.35161571247E+03  0.27869880685E+04  0.27647185905E+04 0.  0.
        5    1    3    3  502    0  0.26799938632E+02 -0.60131915903E+02  0.15677126626E+04  0.15691013882E+04  0.46999998093E+01 0. -1.
       -5    1    3    3    0  502 -0.26799938632E+02  0.60131915903E+02 -0.12160969501E+04  0.12178866803E+04  0.46999998093E+01 0.  1.
</event>
<event>
 5   0  0.1261364E-05  0.2203744E+04  0.7818609E-02  0.8516872E-01
       -2   -1    0    0    0  501  0.00000000000E+00  0.00000000000E+00  0.12449718934E+04  0.12449718934E+04  0.25500000920E-02 0. -1.
        2   -1    0    0  501    0  0.00000000000E+00  0.00000000000E+00 -0.97522009242E+03  0.97522009243E+03  0.25500000920E-02 0.  1.
    10030    2    1    2    0    0  0.00000000000E+00  0.00000000000E+00  0.26975180097E+03  0.22201919858E+04  0.22037437282E+04 0.  0.
        5    1    3    3  502    0  0.33198233975E+03 -0.53105698076E+03 -0.77845862643E+03  0.99912647537E+03  0.46999998093E+01 0.  1.
       -5    1    3    3    0  502 -0.33198233975E+03  0.53105698076E+03  0.10482104274E+04  0.12210655105E+04  0.46999998093E+01 0. -1.
</event>
<event>
 5   0  0.4756800E-06  0.2658862E+04  0.7818609E-02  0.8348478E-01
       -1   -1    0    0    0  501  0.00000000000E+00  0.00000000000E+00  0.10615253121E+04  0.10615253121E+04  0.50400001928E-02 0. -1.
        1   -1    0    0  501    0  0.00000000000E+00  0.00000000000E+00 -0.16649496756E+04  0.16649496756E+04  0.50400001928E-02 0.  1.
    10030    2    1    2    0    0  0.00000000000E+00  0.00000000000E+00 -0.60342436357E+03  0.27264749877E+04  0.26588615790E+04 0.  0.
        4    1    3    3  502    0 -0.16901184215E+03  0.83071609854E+03  0.74840487405E+03  0.11308252330E+04  0.12699999809E+01 0. -1.
       -4    1    3    3    0  502  0.16901184215E+03 -0.83071609854E+03 -0.13518292376E+04  0.15956497547E+04  0.12699999809E+01 0.  1.
</event>
<event>
 5   0  0.1276517E-05  0.2676224E+04  0.7818609E-02  0.8342761E-01
       -2   -1    0    0    0  501  0.00000000000E+00  0.00000000000E+00  0.11990707181E+04  0.11990707181E+04  0.25500000920E-02 0. -1.
        2   -1    0    0  501    0  0.00000000000E+00  0.00000000000E+00 -0.14932766369E+04  0.14932766369E+04  0.25500000920E-02 0.  1.
    10030    2    1    2    0    0  0.00000000000E+00  0.00000000000E+00 -0.29420591878E+03  0.26923473551E+04  0.26762244222E+04 0.  0.
        1    1    3    3  502    0  0.28830293430E+03  0.12379389621E+04 -0.56787243412E+03  0.13921532090E+04  0.50400001928E-02 0.  1.
       -1    1    3    3    0  502 -0.28830293430E+03 -0.12379389621E+04  0.27366651534E+03  0.13001941461E+04  0.50400001928E-02 0. -1.
</event>
<event>
 5   0  0.4824715E-06  0.2668841E+04  0.7818609E-02  0.8345186E-01
       -1   -1    0    0    0  501  0.00000000000E+00  0.00000000000E+00  0.12873737138E+04  0.12873737139E+04  0.50400001928E-02 0.  1.
        1   -1    0    0  501    0  0.00000000000E+00  0.00000000000E+00 -0.13831868134E+04  0.13831868134E+04  0.50400001928E-02 0. -1.
    10030    2    1    2    0    0  0.00000000000E+00  0.00000000000E+00 -0.95813099588E+02  0.26705605273E+04  0.26688412055E+04 0.  0.
        5    1    3    3  502    0 -0.91791815066E+03 -0.82182235159E+03  0.46495709322E+03  0.13168799860E+04  0.46999998093E+01 0.  1.
       -5    1    3    3    0  502  0.91791815066E+03  0.82182235159E+03 -0.56077019281E+03  0.13536805413E+04  0.46999998093E+01 0. -1.
</event>
<event>
 5   0  0.4826140E-06  0.2758055E+04  0.7818609E-02  0.8316410E-01
        1   -1    0    0  501    0  0.00000000000E+00  0.00000000000E+00  0.15965840758E+04  0.15965840758E+04  0.50400001928E-02 0.  1.
       -1   -1    0    0    0  501  0.00000000000E+00  0.00000000000E+00 -0.11911163038E+04  0.11911163038E+04  0.50400001928E-02 0. -1.
    10030    2    1    2    0    0  0.00000000000E+00  0.00000000000E+00  0.40546777194E+03  0.27877003796E+04  0.27580553461E+04 0.  0.
        1    1    3    3  502    0 -0.47715910242E+03 -0.55238549080E+03  0.13853125932E+04  0.15658548848E+04  0.50400001928E-02 0.  1.
       -1    1    3    3    0  502  0.47715910242E+03  0.55238549080E+03 -0.97984482122E+03  0.12218454948E+04  0.50400001928E-02 0. -1.
</event>
<event>
 5   0  0.4826140E-06  0.2724524E+04  0.7818609E-02  0.8327091E-01
        1   -1    0    0  501    0  0.00000000000E+00  0.00000000000E+00  0.11330547763E+04  0.11330547763E+04  0.50400001928E-02 0. -1.
       -1   -1    0    0    0  501  0.00000000000E+00  0.00000000000E+00 -0.16378357803E+04  0.16378357803E+04  0.50400001928E-02 0.  1.
    10030    2    1    2    0    0  0.00000000000E+00  0.00000000000E+00 -0.50478100398E+03  0.27708905566E+04  0.27245239244E+04 0.  0.
        1    1    3    3  502    0  0.51255525944E+03  0.11009532759E+04  0.37532206389E+03  0.12710930970E+04  0.50400001928E-02 0. -1.
       -1    1    3    3    0  502 -0.51255525944E+03 -0.11009532759E+04 -0.88010306787E+03  0.14997974596E+04  0.50400001928E-02 0.  1.
</event>
<event>
 5   0  0.4756800E-06  0.2713419E+04  0.7818609E-02  0.8330664E-01
        1   -1    0    0  501    0  0.00000000000E+00  0.00000000000E+00  0.12845140906E+04  0.12845140906E+04  0.50400001928E-02 0.  1.
       -1   -1    0    0    0  501  0.00000000000E+00  0.00000000000E+00 -0.14329626129E+04  0.14329626129E+04  0.50400001928E-02 0. -1.
    10030    2    1    2    0    0  0.00000000000E+00  0.00000000000E+00 -0.14844852234E+03  0.27174767035E+04  0.27134190001E+04 0.  0.
        4    1    3    3  502    0  0.19190178884E+03 -0.77669655467E+03  0.10231219173E+04  0.12987932496E+04  0.12699999809E+01 0.  1.
       -4    1    3    3    0  502 -0.19190178884E+03  0.77669655467E+03 -0.11715704396E+04  0.14186834539E+04  0.12699999809E+01 0. -1.
</event>
<event>
 5   0  0.1286641E-05  0.2746168E+04  0.7818609E-02  0.8320179E-01
        2   -1    0    0  501    0  0.00000000000E+00  0.00000000000E+00  0.13094414754E+04  0.13094414754E+04  0.25500000920E-02 0.  1.
       -2   -1    0    0    0  501  0.00000000000E+00  0.00000000000E+00 -0.14398198020E+04  0.14398198020E+04  0.25500000920E-02 0. -1.
    10030    2    1    2    0    0  0.00000000000E+00  0.00000000000E+00 -0.13037832665E+03  0.27492612774E+04  0.27461680690E+04 0.  0.
        4    1    3    3  502    0  0.37329767495E+03  0.41116643604E+03  0.11919916613E+04  0.13150113026E+04  0.12699999809E+01 0.  1.
       -4    1    3    3    0  502 -0.37329767495E+03 -0.41116643604E+03 -0.13223699880E+04  0.14342499748E+04  0.12699999809E+01 0. -1.
</event>
<event>
 5   0  0.1232559E-05  0.2816887E+04  0.7818609E-02  0.8298045E-01
       -2   -1    0    0    0  501  0.00000000000E+00  0.00000000000E+00  0.20945096988E+04  0.20945096988E+04  0.25500000920E-02 0.  1.
        2   -1    0    0  501    0  0.00000000000E+00  0.00000000000E+00 -0.94710158286E+03  0.94710158286E+03  0.25500000920E-02 0. -1.
    10030    2    1    2    0    0  0.00000000000E+00  0.00000000000E+00  0.11474081159E+04  0.30416112817E+04  0.28168872544E+04 0.  0.
        3    1    3    3  502    0  0.10086900043E+02  0.11658503822E+04 -0.27952823888E+03  0.11989349047E+04  0.10100000352E+00 0. -1.
       -3    1    3    3    0  502 -0.10086900043E+02 -0.11658503822E+04  0.14269363548E+04  0.18426763769E+04  0.10100000352E+00 0.  1.
</event>
<event>
 5   0  0.4756800E-06  0.2713283E+04  0.7818609E-02  0.8330708E-01
       -1   -1    0    0    0  501  0.00000000000E+00  0.00000000000E+00  0.84561277498E+03  0.84561277499E+03  0.50400001928E-02 0.  1.
        1   -1    0    0  501    0  0.00000000000E+00  0.00000000000E+00 -0.21765001163E+04  0.21765001163E+04  0.50400001928E-02 0. -1.
    10030    2    1    2    0    0  0.00000000000E+00  0.00000000000E+00 -0.13308873413E+04  0.30221128913E+04  0.27132831058E+04 0.  0.
        4    1    3    3  502    0 -0.80492513935E+03 -0.10889288360E+04 -0.57356723840E+03  0.14705956207E+04  0.12699999809E+01 0.  1.
       -4    1    3    3    0  502  0.80492513935E+03  0.10889288360E+04 -0.75732010293E+03  0.15515172706E+04  0.12699999809E+01 0. -1.
</event>
<event>
 5   0  0.1261364E-05  0.2692073E+04  0.7818609E-02  0.8337582E-01
       -2   -1    0    0    0  501  0.00000000000E+00  0.00000000000E+00  0.70709740105E+03  0.70709740105E+03  0.25500000920E-02 0.  1.
        2   -1    0    0  501    0  0.00000000000E+00  0.00000000000E+00 -0.25623256140E+04  0.25623256140E+04  0.25500000920E-02 0. -1.
    10030    2    1    2    0    0  0.00000000000E+00  0.00000000000E+00 -0.18552282130E+04  0.32694230151E+04  0.26920726456E+04 0.  0.
        5    1    3    3  502    0 -0.57288325503E+03 -0.43351161297E+03 -0.23100040364E+04  0.24191461884E+04  0.46999998093E+01 0. -1.
       -5    1    3    3    0  502  0.57288325503E+03  0.43351161297E+03  0.45477582343E+03  0.85027682671E+03  0.46999998093E+01 0.  1.
</event>
<event>
 5   0  0.1232559E-05  0.2653068E+04  0.7818609E-02  0.8350395E-01
       -2   -1    0    0    0  501  0.00000000000E+00  0.00000000000E+00  0.11499969964E+04  0.11499969964E+04  0.25500000920E-02 0.  1.
        2   -1    0    0  501    0  0.00000000000E+00  0.00000000000E+00 -0.15301710686E+04  0.15301710686E+04  0.25500000920E-02 0. -1.
    10030    2    1    2    0    0  0.00000000000E+00  0.00000000000E+00 -0.38017407217E+03  0.26801680650E+04  0.26530677586E+04 0.  0.
        3    1    3    3  502    0 -0.10914262869E+04 -0.73386531902E+03 -0.36483513271E+03  0.13648715435E+04  0.10100000352E+00 0.  1.
       -3    1    3    3    0  502  0.10914262869E+04  0.73386531902E+03 -0.15338939464E+02  0.13152965215E+04  0.10100000352E+00 0. -1.
</event>
<event>
 5   0  0.1286641E-05  0.2683347E+04  0.7818609E-02  0.8340429E-01
       -2   -1    0    0    0  501  0.00000000000E+00  0.00000000000E+00  0.10339408685E+04  0.10339408685E+04  0.25500000920E-02 0.  1.
        2   -1    0    0  501    0  0.00000000000E+00  0.00000000000E+00 -0.17409964119E+04  0.17409964119E+04  0.25500000920E-02 0. -1.
    10030    2    1    2    0    0  0.00000000000E+00  0.00000000000E+00 -0.70705554340E+03  0.27749372805E+04  0.26833466733E+04 0.  0.
        4    1    3    3  502    0 -0.77407657476E+03 -0.10245659667E+04 -0.75558580658E+03  0.14899132484E+04  0.12699999809E+01 0. -1.
       -4    1    3    3    0  502  0.77407657476E+03  0.10245659667E+04  0.48530263180E+02  0.12850240321E+04  0.12699999809E+01 0.  1.
</event>
<event>
 5   0  0.1220908E-05  0.2708575E+04  0.7818609E-02  0.8332228E-01
        2   -1    0    0  501    0  0.00000000000E+00  0.00000000000E+00  0.28130762405E+04  0.28130762405E+04  0.25500000920E-02 0. -1.
       -2   -1    0    0    0  501  0.00000000000E+00  0.00000000000E+00 -0.65198903202E+03  0.65198903202E+03  0.25500000920E-02 0.  1.
    10030    2    1    2    0    0  0.00000000000E+00  0.00000000000E+00  0.21610872085E+04  0.34650652725E+04  0.27085751642E+04 0.  0.
        2    1    3    3  502    0  0.41588378867E+03 -0.21843278406E+03 -0.54442360827E+03  0.71907528958E+03  0.25500000920E-02 0.  1.
       -2    1    3    3    0  502 -0.41588378867E+03  0.21843278406E+03  0.27055108168E+04  0.27459899830E+04  0.25500000920E-02 0. -1.
</event>
<event>
 5   0  0.1220908E-05  0.2686616E+04  0.7818609E-02  0.8339361E-01
       -2   -1    0    0    0  501  0.00000000000E+00  0.00000000000E+00  0.55559945573E+03  0.55559945574E+03  0.25500000920E-02 0.  1.
        2   -1    0    0  501    0  0.00000000000E+00  0.00000000000E+00 -0.32477999971E+04  0.32477999971E+04  0.25500000920E-02 0. -1.
    10030    2    1    2    0    0  0.00000000000E+00  0.00000000000E+00 -0.26922005413E+04  0.38033994528E+04  0.26866156485E+04 0.  0.
        2    1    3    3  502    0  0.46754071519E+03  0.82633923555E+03 -0.79417563615E+00  0.94943745623E+03  0.25500000920E-02 0.  1.
       -2    1    3    3    0  502 -0.46754071519E+03 -0.82633923555E+03 -0.26914063657E+04  0.28539619966E+04  0.25500000920E-02 0. -1.
</event>
<event>
 5   0  0.1220908E-05  0.2699095E+04  0.7818609E-02  0.8335299E-01
        2   -1    0    0  501    0  0.00000000000E+00  0.00000000000E+00  0.18284262547E+04  0.18284262547E+04  0.25500000920E-02 0. -1.
       -2   -1    0    0    0  501  0.00000000000E+00  0.00000000000E+00 -0.99609059507E+03  0.99609059508E+03  0.25500000920E-02 0.  1.
    10030    2    1    2    0    0  0.00000000000E+00  0.00000000000E+00  0.83233565966E+03  0.28245168498E+04  0.26990948084E+04 0.  0.
        2    1    3    3  502    0 -0.12942015537E+04 -0.28064220256E+03  0.14416562711E+03  0.13321041384E+04  0.25500000920E-02 0.  1.
       -2    1    3    3    0  502  0.12942015537E+04  0.28064220256E+03  0.68817003255E+03  0.14924127114E+04  0.25500000920E-02 0. -1.
</event>
<event>
 5   0  0.1232559E-05  0.2671982E+04  0.7818609E-02  0.8344154E-01
       -2   -1    0    0    0  501  0.00000000000E+00  0.00000000000E+00  0.87500157673E+03  0.87500157673E+03  0.25500000920E-02 0. -1.
        2   -1    0    0  501    0  0.00000000000E+00  0.00000000000E+00 -0.20398497674E+04  0.20398497674E+04  0.25500000920E-02 0.  1.
    10030    2    1    2    0    0  0.00000000000E+00  0.00000000000E+00 -0.11648481906E+04  0.29148513441E+04  0.26719818583E+04 0.  0.
        3    1    3    3  502    0  0.14369918311E+03  0.10736026144E+04  0.27070852120E+03  0.11164923388E+04  0.10100000352E+00 0. -1.
       -3    1    3    3    0  502 -0.14369918311E+03 -0.10736026144E+04 -0.14355567118E+04  0.17983590053E+04  0.10100000352E+00 0.  1.
</event>
<event>
 5   0  0.1286641E-05  0.2680546E+04  0.7818609E-02  0.8341345E-01
        2   -1    0    0  501    0  0.00000000000E+00  0.00000000000E+00  0.16977825205E+04  0.16977825205E+04  0.25500000920E-02 0. -1.
       -2   -1    0    0    0  501  0.00000000000E+00  0.00000000000E+00 -0.10580455281E+04  0.10580455281E+04  0.25500000920E-02 0.  1.
    10030    2    1    2    0    0  0.00000000000E+00  0.00000000000E+00  0.63973699239E+03  0.27558280487E+04  0.26805456188E+04 0.  0.
        4    1    3    3  502    0 -0.46314454106E+03 -0.11311767533E+04 -0.24535925311E+03  0.12467022455E+04  0.12699999809E+01 0.  1.
       -4    1    3    3    0  502  0.46314454106E+03  0.11311767533E+04  0.88509624549E+03  0.15091258031E+04  0.12699999809E+01 0. -1.
</event>
<event>
 5   0  0.1276517E-05  0.2705876E+04  0.7818609E-02  0.8333101E-01
       -2   -1    0    0    0  501  0.00000000000E+00  0.00000000000E+00  0.99071081790E+03  0.99071081791E+03  0.25500000920E-02 0. -1.
        2   -1    0    0  501    0  0.00000000000E+00  0.00000000000E+00 -0.18476034790E+04  0.18476034790E+04  0.25500000920E-02 0.  1.
    10030    2    1    2    0    0  0.00000000000E+00  0.00000000000E+00 -0.85689266114E+03  0.28383142970E+04  0.27058756467E+04 0.  0.
        1    1    3    3  502    0  0.61976811474E+03 -0.45789542552E+02  0.83213556575E+03  0.10385849980E+04  0.50400001928E-02 0. -1.
       -1    1    3    3    0  502 -0.61976811474E+03  0.45789542552E+02 -0.16890282269E+04  0.17997292990E+04  0.50400001928E-02 0.  1.
</event>
<event>
 5   0  0.4826140E-06  0.2686538E+04  0.7818609E-02  0.8339386E-01
       -1   -1    0    0    0  501  0.00000000000E+00  0.00000000000E+00  0.10255084476E+04  0.10255084477E+04  0.50400001928E-02 0.  1.
        1   -1    0    0  501    0  0.00000000000E+00  0.00000000000E+00 -0.17594895795E+04  0.17594895795E+04  0.50400001928E-02 0. -1.
    10030    2    1    2    0    0  0.00000000000E+00  0.00000000000E+00 -0.73398113190E+03  0.27849980272E+04  0.26865378668E+04 0.  0.
        1    1    3    3  502    0 -0.76999702718E+03  0.40357711106E+03 -0.14285325304E+04  0.16722664551E+04  0.50400001928E-02 0. -1.
       -1    1    3    3    0  502  0.76999702718E+03 -0.40357711106E+03  0.69455139847E+03  0.11127315721E+04  0.50400001928E-02 0.  1.
</event>
<event>
 5   0  0.5152288E-06  0.2694731E+04  0.7818609E-02  0.8336716E-01
       -1   -1    0    0    0  501  0.00000000000E+00  0.00000000000E+00  0.10908869203E+04  0.10908869203E+04  0.50400001928E-02 0. -1.
        1   -1    0    0  501    0  0.00000000000E+00  0.00000000000E+00 -0.16641452794E+04  0.16641452794E+04  0.50400001928E-02 0.  1.
    10030    2    1    2    0    0  0.00000000000E+00  0.00000000000E+00 -0.57325835909E+03  0.27550321997E+04  0.26947313920E+04 0.  0.
        3    1    3    3  502    0  0.15790532154E+03 -0.67387528975E+03 -0.14685045493E+04  0.16234369770E+04  0.10100000352E+00 0.  1.
       -3    1    3    3    0  502 -0.15790532154E+03  0.67387528975E+03  0.89524619025E+03  0.11315952227E+04  0.10100000352E+00 0. -1.
</event>
<event>
 5   0  0.4826140E-06  0.2732999E+04  0.7818609E-02  0.8324377E-01
        1   -1    0    0  501    0  0.00000000000E+00  0.00000000000E+00  0.13728624062E+04  0.13728624062E+04  0.50400001928E-02 0. -1.
       -1   -1    0    0    0  501  0.00000000000E+00  0.00000000000E+00 -0.13601664874E+04  0.13601664874E+04  0.50400001928E-02 0.  1.
    10030    2    1    2    0    0  0.00000000000E+00  0.00000000000E+00  0.12695918783E+02  0.27330288936E+04  0.27329994048E+04 0.  0.
        1    1    3    3  502    0 -0.11834221806E+03  0.58468774415E+03  0.12357744171E+04  0.13722255823E+04  0.50400001928E-02 0. -1.
       -1    1    3    3    0  502  0.11834221806E+03 -0.58468774415E+03 -0.12230784983E+04  0.13608033112E+04  0.50400001928E-02 0.  1.
</event>
<event>
 5   0  0.1286641E-05  0.2738621E+04  0.7818609E-02  0.8322582E-01
       -2   -1    0    0    0  501  0.00000000000E+00  0.00000000000E+00  0.90991657276E+03  0.90991657276E+03  0.25500000920E-02 0.  1.
        2   -1    0    0  501    0  0.00000000000E+00  0.00000000000E+00 -0.20606404938E+04  0.20606404938E+04  0.25500000920E-02 0. -1.
    10030    2    1    2    0    0  0.00000000000E+00  0.00000000000E+00 -0.11507239211E+04  0.29705570666E+04  0.27386207739E+04 0.  0.
        4    1    3    3  502    0  0.18099368626E+03  0.78608385795E+03 -0.17755629106E+04  0.19502081449E+04  0.12699999809E+01 0. -1.
       -4    1    3    3    0  502 -0.18099368626E+03 -0.78608385795E+03  0.62483898953E+03  0.10203489217E+04  0.12699999809E+01 0.  1.
</event>
<event>
 5   0  0.1220908E-05  0.2680255E+04  0.7818609E-02  0.8341440E-01
        2   -1    0    0  501    0  0.00000000000E+00  0.00000000000E+00  0.24679708832E+04  0.24679708832E+04  0.25500000920E-02 0.  1.
       -2   -1    0    0    0  501  0.00000000000E+00  0.00000000000E+00 -0.72769966975E+03  0.72769966976E+03  0.25500000920E-02 0. -1.
    10030    2    1    2    0    0  0.00000000000E+00  0.00000000000E+00  0.17402712134E+04  0.31956705529E+04  0.26802549108E+04 0.  0.
        2    1    3    3  502    0  0.56944030833E+03  0.16575632921E+03  0.23029838577E+04  0.23781236457E+04  0.25500000920E-02 0.  1.
       -2    1    3    3    0  502 -0.56944030833E+03 -0.16575632921E+03 -0.56271264430E+03  0.81754690721E+03  0.25500000920E-02 0. -1.
</event>
<event>
 5   0  0.1220908E-05  0.2673407E+04  0.7818609E-02  0.8343685E-01
       -2   -1    0    0    0  501  0.00000000000E+00  0.00000000000E+00  0.14957196806E+04  0.14957196806E+04  0.25500000920E-02 0. -1.
        2   -1    0    0  501    0  0.00000000000E+00  0.00000000000E+00 -0.11945928669E+04  0.11945928669E+04  0.25500000920E-02 0.  1.
    10030    2    1    2    0    0  0.00000000000E+00  0.00000000000E+00  0.30112681369E+03  0.26903125476E+04  0.26734068612E+04 0.  0.
        2    1    3    3  502    0 -0.69475375878E+03  0.91830092126E+03 -0.53256411230E+03  0.12686937775E+04  0.25500000920E-02 0.  1.
       -2    1    3    3    0  502  0.69475375878E+03 -0.91830092126E+03  0.83369092599E+03  0.14216187701E+04  0.25500000920E-02 0. -1.
</event>
<event>
 5   0  0.1276517E-05  0.2684309E+04  0.7818609E-02  0.8340114E-01
       -2   -1    0    0    0  501  0.00000000000E+00  0.00000000000E+00  0.97548531086E+03  0.97548531087E+03  0.25500000920E-02 0. -1.
        2   -1    0    0  501    0  0.00000000000E+00  0.00000000000E+00 -0.18466485838E+04  0.18466485838E+04  0.25500000920E-02 0.  1.
    10030    2    1    2    0    0  0.00000000000E+00  0.00000000000E+00 -0.87116327297E+03  0.28221338947E+04  0.26843089002E+04 0.  0.
        1    1    3    3  502    0  0.11612984508E+04 -0.64931565821E+03 -0.25001512432E+03  0.13537845022E+04  0.50400001928E-02 0.  1.
       -1    1    3    3    0  502 -0.11612984508E+04  0.64931565821E+03 -0.62114814865E+03  0.14683493925E+04  0.50400001928E-02 0. -1.
</event>
<event>
 5   0  0.1261364E-05  0.2723510E+04  0.7818609E-02  0.8327417E-01
        2   -1    0    0  501    0  0.00000000000E+00  0.00000000000E+00  0.13679341163E+04  0.13679341163E+04  0.25500000920E-02 0.  1.
       -2   -1    0    0    0  501  0.00000000000E+00  0.00000000000E+00 -0.13556034073E+04  0.13556034073E+04  0.25500000920E-02 0. -1.
    10030    2    1    2    0    0  0.00000000000E+00  0.00000000000E+00  0.12330709001E+02  0.27235375237E+04  0.27235096101E+04 0.  0.
        5    1    3    3  502    0  0.12956731590E+04 -0.41121903484E+03  0.86689652143E+02  0.13621333324E+04  0.46999998093E+01 0.  1.
       -5    1    3    3    0  502 -0.12956731590E+04  0.41121903484E+03 -0.74358943142E+02  0.13614041912E+04  0.46999998093E+01 0. -1.
</event>
<event>
 5   0  0.4846214E-06  0.2705171E+04  0.7818609E-02  0.8333329E-01
        1   -1    0    0  501    0  0.00000000000E+00  0.00000000000E+00  0.20420681161E+04  0.20420681161E+04  0.50400001928E-02 0.  1.
       -1   -1    0    0    0  501  0.00000000000E+00  0.00000000000E+00 -0.89589906486E+03  0.89589906488E+03  0.50400001928E-02 0. -1.
    10030    2    1    2    0    0  0.00000000000E+00  0.00000000000E+00  0.11461690512E+04  0.29379671810E+04  0.27051705422E+04 0.  0.
        2    1    3    3  502    0  0.81500389175E+03  0.57412171478E+02 -0.59762127479E+03  0.10122641400E+04  0.25500000920E-02 0. -1.
       -2    1    3    3    0  502 -0.81500389175E+03 -0.57412171478E+02  0.17437903260E+04  0.19257030410E+04  0.25500000920E-02 0.  1.
</event>
<event>
 5   0  0.5152288E-06  0.2691979E+04  0.7818609E-02  0.8337612E-01
       -1   -1    0    0    0  501  0.00000000000E+00  0.00000000000E+00  0.16693936709E+04  0.16693936710E+04  0.50400001928E-02 0.  1.
        1   -1    0    0  501    0  0.00000000000E+00  0.00000000000E+00 -0.10852366726E+04  0.10852366727E+04  0.50400001928E-02 0. -1.
    10030    2    1    2    0    0  0.00000000000E+00  0.00000000000E+00  0.58415699831E+03  0.27546303436E+04  0.26919786276E+04 0.  0.
        3    1    3    3  502    0  0.59603813802E+03 -0.85316655361E+03 -0.58132758398E+03  0.11920974793E+04  0.10100000352E+00 0. -1.
       -3    1    3    3    0  502 -0.59603813802E+03  0.85316655361E+03  0.11654845823E+04  0.15625328643E+04  0.10100000352E+00 0.  1.
</event>
<event>
 5   0  0.4826140E-06  0.2687869E+04  0.7818609E-02  0.8338952E-01
        1   -1    0    0  501    0  0.00000000000E+00  0.00000000000E+00  0.17371095794E+04  0.17371095794E+04  0.50400001928E-02 0.  1.
       -1   -1    0    0    0  501  0.00000000000E+00  0.00000000000E+00 -0.10397500650E+04  0.10397500651E+04  0.50400001928E-02 0. -1.
    10030    2    1    2    0    0  0.00000000000E+00  0.00000000000E+00  0.69735951438E+03  0.27768596445E+04  0.26878688943E+04 0.  0.
        1    1    3    3  502    0  0.50114728789E+03  0.11307825299E+04  0.89176668111E+03  0.15248165620E+04  0.50400001928E-02 0.  1.
       -1    1    3    3    0  502 -0.50114728789E+03 -0.11307825299E+04 -0.19440716673E+03  0.12520430825E+04  0.50400001928E-02 0. -1.
</event>
<event>
 5   0  0.4846214E-06  0.2726360E+04  0.7818609E-02  0.8326502E-01
        1   -1    0    0  501    0  0.00000000000E+00  0.00000000000E+00  0.19337512772E+04  0.19337512772E+04  0.50400001928E-02 0. -1.
       -1   -1    0    0    0  501  0.00000000000E+00  0.00000000000E+00 -0.96096125334E+03  0.96096125336E+03  0.50400001928E-02 0.  1.
    10030    2    1    2    0    0  0.00000000000E+00  0.00000000000E+00  0.97279002390E+03  0.28947125306E+04  0.27263602484E+04 0.  0.
        2    1    3    3  502    0  0.13581649295E+04 -0.85201704286E+02  0.57126027773E+03  0.14758758793E+04  0.25500000920E-02 0.  1.
       -2    1    3    3    0  502 -0.13581649295E+04  0.85201704286E+02  0.40152974617E+03  0.14188366513E+04  0.25500000920E-02 0. -1.
</event>
<event>
 5   0  0.1232559E-05  0.2685964E+04  0.7818609E-02  0.8339573E-01
       -2   -1    0    0    0  501  0.00000000000E+00  0.00000000000E+00  0.93611914010E+03  0.93611914010E+03  0.25500000920E-02 0.  1.
        2   -1    0    0  501    0  0.00000000000E+00  0.00000000000E+00 -0.19266789563E+04  0.19266789563E+04  0.25500000920E-02 0. -1.
    10030    2    1    2    0    0  0.00000000000E+00  0.00000000000E+00 -0.99055981616E+03  0.28627980964E+04  0.26859642945E+04 0.  0.
        3    1    3    3  502    0 -0.32091342117E+03 -0.38831165587E+03  0.83160260397E+03  0.97228301801E+03  0.10100000352E+00 0.  1.
       -3    1    3    3    0  502  0.32091342117E+03  0.38831165587E+03 -0.18221624201E+04  0.18905150784E+04  0.10100000352E+00 0. -1.
</event>
<event>
 5   0  0.4846214E-06  0.2656485E+04  0.7818609E-02  0.8349264E-01
       -1   -1    0    0    0  501  0.00000000000E+00  0.00000000000E+00  0.11458679404E+04  0.11458679405E+04  0.50400001928E-02 0.  1.
        1   -1    0    0  501    0  0.00000000000E+00  0.00000000000E+00 -0.15396430503E+04  0.15396430503E+04  0.50400001928E-02 0. -1.
    10030    2    1    2    0    0  0.00000000000E+00  0.00000000000E+00 -0.39377510984E+03  0.26855109907E+04  0.26564846027E+04 0.  0.
        2    1    3    3  502    0  0.64022997612E+03  0.10429614271E+04  0.32505283928E+03  0.12662236410E+04  0.25500000920E-02 0. -1.
       -2    1    3    3    0  502 -0.64022997612E+03 -0.10429614271E+04 -0.71882794912E+03  0.14192873497E+04  0.25500000920E-02 0.  1.
</event>
<event>
 5   0  0.1261364E-05  0.2677018E+04  0.7818609E-02  0.8342501E-01
        2   -1    0    0  501    0  0.00000000000E+00  0.00000000000E+00  0.20407309321E+04  0.20407309321E+04  0.25500000920E-02 0.  1.
       -2   -1    0    0    0  501  0.00000000000E+00  0.00000000000E+00 -0.87792376925E+03  0.87792376925E+03  0.25500000920E-02 0. -1.
    10030    2    1    2    0    0  0.00000000000E+00  0.00000000000E+00  0.11628071628E+04  0.29186547013E+04  0.26770178871E+04 0.  0.
        5    1    3    3  502    0  0.68329206247E+01  0.48310159569E+03 -0.77952743855E+03  0.91712537747E+03  0.46999998093E+01 0. -1.
       -5    1    3    3    0  502 -0.68329206247E+01 -0.48310159569E+03  0.19423346014E+04  0.20015293238E+04  0.46999998093E+01 0.  1.
</event>
<event>
 5   0  0.1276517E-05  0.2693785E+04  0.7818609E-02  0.8337024E-01
        2   -1    0    0  501    0  0.00000000000E+00  0.00000000000E+00  0.15127931502E+04  0.15127931502E+04  0.25500000920E-02 0.  1.
       -2   -1    0    0    0  501  0.00000000000E+00  0.00000000000E+00 -0.11991857038E+04  0.11991857038E+04  0.25500000920E-02 0. -1.
    10030    2    1    2    0    0  0.00000000000E+00  0.00000000000E+00  0.31360744638E+03  0.27119788541E+04  0.26937853802E+04 0.  0.
        1    1    3    3  502    0 -0.13362919049E+04  0.33220970009E+02 -0.96618357278E+01  0.13367397051E+04  0.50400001928E-02 0. -1.
       -1    1    3    3    0  502  0.13362919049E+04 -0.33220970009E+02  0.32326928211E+03  0.13752391490E+04  0.50400001928E-02 0.  1.
</event>
<event>
 5   0  0.4824715E-06  0.2710479E+04  0.7818609E-02  0.8331613E-01
       -1   -1    0    0    0  501  0.00000000000E+00  0.00000000000E+00  0.88215875676E+03  0.88215875677E+03  0.50400001928E-02 0. -1.
        1   -1    0    0  501    0  0.00000000000E+00  0.00000000000E+00 -0.20820215779E+04  0.20820215780E+04  0.50400001928E-02 0.  1.
    10030    2    1    2    0    0  0.00000000000E+00  0.00000000000E+00 -0.11998628212E+04  0.29641803347E+04  0.27104786048E+04 0.  0.
        5    1    3    3  502    0 -0.12850075779E+03  0.13337100358E+04 -0.82232942555E+03  0.15721140794E+04  0.46999998093E+01 0.  1.
       -5    1    3    3    0  502  0.12850075779E+03 -0.13337100358E+04 -0.37753339564E+03  0.13920662554E+04  0.46999998093E+01 0. -1.
</event>
<event>
 5   0  0.5152288E-06  0.2699623E+04  0.7818609E-02  0.8335127E-01
       -1   -1    0    0    0  501  0.00000000000E+00  0.00000000000E+00  0.17601009806E+04  0.17601009806E+04  0.50400001928E-02 0.  1.
        1   -1    0    0  501    0  0.00000000000E+00  0.00000000000E+00 -0.10351631563E+04  0.10351631563E+04  0.50400001928E-02 0. -1.
    10030    2    1    2    0    0  0.00000000000E+00  0.00000000000E+00  0.72493782427E+03  0.27952641369E+04  0.26996234452E+04 0.  0.
        3    1    3    3  502    0  0.12568166222E+04 -0.17181641432E+03 -0.11526923614E+03  0.12737330604E+04  0.10100000352E+00 0. -1.
       -3    1    3    3    0  502 -0.12568166222E+04  0.17181641432E+03  0.84020706041E+03  0.15215310765E+04  0.10100000352E+00 0.  1.
</event>
<event>
 5   0  0.4826140E-06  0.2703612E+04  0.7818609E-02  0.8333834E-01
       -1   -1    0    0    0  501  0.00000000000E+00  0.00000000000E+00  0.59811968182E+03  0.59811968184E+03  0.50400001928E-02 0.  1.
        1   -1    0    0  501    0  0.00000000000E+00  0.00000000000E+00 -0.30552074151E+04  0.30552074151E+04  0.50400001928E-02 0. -1.
    10030    2    1    2    0    0  0.00000000000E+00  0.00000000000E+00 -0.24570877333E+04  0.36533270970E+04  0.27036121668E+04 0.  0.
        1    1    3    3  502    0 -0.60590890685E+03 -0.72003797075E+03  0.82820479100E+02  0.94469016852E+03  0.50400001928E-02 0.  1.
       -1    1    3    3    0  502  0.60590890685E+03  0.72003797075E+03 -0.25399082124E+04  0.27086369284E+04  0.50400001928E-02 0. -1.
</event>
<event>
 5   0  0.4824715E-06  0.2704298E+04  0.7818609E-02  0.8333612E-01
        1   -1    0    0  501    0  0.00000000000E+00  0.00000000000E+00  0.17008765750E+04  0.17008765750E+04  0.50400001928E-02 0.  1.
       -1   -1    0    0    0  501  0.00000000000E+00  0.00000000000E+00 -0.10749206064E+04  0.10749206064E+04  0.50400001928E-02 0. -1.
    10030    2    1    2    0    0  0.00000000000E+00  0.00000000000E+00  0.62595596861E+03  0.27757971815E+04  0.27042982672E+04 0.  0.
        5    1    3    3  502    0  0.48596775783E+03  0.10933185074E+04  0.95953284845E+03  0.15336999047E+04  0.46999998093E+01 0. -1.
       -5    1    3    3    0  502 -0.48596775783E+03 -0.10933185074E+04 -0.33357687984E+03  0.12420972768E+04  0.46999998093E+01 0.  1.
</event>
<event>
 5   0  0.1220908E-05  0.2656307E+04  0.7818609E-02  0.8349323E-01
       -2   -1    0    0    0  501  0.00000000000E+00  0.00000000000E+00  0.17304428003E+04  0.17304428003E+04  0.25500000920E-02 0. -1.
        2   -1    0    0  501    0  0.00000000000E+00  0.00000000000E+00 -0.10193872885E+04  0.10193872885E+04  0.25500000920E-02 0.  1.
    10030    2    1    2    0    0  0.00000000000E+00  0.00000000000E+00  0.71105551178E+03  0.27498300889E+04  0.26563067550E+04 0.  0.
        2    1    3    3  502    0 -0.62885120532E+03 -0.10197914693E+04  0.94891322152E+03  0.15283536178E+04  0.25500000920E-02 0. -1.
       -2    1    3    3    0  502  0.62885120532E+03  0.10197914693E+04 -0.23785770975E+03  0.12214764710E+04  0.25500000920E-02 0.  1.
</event>
<event>
 5   0  0.4846214E-06  0.2713095E+04  0.7818609E-02  0.8330769E-01
        1   -1    0    0  501    0  0.00000000000E+00  0.00000000000E+00  0.15345268274E+04  0.15345268274E+04  0.50400001928E-02 0. -1.
       -1   -1    0    0    0  501  0.00000000000E+00  0.00000000000E+00 -0.11992106347E+04  0.11992106347E+04  0.50400001928E-02 0.  1.
    10030    2    1    2    0    0  0.00000000000E+00  0.00000000000E+00  0.33531619270E+03  0.27337374620E+04  0.27130948311E+04 0.  0.
        2    1    3    3  502    0  0.81959265114E+03 -0.44805211146E+03 -0.82356347799E+03  0.12452869592E+04  0.25500000920E-02 0.  1.
       -2    1    3    3    0  502 -0.81959265114E+03  0.44805211146E+03  0.11588796707E+04  0.14884505029E+04  0.25500000920E-02 0. -1.
</event>
<event>
 5   0  0.1261364E-05  0.2718352E+04  0.7818609E-02  0.8329075E-01
        2   -1    0    0  501    0  0.00000000000E+00  0.00000000000E+00  0.12584115074E+04  0.12584115074E+04  0.25500000920E-02 0. -1.
       -2   -1    0    0    0  501  0.00000000000E+00  0.00000000000E+00 -0.14680095123E+04  0.14680095123E+04  0.25500000920E-02 0.  1.
    10030    2    1    2    0    0  0.00000000000E+00  0.00000000000E+00 -0.20959800490E+03  0.27264210198E+04  0.27183524888E+04 0.  0.
        5    1    3    3  502    0  0.84897161525E+03 -0.96020414862E+03  0.34886331654E+03  0.13283344888E+04  0.46999998093E+01 0. -1.
       -5    1    3    3    0  502 -0.84897161525E+03  0.96020414862E+03 -0.55846132144E+03  0.13980865310E+04  0.46999998093E+01 0.  1.
</event>
<event>
 5   0  0.4826140E-06  0.2692967E+04  0.7818609E-02  0.8337290E-01
        1   -1    0    0  501    0  0.00000000000E+00  0.00000000000E+00  0.14707501195E+04  0.14707501195E+04  0.50400001928E-02 0. -1.
       -1   -1    0    0    0  501  0.00000000000E+00  0.00000000000E+00 -0.12327166732E+04  0.12327166732E+04  0.50400001928E-02 0.  1.
    10030    2    1    2    0    0  0.00000000000E+00  0.00000000000E+00  0.23803344637E+03  0.27034667927E+04  0.26929672812E+04 0.  0.
        1    1    3    3  502    0  0.31131651865E+03  0.15421361134E+03  0.14249801006E+04  0.14667201846E+04  0.50400001928E-02 0. -1.
       -1    1    3    3    0  502 -0.31131651865E+03 -0.15421361134E+03 -0.11869466542E+04  0.12367466081E+04  0.50400001928E-02 0.  1.
</event>
<event>
 5   0  0.1232559E-05  0.2677245E+04  0.7818609E-02  0.8342426E-01
        2   -1    0    0  501    0  0.00000000000E+00  0.00000000000E+00  0.24298735290E+04  0.24298735290E+04  0.25500000920E-02 0. -1.
       -2   -1    0    0    0  501  0.00000000000E+00  0.00000000000E+00 -0.73745016848E+03  0.73745016848E+03  0.25500000920E-02 0.  1.
    10030    2    1    2    0    0  0.00000000000E+00  0.00000000000E+00  0.16924233605E+04  0.31673236975E+04  0.26772453331E+04 0.  0.
        3    1    3    3  502    0  0.73809997874E+03  0.89926765954E+03  0.16295651032E+04  0.20022378325E+04  0.10100000352E+00 0. -1.
       -3    1    3    3    0  502 -0.73809997874E+03 -0.89926765954E+03  0.62858257322E+02  0.11650858650E+04  0.10100000352E+00 0.  1.
</event>
<event>
 5   0  0.1261364E-05  0.2684284E+04  0.7818609E-02  0.8340122E-01
       -2   -1    0    0    0  501  0.00000000000E+00  0.00000000000E+00  0.11544272412E+04  0.11544272412E+04  0.25500000920E-02 0. -1.
        2   -1    0    0  501    0  0.00000000000E+00  0.00000000000E+00 -0.15603802648E+04  0.15603802648E+04  0.25500000920E-02 0.  1.
    10030    2    1    2    0    0  0.00000000000E+00  0.00000000000E+00 -0.40595302361E+03  0.27148075061E+04  0.26842842505E+04 0.  0.
        5    1    3    3  502    0  0.67457234142E+03 -0.99858159622E+03  0.39459776964E+03  0.12680467412E+04  0.46999998093E+01 0. -1.
       -5    1    3    3    0  502 -0.67457234142E+03  0.99858159622E+03 -0.80055079325E+03  0.14467607648E+04  0.46999998093E+01 0.  1.
</event>
<event>
 5   0  0.1261364E-05  0.2695785E+04  0.7818609E-02  0.8336374E-01
       -2   -1    0    0    0  501  0.00000000000E+00  0.00000000000E+00  0.15788867578E+04  0.15788867578E+04  0.25500000920E-02 0.  1.
        2   -1    0    0  501    0  0.00000000000E+00  0.00000000000E+00 -0.11506934057E+04  0.11506934057E+04  0.25500000920E-02 0. -1.
    10030    2    1    2    0    0  0.00000000000E+00  0.00000000000E+00  0.42819335210E+03  0.27295801635E+04  0.26957852886E+04 0.  0.
        5    1    3    3  502    0  0.27557876484E+03 -0.13042473971E+04  0.12127906506E+02  0.13331069366E+04  0.46999998093E+01 0.  1.
       -5    1    3    3    0  502 -0.27557876484E+03  0.13042473971E+04  0.41606544559E+03  0.13964732269E+04  0.46999998093E+01 0. -1.
</event>
<event>
 5   0  0.1232559E-05  0.2695725E+04  0.7818609E-02  0.8336394E-01
       -2   -1    0    0    0  501  0.00000000000E+00  0.00000000000E+00  0.11922126019E+04  0.11922126019E+04  0.25500000920E-02 0. -1.
        2   -1    0    0  501    0  0.00000000000E+00  0.00000000000E+00 -0.15238328294E+04  0.15238328294E+04  0.25500000920E-02 0.  1.
    10030    2    1    2    0    0  0.00000000000E+00  0.00000000000E+00 -0.33162022749E+03  0.27160454314E+04  0.26957245427E+04 0.  0.
        3    1    3    3  502    0 -0.98927536881E+02 -0.13257180816E+04 -0.38978656263E+03  0.13853695045E+04  0.10100000352E+00 0. -1.
       -3    1    3    3    0  502  0.98927536881E+02  0.13257180816E+04  0.58166335139E+02  0.13306759268E+04  0.10100000352E+00 0.  1.
</event>
<event>
 5   0  0.4826140E-06  0.2577881E+04  0.7818609E-02  0.8375754E-01
       -1   -1    0    0    0  501  0.00000000000E+00  0.00000000000E+00  0.10633144787E+04  0.10633144787E+04  0.50400001928E-02 0.  1.
        1   -1    0    0  501    0  0.00000000000E+00  0.00000000000E+00 -0.15624420381E+04  0.15624420381E+04  0.50400001928E-02 0. -1.
    10030    2    1    2    0    0  0.00000000000E+00  0.00000000000E+00 -0.49912755940E+03  0.26257565169E+04  0.25778807120E+04 0.  0.
        1    1    3    3  502    0  0.10129749186E+04 -0.29736505064E+03 -0.10027720053E+04  0.14560548938E+04  0.50400001928E-02 0. -1.
       -1    1    3    3    0  502 -0.10129749186E+04  0.29736505064E+03  0.50364444591E+03  0.11697016231E+04  0.50400001928E-02 0.  1.
</event>
<event>
 5   0  0.4756800E-06  0.2690085E+04  0.7818609E-02  0.8338229E-01
        1   -1    0    0  501    0  0.00000000000E+00  0.00000000000E+00  0.13978174647E+04  0.13978174647E+04  0.50400001928E-02 0. -1.
       -1   -1    0    0    0  501  0.00000000000E+00  0.00000000000E+00 -0.12942604381E+04  0.12942604381E+04  0.50400001928E-02 0.  1.
    10030    2    1    2    0    0  0.00000000000E+00  0.00000000000E+00  0.10355702660E+03  0.26920779029E+04  0.26900853848E+04 0.  0.
        4    1    3    3  502    0 -0.96474373541E+03  0.45671359984E+03 -0.76725327461E+03  0.13145329922E+04  0.12699999809E+01 0.  1.
       -4    1    3    3    0  502  0.96474373541E+03 -0.45671359984E+03  0.87081030121E+03  0.13775449107E+04  0.12699999809E+01 0. -1.
</event>
<event>
 5   0  0.4824715E-06  0.2710879E+04  0.7818609E-02  0.8331484E-01
        1   -1    0    0  501    0  0.00000000000E+00  0.00000000000E+00  0.20615181172E+04  0.20615181172E+04  0.50400001928E-02 0. -1.
       -1   -1    0    0    0  501  0.00000000000E+00  0.00000000000E+00 -0.89119556748E+03  0.89119556749E+03  0.50400001928E-02 0.  1.
    10030    2    1    2    0    0  0.00000000000E+00  0.00000000000E+00  0.11703225497E+04  0.29527136847E+04  0.27108786829E+04 0.  0.
        5    1    3    3  502    0 -0.10800316851E+04 -0.78123769396E+03  0.31748840725E+03  0.13702633885E+04  0.46999998093E+01 0. -1.
       -5    1    3    3    0  502  0.10800316851E+04  0.78123769396E+03  0.85283414247E+03  0.15824502961E+04  0.46999998093E+01 0.  1.
</event>
<event>
 5   0  0.1220908E-05  0.2688174E+04  0.7818609E-02  0.8338852E-01
       -2   -1    0    0    0  501  0.00000000000E+00  0.00000000000E+00  0.71098683167E+03  0.71098683167E+03  0.25500000920E-02 0. -1.
        2   -1    0    0  501    0  0.00000000000E+00  0.00000000000E+00 -0.25409325814E+04  0.25409325814E+04  0.25500000920E-02 0.  1.
    10030    2    1    2    0    0  0.00000000000E+00  0.00000000000E+00 -0.18299457498E+04  0.32519194131E+04  0.26881738080E+04 0.  0.
        2    1    3    3  502    0 -0.37897081349E+03 -0.11459428879E+04 -0.16304092087E+04  0.20285556851E+04  0.25500000920E-02 0.  1.
       -2    1    3    3    0  502  0.37897081349E+03  0.11459428879E+04 -0.19953654103E+03  0.12233637280E+04  0.25500000920E-02 0. -1.
</event>
<event>
 5   0  0.5152288E-06  0.2359455E+04  0.7818609E-02  0.8454841E-01
       -1   -1    0    0    0  501  0.00000000000E+00  0.00000000000E+00  0.23377798553E+04  0.23377798553E+04  0.50400001928E-02 0.  1.
        1   -1    0    0  501    0  0.00000000000E+00  0.00000000000E+00 -0.59533255238E+03  0.59533255240E+03  0.50400001928E-02 0. -1.
    10030    2    1    2    0    0  0.00000000000E+00  0.00000000000E+00  0.17424473029E+04  0.29331124077E+04  0.23594545541E+04 0.  0.
        3    1    3    3  502    0  0.76567029448E+03 -0.16310059581E+03 -0.22590853301E+03  0.81479290601E+03  0.10100000352E+00 0. -1.
       -3    1    3    3    0  502 -0.76567029448E+03  0.16310059581E+03  0.19683558359E+04  0.21183195017E+04  0.10100000352E+00 0.  1.
</event>
<event>
 5   0  0.4756800E-06  0.2693653E+04  0.7818609E-02  0.8337067E-01
       -1   -1    0    0    0  501  0.00000000000E+00  0.00000000000E+00  0.21916972374E+04  0.21916972374E+04  0.50400001928E-02 0. -1.
        1   -1    0    0  501    0  0.00000000000E+00  0.00000000000E+00 -0.82764236720E+03  0.82764236722E+03  0.50400001928E-02 0.  1.
    10030    2    1    2    0    0  0.00000000000E+00  0.00000000000E+00  0.13640548702E+04  0.30193396047E+04  0.26936529025E+04 0.  0.
        4    1    3    3  502    0  0.13687757821E+03 -0.69665069030E+03 -0.60085380561E+03  0.93009922284E+03  0.12699999809E+01 0.  1.
       -4    1    3    3    0  502 -0.13687757821E+03  0.69665069030E+03  0.19649086758E+04  0.20892403818E+04  0.12699999809E+01 0. -1.
</event>
<event>
 5   0  0.1286641E-05  0.2937594E+04  0.7818609E-02  0.8261779E-01
        2   -1    0    0  501    0  0.00000000000E+00  0.00000000000E+00  0.14528612591E+04  0.14528612591E+04  0.25500000920E-02 0.  1.
       -2   -1    0    0    0  501  0.00000000000E+00  0.00000000000E+00 -0.14849074055E+04  0.14849074055E+04  0.25500000920E-02 0. -1.
    10030    2    1    2    0    0  0.00000000000E+00  0.00000000000E+00 -0.32046146392E+02  0.29377686646E+04  0.29375938744E+04 0.  0.
        4    1    3    3  502    0 -0.13949330749E+04  0.24625686545E+03 -0.40448164048E+03  0.14731217660E+04  0.12699999809E+01 0. -1.
       -4    1    3    3    0  502  0.13949330749E+04 -0.24625686545E+03  0.37243549408E+03  0.14646468985E+04  0.12699999809E+01 0.  1.
</event>
<event>
 5   0  0.4756800E-06  0.2617154E+04  0.7818609E-02  0.8362398E-01
        1   -1    0    0  501    0  0.00000000000E+00  0.00000000000E+00  0.20039445673E+04  0.20039445673E+04  0.50400001928E-02 0.  1.
       -1   -1    0    0    0  501  0.00000000000E+00  0.00000000000E+00 -0.85450144845E+03  0.85450144846E+03  0.50400001928E-02 0. -1.
    10030    2    1    2    0    0  0.00000000000E+00  0.00000000000E+00  0.11494431188E+04  0.28584460157E+04  0.26171538246E+04 0.  0.
        4    1    3    3  502    0 -0.78964948774E+03 -0.19808984893E+03  0.16936691983E+04  0.18791761141E+04  0.12699999809E+01 0.  1.
       -4    1    3    3    0  502  0.78964948774E+03  0.19808984893E+03 -0.54422607947E+03  0.97926990162E+03  0.12699999809E+01 0. -1.
</event>
<event>
 5   0  0.4756800E-06  0.2709485E+04  0.7818609E-02  0.8331934E-01
       -1   -1    0    0    0  501  0.00000000000E+00  0.00000000000E+00  0.77712061300E+03  0.77712061302E+03  0.50400001928E-02 0. -1.
        1   -1    0    0  501    0  0.00000000000E+00  0.00000000000E+00 -0.23617023864E+04  0.23617023864E+04  0.50400001928E-02 0.  1.
    10030    2    1    2    0    0  0.00000000000E+00  0.00000000000E+00 -0.15845817734E+04  0.31388229994E+04  0.27094852694E+04 0.  0.
        4    1    3    3  502    0 -0.57311066267E+03  0.28114255759E+03  0.59197059633E+03  0.87059047156E+03  0.12699999809E+01 0. -1.
       -4    1    3    3    0  502  0.57311066267E+03 -0.28114255759E+03 -0.21765523697E+04  0.22682325279E+04  0.12699999809E+01 0.  1.
</event>
<event>
 5   0  0.4826140E-06  0.2721013E+04  0.7818609E-02  0.8328219E-01
       -1   -1    0    0    0  501  0.00000000000E+00  0.00000000000E+00  0.84875212174E+03  0.84875212175E+03  0.50400001928E-02 0. -1.
        1   -1    0    0  501    0  0.00000000000E+00  0.00000000000E+00 -0.21808223732E+04  0.21808223732E+04  0.50400001928E-02 0.  1.
    10030    2    1    2    0    0  0.00000000000E+00  0.00000000000E+00 -0.13320702514E+04  0.30295744949E+04  0.27210127647E+04 0.  0.
        1    1    3    3  502    0 -0.83480752813E+02 -0.21202735829E+03  0.82735416719E+03  0.85816056467E+03  0.50400001928E-02 0. -1.
       -1    1    3    3    0  502  0.83480752813E+02  0.21202735829E+03 -0.21594244186E+04  0.21714139303E+04  0.50400001928E-02 0.  1.
</event>
<event>
 5   0  0.1276517E-05  0.2728105E+04  0.7818609E-02  0.8325943E-01
       -2   -1    0    0    0  501  0.00000000000E+00  0.00000000000E+00  0.76235399470E+03  0.76235399470E+03  0.25500000920E-02 0. -1.
        2   -1    0    0  501    0  0.00000000000E+00  0.00000000000E+00 -0.24406498912E+04  0.24406498912E+04  0.25500000920E-02 0.  1.
    10030    2    1    2    0    0  0.00000000000E+00  0.00000000000E+00 -0.16782958965E+04  0.32030038860E+04  0.27281049791E+04 0.  0.
        1    1    3    3  502    0  0.65116634059E+03 -0.67214600044E+03  0.32599583872E+03  0.99099502315E+03  0.50400001928E-02 0. -1.
       -1    1    3    3    0  502 -0.65116634059E+03  0.67214600044E+03 -0.20042917353E+04  0.22120088628E+04  0.50400001928E-02 0.  1.
</event>
<event>
 5   0  0.5152288E-06  0.2691237E+04  0.7818609E-02  0.8337854E-01
        1   -1    0    0  501    0  0.00000000000E+00  0.00000000000E+00  0.15854234439E+04  0.15854234439E+04  0.50400001928E-02 0.  1.
       -1   -1    0    0    0  501  0.00000000000E+00  0.00000000000E+00 -0.11420859048E+04  0.11420859048E+04  0.50400001928E-02 0. -1.
    10030    2    1    2    0    0  0.00000000000E+00  0.00000000000E+00  0.44333753916E+03  0.27275093487E+04  0.26912374614E+04 0.  0.
        3    1    3    3  502    0 -0.58692276855E+03  0.55650690392E+02  0.14475640529E+04  0.15630153656E+04  0.10100000352E+00 0.  1.
       -3    1    3    3    0  502  0.58692276855E+03 -0.55650690392E+02 -0.10042265137E+04  0.11644939831E+04  0.10100000352E+00 0. -1.
</event>
<event>
 5   0  0.1220908E-05  0.2717753E+04  0.7818609E-02  0.8329268E-01
       -2   -1    0    0    0  501  0.00000000000E+00  0.00000000000E+00  0.92493162445E+03  0.92493162445E+03  0.25500000920E-02 0. -1.
        2   -1    0    0  501    0  0.00000000000E+00  0.00000000000E+00 -0.19964129734E+04  0.19964129734E+04  0.25500000920E-02 0.  1.
    10030    2    1    2    0    0  0.00000000000E+00  0.00000000000E+00 -0.10714813489E+04  0.29213445978E+04  0.27177531121E+04 0.  0.
        2    1    3    3  502    0 -0.10823968589E+04  0.31396399197E+03 -0.13518168215E+04  0.17599900759E+04  0.25500000920E-02 0.  1.
       -2    1    3    3    0  502  0.10823968589E+04 -0.31396399197E+03  0.28033547254E+03  0.11613545219E+04  0.25500000920E-02 0. -1.
</event>
<event>
 5   0  0.1232559E-05  0.2745835E+04  0.7818609E-02  0.8320285E-01
       -2   -1    0    0    0  501  0.00000000000E+00  0.00000000000E+00  0.85786412247E+03  0.85786412248E+03  0.25500000920E-02 0.  1.
        2   -1    0    0  501    0  0.00000000000E+00  0.00000000000E+00 -0.21972038181E+04  0.21972038181E+04  0.25500000920E-02 0. -1.
    10030    2    1    2    0    0  0.00000000000E+00  0.00000000000E+00 -0.13393396957E+04  0.30550679406E+04  0.27458349006E+04 0.  0.
        3    1    3    3  502    0  0.34764181474E+03  0.24777034516E+03 -0.21214808374E+04  0.21640069152E+04  0.10100000352E+00 0. -1.
       -3    1    3    3    0  502 -0.34764181474E+03 -0.24777034516E+03  0.78214114172E+03  0.89106102545E+03  0.10100000352E+00 0.  1.
</event>
<event>
 5   0  0.4824715E-06  0.2582440E+04  0.7818609E-02  0.8374191E-01
        1   -1    0    0  501    0  0.00000000000E+00  0.00000000000E+00  0.24518835611E+04  0.24518835611E+04  0.50400001928E-02 0. -1.
       -1   -1    0    0    0  501  0.00000000000E+00  0.00000000000E+00 -0.67998701866E+03  0.67998701868E+03  0.50400001928E-02 0.  1.
    10030    2    1    2    0    0  0.00000000000E+00  0.00000000000E+00  0.17718965424E+04  0.31318705798E+04  0.25824399260E+04 0.  0.
        5    1    3    3  502    0 -0.97090250153E+03  0.78300763208E+02  0.19138938168E+04  0.21475088612E+04  0.46999998093E+01 0. -1.
       -5    1    3    3    0  502  0.97090250153E+03 -0.78300763208E+02 -0.14199727440E+03  0.98436171854E+03  0.46999998093E+01 0.  1.
</event>
<event>
 5   0  0.1286641E-05  0.2710238E+04  0.7818609E-02  0.8331691E-01
        2   -1    0    0  501    0  0.00000000000E+00  0.00000000000E+00  0.17603590580E+04  0.17603590580E+04  0.25500000920E-02 0. -1.
       -2   -1    0    0    0  501  0.00000000000E+00  0.00000000000E+00 -0.10431667627E+04  0.10431667627E+04  0.25500000920E-02 0.  1.
    10030    2    1    2    0    0  0.00000000000E+00  0.00000000000E+00  0.71719229534E+03  0.28035258207E+04  0.27102384099E+04 0.  0.
        4    1    3    3  502    0  0.10084683525E+04 -0.31594483870E+03 -0.51884411805E+03  0.11772979193E+04  0.12699999809E+01 0.  1.
       -4    1    3    3    0  502 -0.10084683525E+04  0.31594483870E+03  0.12360364134E+04  0.16262279014E+04  0.12699999809E+01 0. -1.
</event>
<event>
 5   0  0.1286641E-05  0.2675888E+04  0.7818609E-02  0.8342871E-01
       -2   -1    0    0    0  501  0.00000000000E+00  0.00000000000E+00  0.77027637426E+03  0.77027637426E+03  0.25500000920E-02 0. -1.
        2   -1    0    0  501    0  0.00000000000E+00  0.00000000000E+00 -0.23239627412E+04  0.23239627412E+04  0.25500000920E-02 0.  1.
    10030    2    1    2    0    0  0.00000000000E+00  0.00000000000E+00 -0.15536863670E+04  0.30942391155E+04  0.26758875868E+04 0.  0.
        4    1    3    3  502    0  0.46331020847E+02  0.84872650227E+03  0.41794816088E+03  0.94718821637E+03  0.12699999809E+01 0.  1.
       -4    1    3    3    0  502 -0.46331020847E+02 -0.84872650227E+03 -0.19716345279E+04  0.21470508991E+04  0.12699999809E+01 0. -1.
</event>
<event>
 5   0  0.1220908E-05  0.2681236E+04  0.7818609E-02  0.8341119E-01
        2   -1    0    0  501    0  0.00000000000E+00  0.00000000000E+00  0.30198325698E+04  0.30198325698E+04  0.25500000920E-02 0.  1.
       -2   -1    0    0    0  501  0.00000000000E+00  0.00000000000E+00 -0.59515116447E+03  0.59515116448E+03  0.25500000920E-02 0. -1.
    10030    2    1    2    0    0  0.00000000000E+00  0.00000000000E+00  0.24246814054E+04  0.36149837343E+04  0.26812361854E+04 0.  0.
        2    1    3    3  502    0 -0.79740081362E+03  0.87193370405E+03  0.20662652393E+04  0.23802454665E+04  0.25500000920E-02 0.  1.
       -2    1    3    3    0  502  0.79740081362E+03 -0.87193370405E+03  0.35841616608E+03  0.12347382678E+04  0.25500000920E-02 0. -1.
</event>
<event>
 5   0  0.4824715E-06  0.2705736E+04  0.7818609E-02  0.8333146E-01
        1   -1    0    0  501    0  0.00000000000E+00  0.00000000000E+00  0.20339856627E+04  0.20339856627E+04  0.50400001928E-02 0. -1.
       -1   -1    0    0    0  501  0.00000000000E+00  0.00000000000E+00 -0.89983515037E+03  0.89983515039E+03  0.50400001928E-02 0.  1.
    10030    2    1    2    0    0  0.00000000000E+00  0.00000000000E+00  0.11341505123E+04  0.29338208131E+04  0.27057359773E+04 0.  0.
        5    1    3    3  502    0  0.70927783354E+03 -0.62572481330E+03 -0.48173914219E+03  0.10614618591E+04  0.46999998093E+01 0.  1.
       -5    1    3    3    0  502 -0.70927783354E+03  0.62572481330E+03  0.16158896545E+04  0.18723589540E+04  0.46999998093E+01 0. -1.
</event>
<event>
 5   0  0.1232559E-05  0.2698749E+04  0.7818609E-02  0.8335411E-01
        2   -1    0    0  501    0  0.00000000000E+00  0.00000000000E+00  0.17176124532E+04  0.17176124532E+04  0.25500000920E-02 0.  1.
       -2   -1    0    0    0  501  0.00000000000E+00  0.00000000000E+00 -0.10600826089E+04  0.10600826089E+04  0.25500000920E-02 0. -1.
    10030    2    1    2    0    0  0.00000000000E+00  0.00000000000E+00  0.65752984426E+03  0.27776950621E+04  0.26987486659E+04 0.  0.
        3    1    3    3  502    0 -0.10578434269E+04  0.83689887398E+03  0.36698111643E+03  0.13978939842E+04  0.10100000352E+00 0. -1.
       -3    1    3    3    0  502  0.10578434269E+04 -0.83689887398E+03  0.29054872783E+03  0.13798010779E+04  0.10100000352E+00 0.  1.
</event>
<event>
 5   0  0.4188000E-06  0.2702091E+04  0.7818609E-02  0.8334327E-01
        3   -1    0    0  501    0  0.00000000000E+00  0.00000000000E+00  0.94759805679E+03  0.94759806217E+03  0.10100000352E+00 0.  1.
       -3   -1    0    0    0  501  0.00000000000E+00  0.00000000000E+00 -0.19262636378E+04  0.19262636404E+04  0.10100000352E+00 0. -1.
    10030    2    1    2    0    0  0.00000000000E+00  0.00000000000E+00 -0.97866558097E+03  0.28738617026E+04  0.27020908138E+04 0.  0.
        1    1    3    3  502    0 -0.74799508839E+03  0.63778375371E+03 -0.14751068838E+04  0.17726266069E+04  0.50400001928E-02 0. -1.
       -1    1    3    3    0  502  0.74799508839E+03 -0.63778375371E+03  0.49644130286E+03  0.11012350957E+04  0.50400001928E-02 0.  1.
</event>
<event>
 5   0  0.5152288E-06  0.2688757E+04  0.7818609E-02  0.8338662E-01
       -1   -1    0    0    0  501  0.00000000000E+00  0.00000000000E+00  0.96468191619E+03  0.96468191620E+03  0.50400001928E-02 0.  1.
        1   -1    0    0  501    0  0.00000000000E+00  0.00000000000E+00 -0.18735233315E+04  0.18735233315E+04  0.50400001928E-02 0. -1.
    10030    2    1    2    0    0  0.00000000000E+00  0.00000000000E+00 -0.90884141526E+03  0.28382052477E+04  0.26887573914E+04 0.  0.
        3    1    3    3  502    0  0.29434581844E+03  0.12057684462E+04  0.90853876736E+02  0.12444964619E+04  0.10100000352E+00 0.  1.
       -3    1    3    3    0  502 -0.29434581844E+03 -0.12057684462E+04 -0.99969529200E+03  0.15937087857E+04  0.10100000352E+00 0. -1.
</event>
<event>
 5   0  0.4188000E-06  0.2369781E+04  0.7818609E-02  0.8450904E-01
        3   -1    0    0  501    0  0.00000000000E+00  0.00000000000E+00  0.69804817754E+03  0.69804818485E+03  0.10100000352E+00 0.  1.
       -3   -1    0    0    0  501  0.00000000000E+00  0.00000000000E+00 -0.20112736704E+04  0.20112736729E+04  0.10100000352E+00 0. -1.
    10030    2    1    2    0    0  0.00000000000E+00  0.00000000000E+00 -0.13132254928E+04  0.27093218578E+04  0.23697813684E+04 0.  0.
        3    1    3    3  502    0 -0.16295291677E+03 -0.11714893864E+04 -0.73765574447E+03  0.13939429842E+04  0.10100000352E+00 0.  1.
       -3    1    3    3    0  502  0.16295291677E+03  0.11714893864E+04 -0.57556974836E+03  0.13153788736E+04  0.10100000352E+00 0. -1.
</event>
<event>
 5   0  0.1286641E-05  0.2673139E+04  0.7818609E-02  0.8343773E-01
       -2   -1    0    0    0  501  0.00000000000E+00  0.00000000000E+00  0.18446143605E+04  0.18446143605E+04  0.25500000920E-02 0.  1.
        2   -1    0    0  501    0  0.00000000000E+00  0.00000000000E+00 -0.96845069676E+03  0.96845069676E+03  0.25500000920E-02 0. -1.
    10030    2    1    2    0    0  0.00000000000E+00  0.00000000000E+00  0.87616366375E+03  0.28130650573E+04  0.26731390257E+04 0.  0.
        4    1    3    3  502    0  0.44759327106E+03  0.85657060139E+03 -0.53348047303E+03  0.11039275155E+04  0.12699999809E+01 0. -1.
       -4    1    3    3    0  502 -0.44759327106E+03 -0.85657060139E+03  0.14096441368E+04  0.17091375418E+04  0.12699999809E+01 0.  1.
</event>
<event>
 5   0  0.4756800E-06  0.2701393E+04  0.7818609E-02  0.8334553E-01
       -1   -1    0    0    0  501  0.00000000000E+00  0.00000000000E+00  0.65198496608E+03  0.65198496610E+03  0.50400001928E-02 0.  1.
        1   -1    0    0  501    0  0.00000000000E+00  0.00000000000E+00 -0.27981952602E+04  0.27981952602E+04  0.50400001928E-02 0. -1.
    10030    2    1    2    0    0  0.00000000000E+00  0.00000000000E+00 -0.21462102941E+04  0.34501802263E+04  0.27013931531E+04 0.  0.
        4    1    3    3  502    0 -0.66287026439E+02  0.92256122559E+02  0.64587197040E+03  0.65578760058E+03  0.12699999809E+01 0.  1.
       -4    1    3    3    0  502  0.66287026439E+02 -0.92256122559E+02 -0.27920822645E+04  0.27943926257E+04  0.12699999809E+01 0. -1.
</event>
<event>
 5   0  0.5152288E-06  0.2697379E+04  0.7818609E-02  0.8335856E-01
       -1   -1    0    0    0  501  0.00000000000E+00  0.00000000000E+00  0.68165514770E+03  0.68165514772E+03  0.50400001928E-02 0. -1.
        1   -1    0    0  501    0  0.00000000000E+00  0.00000000000E+00 -0.26684516627E+04  0.26684516627E+04  0.50400001928E-02 0.  1.
    10030    2    1    2    0    0  0.00000000000E+00  0.00000000000E+00 -0.19867965150E+04  0.33501068104E+04  0.26973793299E+04 0.  0.
        3    1    3    3  502    0 -0.12527620080E+04 -0.38286637903E+03 -0.13919276556E+04  0.19114031290E+04  0.10100000352E+00 0. -1.
       -3    1    3    3    0  502  0.12527620080E+04  0.38286637903E+03 -0.59486885943E+03  0.14387036815E+04  0.10100000352E+00 0.  1.
</event>
<event>
 5   0  0.1220908E-05  0.2684875E+04  0.7818609E-02  0.8339929E-01
        2   -1    0    0  501    0  0.00000000000E+00  0.00000000000E+00  0.98311763642E+03  0.98311763642E+03  0.25500000920E-02 0. -1.
       -2   -1    0    0    0  501  0.00000000000E+00  0.00000000000E+00 -0.18330849824E+04  0.18330849824E+04  0.25500000920E-02 0.  1.
    10030    2    1    2    0    0  0.00000000000E+00  0.00000000000E+00 -0.84996734597E+03  0.28162026188E+04  0.26848748017E+04 0.  0.
        2    1    3    3  502    0  0.54731164415E+03  0.57008409943E+03 -0.15632328111E+04  0.17516400138E+04  0.25500000920E-02 0.  1.
       -2    1    3    3    0  502 -0.54731164415E+03 -0.57008409943E+03  0.71326546512E+03  0.10645626050E+04  0.25500000920E-02 0. -1.
</event>
<event>
 5   0  0.5152288E-06  0.2692038E+04  0.7818609E-02  0.8337593E-01
        1   -1    0    0  501    0  0.00000000000E+00  0.00000000000E+00  0.10388264509E+04  0.10388264509E+04  0.50400001928E-02 0.  1.
       -1   -1    0    0    0  501  0.00000000000E+00  0.00000000000E+00 -0.17440521690E+04  0.17440521690E+04  0.50400001928E-02 0. -1.
    10030    2    1    2    0    0  0.00000000000E+00  0.00000000000E+00 -0.70522571805E+03  0.27828786199E+04  0.26920382798E+04 0.  0.
        3    1    3    3  502    0  0.20451443940E+03 -0.27488644196E+03 -0.16982200147E+04  0.17324375719E+04  0.10100000352E+00 0. -1.
       -3    1    3    3    0  502 -0.20451443940E+03  0.27488644196E+03  0.99299429667E+03  0.10504410480E+04  0.10100000352E+00 0.  1.
</event>
<event>
 5   0  0.1286641E-05  0.2677998E+04  0.7818609E-02  0.8342179E-01
       -2   -1    0    0    0  501  0.00000000000E+00  0.00000000000E+00  0.84542785459E+03  0.84542785460E+03  0.25500000920E-02 0.  1.
        2   -1    0    0  501    0  0.00000000000E+00  0.00000000000E+00 -0.21207236072E+04  0.21207236072E+04  0.25500000920E-02 0. -1.
    10030    2    1    2    0    0  0.00000000000E+00  0.00000000000E+00 -0.12752957526E+04  0.29661514618E+04  0.26779983640E+04 0.  0.
        4    1    3    3  502    0 -0.27746860033E+03  0.25056876874E+03 -0.20617407558E+04  0.20953639515E+04  0.12699999809E+01 0. -1.
       -4    1    3    3    0  502  0.27746860033E+03 -0.25056876874E+03  0.78644500325E+03  0.87078751029E+03  0.12699999809E+01 0.  1.
</event>
<event>
 5   0  0.1276517E-05  0.2531804E+04  0.7818609E-02  0.8391742E-01
       -2   -1    0    0    0  501  0.00000000000E+00  0.00000000000E+00  0.11037050626E+04  0.11037050626E+04  0.25500000920E-02 0.  1.
        2   -1    0    0  501    0  0.00000000000E+00  0.00000000000E+00 -0.14519352203E+04  0.14519352203E+04  0.25500000920E-02 0. -1.
    10030    2    1    2    0    0  0.00000000000E+00  0.00000000000E+00 -0.34823015767E+03  0.25556402829E+04  0.25318042999E+04 0.  0.
        1    1    3    3  502    0  0.30860164695E+03  0.73355825430E+03 -0.11678454866E+04  0.14132253074E+04  0.50400001928E-02 0. -1.
       -1    1    3    3    0  502 -0.30860164695E+03 -0.73355825430E+03  0.81961532890E+03  0.11424149755E+04  0.50400001928E-02 0.  1.
</event>
<event>
 5   0  0.1232559E-05  0.2640297E+04  0.7818609E-02  0.8354641E-01
        2   -1    0    0  501    0  0.00000000000E+00  0.00000000000E+00  0.23834803348E+04  0.23834803348E+04  0.25500000920E-02 0. -1.
       -2   -1    0    0    0  501  0.00000000000E+00  0.00000000000E+00 -0.73119621884E+03  0.73119621884E+03  0.25500000920E-02 0.  1.
    10030    2    1    2    0    0  0.00000000000E+00  0.00000000000E+00  0.16522841160E+04  0.31146765537E+04  0.26402968080E+04 0.  0.
        3    1    3    3  502    0 -0.13709681605E+03  0.20825862922E+03 -0.70316805943E+03  0.74606469131E+03  0.10100000352E+00 0.  1.
       -3    1    3    3    0  502  0.13709681605E+03 -0.20825862922E+03  0.23554521754E+04  0.23686118624E+04  0.10100000352E+00 0. -1.
</event>
<event>
 5   0  0.1232559E-05  0.2677929E+04  0.7818609E-02  0.8342202E-01
        2   -1    0    0  501    0  0.00000000000E+00  0.00000000000E+00  0.18964131671E+04  0.18964131671E+04  0.25500000920E-02 0.  1.
       -2   -1    0    0    0  501  0.00000000000E+00  0.00000000000E+00 -0.94537744450E+03  0.94537744451E+03  0.25500000920E-02 0. -1.
    10030    2    1    2    0    0  0.00000000000E+00  0.00000000000E+00  0.95103572265E+03  0.28417906117E+04  0.26779292251E+04 0.  0.
        3    1    3    3  502    0  0.41526595084E+03  0.83963421611E+03 -0.53978871692E+03  0.10811120645E+04  0.10100000352E+00 0. -1.
       -3    1    3    3    0  502 -0.41526595084E+03 -0.83963421611E+03  0.14908244396E+04  0.17606785472E+04  0.10100000352E+00 0.  1.
</event>
<event>
 5   0  0.1261364E-05  0.2647550E+04  0.7818609E-02  0.8352227E-01
       -2   -1    0    0    0  501  0.00000000000E+00  0.00000000000E+00  0.12180881938E+04  0.12180881938E+04  0.25500000920E-02 0. -1.
        2   -1    0    0  501    0  0.00000000000E+00  0.00000000000E+00 -0.14386316650E+04  0.14386316650E+04  0.25500000920E-02 0.  1.
    10030    2    1    2    0    0  0.00000000000E+00  0.00000000000E+00 -0.22054347123E+03  0.26567198588E+04  0.26475499967E+04 0.  0.
        5    1    3    3  502    0 -0.18840037414E+03 -0.18835447648E+02  0.12044220015E+04  0.12192226715E+04  0.46999998093E+01 0. -1.
       -5    1    3    3    0  502  0.18840037414E+03  0.18835447648E+02 -0.14249654727E+04  0.14374971873E+04  0.46999998093E+01 0.  1.
</event>
<event>
 5   0  0.5152288E-06  0.2692111E+04  0.7818609E-02  0.8337569E-01
       -1   -1    0    0    0  501  0.00000000000E+00  0.00000000000E+00  0.91604203846E+03  0.91604203848E+03  0.50400001928E-02 0.  1.
        1   -1    0    0  501    0  0.00000000000E+00  0.00000000000E+00 -0.19779276033E+04  0.19779276033E+04  0.50400001928E-02 0. -1.
    10030    2    1    2    0    0  0.00000000000E+00  0.00000000000E+00 -0.10618855648E+04  0.28939696418E+04  0.26921105725E+04 0.  0.
        3    1    3    3  502    0  0.12004785969E+04 -0.56895834226E+03 -0.29788643254E+03  0.13614693510E+04  0.10100000352E+00 0. -1.
       -3    1    3    3    0  502 -0.12004785969E+04  0.56895834226E+03 -0.76399913227E+03  0.15325002907E+04  0.10100000352E+00 0.  1.
</event>
<event>
 5   0  0.4756800E-06  0.2730754E+04  0.7818609E-02  0.8325095E-01
       -1   -1    0    0    0  501  0.00000000000E+00  0.00000000000E+00  0.12497007110E+04  0.12497007110E+04  0.50400001928E-02 0.  1.
        1   -1    0    0  501    0  0.00000000000E+00  0.00000000000E+00 -0.14917604570E+04  0.14917604570E+04  0.50400001928E-02 0. -1.
    10030    2    1    2    0    0  0.00000000000E+00  0.00000000000E+00 -0.24205974599E+03  0.27414611680E+04  0.27307538181E+04 0.  0.
        4    1    3    3  502    0  0.31498740778E+02 -0.11604980472E+04  0.60047064458E+03  0.13070250557E+04  0.12699999809E+01 0.  1.
       -4    1    3    3    0  502 -0.31498740778E+02  0.11604980472E+04 -0.84253039057E+03  0.14344361123E+04  0.12699999809E+01 0. -1.
</event>
<event>
 5   0  0.1286641E-05  0.2663978E+04  0.7818609E-02  0.8346788E-01
       -2   -1    0    0    0  501  0.00000000000E+00  0.00000000000E+00  0.12363095834E+04  0.12363095834E+04  0.25500000920E-02 0. -1.
        2   -1    0    0  501    0  0.00000000000E+00  0.00000000000E+00 -0.14350732076E+04  0.14350732076E+04  0.25500000920E-02 0.  1.
    10030    2    1    2    0    0  0.00000000000E+00  0.00000000000E+00 -0.19876362424E+03  0.26713827910E+04  0.26639780475E+04 0.  0.
        4    1    3    3  502    0  0.20858386768E+03 -0.11746975985E+04 -0.69328767536E+03  0.13798808251E+04  0.12699999809E+01 0.  1.
       -4    1    3    3    0  502 -0.20858386768E+03  0.11746975985E+04  0.49452405112E+03  0.12915019659E+04  0.12699999809E+01 0. -1.
</event>
<event>
 5   0  0.5152288E-06  0.2717668E+04  0.7818609E-02  0.8329295E-01
       -1   -1    0    0    0  501  0.00000000000E+00  0.00000000000E+00  0.10508459118E+04  0.10508459118E+04  0.50400001928E-02 0.  1.
        1   -1    0    0  501    0  0.00000000000E+00  0.00000000000E+00 -0.17570896700E+04  0.17570896700E+04  0.50400001928E-02 0. -1.
    10030    2    1    2    0    0  0.00000000000E+00  0.00000000000E+00 -0.70624375822E+03  0.28079355818E+04  0.27176684834E+04 0.  0.
        3    1    3    3  502    0  0.85998135578E+03 -0.20977454049E+03 -0.14183144307E+04  0.16718819111E+04  0.10100000352E+00 0. -1.
       -3    1    3    3    0  502 -0.85998135578E+03  0.20977454049E+03  0.71207067244E+03  0.11360536708E+04  0.10100000352E+00 0.  1.
</event>
<event>
 5   0  0.4846214E-06  0.2721636E+04  0.7818609E-02  0.8328019E-01
       -1   -1    0    0    0  501  0.00000000000E+00  0.00000000000E+00  0.12479587162E+04  0.12479587162E+04  0.50400001928E-02 0. -1.
        1   -1    0    0  501    0  0.00000000000E+00  0.00000000000E+00 -0.14838836781E+04  0.14838836781E+04  0.50400001928E-02 0.  1.
    10030    2    1    2    0    0  0.00000000000E+00  0.00000000000E+00 -0.23592496193E+03  0.27318423943E+04  0.27216359565E+04 0.  0.
        2    1    3    3  502    0 -0.88692560306E+03 -0.57340573226E+03  0.74338987953E+03  0.12915338448E+04  0.25500000920E-02 0. -1.
       -2    1    3    3    0  502  0.88692560306E+03  0.57340573226E+03 -0.97931484146E+03  0.14403085495E+04  0.25500000920E-02 0.  1.
</event>
<event>
 5   0  0.4824715E-06  0.2730530E+04  0.7818609E-02  0.8325166E-01
        1   -1    0    0  501    0  0.00000000000E+00  0.00000000000E+00  0.27978927841E+04  0.27978927841E+04  0.50400001928E-02 0.  1.
       -1   -1    0    0    0  501  0.00000000000E+00  0.00000000000E+00 -0.66619741799E+03  0.66619741801E+03  0.50400001928E-02 0. -1.
    10030    2    1    2    0    0  0.00000000000E+00  0.00000000000E+00  0.21316953661E+04  0.34640902021E+04  0.27305303138E+04 0.  0.
        5    1    3    3  502    0  0.13266020233E+04  0.77190153757E+01  0.65673112576E+03  0.14802872603E+04  0.46999998093E+01 0. -1.
       -5    1    3    3    0  502 -0.13266020233E+04 -0.77190153757E+01  0.14749642404E+04  0.19838029418E+04  0.46999998093E+01 0.  1.
</event>
<event>
 5   0  0.5152288E-06  0.2706317E+04  0.7818609E-02  0.8332958E-01
        1   -1    0    0  501    0  0.00000000000E+00  0.00000000000E+00  0.23541499950E+04  0.23541499950E+04  0.50400001928E-02 0.  1.
       -1   -1    0    0    0  501  0.00000000000E+00  0.00000000000E+00 -0.77779168377E+03  0.77779168379E+03  0.50400001928E-02 0. -1.
    10030    2    1    2    0    0  0.00000000000E+00  0.00000000000E+00  0.15763583112E+04  0.31319416788E+04  0.27063172678E+04 0.  0.
        3    1    3    3  502    0  0.11899581713E+04 -0.62805032597E+03  0.95424091527E+03  0.16495524836E+04  0.10100000352E+00 0. -1.
       -3    1    3    3    0  502 -0.11899581713E+04  0.62805032597E+03  0.62211739595E+03  0.14823891952E+04  0.10100000352E+00 0.  1.
</event>
<event>
 5   0  0.4824715E-06  0.2734959E+04  0.7818609E-02  0.8323750E-01
        1   -1    0    0  501    0  0.00000000000E+00  0.00000000000E+00  0.15633489986E+04  0.15633489986E+04  0.50400001928E-02 0.  1.
       -1   -1    0    0    0  501  0.00000000000E+00  0.00000000000E+00 -0.11961504436E+04  0.11961504436E+04  0.50400001928E-02 0. -1.
    10030    2    1    2    0    0  0.00000000000E+00  0.00000000000E+00  0.36719855503E+03  0.27594994422E+04  0.27349593036E+04 0.  0.
        5    1    3    3  502    0  0.48603617182E+03 -0.12089485115E+04 -0.23508289612E+03  0.13240369035E+04  0.46999998093E+01 0. -1.
       -5    1    3    3    0  502 -0.48603617182E+03  0.12089485115E+04  0.60228145115E+03  0.14354625387E+04  0.46999998093E+01 0.  1.
</event>
<event>
 5   0  0.4846214E-06  0.2671772E+04  0.7818609E-02  0.8344223E-01
        1   -1    0    0  501    0  0.00000000000E+00  0.00000000000E+00  0.18262674761E+04  0.18262674761E+04  0.50400001928E-02 0. -1.
       -1   -1    0    0    0  501  0.00000000000E+00  0.00000000000E+00 -0.97717930909E+03  0.97717930910E+03  0.50400001928E-02 0.  1.
    10030    2    1    2    0    0  0.00000000000E+00  0.00000000000E+00  0.84908816704E+03  0.28034467852E+04  0.26717715400E+04 0.  0.
        2    1    3    3  502    0 -0.44914998419E+03 -0.49969801803E+03 -0.78698443525E+03  0.10347841895E+04  0.25500000920E-02 0.  1.
       -2    1    3    3    0  502  0.44914998419E+03  0.49969801803E+03  0.16360726023E+04  0.17686625957E+04  0.25500000920E-02 0. -1.
</event>
<event>
 5   0  0.4846214E-06  0.2560119E+04  0.7818609E-02  0.8381876E-01
        1   -1    0    0  501    0  0.00000000000E+00  0.00000000000E+00  0.15909648603E+04  0.15909648603E+04  0.50400001928E-02 0.  1.
       -1   -1    0    0    0  501  0.00000000000E+00  0.00000000000E+00 -0.10299108691E+04  0.10299108691E+04  0.50400001928E-02 0. -1.
    10030    2    1    2    0    0  0.00000000000E+00  0.00000000000E+00  0.56105399128E+03  0.26208757294E+04  0.25601187488E+04 0.  0.
        2    1    3    3  502    0  0.60584696691E+03  0.95326937561E+03 -0.33607845573E+03  0.11784404008E+04  0.25500000920E-02 0. -1.
       -2    1    3    3    0  502 -0.60584696691E+03 -0.95326937561E+03  0.89713244701E+03  0.14424353286E+04  0.25500000920E-02 0.  1.
</event>
<event>
 5   0  0.1261364E-05  0.2696610E+04  0.7818609E-02  0.8336106E-01
        2   -1    0    0  501    0  0.00000000000E+00  0.00000000000E+00  0.25562006420E+04  0.25562006420E+04  0.25500000920E-02 0. -1.
       -2   -1    0    0    0  501  0.00000000000E+00  0.00000000000E+00 -0.71118271103E+03  0.71118271104E+03  0.25500000920E-02 0.  1.
    10030    2    1    2    0    0  0.00000000000E+00  0.00000000000E+00  0.18450179310E+04  0.32673833530E+04  0.26966095027E+04 0.  0.
        5    1    3    3  502    0  0.51522052179E+03  0.98029771521E+03 -0.93444265538E+01  0.11074950134E+04  0.46999998093E+01 0.  1.
       -5    1    3    3    0  502 -0.51522052179E+03 -0.98029771521E+03  0.18543623575E+04  0.21598883396E+04  0.46999998093E+01 0. -1.
</event>
<event>
 5   0  0.5152288E-06  0.2691169E+04  0.7818609E-02  0.8337876E-01
       -1   -1    0    0    0  501  0.00000000000E+00  0.00000000000E+00  0.11627830180E+04  0.11627830180E+04  0.50400001928E-02 0.  1.
        1   -1    0    0  501    0  0.00000000000E+00  0.00000000000E+00 -0.15571245254E+04  0.15571245254E+04  0.50400001928E-02 0. -1.
    10030    2    1    2    0    0  0.00000000000E+00  0.00000000000E+00 -0.39434150745E+03  0.27199075434E+04  0.26911692292E+04 0.  0.
        3    1    3    3  502    0  0.10167528129E+04  0.31290591934E+03  0.63558287260E+03  0.12392183000E+04  0.10100000352E+00 0.  1.
       -3    1    3    3    0  502 -0.10167528129E+04 -0.31290591934E+03 -0.10299243801E+04  0.14806892435E+04  0.10100000352E+00 0. -1.
</event>
<event>
 5   0  0.1261364E-05  0.2731534E+04  0.7818609E-02  0.8324845E-01
        2   -1    0    0  501    0  0.00000000000E+00  0.00000000000E+00  0.19622551660E+04  0.19622551660E+04  0.25500000920E-02 0.  1.
       -2   -1    0    0    0  501  0.00000000000E+00  0.00000000000E+00 -0.95059978100E+03  0.95059978100E+03  0.25500000920E-02 0. -1.
    10030    2    1    2    0    0  0.00000000000E+00  0.00000000000E+00  0.10116553850E+04  0.29128549470E+04  0.27315338776E+04 0.  0.
        5    1    3    3  502    0  0.11061931746E+03 -0.13566692286E+04  0.38655878465E+03  0.14150045276E+04  0.46999998093E+01 0.  1.
       -5    1    3    3    0  502 -0.11061931746E+03  0.13566692286E+04  0.62509660037E+03  0.14978504194E+04  0.46999998093E+01 0. -1.
</event>
<event>
 5   0  0.5152288E-06  0.2755266E+04  0.7818609E-02  0.8317293E-01
       -1   -1    0    0    0  501  0.00000000000E+00  0.00000000000E+00  0.20358115420E+04  0.20358115420E+04  0.50400001928E-02 0. -1.
        1   -1    0    0  501    0  0.00000000000E+00  0.00000000000E+00 -0.93224387195E+03  0.93224387197E+03  0.50400001928E-02 0.  1.
    10030    2    1    2    0    0  0.00000000000E+00  0.00000000000E+00  0.11035676701E+04  0.29680554140E+04  0.27552661102E+04 0.  0.
        3    1    3    3  502    0 -0.12790155078E+04 -0.50945320432E+03  0.49846815614E+03  0.14642041352E+04  0.10100000352E+00 0. -1.
       -3    1    3    3    0  502  0.12790155078E+04  0.50945320432E+03  0.60509951392E+03  0.15038512788E+04  0.10100000352E+00 0.  1.
</event>
<event>
 5   0  0.1286641E-05  0.3216950E+04  0.7818609E-02  0.8184355E-01
        2   -1    0    0  501    0  0.00000000000E+00  0.00000000000E+00  0.23646206912E+04  0.23646206912E+04  0.25500000920E-02 0. -1.
       -2   -1    0    0    0  501  0.00000000000E+00  0.00000000000E+00 -0.10941255594E+04  0.10941255594E+04  0.25500000920E-02 0.  1.
    10030    2    1    2    0    0  0.00000000000E+00  0.00000000000E+00  0.12704951318E+04  0.34587462506E+04  0.32169500690E+04 0.  0.
        4    1    3    3  502    0 -0.46965595026E+03  0.10761858570E+04  0.18171632572E+04  0.21635241220E+04  0.12699999809E+01 0. -1.
       -4    1    3    3    0  502  0.46965595026E+03 -0.10761858570E+04 -0.54666812533E+03  0.12952221286E+04  0.12699999809E+01 0.  1.
</event>
<event>
 5   0  0.4756800E-06  0.2694088E+04  0.7818609E-02  0.8336926E-01
       -1   -1    0    0    0  501  0.00000000000E+00  0.00000000000E+00  0.78831356224E+03  0.78831356226E+03  0.50400001928E-02 0. -1.
        1   -1    0    0  501    0  0.00000000000E+00  0.00000000000E+00 -0.23017843463E+04  0.23017843463E+04  0.50400001928E-02 0.  1.
    10030    2    1    2    0    0  0.00000000000E+00  0.00000000000E+00 -0.15134707841E+04  0.30900979086E+04  0.26940882076E+04 0.  0.
        4    1    3    3  502    0 -0.13301535058E+04 -0.19097459416E+03 -0.64946519660E+03  0.14925100667E+04  0.12699999809E+01 0.  1.
       -4    1    3    3    0  502  0.13301535058E+04  0.19097459416E+03 -0.86400558745E+03  0.15975878419E+04  0.12699999809E+01 0. -1.
</event>
<event>
 5   0  0.1286641E-05  0.2705075E+04  0.7818609E-02  0.8333360E-01
        2   -1    0    0  501    0  0.00000000000E+00  0.00000000000E+00  0.11809521489E+04  0.11809521489E+04  0.25500000920E-02 0.  1.
       -2   -1    0    0    0  501  0.00000000000E+00  0.00000000000E+00 -0.15490536280E+04  0.15490536280E+04  0.25500000920E-02 0. -1.
    10030    2    1    2    0    0  0.00000000000E+00  0.00000000000E+00 -0.36810147906E+03  0.27300057770E+04  0.27050753859E+04 0.  0.
        4    1    3    3  502    0  0.49623108379E+02  0.12031524734E+04 -0.80561505657E+03  0.14488117750E+04  0.12699999809E+01 0. -1.
       -4    1    3    3    0  502 -0.49623108379E+02 -0.12031524734E+04  0.43751357752E+03  0.12811940019E+04  0.12699999809E+01 0.  1.
</event>
<event>
 5   0  0.1220908E-05  0.2680419E+04  0.7818609E-02  0.8341386E-01
       -2   -1    0    0    0  501  0.00000000000E+00  0.00000000000E+00  0.95140991725E+03  0.95140991725E+03  0.25500000920E-02 0.  1.
        2   -1    0    0  501    0  0.00000000000E+00  0.00000000000E+00 -0.18878943061E+04  0.18878943061E+04  0.25500000920E-02 0. -1.
    10030    2    1    2    0    0  0.00000000000E+00  0.00000000000E+00 -0.93648438881E+03  0.28393042233E+04  0.26804188968E+04 0.  0.
        2    1    3    3  502    0  0.23339941237E+03  0.64466542619E+03  0.75157900846E+03  0.10173199120E+04  0.25500000920E-02 0.  1.
       -2    1    3    3    0  502 -0.23339941237E+03 -0.64466542619E+03 -0.16880633973E+04  0.18219843113E+04  0.25500000920E-02 0. -1.
</event>
<event>
 5   0  0.4826140E-06  0.2812133E+04  0.7818609E-02  0.8299511E-01
        1   -1    0    0  501    0  0.00000000000E+00  0.00000000000E+00  0.15674325434E+04  0.15674325434E+04  0.50400001928E-02 0.  1.
       -1   -1    0    0    0  501  0.00000000000E+00  0.00000000000E+00 -0.12613133091E+04  0.12613133091E+04  0.50400001928E-02 0. -1.
    10030    2    1    2    0    0  0.00000000000E+00  0.00000000000E+00  0.30611923429E+03  0.28287458526E+04  0.28121333739E+04 0.  0.
        1    1    3    3  502    0  0.21046611864E+02 -0.36124160243E+03  0.15197932162E+04  0.15622771441E+04  0.50400001928E-02 0.  1.
       -1    1    3    3    0  502 -0.21046611864E+02  0.36124160243E+03 -0.12136739819E+04  0.12664687084E+04  0.50400001928E-02 0. -1.
</event>
<event>
 5   0  0.4188000E-06  0.2550244E+04  0.7818609E-02  0.8385301E-01
        3   -1    0    0  501    0  0.00000000000E+00  0.00000000000E+00  0.20356413348E+04  0.20356413373E+04  0.10100000352E+00 0. -1.
       -3   -1    0    0    0  501  0.00000000000E+00  0.00000000000E+00 -0.79873391987E+03  0.79873392625E+03  0.10100000352E+00 0.  1.
    10030    2    1    2    0    0  0.00000000000E+00  0.00000000000E+00  0.12369074150E+04  0.28343752636E+04  0.25502437495E+04 0.  0.
        5    1    3    3  502    0  0.39724239994E+03 -0.27102935268E+03  0.19309832690E+04  0.19899690725E+04  0.46999998093E+01 0. -1.
       -5    1    3    3    0  502 -0.39724239994E+03  0.27102935268E+03 -0.69407585407E+03  0.84440619107E+03  0.46999998093E+01 0.  1.
</event>
<event>
 5   0  0.4826140E-06  0.2718043E+04  0.7818609E-02  0.8329174E-01
       -1   -1    0    0    0  501  0.00000000000E+00  0.00000000000E+00  0.13819651011E+04  0.13819651011E+04  0.50400001928E-02 0. -1.
        1   -1    0    0  501    0  0.00000000000E+00  0.00000000000E+00 -0.13364589133E+04  0.13364589133E+04  0.50400001928E-02 0.  1.
    10030    2    1    2    0    0  0.00000000000E+00  0.00000000000E+00  0.45506187833E+02  0.27184240144E+04  0.27180431028E+04 0.  0.
        1    1    3    3  502    0 -0.29513442030E+03 -0.71987853473E+03 -0.10916786778E+04  0.13405565137E+04  0.50400001928E-02 0.  1.
       -1    1    3    3    0  502  0.29513442030E+03  0.71987853473E+03  0.11371848656E+04  0.13778675007E+04  0.50400001928E-02 0. -1.
</event>
<event>
 5   0  0.1261364E-05  0.2702670E+04  0.7818609E-02  0.8334139E-01
       -2   -1    0    0    0  501  0.00000000000E+00  0.00000000000E+00  0.14605564583E+04  0.14605564583E+04  0.25500000920E-02 0.  1.
        2   -1    0    0  501    0  0.00000000000E+00  0.00000000000E+00 -0.12502810745E+04  0.12502810745E+04  0.25500000920E-02 0. -1.
    10030    2    1    2    0    0  0.00000000000E+00  0.00000000000E+00  0.21027538377E+03  0.27108375328E+04  0.27026698637E+04 0.  0.
        5    1    3    3  502    0  0.11283882831E+04  0.64600783262E+03  0.47435033657E+03  0.13840580078E+04  0.46999998093E+01 0. -1.
       -5    1    3    3    0  502 -0.11283882831E+04 -0.64600783262E+03 -0.26407495280E+03  0.13267795250E+04  0.46999998093E+01 0.  1.
</event>
<event>
 5   0  0.1232559E-05  0.2714686E+04  0.7818609E-02  0.8330256E-01
        2   -1    0    0  501    0  0.00000000000E+00  0.00000000000E+00  0.15538367059E+04  0.15538367059E+04  0.25500000920E-02 0.  1.
       -2   -1    0    0    0  501  0.00000000000E+00  0.00000000000E+00 -0.11856973419E+04  0.11856973419E+04  0.25500000920E-02 0. -1.
    10030    2    1    2    0    0  0.00000000000E+00  0.00000000000E+00  0.36813936402E+03  0.27395340479E+04  0.27146860238E+04 0.  0.
        3    1    3    3  502    0  0.51471630539E+03 -0.36880619833E+02  0.14509838325E+04  0.15400153076E+04  0.10100000352E+00 0.  1.
       -3    1    3    3    0  502 -0.51471630539E+03  0.36880619833E+02 -0.10828444685E+04  0.11995187403E+04  0.10100000352E+00 0. -1.
</event>
<event>
 5   0  0.1261364E-05  0.2696165E+04  0.7818609E-02  0.8336250E-01
        2   -1    0    0  501    0  0.00000000000E+00  0.00000000000E+00  0.22147876662E+04  0.22147876662E+04  0.25500000920E-02 0.  1.
       -2   -1    0    0    0  501  0.00000000000E+00  0.00000000000E+00 -0.82054197883E+03  0.82054197883E+03  0.25500000920E-02 0. -1.
    10030    2    1    2    0    0  0.00000000000E+00  0.00000000000E+00  0.13942456874E+04  0.30353296451E+04  0.26961648721E+04 0.  0.
        5    1    3    3  502    0  0.39867152694E+03  0.12872711628E+04  0.73768478640E+03  0.15362965101E+04  0.46999998093E+01 0. -1.
       -5    1    3    3    0  502 -0.39867152694E+03 -0.12872711628E+04  0.65656090100E+03  0.14990331349E+04  0.46999998093E+01 0.  1.
</event>
<event>
 5   0  0.4846214E-06  0.2733901E+04  0.7818609E-02  0.8324088E-01
       -1   -1    0    0    0  501  0.00000000000E+00  0.00000000000E+00  0.77094802957E+03  0.77094802958E+03  0.50400001928E-02 0.  1.
        1   -1    0    0  501    0  0.00000000000E+00  0.00000000000E+00 -0.24237094435E+04  0.24237094435E+04  0.50400001928E-02 0. -1.
    10030    2    1    2    0    0  0.00000000000E+00  0.00000000000E+00 -0.16527614139E+04  0.31946574730E+04  0.27339012562E+04 0.  0.
        2    1    3    3  502    0  0.12000256020E+04  0.29687572954E+03 -0.14465596061E+03  0.12446372930E+04  0.25500000920E-02 0.  1.
       -2    1    3    3    0  502 -0.12000256020E+04 -0.29687572954E+03 -0.15081054533E+04  0.19500201800E+04  0.25500000920E-02 0. -1.
</event>
<event>
 5   0  0.1286641E-05  0.2577398E+04  0.7818609E-02  0.8375919E-01
       -2   -1    0    0    0  501  0.00000000000E+00  0.00000000000E+00  0.10262603508E+04  0.10262603508E+04  0.25500000920E-02 0.  1.
        2   -1    0    0  501    0  0.00000000000E+00  0.00000000000E+00 -0.16182495099E+04  0.16182495099E+04  0.25500000920E-02 0. -1.
    10030    2    1    2    0    0  0.00000000000E+00  0.00000000000E+00 -0.59198915911E+03  0.26445098608E+04  0.25773981530E+04 0.  0.
        4    1    3    3  502    0  0.11769042958E+04 -0.46270770367E+02 -0.83258330374E+03  0.14423734871E+04  0.12699999809E+01 0. -1.
       -4    1    3    3    0  502 -0.11769042958E+04  0.46270770367E+02  0.24059414463E+03  0.12021363737E+04  0.12699999809E+01 0.  1.
</event>
<event>
 5   0  0.4826140E-06  0.2727408E+04  0.7818609E-02  0.8326166E-01
        1   -1    0    0  501    0  0.00000000000E+00  0.00000000000E+00  0.19532854140E+04  0.19532854140E+04  0.50400001928E-02 0. -1.
       -1   -1    0    0    0  501  0.00000000000E+00  0.00000000000E+00 -0.95208245775E+03  0.95208245776E+03  0.50400001928E-02 0.  1.
    10030    2    1    2    0    0  0.00000000000E+00  0.00000000000E+00  0.10012029563E+04  0.29053678718E+04  0.27274081306E+04 0.  0.
        1    1    3    3  502    0 -0.13742976353E+03 -0.65201905004E+03 -0.76685329971E+03  0.10159132664E+04  0.50400001928E-02 0.  1.
       -1    1    3    3    0  502  0.13742976353E+03  0.65201905004E+03  0.17680562560E+04  0.18894546054E+04  0.50400001928E-02 0. -1.
</event>
<event>
 5   0  0.1232559E-05  0.2710780E+04  0.7818609E-02  0.8331516E-01
        2   -1    0    0  501    0  0.00000000000E+00  0.00000000000E+00  0.28143887756E+04  0.28143887756E+04  0.25500000920E-02 0.  1.
       -2   -1    0    0    0  501  0.00000000000E+00  0.00000000000E+00 -0.65274656119E+03  0.65274656119E+03  0.25500000920E-02 0. -1.
    10030    2    1    2    0    0  0.00000000000E+00  0.00000000000E+00  0.21616422144E+04  0.34671353368E+04  0.27107804006E+04 0.  0.
        3    1    3    3  502    0  0.56247001593E+03  0.52325071928E+03 -0.34740028998E+03  0.84311968648E+03  0.10100000352E+00 0. -1.
       -3    1    3    3    0  502 -0.56247001593E+03 -0.52325071928E+03  0.25090425044E+04  0.26240156503E+04  0.10100000352E+00 0.  1.
</event>
<event>
 5   0  0.4826140E-06  0.2861855E+04  0.7818609E-02  0.8284318E-01
        1   -1    0    0  501    0  0.00000000000E+00  0.00000000000E+00  0.12759673771E+04  0.12759673771E+04  0.50400001928E-02 0. -1.
       -1   -1    0    0    0  501  0.00000000000E+00  0.00000000000E+00 -0.16047070005E+04  0.16047070005E+04  0.50400001928E-02 0.  1.
    10030    2    1    2    0    0  0.00000000000E+00  0.00000000000E+00 -0.32873962337E+03  0.28806743776E+04  0.28618551902E+04 0.  0.
        1    1    3    3  502    0  0.58951088853E+03 -0.77904457026E+03 -0.12167689537E+04  0.15604359061E+04  0.50400001928E-02 0.  1.
       -1    1    3    3    0  502 -0.58951088853E+03  0.77904457026E+03  0.88802933036E+03  0.13202384715E+04  0.50400001928E-02 0. -1.
</event>
<event>
 5   0  0.1261364E-05  0.2741760E+04  0.7818609E-02  0.8321581E-01
        2   -1    0    0  501    0  0.00000000000E+00  0.00000000000E+00  0.17481928113E+04  0.17481928113E+04  0.25500000920E-02 0.  1.
       -2   -1    0    0    0  501  0.00000000000E+00  0.00000000000E+00 -0.10750026667E+04  0.10750026667E+04  0.25500000920E-02 0. -1.
    10030    2    1    2    0    0  0.00000000000E+00  0.00000000000E+00  0.67319014463E+03  0.28231954779E+04  0.27417599705E+04 0.  0.
        5    1    3    3  502    0 -0.13578918208E+03 -0.38485980734E+03  0.16841810608E+04  0.17329292279E+04  0.46999998093E+01 0.  1.
       -5    1    3    3    0  502  0.13578918208E+03  0.38485980734E+03 -0.10109909162E+04  0.10902662500E+04  0.46999998093E+01 0. -1.
</event>
<event>
 5   0  0.4756800E-06  0.2722079E+04  0.7818609E-02  0.8327877E-01
       -1   -1    0    0    0  501  0.00000000000E+00  0.00000000000E+00  0.66197703296E+03  0.66197703298E+03  0.50400001928E-02 0.  1.
        1   -1    0    0  501    0  0.00000000000E+00  0.00000000000E+00 -0.27983270199E+04  0.27983270199E+04  0.50400001928E-02 0. -1.
    10030    2    1    2    0    0  0.00000000000E+00  0.00000000000E+00 -0.21363499869E+04  0.34603040529E+04  0.27220787776E+04 0.  0.
        4    1    3    3  502    0 -0.75900898191E+03  0.79186255085E+03 -0.20924851549E+04  0.23625487657E+04  0.12699999809E+01 0. -1.
       -4    1    3    3    0  502  0.75900898191E+03 -0.79186255085E+03 -0.43864832028E+02  0.10977552871E+04  0.12699999809E+01 0.  1.
</event>
<event>
 5   0  0.1220908E-05  0.2689473E+04  0.7818609E-02  0.8338429E-01
        2   -1    0    0  501    0  0.00000000000E+00  0.00000000000E+00  0.12048818783E+04  0.12048818783E+04  0.25500000920E-02 0. -1.
       -2   -1    0    0    0  501  0.00000000000E+00  0.00000000000E+00 -0.15008250090E+04  0.15008250090E+04  0.25500000920E-02 0.  1.
    10030    2    1    2    0    0  0.00000000000E+00  0.00000000000E+00 -0.29594313079E+03  0.27057068873E+04  0.26894734472E+04 0.  0.
        2    1    3    3  502    0 -0.50538316006E+03 -0.91783876911E+02  0.11023009727E+04  0.12161019090E+04  0.25500000920E-02 0. -1.
       -2    1    3    3    0  502  0.50538316006E+03  0.91783876911E+02 -0.13982441035E+04  0.14896049783E+04  0.25500000920E-02 0.  1.
</event>
<event>
 5   0  0.1232559E-05  0.2696155E+04  0.7818609E-02  0.8336254E-01
       -2   -1    0    0    0  501  0.00000000000E+00  0.00000000000E+00  0.19140890743E+04  0.19140890743E+04  0.25500000920E-02 0.  1.
        2   -1    0    0  501    0  0.00000000000E+00  0.00000000000E+00 -0.94944000486E+03  0.94944000487E+03  0.25500000920E-02 0. -1.
    10030    2    1    2    0    0  0.00000000000E+00  0.00000000000E+00  0.96464906939E+03  0.28635290791E+04  0.26961548472E+04 0.  0.
        3    1    3    3  502    0 -0.66842189531E+03 -0.86089733559E+03  0.13249090415E+04  0.17156095217E+04  0.10100000352E+00 0.  1.
       -3    1    3    3    0  502  0.66842189531E+03  0.86089733559E+03 -0.36025997211E+03  0.11479195574E+04  0.10100000352E+00 0. -1.
</event>
<event>
 5   0  0.4824715E-06  0.2678369E+04  0.7818609E-02  0.8342058E-01
        1   -1    0    0  501    0  0.00000000000E+00  0.00000000000E+00  0.17317772387E+04  0.17317772387E+04  0.50400001928E-02 0.  1.
       -1   -1    0    0    0  501  0.00000000000E+00  0.00000000000E+00 -0.10355922683E+04  0.10355922683E+04  0.50400001928E-02 0. -1.
    10030    2    1    2    0    0  0.00000000000E+00  0.00000000000E+00  0.69618497033E+03  0.27673695070E+04  0.26783689954E+04 0.  0.
        5    1    3    3  502    0 -0.39181555377E+02 -0.10417473617E+04 -0.52044744131E+03  0.11651868473E+04  0.46999998093E+01 0. -1.
       -5    1    3    3    0  502  0.39181555377E+02  0.10417473617E+04  0.12166324116E+04  0.16021826597E+04  0.46999998093E+01 0.  1.
</event>
<event>
 5   0  0.4846214E-06  0.2685972E+04  0.7818609E-02  0.8339571E-01
        1   -1    0    0  501    0  0.00000000000E+00  0.00000000000E+00  0.14845770369E+04  0.14845770369E+04  0.50400001928E-02 0. -1.
       -1   -1    0    0    0  501  0.00000000000E+00  0.00000000000E+00 -0.12148996050E+04  0.12148996050E+04  0.50400001928E-02 0.  1.
    10030    2    1    2    0    0  0.00000000000E+00  0.00000000000E+00  0.26967743190E+03  0.26994766419E+04  0.26859724911E+04 0.  0.
        2    1    3    3  502    0 -0.16515624341E+03  0.76801459837E+02  0.14721061020E+04  0.14833311918E+04  0.25500000920E-02 0. -1.
       -2    1    3    3    0  502  0.16515624341E+03 -0.76801459837E+02 -0.12024286701E+04  0.12161454501E+04  0.25500000920E-02 0.  1.
</event>
<event>
 5   0  0.1286641E-05  0.2695149E+04  0.7818609E-02  0.8336581E-01
        2   -1    0    0  501    0  0.00000000000E+00  0.00000000000E+00  0.12949271870E+04  0.12949271870E+04  0.25500000920E-02 0.  1.
       -2   -1    0    0    0  501  0.00000000000E+00  0.00000000000E+00 -0.14023624290E+04  0.14023624290E+04  0.25500000920E-02 0. -1.
    10030    2    1    2    0    0  0.00000000000E+00  0.00000000000E+00 -0.10743524197E+03  0.26972896160E+04  0.26951491501E+04 0.  0.
        4    1    3    3  502    0 -0.18564407694E+02  0.11344986268E+04  0.67385621245E+03  0.13196649497E+04  0.12699999809E+01 0.  1.
       -4    1    3    3    0  502  0.18564407694E+02 -0.11344986268E+04 -0.78129145443E+03  0.13776246663E+04  0.12699999809E+01 0. -1.
</event>
<event>
 5   0  0.1220908E-05  0.2739569E+04  0.7818609E-02  0.8322279E-01
        2   -1    0    0  501    0  0.00000000000E+00  0.00000000000E+00  0.19617348244E+04  0.19617348244E+04  0.25500000920E-02 0. -1.
       -2   -1    0    0    0  501  0.00000000000E+00  0.00000000000E+00 -0.95645436849E+03  0.95645436849E+03  0.25500000920E-02 0.  1.
    10030    2    1    2    0    0  0.00000000000E+00  0.00000000000E+00  0.10052804559E+04  0.29181891929E+04  0.27395691943E+04 0.  0.
        2    1    3    3  502    0  0.92143776847E+03 -0.10132270899E+04  0.52944320494E+03  0.14683278939E+04  0.25500000920E-02 0. -1.
       -2    1    3    3    0  502 -0.92143776847E+03  0.10132270899E+04  0.47583725096E+03  0.14498612990E+04  0.25500000920E-02 0.  1.
</event>
<event>
 5   0  0.4846214E-06  0.2711244E+04  0.7818609E-02  0.8331366E-01
       -1   -1    0    0    0  501  0.00000000000E+00  0.00000000000E+00  0.26499489965E+04  0.26499489965E+04  0.50400001928E-02 0. -1.
        1   -1    0    0  501    0  0.00000000000E+00  0.00000000000E+00 -0.69348924408E+03  0.69348924410E+03  0.50400001928E-02 0.  1.
    10030    2    1    2    0    0  0.00000000000E+00  0.00000000000E+00  0.19564597524E+04  0.33434382406E+04  0.27112440882E+04 0.  0.
        2    1    3    3  502    0 -0.40044811962E+01 -0.13545266028E+04  0.10452398907E+04  0.17109309695E+04  0.25500000920E-02 0. -1.
       -2    1    3    3    0  502  0.40044811962E+01  0.13545266028E+04  0.91121986171E+03  0.16325072710E+04  0.25500000920E-02 0.  1.
</event>
<event>
 5   0  0.1220908E-05  0.2709119E+04  0.7818609E-02  0.8332052E-01
        2   -1    0    0  501    0  0.00000000000E+00  0.00000000000E+00  0.17968202852E+04  0.17968202852E+04  0.25500000920E-02 0.  1.
       -2   -1    0    0    0  501  0.00000000000E+00  0.00000000000E+00 -0.10211543099E+04  0.10211543099E+04  0.25500000920E-02 0. -1.
    10030    2    1    2    0    0  0.00000000000E+00  0.00000000000E+00  0.77566597527E+03  0.28179745951E+04  0.27091185123E+04 0.  0.
        2    1    3    3  502    0  0.42549602717E+03 -0.56540267982E+03 -0.81361193644E+03  0.10782817084E+04  0.25500000920E-02 0. -1.
       -2    1    3    3    0  502 -0.42549602717E+03  0.56540267982E+03  0.15892779117E+04  0.17396928867E+04  0.25500000920E-02 0.  1.
</event>
<event>
 5   0  0.1261364E-05  0.2720927E+04  0.7818609E-02  0.8328247E-01
       -2   -1    0    0    0  501  0.00000000000E+00  0.00000000000E+00  0.12288384536E+04  0.12288384536E+04  0.25500000920E-02 0.  1.
        2   -1    0    0  501    0  0.00000000000E+00  0.00000000000E+00 -0.15061876024E+04  0.15061876024E+04  0.25500000920E-02 0. -1.
    10030    2    1    2    0    0  0.00000000000E+00  0.00000000000E+00 -0.27734914874E+03  0.27350260560E+04  0.27209272274E+04 0.  0.
        5    1    3    3  502    0 -0.53378791938E+03  0.12418768212E+04 -0.29326213721E+03  0.13831891964E+04  0.46999998093E+01 0. -1.
       -5    1    3    3    0  502  0.53378791938E+03 -0.12418768212E+04  0.15912988469E+02  0.13518368596E+04  0.46999998093E+01 0.  1.
</event>
<event>
 5   0  0.1286641E-05  0.2711190E+04  0.7818609E-02  0.8331383E-01
       -2   -1    0    0    0  501  0.00000000000E+00  0.00000000000E+00  0.16144760402E+04  0.16144760402E+04  0.25500000920E-02 0.  1.
        2   -1    0    0  501    0  0.00000000000E+00  0.00000000000E+00 -0.11382259019E+04  0.11382259019E+04  0.25500000920E-02 0. -1.
    10030    2    1    2    0    0  0.00000000000E+00  0.00000000000E+00  0.47625013837E+03  0.27527019421E+04  0.27111904743E+04 0.  0.
        4    1    3    3  502    0  0.89237794351E+03  0.10170908857E+04  0.32200089588E+03  0.13908624855E+04  0.12699999809E+01 0. -1.
       -4    1    3    3    0  502 -0.89237794351E+03 -0.10170908857E+04  0.15424924249E+03  0.13618394566E+04  0.12699999809E+01 0.  1.
</event>
<event>
 5   0  0.1220908E-05  0.2714112E+04  0.7818609E-02  0.8330441E-01
        2   -1    0    0  501    0  0.00000000000E+00  0.00000000000E+00  0.16924183098E+04  0.16924183098E+04  0.25500000920E-02 0. -1.
       -2   -1    0    0    0  501  0.00000000000E+00  0.00000000000E+00 -0.10881477828E+04  0.10881477828E+04  0.25500000920E-02 0.  1.
    10030    2    1    2    0    0  0.00000000000E+00  0.00000000000E+00  0.60427052695E+03  0.27805660926E+04  0.27141121800E+04 0.  0.
        2    1    3    3  502    0  0.63224971048E+03 -0.79565476613E+03 -0.61921478904E+03  0.11900559475E+04  0.25500000920E-02 0.  1.
       -2    1    3    3    0  502 -0.63224971048E+03  0.79565476613E+03  0.12234853160E+04  0.15905101451E+04  0.25500000920E-02 0. -1.
</event>
<event>
 5   0  0.1261364E-05  0.2712259E+04  0.7818609E-02  0.8331038E-01
        2   -1    0    0  501    0  0.00000000000E+00  0.00000000000E+00  0.14899643655E+04  0.14899643655E+04  0.25500000920E-02 0.  1.
       -2   -1    0    0    0  501  0.00000000000E+00  0.00000000000E+00 -0.12343161898E+04  0.12343161898E+04  0.25500000920E-02 0. -1.
    10030    2    1    2    0    0  0.00000000000E+00  0.00000000000E+00  0.25564817570E+03  0.27242805553E+04  0.27122589394E+04 0.  0.
        5    1    3    3  502    0  0.71885280913E+03 -0.14983160215E+03 -0.10173460202E+04  0.12546768050E+04  0.46999998093E+01 0. -1.
       -5    1    3    3    0  502 -0.71885280913E+03  0.14983160215E+03  0.12729941959E+04  0.14696037503E+04  0.46999998093E+01 0.  1.
</event>
<event>
 5   0  0.4826140E-06  0.2662126E+04  0.7818609E-02  0.8347399E-01
       -1   -1    0    0    0  501  0.00000000000E+00  0.00000000000E+00  0.95380477181E+03  0.95380477183E+03  0.50400001928E-02 0. -1.
        1   -1    0    0  501    0  0.00000000000E+00  0.00000000000E+00 -0.18575385089E+04  0.18575385089E+04  0.50400001928E-02 0.  1.
    10030    2    1    2    0    0  0.00000000000E+00  0.00000000000E+00 -0.90373373706E+03  0.28113432807E+04  0.26621262882E+04 0.  0.
        1    1    3    3  502    0 -0.91437844269E+03 -0.75216796697E+03 -0.10941378414E+04  0.16121359133E+04  0.50400001928E-02 0. -1.
       -1    1    3    3    0  502  0.91437844269E+03  0.75216796697E+03  0.19040410436E+03  0.11992073674E+04  0.50400001928E-02 0.  1.
</event>
<event>
 5   0  0.1232559E-05  0.2708585E+04  0.7818609E-02  0.8332225E-01
       -2   -1    0    0    0  501  0.00000000000E+00  0.00000000000E+00  0.13357643699E+04  0.13357643699E+04  0.25500000920E-02 0. -1.
        2   -1    0    0  501    0  0.00000000000E+00  0.00000000000E+00 -0.13730779292E+04  0.13730779292E+04  0.25500000920E-02 0.  1.
    10030    2    1    2    0    0  0.00000000000E+00  0.00000000000E+00 -0.37313559321E+02  0.27088422990E+04  0.27085852948E+04 0.  0.
        3    1    3    3  502    0  0.15636062893E+03 -0.13000939250E+04  0.32694178409E+03  0.13496606241E+04  0.10100000352E+00 0. -1.
       -3    1    3    3    0  502 -0.15636062893E+03  0.13000939250E+04 -0.36425534341E+03  0.13591816749E+04  0.10100000352E+00 0.  1.
</event>
<event>
 5   0  0.4826140E-06  0.2703291E+04  0.7818609E-02  0.8333938E-01
       -1   -1    0    0    0  501  0.00000000000E+00  0.00000000000E+00  0.18301751021E+04  0.18301751021E+04  0.50400001928E-02 0.  1.
        1   -1    0    0  501    0  0.00000000000E+00  0.00000000000E+00 -0.99823559827E+03  0.99823559829E+03  0.50400001928E-02 0. -1.
    10030    2    1    2    0    0  0.00000000000E+00  0.00000000000E+00  0.83193950380E+03  0.28284107004E+04  0.27032912814E+04 0.  0.
        1    1    3    3  502    0 -0.56095768390E+03  0.19184799001E+03  0.16868784247E+04  0.17880262845E+04  0.50400001928E-02 0.  1.
       -1    1    3    3    0  502  0.56095768390E+03 -0.19184799001E+03 -0.85493892086E+03  0.10403844159E+04  0.50400001928E-02 0. -1.
</event>
<event>
 5   0  0.1220908E-05  0.2699004E+04  0.7818609E-02  0.8335328E-01
        2   -1    0    0  501    0  0.00000000000E+00  0.00000000000E+00  0.14228226726E+04  0.14228226726E+04  0.25500000920E-02 0. -1.
       -2   -1    0    0    0  501  0.00000000000E+00  0.00000000000E+00 -0.12799600732E+04  0.12799600732E+04  0.25500000920E-02 0.  1.
    10030    2    1    2    0    0  0.00000000000E+00  0.00000000000E+00  0.14286259947E+03  0.27027827458E+04  0.26990044181E+04 0.  0.
        2    1    3    3  502    0 -0.78814746559E+03 -0.16591440514E+03 -0.10128828230E+04  0.12940771347E+04  0.25500000920E-02 0.  1.
       -2    1    3    3    0  502  0.78814746559E+03  0.16591440514E+03  0.11557454225E+04  0.14087056112E+04  0.25500000920E-02 0. -1.
</event>
<event>
 5   0  0.1261364E-05  0.2701643E+04  0.7818609E-02  0.8334472E-01
        2   -1    0    0  501    0  0.00000000000E+00  0.00000000000E+00  0.27158222901E+04  0.27158222901E+04  0.25500000920E-02 0.  1.
       -2   -1    0    0    0  501  0.00000000000E+00  0.00000000000E+00 -0.67188432046E+03  0.67188432047E+03  0.25500000920E-02 0. -1.
    10030    2    1    2    0    0  0.00000000000E+00  0.00000000000E+00  0.20439379696E+04  0.33877066106E+04  0.27016427698E+04 0.  0.
        5    1    3    3  502    0  0.61859491120E+03  0.76652863801E+03  0.21810836674E+04  0.23931932374E+04  0.46999998093E+01 0.  1.
       -5    1    3    3    0  502 -0.61859491120E+03 -0.76652863801E+03 -0.13714569779E+03  0.99451337321E+03  0.46999998093E+01 0. -1.
</event>
<event>
 5   0  0.5152288E-06  0.2703914E+04  0.7818609E-02  0.8333736E-01
       -1   -1    0    0    0  501  0.00000000000E+00  0.00000000000E+00  0.98568373108E+03  0.98568373109E+03  0.50400001928E-02 0.  1.
        1   -1    0    0  501    0  0.00000000000E+00  0.00000000000E+00 -0.18543353671E+04  0.18543353671E+04  0.50400001928E-02 0. -1.
    10030    2    1    2    0    0  0.00000000000E+00  0.00000000000E+00 -0.86865163598E+03  0.28400190982E+04  0.27039143502E+04 0.  0.
        3    1    3    3  502    0  0.24096192239E+03 -0.24764102718E+02  0.96270513618E+03  0.99271199160E+03  0.10100000352E+00 0.  1.
       -3    1    3    3    0  502 -0.24096192239E+03  0.24764102718E+02 -0.18313567722E+04  0.18473071066E+04  0.10100000352E+00 0. -1.
</event>
<event>
 5   0  0.4826140E-06  0.2741377E+04  0.7818609E-02  0.8321703E-01
        1   -1    0    0  501    0  0.00000000000E+00  0.00000000000E+00  0.15733371079E+04  0.15733371079E+04  0.50400001928E-02 0.  1.
       -1   -1    0    0    0  501  0.00000000000E+00  0.00000000000E+00 -0.11941416409E+04  0.11941416409E+04  0.50400001928E-02 0. -1.
    10030    2    1    2    0    0  0.00000000000E+00  0.00000000000E+00  0.37919546700E+03  0.27674787489E+04  0.27413772858E+04 0.  0.
        1    1    3    3  502    0 -0.62536633807E+03 -0.60351446906E+02  0.14194176086E+04  0.15522473068E+04  0.50400001928E-02 0.  1.
       -1    1    3    3    0  502  0.62536633807E+03  0.60351446906E+02 -0.10402221416E+04  0.12152314421E+04  0.50400001928E-02 0. -1.
</event>
<event>
 5   0  0.4824715E-06  0.2716940E+04  0.7818609E-02  0.8329529E-01
        1   -1    0    0  501    0  0.00000000000E+00  0.00000000000E+00  0.13934220088E+04  0.13934220088E+04  0.50400001928E-02 0.  1.
       -1   -1    0    0    0  501  0.00000000000E+00  0.00000000000E+00 -0.13243947245E+04  0.13243947246E+04  0.50400001928E-02 0. -1.
    10030    2    1    2    0    0  0.00000000000E+00  0.00000000000E+00  0.69027284216E+02  0.27178167333E+04  0.27169400122E+04 0.  0.
        5    1    3    3  502    0  0.38472911942E+03  0.56275676402E+03  0.12099277022E+04  0.13887616086E+04  0.46999998093E+01 0.  1.
       -5    1    3    3    0  502 -0.38472911942E+03 -0.56275676402E+03 -0.11409004180E+04  0.13290551248E+04  0.46999998093E+01 0. -1.
</event>
<event>
 5   0  0.4188000E-06  0.2709234E+04  0.7818609E-02  0.8332015E-01
       -3   -1    0    0    0  501  0.00000000000E+00  0.00000000000E+00  0.11564442482E+04  0.11564442526E+04  0.10100000352E+00 0.  1.
        3   -1    0    0  501    0  0.00000000000E+00  0.00000000000E+00 -0.15867495233E+04  0.15867495265E+04  0.10100000352E+00 0. -1.
    10030    2    1    2    0    0  0.00000000000E+00  0.00000000000E+00 -0.43030527507E+03  0.27431937791E+04  0.27092341131E+04 0.  0.
        1    1    3    3  502    0 -0.62734993442E+03  0.96457102836E+03  0.50866609568E+03  0.12580565988E+04  0.50400001928E-02 0.  1.
       -1    1    3    3    0  502  0.62734993442E+03 -0.96457102836E+03 -0.93897137074E+03  0.14851371802E+04  0.50400001928E-02 0. -1.
</event>
<event>
 5   0  0.5152288E-06  0.2686057E+04  0.7818609E-02  0.8339543E-01
        1   -1    0    0  501    0  0.00000000000E+00  0.00000000000E+00  0.15763941523E+04  0.15763941523E+04  0.50400001928E-02 0.  1.
       -1   -1    0    0    0  501  0.00000000000E+00  0.00000000000E+00 -0.11442099144E+04  0.11442099144E+04  0.50400001928E-02 0. -1.
    10030    2    1    2    0    0  0.00000000000E+00  0.00000000000E+00  0.43218423795E+03  0.27206040667E+04  0.26860571982E+04 0.  0.
        3    1    3    3  502    0  0.92469491241E+03  0.45102830587E+03 -0.65828292832E+03  0.12214023242E+04  0.10100000352E+00 0. -1.
       -3    1    3    3    0  502 -0.92469491241E+03 -0.45102830587E+03  0.10904671663E+04  0.14992017425E+04  0.10100000352E+00 0.  1.
</event>
<event>
 5   0  0.1261364E-05  0.2677067E+04  0.7818609E-02  0.8342485E-01
        2   -1    0    0  501    0  0.00000000000E+00  0.00000000000E+00  0.19156014920E+04  0.19156014920E+04  0.25500000920E-02 0. -1.
       -2   -1    0    0    0  501  0.00000000000E+00  0.00000000000E+00 -0.93530492646E+03  0.93530492646E+03  0.25500000920E-02 0.  1.
    10030    2    1    2    0    0  0.00000000000E+00  0.00000000000E+00  0.98029656554E+03  0.28509064185E+04  0.26770666877E+04 0.  0.
        5    1    3    3  502    0  0.20353746123E+03 -0.67783762696E+03  0.17000391467E+04  0.18414794425E+04  0.46999998093E+01 0. -1.
       -5    1    3    3    0  502 -0.20353746123E+03  0.67783762696E+03 -0.71974258120E+03  0.10094269760E+04  0.46999998093E+01 0.  1.
</event>
<event>
 5   0  0.4188000E-06  0.2693935E+04  0.7818609E-02  0.8336976E-01
        3   -1    0    0  501    0  0.00000000000E+00  0.00000000000E+00  0.13378977205E+04  0.13378977243E+04  0.10100000352E+00 0. -1.
       -3   -1    0    0    0  501  0.00000000000E+00  0.00000000000E+00 -0.13560985014E+04  0.13560985052E+04  0.10100000352E+00 0.  1.
    10030    2    1    2    0    0  0.00000000000E+00  0.00000000000E+00 -0.18200780894E+02  0.26939962295E+04  0.26939347461E+04 0.  0.
        1    1    3    3  502    0 -0.43172385178E+03  0.35149857303E+03  0.12174610807E+04  0.13387114006E+04  0.50400001928E-02 0. -1.
       -1    1    3    3    0  502  0.43172385178E+03 -0.35149857303E+03 -0.12356618616E+04  0.13552848289E+04  0.50400001928E-02 0.  1.
</event>
<event>
 5   0  0.1261364E-05  0.2701187E+04  0.7818609E-02  0.8334620E-01
       -2   -1    0    0    0  501  0.00000000000E+00  0.00000000000E+00  0.18365356389E+04  0.18365356389E+04  0.25500000920E-02 0.  1.
        2   -1    0    0  501    0  0.00000000000E+00  0.00000000000E+00 -0.99323038861E+03  0.99323038862E+03  0.25500000920E-02 0. -1.
    10030    2    1    2    0    0  0.00000000000E+00  0.00000000000E+00  0.84330525025E+03  0.28297660275E+04  0.27011871511E+04 0.  0.
        5    1    3    3  502    0 -0.50914071318E+03 -0.21357062230E+03 -0.86959534669E+03  0.10300751592E+04  0.46999998093E+01 0. -1.
       -5    1    3    3    0  502  0.50914071318E+03  0.21357062230E+03  0.17129005969E+04  0.17996908683E+04  0.46999998093E+01 0.  1.
</event>
<event>
 5   0  0.4826140E-06  0.2562508E+04  0.7818609E-02  0.8381049E-01
        1   -1    0    0  501    0  0.00000000000E+00  0.00000000000E+00  0.13236316514E+04  0.13236316514E+04  0.50400001928E-02 0. -1.
       -1   -1    0    0    0  501  0.00000000000E+00  0.00000000000E+00 -0.12402328021E+04  0.12402328022E+04  0.50400001928E-02 0.  1.
    10030    2    1    2    0    0  0.00000000000E+00  0.00000000000E+00  0.83398849232E+02  0.25638644535E+04  0.25625076718E+04 0.  0.
        1    1    3    3  502    0 -0.58907372211E+03  0.11375687621E+04  0.64967990949E+02  0.12826891200E+04  0.50400001928E-02 0. -1.
       -1    1    3    3    0  502  0.58907372211E+03 -0.11375687621E+04  0.18430858283E+02  0.12811753335E+04  0.50400001928E-02 0.  1.
</event>
<event>
 5   0  0.4824715E-06  0.2739988E+04  0.7818609E-02  0.8322146E-01
        1   -1    0    0  501    0  0.00000000000E+00  0.00000000000E+00  0.10479926591E+04  0.10479926591E+04  0.50400001928E-02 0.  1.
       -1   -1    0    0    0  501  0.00000000000E+00  0.00000000000E+00 -0.17909319026E+04  0.17909319026E+04  0.50400001928E-02 0. -1.
    10030    2    1    2    0    0  0.00000000000E+00  0.00000000000E+00 -0.74293924343E+03  0.28389245617E+04  0.27399879466E+04 0.  0.
        5    1    3    3  502    0  0.53980374519E+03 -0.25278158534E+02 -0.16758286085E+04  0.17608096671E+04  0.46999998093E+01 0. -1.
       -5    1    3    3    0  502 -0.53980374519E+03  0.25278158534E+02  0.93288936504E+03  0.10781148946E+04  0.46999998093E+01 0.  1.
</event>
<event>
 5   0  0.1232559E-05  0.2438331E+04  0.7818609E-02  0.8425291E-01
       -2   -1    0    0    0  501  0.00000000000E+00  0.00000000000E+00  0.67277060288E+03  0.67277060289E+03  0.25500000920E-02 0. -1.
        2   -1    0    0  501    0  0.00000000000E+00  0.00000000000E+00 -0.22093191460E+04  0.22093191460E+04  0.25500000920E-02 0.  1.
    10030    2    1    2    0    0  0.00000000000E+00  0.00000000000E+00 -0.15365485431E+04  0.28820897489E+04  0.24383313752E+04 0.  0.
        3    1    3    3  502    0  0.93662082903E+03  0.52715336035E+03 -0.14485269254E+04  0.18037127007E+04  0.10100000352E+00 0.  1.
       -3    1    3    3    0  502 -0.93662082903E+03 -0.52715336035E+03 -0.88021617677E+02  0.10783770482E+04  0.10100000352E+00 0. -1.
</event>
<event>
 5   0  0.1261364E-05  0.2680943E+04  0.7818609E-02  0.8341215E-01
        2   -1    0    0  501    0  0.00000000000E+00  0.00000000000E+00  0.18174292690E+04  0.18174292690E+04  0.25500000920E-02 0. -1.
       -2   -1    0    0    0  501  0.00000000000E+00  0.00000000000E+00 -0.98868402295E+03  0.98868402295E+03  0.25500000920E-02 0.  1.
    10030    2    1    2    0    0  0.00000000000E+00  0.00000000000E+00  0.82874524608E+03  0.28061132920E+04  0.26809425814E+04 0.  0.
        5    1    3    3  502    0 -0.47359887063E+03 -0.96193019608E+03  0.12564439629E+04  0.16517503184E+04  0.46999998093E+01 0. -1.
       -5    1    3    3    0  502  0.47359887063E+03  0.96193019608E+03 -0.42769871684E+03  0.11543629736E+04  0.46999998093E+01 0.  1.
</event>
<event>
 5   0  0.4188000E-06  0.2694529E+04  0.7818609E-02  0.8336782E-01
       -3   -1    0    0    0  501  0.00000000000E+00  0.00000000000E+00  0.12260004966E+04  0.12260005008E+04  0.10100000352E+00 0.  1.
        3   -1    0    0  501    0  0.00000000000E+00  0.00000000000E+00 -0.14805232812E+04  0.14805232846E+04  0.10100000352E+00 0. -1.
    10030    2    1    2    0    0  0.00000000000E+00  0.00000000000E+00 -0.25452278459E+03  0.27065237854E+04  0.26945294864E+04 0.  0.
        5    1    3    3  502    0 -0.28648586369E+03 -0.12228534646E+04 -0.61693060459E+03  0.13993106184E+04  0.46999998093E+01 0. -1.
       -5    1    3    3    0  502  0.28648586369E+03  0.12228534646E+04  0.36240782000E+03  0.13072131670E+04  0.46999998093E+01 0.  1.
</event>
<event>
 5   0  0.1286641E-05  0.2715448E+04  0.7818609E-02  0.8330010E-01
       -2   -1    0    0    0  501  0.00000000000E+00  0.00000000000E+00  0.99888241578E+03  0.99888241578E+03  0.25500000920E-02 0. -1.
        2   -1    0    0  501    0  0.00000000000E+00  0.00000000000E+00 -0.18454766558E+04  0.18454766558E+04  0.25500000920E-02 0.  1.
    10030    2    1    2    0    0  0.00000000000E+00  0.00000000000E+00 -0.84659423998E+03  0.28443590715E+04  0.27154477938E+04 0.  0.
        4    1    3    3  502    0 -0.53221977878E+03 -0.65016012740E+03  0.69384505871E+03  0.10896736496E+04  0.12699999809E+01 0. -1.
       -4    1    3    3    0  502  0.53221977878E+03  0.65016012740E+03 -0.15404392987E+04  0.17546854220E+04  0.12699999809E+01 0.  1.
</event>
<event>
 5   0  0.4826140E-06  0.2841531E+04  0.7818609E-02  0.8290489E-01
        1   -1    0    0  501    0  0.00000000000E+00  0.00000000000E+00  0.10987385877E+04  0.10987385877E+04  0.50400001928E-02 0.  1.
       -1   -1    0    0    0  501  0.00000000000E+00  0.00000000000E+00 -0.18371750582E+04  0.18371750583E+04  0.50400001928E-02 0. -1.
    10030    2    1    2    0    0  0.00000000000E+00  0.00000000000E+00 -0.73843647053E+03  0.29359136460E+04  0.28415313680E+04 0.  0.
        1    1    3    3  502    0 -0.78882889452E+03 -0.43279146611E+03  0.76685619264E+03  0.11822131357E+04  0.50400001928E-02 0.  1.
       -1    1    3    3    0  502  0.78882889452E+03  0.43279146611E+03 -0.15052926632E+04  0.17537005103E+04  0.50400001928E-02 0. -1.
</event>
<event>
 5   0  0.4756800E-06  0.2666781E+04  0.7818609E-02  0.8345865E-01
       -1   -1    0    0    0  501  0.00000000000E+00  0.00000000000E+00  0.76739813041E+03  0.76739813042E+03  0.50400001928E-02 0.  1.
        1   -1    0    0  501    0  0.00000000000E+00  0.00000000000E+00 -0.23168281413E+04  0.23168281413E+04  0.50400001928E-02 0. -1.
    10030    2    1    2    0    0  0.00000000000E+00  0.00000000000E+00 -0.15494300109E+04  0.30842262717E+04  0.26667805190E+04 0.  0.
        4    1    3    3  502    0  0.11490292207E+04 -0.67119424505E+03 -0.87256437653E+03  0.15912699547E+04  0.12699999809E+01 0. -1.
       -4    1    3    3    0  502 -0.11490292207E+04  0.67119424505E+03 -0.67686563433E+03  0.14929563170E+04  0.12699999809E+01 0.  1.
</event>
<event>
 5   0  0.4756800E-06  0.2571131E+04  0.7818609E-02  0.8378074E-01
       -1   -1    0    0    0  501  0.00000000000E+00  0.00000000000E+00  0.11248853240E+04  0.11248853240E+04  0.50400001928E-02 0. -1.
        1   -1    0    0  501    0  0.00000000000E+00  0.00000000000E+00 -0.14691975493E+04  0.14691975493E+04  0.50400001928E-02 0.  1.
    10030    2    1    2    0    0  0.00000000000E+00  0.00000000000E+00 -0.34431222536E+03  0.25940828733E+04  0.25711310829E+04 0.  0.
        4    1    3    3  502    0  0.62662837832E+03  0.28495126396E+03 -0.12675814607E+04  0.14424370766E+04  0.12699999809E+01 0.  1.
       -4    1    3    3    0  502 -0.62662837832E+03 -0.28495126396E+03  0.92326923538E+03  0.11516457968E+04  0.12699999809E+01 0. -1.
</event>
<event>
 5   0  0.4756800E-06  0.2680261E+04  0.7818609E-02  0.8341438E-01
       -1   -1    0    0    0  501  0.00000000000E+00  0.00000000000E+00  0.14457423716E+04  0.14457423716E+04  0.50400001928E-02 0. -1.
        1   -1    0    0  501    0  0.00000000000E+00  0.00000000000E+00 -0.12422337669E+04  0.12422337669E+04  0.50400001928E-02 0.  1.
    10030    2    1    2    0    0  0.00000000000E+00  0.00000000000E+00  0.20350860472E+03  0.26879761384E+04  0.26802611755E+04 0.  0.
        4    1    3    3  502    0  0.11868347197E+04 -0.65512379554E+02 -0.51896171323E+03  0.12969932137E+04  0.12699999809E+01 0.  1.
       -4    1    3    3    0  502 -0.11868347197E+04  0.65512379554E+02  0.72247031795E+03  0.13909829247E+04  0.12699999809E+01 0. -1.
</event>
<event>
 5   0  0.4826140E-06  0.2727449E+04  0.7818609E-02  0.8326153E-01
        1   -1    0    0  501    0  0.00000000000E+00  0.00000000000E+00  0.21817657433E+04  0.21817657433E+04  0.50400001928E-02 0. -1.
       -1   -1    0    0    0  501  0.00000000000E+00  0.00000000000E+00 -0.85240368113E+03  0.85240368114E+03  0.50400001928E-02 0.  1.
    10030    2    1    2    0    0  0.00000000000E+00  0.00000000000E+00  0.13293620622E+04  0.30341694245E+04  0.27274494687E+04 0.  0.
        1    1    3    3  502    0  0.11725432005E+04 -0.43249506413E+03  0.57565381320E+02  0.12510888500E+04  0.50400001928E-02 0.  1.
       -1    1    3    3    0  502 -0.11725432005E+04  0.43249506413E+03  0.12717966809E+04  0.17830805745E+04  0.50400001928E-02 0. -1.
</event>
<event>
 5   0  0.4824715E-06  0.2176069E+04  0.7818609E-02  0.8528455E-01
        1   -1    0    0  501    0  0.00000000000E+00  0.00000000000E+00  0.89307942665E+03  0.89307942666E+03  0.50400001928E-02 0.  1.
       -1   -1    0    0    0  501  0.00000000000E+00  0.00000000000E+00 -0.13255468324E+04  0.13255468324E+04  0.50400001928E-02 0. -1.
    10030    2    1    2    0    0  0.00000000000E+00  0.00000000000E+00 -0.43246740577E+03  0.22186262591E+04  0.21760685698E+04 0.  0.
        5    1    3    3  502    0  0.47712160615E+02  0.10525801013E+04 -0.49282359399E+03  0.11632276238E+04  0.46999998093E+01 0. -1.
       -5    1    3    3    0  502 -0.47712160615E+02 -0.10525801013E+04  0.60356188224E+02  0.10553986353E+04  0.46999998093E+01 0.  1.
</event>
<event>
 5   0  0.1286641E-05  0.2697974E+04  0.7818609E-02  0.8335663E-01
       -2   -1    0    0    0  501  0.00000000000E+00  0.00000000000E+00  0.76053856087E+03  0.76053856087E+03  0.25500000920E-02 0.  1.
        2   -1    0    0  501    0  0.00000000000E+00  0.00000000000E+00 -0.23927331042E+04  0.23927331042E+04  0.25500000920E-02 0. -1.
    10030    2    1    2    0    0  0.00000000000E+00  0.00000000000E+00 -0.16321945434E+04  0.31532716651E+04  0.26979739003E+04 0.  0.
        4    1    3    3  502    0 -0.70816736065E+03 -0.10418755457E+04 -0.25223058987E+03  0.12847675069E+04  0.12699999809E+01 0. -1.
       -4    1    3    3    0  502  0.70816736065E+03  0.10418755457E+04 -0.13799639535E+04  0.18685041582E+04  0.12699999809E+01 0.  1.
</event>
<event>
 5   0  0.4824715E-06  0.2706316E+04  0.7818609E-02  0.8332959E-01
        1   -1    0    0  501    0  0.00000000000E+00  0.00000000000E+00  0.13314163397E+04  0.13314163397E+04  0.50400001928E-02 0.  1.
       -1   -1    0    0    0  501  0.00000000000E+00  0.00000000000E+00 -0.13752544999E+04  0.13752544999E+04  0.50400001928E-02 0. -1.
    10030    2    1    2    0    0  0.00000000000E+00  0.00000000000E+00 -0.43838160233E+02  0.27066708396E+04  0.27063158075E+04 0.  0.
        5    1    3    3  502    0  0.81931162573E+03  0.58800811944E+03 -0.92425090195E+03  0.13679498925E+04  0.46999998093E+01 0. -1.
       -5    1    3    3    0  502 -0.81931162573E+03 -0.58800811944E+03  0.88041274172E+03  0.13387209472E+04  0.46999998093E+01 0.  1.
</event>
<event>
 5   0  0.1286641E-05  0.2580827E+04  0.7818609E-02  0.8374743E-01
       -2   -1    0    0    0  501  0.00000000000E+00  0.00000000000E+00  0.13689115811E+04  0.13689115811E+04  0.25500000920E-02 0.  1.
        2   -1    0    0  501    0  0.00000000000E+00  0.00000000000E+00 -0.12164163324E+04  0.12164163324E+04  0.25500000920E-02 0. -1.
    10030    2    1    2    0    0  0.00000000000E+00  0.00000000000E+00  0.15249524869E+03  0.25853279135E+04  0.25808265380E+04 0.  0.
        4    1    3    3  502    0 -0.78132245961E+02  0.12437432913E+04  0.41173886160E+03  0.13124528661E+04  0.12699999809E+01 0. -1.
       -4    1    3    3    0  502  0.78132245961E+02 -0.12437432913E+04 -0.25924361291E+03  0.12728750474E+04  0.12699999809E+01 0.  1.
</event>
<event>
 5   0  0.4826140E-06  0.2744965E+04  0.7818609E-02  0.8320561E-01
       -1   -1    0    0    0  501  0.00000000000E+00  0.00000000000E+00  0.10059839851E+04  0.10059839851E+04  0.50400001928E-02 0.  1.
        1   -1    0    0  501    0  0.00000000000E+00  0.00000000000E+00 -0.18725034490E+04  0.18725034490E+04  0.50400001928E-02 0. -1.
    10030    2    1    2    0    0  0.00000000000E+00  0.00000000000E+00 -0.86651946391E+03  0.28784874341E+04  0.27449651959E+04 0.  0.
        1    1    3    3  502    0 -0.20557848286E+03 -0.72429053501E+03  0.77010011493E+03  0.10769927942E+04  0.50400001928E-02 0.  1.
       -1    1    3    3    0  502  0.20557848286E+03  0.72429053501E+03 -0.16366195788E+04  0.18014946399E+04  0.50400001928E-02 0. -1.
</event>
<event>
 5   0  0.1276517E-05  0.2955316E+04  0.7818609E-02  0.8256607E-01
        2   -1    0    0  501    0  0.00000000000E+00  0.00000000000E+00  0.20912475811E+04  0.20912475811E+04  0.25500000920E-02 0. -1.
       -2   -1    0    0    0  501  0.00000000000E+00  0.00000000000E+00 -0.10441006664E+04  0.10441006664E+04  0.25500000920E-02 0.  1.
    10030    2    1    2    0    0  0.00000000000E+00  0.00000000000E+00  0.10471469146E+04  0.31353482475E+04  0.29553158837E+04 0.  0.
        1    1    3    3  502    0  0.62834741234E+03  0.13359514235E+04  0.58971144243E+03  0.15897629578E+04  0.50400001928E-02 0. -1.
       -1    1    3    3    0  502 -0.62834741234E+03 -0.13359514235E+04  0.45743547219E+03  0.15455852897E+04  0.50400001928E-02 0.  1.
</event>
<event>
 5   0  0.5152288E-06  0.2689179E+04  0.7818609E-02  0.8338525E-01
       -1   -1    0    0    0  501  0.00000000000E+00  0.00000000000E+00  0.14885941581E+04  0.14885941581E+04  0.50400001928E-02 0. -1.
        1   -1    0    0  501    0  0.00000000000E+00  0.00000000000E+00 -0.12145154231E+04  0.12145154232E+04  0.50400001928E-02 0.  1.
    10030    2    1    2    0    0  0.00000000000E+00  0.00000000000E+00  0.27407873500E+03  0.27031095813E+04  0.26891787325E+04 0.  0.
        3    1    3    3  502    0 -0.95560662618E+03 -0.89577911546E+03  0.44244932526E+03  0.13825214875E+04  0.10100000352E+00 0. -1.
       -3    1    3    3    0  502  0.95560662618E+03  0.89577911546E+03 -0.16837059026E+03  0.13205880938E+04  0.10100000352E+00 0.  1.
</event>
<event>
 5   0  0.1220908E-05  0.2698365E+04  0.7818609E-02  0.8335536E-01
        2   -1    0    0  501    0  0.00000000000E+00  0.00000000000E+00  0.16865409801E+04  0.16865409801E+04  0.25500000920E-02 0. -1.
       -2   -1    0    0    0  501  0.00000000000E+00  0.00000000000E+00 -0.10793055109E+04  0.10793055109E+04  0.25500000920E-02 0.  1.
    10030    2    1    2    0    0  0.00000000000E+00  0.00000000000E+00  0.60723546916E+03  0.27658464911E+04  0.26983646709E+04 0.  0.
        2    1    3    3  502    0  0.86280080422E+03 -0.10350176359E+04  0.23405114642E+03  0.13676500552E+04  0.25500000920E-02 0.  1.
       -2    1    3    3    0  502 -0.86280080422E+03  0.10350176359E+04  0.37318432274E+03  0.13981964358E+04  0.25500000920E-02 0. -1.
</event>
<event>
 5   0  0.4826140E-06  0.2677300E+04  0.7818609E-02  0.8342408E-01
       -1   -1    0    0    0  501  0.00000000000E+00  0.00000000000E+00  0.58921133747E+03  0.58921133749E+03  0.50400001928E-02 0. -1.
        1   -1    0    0  501    0  0.00000000000E+00  0.00000000000E+00 -0.30413263743E+04  0.30413263743E+04  0.50400001928E-02 0.  1.
    10030    2    1    2    0    0  0.00000000000E+00  0.00000000000E+00 -0.24521150369E+04  0.36305377118E+04  0.26773001182E+04 0.  0.
        1    1    3    3  502    0 -0.55098530168E+03  0.90260741748E+03 -0.11302755616E+03  0.10635131317E+04  0.50400001928E-02 0. -1.
       -1    1    3    3    0  502  0.55098530168E+03 -0.90260741748E+03 -0.23390874807E+04  0.25670245802E+04  0.50400001928E-02 0.  1.
</event>
<event>
 5   0  0.5152288E-06  0.2683161E+04  0.7818609E-02  0.8340490E-01
       -1   -1    0    0    0  501  0.00000000000E+00  0.00000000000E+00  0.10093262883E+04  0.10093262883E+04  0.50400001928E-02 0.  1.
        1   -1    0    0  501    0  0.00000000000E+00  0.00000000000E+00 -0.17832068668E+04  0.17832068668E+04  0.50400001928E-02 0. -1.
    10030    2    1    2    0    0  0.00000000000E+00  0.00000000000E+00 -0.77388057842E+03  0.27925331551E+04  0.26831605007E+04 0.  0.
        3    1    3    3  502    0 -0.58427176672E+03  0.16752755796E+03  0.85780422501E+03  0.10513168308E+04  0.10100000352E+00 0.  1.
       -3    1    3    3    0  502  0.58427176672E+03 -0.16752755796E+03 -0.16316848034E+04  0.17412163243E+04  0.10100000352E+00 0. -1.
</event>
<event>
 5   0  0.4826140E-06  0.2756997E+04  0.7818609E-02  0.8316745E-01
       -1   -1    0    0    0  501  0.00000000000E+00  0.00000000000E+00  0.23276833157E+04  0.23276833157E+04  0.50400001928E-02 0.  1.
        1   -1    0    0  501    0  0.00000000000E+00  0.00000000000E+00 -0.81637301337E+03  0.81637301339E+03  0.50400001928E-02 0. -1.
    10030    2    1    2    0    0  0.00000000000E+00  0.00000000000E+00  0.15113103023E+04  0.31440563291E+04  0.27569968028E+04 0.  0.
        1    1    3    3  502    0  0.54592730139E+03 -0.55698370628E+03 -0.54057970320E+03  0.94894356154E+03  0.50400001928E-02 0. -1.
       -1    1    3    3    0  502 -0.54592730139E+03  0.55698370628E+03  0.20518900055E+04  0.21951127675E+04  0.50400001928E-02 0.  1.
</event>
<event>
 5   0  0.1261364E-05  0.2476838E+04  0.7818609E-02  0.8411284E-01
       -2   -1    0    0    0  501  0.00000000000E+00  0.00000000000E+00  0.89140606662E+03  0.89140606662E+03  0.25500000920E-02 0. -1.
        2   -1    0    0  501    0  0.00000000000E+00  0.00000000000E+00 -0.17205201680E+04  0.17205201680E+04  0.25500000920E-02 0.  1.
    10030    2    1    2    0    0  0.00000000000E+00  0.00000000000E+00 -0.82911410140E+03  0.26119262346E+04  0.24768384005E+04 0.  0.
        5    1    3    3  502    0 -0.35908916608E+03 -0.11848034099E+04 -0.44716053845E+03  0.13163125717E+04  0.46999998093E+01 0.  1.
       -5    1    3    3    0  502  0.35908916608E+03  0.11848034099E+04 -0.38195356295E+03  0.12956136629E+04  0.46999998093E+01 0. -1.
</event>
<event>
 5   0  0.1232559E-05  0.2733080E+04  0.7818609E-02  0.8324351E-01
       -2   -1    0    0    0  501  0.00000000000E+00  0.00000000000E+00  0.14182828974E+04  0.14182828974E+04  0.25500000920E-02 0.  1.
        2   -1    0    0  501    0  0.00000000000E+00  0.00000000000E+00 -0.13166846841E+04  0.13166846841E+04  0.25500000920E-02 0. -1.
    10030    2    1    2    0    0  0.00000000000E+00  0.00000000000E+00  0.10159821332E+03  0.27349675815E+04  0.27330798515E+04 0.  0.
        3    1    3    3  502    0  0.76866122182E+03 -0.66552055150E+03  0.96448707831E+03  0.14014253504E+04  0.10100000352E+00 0.  1.
       -3    1    3    3    0  502 -0.76866122182E+03  0.66552055150E+03 -0.86288886499E+03  0.13335422310E+04  0.10100000352E+00 0. -1.
</event>
<event>
 5   0  0.1276517E-05  0.2670710E+04  0.7818609E-02  0.8344572E-01
       -2   -1    0    0    0  501  0.00000000000E+00  0.00000000000E+00  0.23887278673E+04  0.23887278673E+04  0.25500000920E-02 0. -1.
        2   -1    0    0  501    0  0.00000000000E+00  0.00000000000E+00 -0.74649471790E+03  0.74649471791E+03  0.25500000920E-02 0.  1.
    10030    2    1    2    0    0  0.00000000000E+00  0.00000000000E+00  0.16422331494E+04  0.31352225852E+04  0.26707098198E+04 0.  0.
        1    1    3    3  502    0  0.38326722296E+03 -0.50282151983E+03 -0.55965974284E+03  0.84435908995E+03  0.50400001928E-02 0.  1.
       -1    1    3    3    0  502 -0.38326722296E+03  0.50282151983E+03  0.22018928922E+04  0.22908634952E+04  0.50400001928E-02 0. -1.
</event>
<event>
 5   0  0.4846214E-06  0.2701095E+04  0.7818609E-02  0.8334650E-01
        1   -1    0    0  501    0  0.00000000000E+00  0.00000000000E+00  0.18166298824E+04  0.18166298824E+04  0.50400001928E-02 0. -1.
       -1   -1    0    0    0  501  0.00000000000E+00  0.00000000000E+00 -0.10040452705E+04  0.10040452705E+04  0.50400001928E-02 0.  1.
    10030    2    1    2    0    0  0.00000000000E+00  0.00000000000E+00  0.81258461189E+03  0.28206751529E+04  0.27010950680E+04 0.  0.
        2    1    3    3  502    0  0.16182324375E+03 -0.27757315894E+03 -0.96355280400E+03  0.10157104050E+04  0.25500000920E-02 0.  1.
       -2    1    3    3    0  502 -0.16182324375E+03  0.27757315894E+03  0.17761374159E+04  0.18049647478E+04  0.25500000920E-02 0. -1.
</event>
<event>
 5   0  0.4826140E-06  0.2700421E+04  0.7818609E-02  0.8334868E-01
        1   -1    0    0  501    0  0.00000000000E+00  0.00000000000E+00  0.92788472169E+03  0.92788472170E+03  0.50400001928E-02 0. -1.
       -1   -1    0    0    0  501  0.00000000000E+00  0.00000000000E+00 -0.19647570348E+04  0.19647570348E+04  0.50400001928E-02 0.  1.
    10030    2    1    2    0    0  0.00000000000E+00  0.00000000000E+00 -0.10368723131E+04  0.28926417565E+04  0.27004207335E+04 0.  0.
        1    1    3    3  502    0  0.11191692621E+04  0.73163820037E+03 -0.31736832409E+03  0.13742477748E+04  0.50400001928E-02 0. -1.
       -1    1    3    3    0  502 -0.11191692621E+04 -0.73163820037E+03 -0.71950398900E+03  0.15183939817E+04  0.50400001928E-02 0.  1.
</event>
<event>
 5   0  0.1261364E-05  0.2729662E+04  0.7818609E-02  0.8325444E-01
        2   -1    0    0  501    0  0.00000000000E+00  0.00000000000E+00  0.16390623973E+04  0.16390623973E+04  0.25500000920E-02 0.  1.
       -2   -1    0    0    0  501  0.00000000000E+00  0.00000000000E+00 -0.11364815319E+04  0.11364815319E+04  0.25500000920E-02 0. -1.
    10030    2    1    2    0    0  0.00000000000E+00  0.00000000000E+00  0.50258086546E+03  0.27755439292E+04  0.27296623558E+04 0.  0.
        5    1    3    3  502    0 -0.94601413828E+03 -0.89502792437E+03  0.66647256104E+03  0.14629509561E+04  0.46999998093E+01 0.  1.
       -5    1    3    3    0  502  0.94601413828E+03  0.89502792437E+03 -0.16389169558E+03  0.13125929731E+04  0.46999998093E+01 0. -1.
</event>
<event>
 5   0  0.4824715E-06  0.2701125E+04  0.7818609E-02  0.8334640E-01
       -1   -1    0    0    0  501  0.00000000000E+00  0.00000000000E+00  0.89742323778E+03  0.89742323780E+03  0.50400001928E-02 0. -1.
        1   -1    0    0  501    0  0.00000000000E+00  0.00000000000E+00 -0.20325065777E+04  0.20325065777E+04  0.50400001928E-02 0.  1.
    10030    2    1    2    0    0  0.00000000000E+00  0.00000000000E+00 -0.11350833399E+04  0.29299298155E+04  0.27011246797E+04 0.  0.
        5    1    3    3  502    0 -0.13023445112E+04  0.11658513068E+01 -0.17962575180E+03  0.13146825038E+04  0.46999998093E+01 0.  1.
       -5    1    3    3    0  502  0.13023445112E+04 -0.11658513068E+01 -0.95545758807E+03  0.16152473116E+04  0.46999998093E+01 0. -1.
</event>
<event>
 5   0  0.4756800E-06  0.2646478E+04  0.7818609E-02  0.8352583E-01
       -1   -1    0    0    0  501  0.00000000000E+00  0.00000000000E+00  0.10269371946E+04  0.10269371946E+04  0.50400001928E-02 0.  1.
        1   -1    0    0  501    0  0.00000000000E+00  0.00000000000E+00 -0.17050324712E+04  0.17050324712E+04  0.50400001928E-02 0. -1.
    10030    2    1    2    0    0  0.00000000000E+00  0.00000000000E+00 -0.67809527663E+03  0.27319696658E+04  0.26464778576E+04 0.  0.
        4    1    3    3  502    0 -0.14893181525E+03  0.11958565932E+04 -0.90324306484E+03  0.15060223518E+04  0.12699999809E+01 0. -1.
       -4    1    3    3    0  502  0.14893181525E+03 -0.11958565932E+04  0.22514778820E+03  0.12259473140E+04  0.12699999809E+01 0.  1.
</event>
<event>
 5   0  0.1261364E-05  0.2668069E+04  0.7818609E-02  0.8345440E-01
        2   -1    0    0  501    0  0.00000000000E+00  0.00000000000E+00  0.14043473858E+04  0.14043473858E+04  0.25500000920E-02 0. -1.
       -2   -1    0    0    0  501  0.00000000000E+00  0.00000000000E+00 -0.12672421891E+04  0.12672421891E+04  0.25500000920E-02 0.  1.
    10030    2    1    2    0    0  0.00000000000E+00  0.00000000000E+00  0.13710519670E+03  0.26715895749E+04  0.26680691561E+04 0.  0.
        5    1    3    3  502    0  0.93107919695E+02 -0.39409912850E+03 -0.12042039899E+04  0.12704772911E+04  0.46999998093E+01 0.  1.
       -5    1    3    3    0  502 -0.93107919695E+02  0.39409912850E+03  0.13413091866E+04  0.14011122838E+04  0.46999998093E+01 0. -1.
</event>
<event>
 5   0  0.4188000E-06  0.2738304E+04  0.7818609E-02  0.8322683E-01
        3   -1    0    0  501    0  0.00000000000E+00  0.00000000000E+00  0.13198126665E+04  0.13198126704E+04  0.10100000352E+00 0.  1.
       -3   -1    0    0    0  501  0.00000000000E+00  0.00000000000E+00 -0.14203360519E+04  0.14203360555E+04  0.10100000352E+00 0. -1.
    10030    2    1    2    0    0  0.00000000000E+00  0.00000000000E+00 -0.10052338532E+03  0.27401487259E+04  0.27383042360E+04 0.  0.
        2    1    3    3  502    0 -0.54489384960E+03 -0.11886820418E+04  0.35584811706E+03  0.13551760720E+04  0.25500000920E-02 0.  1.
       -2    1    3    3    0  502  0.54489384960E+03  0.11886820418E+04 -0.45637150238E+03  0.13849726539E+04  0.25500000920E-02 0. -1.
</event>
<event>
 5   0  0.1261364E-05  0.2577039E+04  0.7818609E-02  0.8376043E-01
       -2   -1    0    0    0  501  0.00000000000E+00  0.00000000000E+00  0.16684187154E+04  0.16684187154E+04  0.25500000920E-02 0.  1.
        2   -1    0    0  501    0  0.00000000000E+00  0.00000000000E+00 -0.99512313808E+03  0.99512313809E+03  0.25500000920E-02 0. -1.
    10030    2    1    2    0    0  0.00000000000E+00  0.00000000000E+00  0.67329557735E+03  0.26635418535E+04  0.25770386631E+04 0.  0.
        5    1    3    3  502    0  0.10736858711E+04 -0.12107709175E+03 -0.38891246678E+03  0.11483623160E+04  0.46999998093E+01 0.  1.
       -5    1    3    3    0  502 -0.10736858711E+04  0.12107709175E+03  0.10622080441E+04  0.15151795375E+04  0.46999998093E+01 0. -1.
</event>
<event>
 5   0  0.1286641E-05  0.2700228E+04  0.7818609E-02  0.8334931E-01
        2   -1    0    0  501    0  0.00000000000E+00  0.00000000000E+00  0.28726176304E+04  0.28726176304E+04  0.25500000920E-02 0. -1.
       -2   -1    0    0    0  501  0.00000000000E+00  0.00000000000E+00 -0.63454590430E+03  0.63454590431E+03  0.25500000920E-02 0.  1.
    10030    2    1    2    0    0  0.00000000000E+00  0.00000000000E+00  0.22380717261E+04  0.35071635347E+04  0.27002279548E+04 0.  0.
        4    1    3    3  502    0 -0.10757885988E+04  0.68999694400E+03  0.16842763301E+04  0.21142859932E+04  0.12699999809E+01 0. -1.
       -4    1    3    3    0  502  0.10757885988E+04 -0.68999694400E+03  0.55379539604E+03  0.13928775415E+04  0.12699999809E+01 0.  1.
</event>
<event>
 5   0  0.1276517E-05  0.2691877E+04  0.7818609E-02  0.8337645E-01
        2   -1    0    0  501    0  0.00000000000E+00  0.00000000000E+00  0.22164236683E+04  0.22164236683E+04  0.25500000920E-02 0.  1.
       -2   -1    0    0    0  501  0.00000000000E+00  0.00000000000E+00 -0.81733043104E+03  0.81733043104E+03  0.25500000920E-02 0. -1.
    10030    2    1    2    0    0  0.00000000000E+00  0.00000000000E+00  0.13990932372E+04  0.30337540993E+04  0.26918770493E+04 0.  0.
        1    1    3    3  502    0  0.11941919733E+04 -0.59203672867E+03  0.91023460303E+03  0.16140411983E+04  0.50400001928E-02 0. -1.
       -1    1    3    3    0  502 -0.11941919733E+04  0.59203672867E+03  0.48885863420E+03  0.14197129010E+04  0.50400001928E-02 0.  1.
</event>
<event>
 5   0  0.1276517E-05  0.2596501E+04  0.7818609E-02  0.8369391E-01
        2   -1    0    0  501    0  0.00000000000E+00  0.00000000000E+00  0.22722578943E+04  0.22722578943E+04  0.25500000920E-02 0. -1.
       -2   -1    0    0    0  501  0.00000000000E+00  0.00000000000E+00 -0.74175311381E+03  0.74175311382E+03  0.25500000920E-02 0.  1.
    10030    2    1    2    0    0  0.00000000000E+00  0.00000000000E+00  0.15305047805E+04  0.30140110081E+04  0.25965010060E+04 0.  0.
        1    1    3    3  502    0 -0.58517848645E+03  0.89638422219E+03  0.16178781242E+04  0.19399660202E+04  0.50400001928E-02 0. -1.
       -1    1    3    3    0  502  0.58517848645E+03 -0.89638422219E+03 -0.87373343723E+02  0.10740449879E+04  0.50400001928E-02 0.  1.
</event>
<event>
 5   0  0.4846214E-06  0.2695372E+04  0.7818609E-02  0.8336508E-01
        1   -1    0    0  501    0  0.00000000000E+00  0.00000000000E+00  0.27301673243E+04  0.27301673243E+04  0.50400001928E-02 0. -1.
       -1   -1    0    0    0  501  0.00000000000E+00  0.00000000000E+00 -0.66525508195E+03  0.66525508197E+03  0.50400001928E-02 0.  1.
    10030    2    1    2    0    0  0.00000000000E+00  0.00000000000E+00  0.20649122424E+04  0.33954224063E+04  0.26953720983E+04 0.  0.
        2    1    3    3  502    0 -0.34410244292E+03  0.11989239751E+04  0.38958684599E+03  0.13067528840E+04  0.25500000920E-02 0.  1.
       -2    1    3    3    0  502  0.34410244292E+03 -0.11989239751E+04  0.16753253964E+04  0.20886695222E+04  0.25500000920E-02 0. -1.
</event>
<event>
 5   0  0.1276517E-05  0.2512054E+04  0.7818609E-02  0.8398704E-01
       -2   -1    0    0    0  501  0.00000000000E+00  0.00000000000E+00  0.10615811652E+04  0.10615811652E+04  0.25500000920E-02 0. -1.
        2   -1    0    0  501    0  0.00000000000E+00  0.00000000000E+00 -0.14860885184E+04  0.14860885184E+04  0.25500000920E-02 0.  1.
    10030    2    1    2    0    0  0.00000000000E+00  0.00000000000E+00 -0.42450735327E+03  0.25476696836E+04  0.25120538059E+04 0.  0.
        1    1    3    3  502    0 -0.11006399321E+04  0.52031561460E+03 -0.52561167063E+03  0.13260483503E+04  0.50400001928E-02 0. -1.
       -1    1    3    3    0  502  0.11006399321E+04 -0.52031561460E+03  0.10110431736E+03  0.12216213333E+04  0.50400001928E-02 0.  1.
</event>
<event>
 5   0  0.4824715E-06  0.2701798E+04  0.7818609E-02  0.8334422E-01
        1   -1    0    0  501    0  0.00000000000E+00  0.00000000000E+00  0.14027447352E+04  0.14027447352E+04  0.50400001928E-02 0. -1.
       -1   -1    0    0    0  501  0.00000000000E+00  0.00000000000E+00 -0.13009697663E+04  0.13009697663E+04  0.50400001928E-02 0.  1.
    10030    2    1    2    0    0  0.00000000000E+00  0.00000000000E+00  0.10177496890E+03  0.27037145014E+04  0.27017982828E+04 0.  0.
        5    1    3    3  502    0 -0.67982398761E+03  0.11628116442E+04  0.15398883449E+03  0.13557382584E+04  0.46999998093E+01 0. -1.
       -5    1    3    3    0  502  0.67982398761E+03 -0.11628116442E+04 -0.52213865597E+02  0.13479762431E+04  0.46999998093E+01 0.  1.
</event>
<event>
 5   0  0.5152288E-06  0.2693204E+04  0.7818609E-02  0.8337213E-01
        1   -1    0    0  501    0  0.00000000000E+00  0.00000000000E+00  0.24949561418E+04  0.24949561418E+04  0.50400001928E-02 0. -1.
       -1   -1    0    0    0  501  0.00000000000E+00  0.00000000000E+00 -0.72680107732E+03  0.72680107734E+03  0.50400001928E-02 0.  1.
    10030    2    1    2    0    0  0.00000000000E+00  0.00000000000E+00  0.17681550644E+04  0.32217572191E+04  0.26932039000E+04 0.  0.
        3    1    3    3  502    0 -0.39349093321E+03  0.12287229244E+04  0.42271758309E+03  0.13576764360E+04  0.10100000352E+00 0.  1.
       -3    1    3    3    0  502  0.39349093321E+03 -0.12287229244E+04  0.13454374814E+04  0.18640807831E+04  0.10100000352E+00 0. -1.
</event>
<event>
 5   0  0.1286641E-05  0.2712833E+04  0.7818609E-02  0.8330853E-01
        2   -1    0    0  501    0  0.00000000000E+00  0.00000000000E+00  0.19146144969E+04  0.19146144969E+04  0.25500000920E-02 0. -1.
       -2   -1    0    0    0  501  0.00000000000E+00  0.00000000000E+00 -0.96095873932E+03  0.96095873933E+03  0.25500000920E-02 0.  1.
    10030    2    1    2    0    0  0.00000000000E+00  0.00000000000E+00  0.95365575761E+03  0.28755732363E+04  0.27128328613E+04 0.  0.
        4    1    3    3  502    0 -0.94179312537E+03 -0.77108775537E+03  0.11113296832E+04  0.16482129399E+04  0.12699999809E+01 0.  1.
       -4    1    3    3    0  502  0.94179312537E+03  0.77108775537E+03 -0.15767392559E+03  0.12273602964E+04  0.12699999809E+01 0. -1.
</event>
<event>
 5   0  0.4826140E-06  0.2693473E+04  0.7818609E-02  0.8337126E-01
        1   -1    0    0  501    0  0.00000000000E+00  0.00000000000E+00  0.17131972307E+04  0.17131972308E+04  0.50400001928E-02 0. -1.
       -1   -1    0    0    0  501  0.00000000000E+00  0.00000000000E+00 -0.10586633080E+04  0.10586633081E+04  0.50400001928E-02 0.  1.
    10030    2    1    2    0    0  0.00000000000E+00  0.00000000000E+00  0.65453392271E+03  0.27718605388E+04  0.26934728866E+04 0.  0.
        1    1    3    3  502    0 -0.11928596234E+04 -0.10325030629E+03 -0.30721840145E+03  0.12361059230E+04  0.50400001928E-02 0.  1.
       -1    1    3    3    0  502  0.11928596234E+04  0.10325030629E+03  0.96175232416E+03  0.15357546158E+04  0.50400001928E-02 0. -1.
</event>
<event>
 5   0  0.1232559E-05  0.2711451E+04  0.7818609E-02  0.8331299E-01
        2   -1    0    0  501    0  0.00000000000E+00  0.00000000000E+00  0.15555667345E+04  0.15555667345E+04  0.25500000920E-02 0. -1.
       -2   -1    0    0    0  501  0.00000000000E+00  0.00000000000E+00 -0.11815571679E+04  0.11815571679E+04  0.25500000920E-02 0.  1.
    10030    2    1    2    0    0  0.00000000000E+00  0.00000000000E+00  0.37400956657E+03  0.27371239025E+04  0.27114505530E+04 0.  0.
        3    1    3    3  502    0  0.70004210792E+03 -0.11299189796E+04 -0.82383685009E+02  0.13317518294E+04  0.10100000352E+00 0.  1.
       -3    1    3    3    0  502 -0.70004210792E+03  0.11299189796E+04  0.45639325158E+03  0.14053720730E+04  0.10100000352E+00 0. -1.
</event>
<event>
 5   0  0.1232559E-05  0.2672035E+04  0.7818609E-02  0.8344136E-01
        2   -1    0    0  501    0  0.00000000000E+00  0.00000000000E+00  0.16540140071E+04  0.16540140071E+04  0.25500000920E-02 0. -1.
       -2   -1    0    0    0  501  0.00000000000E+00  0.00000000000E+00 -0.10791582306E+04  0.10791582306E+04  0.25500000920E-02 0.  1.
    10030    2    1    2    0    0  0.00000000000E+00  0.00000000000E+00  0.57485577657E+03  0.27331722377E+04  0.26720350516E+04 0.  0.
        3    1    3    3  502    0 -0.90163385180E+03 -0.13135464024E+03 -0.71203940304E+03  0.11563726760E+04  0.10100000352E+00 0.  1.
       -3    1    3    3    0  502  0.90163385180E+03  0.13135464024E+03  0.12868951796E+04  0.15767995617E+04  0.10100000352E+00 0. -1.
</event>
<event>
 5   0  0.1232559E-05  0.2697901E+04  0.7818609E-02  0.8335686E-01
       -2   -1    0    0    0  501  0.00000000000E+00  0.00000000000E+00  0.75155434466E+03  0.75155434467E+03  0.25500000920E-02 0. -1.
        2   -1    0    0  501    0  0.00000000000E+00  0.00000000000E+00 -0.24212049766E+04  0.24212049766E+04  0.25500000920E-02 0.  1.
    10030    2    1    2    0    0  0.00000000000E+00  0.00000000000E+00 -0.16696506319E+04  0.31727593212E+04  0.26979007539E+04 0.  0.
        3    1    3    3  502    0  0.12510562967E+04  0.45156589454E+03 -0.10993975847E+04  0.17256096529E+04  0.10100000352E+00 0. -1.
       -3    1    3    3    0  502 -0.12510562967E+04 -0.45156589454E+03 -0.57025304723E+03  0.14471496684E+04  0.10100000352E+00 0.  1.
</event>
<event>
 5   0  0.4846214E-06  0.2184509E+04  0.7818609E-02  0.8524904E-01
        1   -1    0    0  501    0  0.00000000000E+00  0.00000000000E+00  0.15410535367E+04  0.15410535367E+04  0.50400001928E-02 0. -1.
       -1   -1    0    0    0  501  0.00000000000E+00  0.00000000000E+00 -0.77415845879E+03  0.77415845880E+03  0.50400001928E-02 0.  1.
    10030    2    1    2    0    0  0.00000000000E+00  0.00000000000E+00  0.76689507790E+03  0.23152119955E+04  0.21845087602E+04 0.  0.
        2    1    3    3  502    0 -0.10300700740E+03  0.92993620120E+03  0.98075269003E+03  0.13554584541E+04  0.25500000920E-02 0. -1.
       -2    1    3    3    0  502  0.10300700740E+03 -0.92993620120E+03 -0.21385761213E+03  0.95975354136E+03  0.25500000920E-02 0.  1.
</event>
<event>
 5   0  0.1261364E-05  0.2714650E+04  0.7818609E-02  0.8330267E-01
        2   -1    0    0  501    0  0.00000000000E+00  0.00000000000E+00  0.16381435447E+04  0.16381435447E+04  0.25500000920E-02 0.  1.
       -2   -1    0    0    0  501  0.00000000000E+00  0.00000000000E+00 -0.11246458071E+04  0.11246458071E+04  0.25500000920E-02 0. -1.
    10030    2    1    2    0    0  0.00000000000E+00  0.00000000000E+00  0.51349773762E+03  0.27627893518E+04  0.27146500835E+04 0.  0.
        5    1    3    3  502    0 -0.29287327896E+03 -0.68381111081E+03  0.14121950606E+04  0.15961482926E+04  0.46999998093E+01 0.  1.
       -5    1    3    3    0  502  0.29287327896E+03  0.68381111081E+03 -0.89869732297E+03  0.11666410592E+04  0.46999998093E+01 0. -1.
</event>
<event>
 5   0  0.1261364E-05  0.2774731E+04  0.7818609E-02  0.8311157E-01
        2   -1    0    0  501    0  0.00000000000E+00  0.00000000000E+00  0.24765302350E+04  0.24765302350E+04  0.25500000920E-02 0.  1.
       -2   -1    0    0    0  501  0.00000000000E+00  0.00000000000E+00 -0.77720942333E+03  0.77720942333E+03  0.25500000920E-02 0. -1.
    10030    2    1    2    0    0  0.00000000000E+00  0.00000000000E+00  0.16993208117E+04  0.32537396583E+04  0.27747307154E+04 0.  0.
        5    1    3    3  502    0  0.12842931695E+04 -0.73889772724E+02  0.14588561854E+04  0.19450326742E+04  0.46999998093E+01 0.  1.
       -5    1    3    3    0  502 -0.12842931695E+04  0.73889772724E+02  0.24046462622E+03  0.13087069841E+04  0.46999998093E+01 0. -1.
</event>
<event>
 5   0  0.1286641E-05  0.2684694E+04  0.7818609E-02  0.8339988E-01
       -2   -1    0    0    0  501  0.00000000000E+00  0.00000000000E+00  0.15634742789E+04  0.15634742789E+04  0.25500000920E-02 0. -1.
        2   -1    0    0  501    0  0.00000000000E+00  0.00000000000E+00 -0.11524941176E+04  0.11524941176E+04  0.25500000920E-02 0.  1.
    10030    2    1    2    0    0  0.00000000000E+00  0.00000000000E+00  0.41098016131E+03  0.27159683965E+04  0.26846935836E+04 0.  0.
        4    1    3    3  502    0 -0.26655949601E+02 -0.98722702826E+03 -0.71425746579E+03  0.12188080593E+04  0.12699999809E+01 0.  1.
       -4    1    3    3    0  502  0.26655949601E+02  0.98722702826E+03  0.11252376271E+04  0.14971603372E+04  0.12699999809E+01 0. -1.
</event>
<event>
 5   0  0.1286641E-05  0.2684703E+04  0.7818609E-02  0.8339985E-01
       -2   -1    0    0    0  501  0.00000000000E+00  0.00000000000E+00  0.16669224139E+04  0.16669224139E+04  0.25500000920E-02 0.  1.
        2   -1    0    0  501    0  0.00000000000E+00  0.00000000000E+00 -0.10809789789E+04  0.10809789789E+04  0.25500000920E-02 0. -1.
    10030    2    1    2    0    0  0.00000000000E+00  0.00000000000E+00  0.58594343505E+03  0.27479013928E+04  0.26847034018E+04 0.  0.
        4    1    3    3  502    0  0.14976996454E+03 -0.61548438235E+03  0.15043236247E+04  0.16322509758E+04  0.12699999809E+01 0.  1.
       -4    1    3    3    0  502 -0.14976996454E+03  0.61548438235E+03 -0.91838018969E+03  0.11156504170E+04  0.12699999809E+01 0. -1.
</event>
<event>
 5   0  0.4756800E-06  0.2700467E+04  0.7818609E-02  0.8334853E-01
       -1   -1    0    0    0  501  0.00000000000E+00  0.00000000000E+00  0.71961208726E+03  0.71961208728E+03  0.50400001928E-02 0. -1.
        1   -1    0    0  501    0  0.00000000000E+00  0.00000000000E+00 -0.25334905015E+04  0.25334905015E+04  0.50400001928E-02 0.  1.
    10030    2    1    2    0    0  0.00000000000E+00  0.00000000000E+00 -0.18138784143E+04  0.32531025888E+04  0.27004669136E+04 0.  0.
        4    1    3    3  502    0 -0.46707322154E+03  0.57834732570E+03  0.45088578504E+03  0.86944961181E+03  0.12699999809E+01 0. -1.
       -4    1    3    3    0  502  0.46707322154E+03 -0.57834732570E+03 -0.22647641993E+04  0.23836529770E+04  0.12699999809E+01 0.  1.
</event>
<event>
 5   0  0.1232559E-05  0.2699179E+04  0.7818609E-02  0.8335271E-01
       -2   -1    0    0    0  501  0.00000000000E+00  0.00000000000E+00  0.13252865689E+04  0.13252865689E+04  0.25500000920E-02 0.  1.
        2   -1    0    0  501    0  0.00000000000E+00  0.00000000000E+00 -0.13743381475E+04  0.13743381475E+04  0.25500000920E-02 0. -1.
    10030    2    1    2    0    0  0.00000000000E+00  0.00000000000E+00 -0.49051578610E+02  0.26996247163E+04  0.26991790514E+04 0.  0.
        3    1    3    3  502    0  0.70938878873E+03 -0.10063860360E+04 -0.57719875881E+03  0.13598543027E+04  0.10100000352E+00 0. -1.
       -3    1    3    3    0  502 -0.70938878873E+03  0.10063860360E+04  0.52814718020E+03  0.13397704136E+04  0.10100000352E+00 0.  1.
</event>
<event>
 5   0  0.4756800E-06  0.2726296E+04  0.7818609E-02  0.8326523E-01
       -1   -1    0    0    0  501  0.00000000000E+00  0.00000000000E+00  0.15448978845E+04  0.15448978845E+04  0.50400001928E-02 0. -1.
        1   -1    0    0  501    0  0.00000000000E+00  0.00000000000E+00 -0.12027801082E+04  0.12027801082E+04  0.50400001928E-02 0.  1.
    10030    2    1    2    0    0  0.00000000000E+00  0.00000000000E+00  0.34211777628E+03  0.27476779927E+04  0.27262959815E+04 0.  0.
        4    1    3    3  502    0  0.65453127956E+03 -0.11145946128E+04  0.60739606211E+03  0.14281680349E+04  0.12699999809E+01 0. -1.
       -4    1    3    3    0  502 -0.65453127956E+03  0.11145946128E+04 -0.26527828583E+03  0.13195099577E+04  0.12699999809E+01 0.  1.
</event>
<event>
 5   0  0.1276517E-05  0.2691210E+04  0.7818609E-02  0.8337863E-01
        2   -1    0    0  501    0  0.00000000000E+00  0.00000000000E+00  0.64777033763E+03  0.64777033764E+03  0.25500000920E-02 0. -1.
       -2   -1    0    0    0  501  0.00000000000E+00  0.00000000000E+00 -0.27952072386E+04  0.27952072386E+04  0.25500000920E-02 0.  1.
    10030    2    1    2    0    0  0.00000000000E+00  0.00000000000E+00 -0.21474369010E+04  0.34429775762E+04  0.26912096438E+04 0.  0.
        1    1    3    3  502    0  0.12851649485E+04 -0.37205725926E+03 -0.89020180931E+03  0.16070266987E+04  0.50400001928E-02 0. -1.
       -1    1    3    3    0  502 -0.12851649485E+04  0.37205725926E+03 -0.12572350917E+04  0.18359508775E+04  0.50400001928E-02 0.  1.
</event>
<event>
 5   0  0.1220908E-05  0.2665666E+04  0.7818609E-02  0.8346232E-01
       -2   -1    0    0    0  501  0.00000000000E+00  0.00000000000E+00  0.12178400081E+04  0.12178400081E+04  0.25500000920E-02 0. -1.
        2   -1    0    0  501    0  0.00000000000E+00  0.00000000000E+00 -0.14586838491E+04  0.14586838491E+04  0.25500000920E-02 0.  1.
    10030    2    1    2    0    0  0.00000000000E+00  0.00000000000E+00 -0.24084384102E+03  0.26765238573E+04  0.26656658085E+04 0.  0.
        2    1    3    3  502    0 -0.19108983539E+03 -0.12649743240E+04  0.25495674005E+03  0.13044839228E+04  0.25500000920E-02 0.  1.
       -2    1    3    3    0  502  0.19108983539E+03  0.12649743240E+04 -0.49580058106E+03  0.13720399345E+04  0.25500000920E-02 0. -1.
</event>
<event>
 5   0  0.4756800E-06  0.2697784E+04  0.7818609E-02  0.8335724E-01
       -1   -1    0    0    0  501  0.00000000000E+00  0.00000000000E+00  0.13232442979E+04  0.13232442979E+04  0.50400001928E-02 0.  1.
        1   -1    0    0  501    0  0.00000000000E+00  0.00000000000E+00 -0.13750370677E+04  0.13750370677E+04  0.50400001928E-02 0. -1.
    10030    2    1    2    0    0  0.00000000000E+00  0.00000000000E+00 -0.51792769723E+02  0.26982813656E+04  0.26977842458E+04 0.  0.
        4    1    3    3  502    0  0.51392727782E+03 -0.52930693969E+03 -0.11553614244E+04  0.13708204540E+04  0.12699999809E+01 0. -1.
       -4    1    3    3    0  502 -0.51392727782E+03  0.52930693969E+03  0.11035686547E+04  0.13274609116E+04  0.12699999809E+01 0.  1.
</event>
<event>
 5   0  0.4846214E-06  0.2683511E+04  0.7818609E-02  0.8340375E-01
        1   -1    0    0  501    0  0.00000000000E+00  0.00000000000E+00  0.21742362119E+04  0.21742362119E+04  0.50400001928E-02 0.  1.
       -1   -1    0    0    0  501  0.00000000000E+00  0.00000000000E+00 -0.82801830445E+03  0.82801830447E+03  0.50400001928E-02 0. -1.
    10030    2    1    2    0    0  0.00000000000E+00  0.00000000000E+00  0.13462179075E+04  0.30022545164E+04  0.26835106720E+04 0.  0.
        2    1    3    3  502    0  0.20755799661E+03 -0.74537035059E+03 -0.55329401618E+03  0.95120531425E+03  0.25500000920E-02 0. -1.
       -2    1    3    3    0  502 -0.20755799661E+03  0.74537035059E+03  0.18995119236E+04  0.20510492021E+04  0.25500000920E-02 0.  1.
</event>
<event>
 5   0  0.1286641E-05  0.2660912E+04  0.7818609E-02  0.8347800E-01
        2   -1    0    0  501    0  0.00000000000E+00  0.00000000000E+00  0.22815014611E+04  0.22815014611E+04  0.25500000920E-02 0.  1.
       -2   -1    0    0    0  501  0.00000000000E+00  0.00000000000E+00 -0.77585422279E+03  0.77585422279E+03  0.25500000920E-02 0. -1.
    10030    2    1    2    0    0  0.00000000000E+00  0.00000000000E+00  0.15056472383E+04  0.30573556839E+04  0.26609115302E+04 0.  0.
        4    1    3    3  502    0 -0.58191822382E+03  0.11208985830E+04  0.12335738574E+04  0.17654315413E+04  0.12699999809E+01 0.  1.
       -4    1    3    3    0  502  0.58191822382E+03 -0.11208985830E+04  0.27207338096E+03  0.12919241426E+04  0.12699999809E+01 0. -1.
</event>
<event>
 5   0  0.1286641E-05  0.2707735E+04  0.7818609E-02  0.8332500E-01
       -2   -1    0    0    0  501  0.00000000000E+00  0.00000000000E+00  0.96973746651E+03  0.96973746651E+03  0.25500000920E-02 0.  1.
        2   -1    0    0  501    0  0.00000000000E+00  0.00000000000E+00 -0.18901582397E+04  0.18901582397E+04  0.25500000920E-02 0. -1.
    10030    2    1    2    0    0  0.00000000000E+00  0.00000000000E+00 -0.92042077314E+03  0.28598957062E+04  0.27077350407E+04 0.  0.
        4    1    3    3  502    0  0.75503242260E+03 -0.62278021453E+03  0.52778435271E+03  0.11119744110E+04  0.12699999809E+01 0.  1.
       -4    1    3    3    0  502 -0.75503242260E+03  0.62278021453E+03 -0.14482051259E+04  0.17479212952E+04  0.12699999809E+01 0. -1.
</event>
<event>
 5   0  0.4756800E-06  0.2679133E+04  0.7818609E-02  0.8341807E-01
       -1   -1    0    0    0  501  0.00000000000E+00  0.00000000000E+00  0.94842697003E+03  0.94842697004E+03  0.50400001928E-02 0. -1.
        1   -1    0    0  501    0  0.00000000000E+00  0.00000000000E+00 -0.18920156894E+04  0.18920156894E+04  0.50400001928E-02 0.  1.
    10030    2    1    2    0    0  0.00000000000E+00  0.00000000000E+00 -0.94358871942E+03  0.28404426595E+04  0.26791332237E+04 0.  0.
        4    1    3    3  502    0  0.96448554719E+03 -0.45499134487E+03  0.38768687037E+03  0.11347035811E+04  0.12699999809E+01 0. -1.
       -4    1    3    3    0  502 -0.96448554719E+03  0.45499134487E+03 -0.13312755898E+04  0.17057390784E+04  0.12699999809E+01 0.  1.
</event>
<event>
 5   0  0.4846214E-06  0.2705671E+04  0.7818609E-02  0.8333167E-01
        1   -1    0    0  501    0  0.00000000000E+00  0.00000000000E+00  0.16866322885E+04  0.16866322885E+04  0.50400001928E-02 0. -1.
       -1   -1    0    0    0  501  0.00000000000E+00  0.00000000000E+00 -0.10850992341E+04  0.10850992341E+04  0.50400001928E-02 0.  1.
    10030    2    1    2    0    0  0.00000000000E+00  0.00000000000E+00  0.60153305441E+03  0.27717315225E+04  0.27056706410E+04 0.  0.
        2    1    3    3  502    0 -0.72536687997E+03  0.90143725599E+01  0.14705420879E+04  0.16397354670E+04  0.25500000920E-02 0. -1.
       -2    1    3    3    0  502  0.72536687997E+03 -0.90143725599E+01 -0.86900903349E+03  0.11319960555E+04  0.25500000920E-02 0.  1.
</event>
<event>
 5   0  0.1261364E-05  0.2745665E+04  0.7818609E-02  0.8320339E-01
       -2   -1    0    0    0  501  0.00000000000E+00  0.00000000000E+00  0.17469793986E+04  0.17469793986E+04  0.25500000920E-02 0.  1.
        2   -1    0    0  501    0  0.00000000000E+00  0.00000000000E+00 -0.10788158322E+04  0.10788158322E+04  0.25500000920E-02 0. -1.
    10030    2    1    2    0    0  0.00000000000E+00  0.00000000000E+00  0.66816356638E+03  0.28257952309E+04  0.27456649714E+04 0.  0.
        5    1    3    3  502    0  0.70170122762E+03  0.53678623639E+02  0.15472019223E+04  0.16997417115E+04  0.46999998093E+01 0.  1.
       -5    1    3    3    0  502 -0.70170122762E+03 -0.53678623639E+02 -0.87903835588E+03  0.11260535194E+04  0.46999998093E+01 0. -1.
</event>
<event>
 5   0  0.4188000E-06  0.2691941E+04  0.7818609E-02  0.8337625E-01
       -4   -1    0    0    0  501  0.00000000000E+00  0.00000000000E+00  0.11333043616E+04  0.11333050732E+04  0.12699999809E+01 0. -1.
        4   -1    0    0  501    0  0.00000000000E+00  0.00000000000E+00 -0.15985424716E+04  0.15985429761E+04  0.12699999809E+01 0.  1.
    10030    2    1    2    0    0  0.00000000000E+00  0.00000000000E+00 -0.46523811007E+03  0.27318480493E+04  0.26919411705E+04 0.  0.
        2    1    3    3  502    0  0.45831569500E+03 -0.34546092748E+03  0.10029023716E+04  0.11555127415E+04  0.25500000920E-02 0. -1.
       -2    1    3    3    0  502 -0.45831569500E+03  0.34546092748E+03 -0.14681404817E+04  0.15763353078E+04  0.25500000920E-02 0.  1.
</event>
<event>
 5   0  0.4824715E-06  0.2695693E+04  0.7818609E-02  0.8336404E-01
       -1   -1    0    0    0  501  0.00000000000E+00  0.00000000000E+00  0.14068552774E+04  0.14068552774E+04  0.50400001928E-02 0. -1.
        1   -1    0    0  501    0  0.00000000000E+00  0.00000000000E+00 -0.12913123452E+04  0.12913123452E+04  0.50400001928E-02 0.  1.
    10030    2    1    2    0    0  0.00000000000E+00  0.00000000000E+00  0.11554293221E+03  0.26981676227E+04  0.26956925550E+04 0.  0.
        5    1    3    3  502    0 -0.24299579900E+03 -0.12895786931E+04 -0.25009399484E+03  0.13359001686E+04  0.46999998093E+01 0.  1.
       -5    1    3    3    0  502  0.24299579900E+03  0.12895786931E+04  0.36563692705E+03  0.13622674541E+04  0.46999998093E+01 0. -1.
</event>
<event>
 5   0  0.1220908E-05  0.2660875E+04  0.7818609E-02  0.8347813E-01
        2   -1    0    0  501    0  0.00000000000E+00  0.00000000000E+00  0.11743383082E+04  0.11743383082E+04  0.25500000920E-02 0. -1.
       -2   -1    0    0    0  501  0.00000000000E+00  0.00000000000E+00 -0.15072857098E+04  0.15072857098E+04  0.25500000920E-02 0.  1.
    10030    2    1    2    0    0  0.00000000000E+00  0.00000000000E+00 -0.33294740162E+03  0.26816240179E+04  0.26608745557E+04 0.  0.
        2    1    3    3  502    0 -0.11518224753E+04 -0.66318470234E+03 -0.22655728060E+03  0.13482719182E+04  0.25500000920E-02 0.  1.
       -2    1    3    3    0  502  0.11518224753E+04  0.66318470234E+03 -0.10639012102E+03  0.13333520997E+04  0.25500000920E-02 0. -1.
</event>
<event>
 5   0  0.4756800E-06  0.2697141E+04  0.7818609E-02  0.8335933E-01
        1   -1    0    0  501    0  0.00000000000E+00  0.00000000000E+00  0.22159367860E+04  0.22159367860E+04  0.50400001928E-02 0.  1.
       -1   -1    0    0    0  501  0.00000000000E+00  0.00000000000E+00 -0.82071012519E+03  0.82071012520E+03  0.50400001928E-02 0. -1.
    10030    2    1    2    0    0  0.00000000000E+00  0.00000000000E+00  0.13952266608E+04  0.30366469112E+04  0.26971405281E+04 0.  0.
        4    1    3    3  502    0 -0.52062147103E+03 -0.11745381967E+04  0.23606791483E+03  0.13062604506E+04  0.12699999809E+01 0. -1.
       -4    1    3    3    0  502  0.52062147103E+03  0.11745381967E+04  0.11591587460E+04  0.17303864606E+04  0.12699999809E+01 0.  1.
</event>
<event>
 5   0  0.1232559E-05  0.2688638E+04  0.7818609E-02  0.8338701E-01
       -2   -1    0    0    0  501  0.00000000000E+00  0.00000000000E+00  0.95850427448E+03  0.95850427448E+03  0.25500000920E-02 0. -1.
        2   -1    0    0  501    0  0.00000000000E+00  0.00000000000E+00 -0.18854313273E+04  0.18854313273E+04  0.25500000920E-02 0.  1.
    10030    2    1    2    0    0  0.00000000000E+00  0.00000000000E+00 -0.92692705278E+03  0.28439356017E+04  0.26886383070E+04 0.  0.
        3    1    3    3  502    0  0.26007325295E+03  0.10802376238E+04  0.33697721483E+03  0.11610792714E+04  0.10100000352E+00 0. -1.
       -3    1    3    3    0  502 -0.26007325295E+03 -0.10802376238E+04 -0.12639042676E+04  0.16828563304E+04  0.10100000352E+00 0.  1.
</event>
<event>
 5   0  0.4188000E-06  0.2670379E+04  0.7818609E-02  0.8344680E-01
        4   -1    0    0  501    0  0.00000000000E+00  0.00000000000E+00  0.12595281472E+04  0.12595287875E+04  0.12699999809E+01 0. -1.
       -4   -1    0    0    0  501  0.00000000000E+00  0.00000000000E+00 -0.14153947609E+04  0.14153953307E+04  0.12699999809E+01 0.  1.
    10030    2    1    2    0    0  0.00000000000E+00  0.00000000000E+00 -0.15586661377E+03  0.26749241182E+04  0.26703791185E+04 0.  0.
        5    1    3    3  502    0 -0.12716472844E+04  0.32235016027E+03 -0.32677638340E+03  0.13519620322E+04  0.46999998093E+01 0.  1.
       -5    1    3    3    0  502  0.12716472844E+04 -0.32235016027E+03  0.17090976963E+03  0.13229620860E+04  0.46999998093E+01 0. -1.
</event>
<event>
 5   0  0.1220908E-05  0.2706135E+04  0.7818609E-02  0.8333017E-01
       -2   -1    0    0    0  501  0.00000000000E+00  0.00000000000E+00  0.86218040521E+03  0.86218040521E+03  0.25500000920E-02 0.  1.
        2   -1    0    0  501    0  0.00000000000E+00  0.00000000000E+00 -0.21234440774E+04  0.21234440774E+04  0.25500000920E-02 0. -1.
    10030    2    1    2    0    0  0.00000000000E+00  0.00000000000E+00 -0.12612636722E+04  0.29856244826E+04  0.27061351593E+04 0.  0.
        2    1    3    3  502    0  0.94795680939E+03 -0.49432233395E+03  0.28436919139E+03  0.11062741610E+04  0.25500000920E-02 0.  1.
       -2    1    3    3    0  502 -0.94795680939E+03  0.49432233395E+03 -0.15456328636E+04  0.18793503216E+04  0.25500000920E-02 0. -1.
</event>
<event>
 5   0  0.5152288E-06  0.2653999E+04  0.7818609E-02  0.8350087E-01
        1   -1    0    0  501    0  0.00000000000E+00  0.00000000000E+00  0.90351661224E+03  0.90351661226E+03  0.50400001928E-02 0. -1.
       -1   -1    0    0    0  501  0.00000000000E+00  0.00000000000E+00 -0.19489708962E+04  0.19489708962E+04  0.50400001928E-02 0.  1.
    10030    2    1    2    0    0  0.00000000000E+00  0.00000000000E+00 -0.10454542839E+04  0.28524875084E+04  0.26539989310E+04 0.  0.
        3    1    3    3  502    0  0.87887690619E+03 -0.73936125040E+03  0.19170239836E+03  0.11644009166E+04  0.10100000352E+00 0. -1.
       -3    1    3    3    0  502 -0.87887690619E+03  0.73936125040E+03 -0.12371566823E+04  0.16880865918E+04  0.10100000352E+00 0.  1.
</event>
<event>
 5   0  0.1220908E-05  0.2699810E+04  0.7818609E-02  0.8335067E-01
        2   -1    0    0  501    0  0.00000000000E+00  0.00000000000E+00  0.23873279897E+04  0.23873279897E+04  0.25500000920E-02 0. -1.
       -2   -1    0    0    0  501  0.00000000000E+00  0.00000000000E+00 -0.76329827935E+03  0.76329827935E+03  0.25500000920E-02 0.  1.
    10030    2    1    2    0    0  0.00000000000E+00  0.00000000000E+00  0.16240297103E+04  0.31506262690E+04  0.26998098798E+04 0.  0.
        2    1    3    3  502    0  0.63159366147E+03  0.33137313621E+03  0.21494810663E+04  0.22647268187E+04  0.25500000920E-02 0. -1.
       -2    1    3    3    0  502 -0.63159366147E+03 -0.33137313621E+03 -0.52545135601E+03  0.88589945036E+03  0.25500000920E-02 0.  1.
</event>
<event>
 5   0  0.4824715E-06  0.2677771E+04  0.7818609E-02  0.8342254E-01
       -1   -1    0    0    0  501  0.00000000000E+00  0.00000000000E+00  0.12129221031E+04  0.12129221032E+04  0.50400001928E-02 0. -1.
        1   -1    0    0  501    0  0.00000000000E+00  0.00000000000E+00 -0.14779298838E+04  0.14779298838E+04  0.50400001928E-02 0.  1.
    10030    2    1    2    0    0  0.00000000000E+00  0.00000000000E+00 -0.26500778062E+03  0.26908519869E+04  0.26777705824E+04 0.  0.
        5    1    3    3  502    0  0.66493157475E+03 -0.83557511443E+03  0.67907510574E+03  0.12654978705E+04  0.46999998093E+01 0. -1.
       -5    1    3    3    0  502 -0.66493157475E+03  0.83557511443E+03 -0.94408288636E+03  0.14253541164E+04  0.46999998093E+01 0.  1.
</event>
<event>
 5   0  0.4756800E-06  0.2660036E+04  0.7818609E-02  0.8348090E-01
        1   -1    0    0  501    0  0.00000000000E+00  0.00000000000E+00  0.97894064807E+03  0.97894064809E+03  0.50400001928E-02 0.  1.
       -1   -1    0    0    0  501  0.00000000000E+00  0.00000000000E+00 -0.18070018345E+04  0.18070018345E+04  0.50400001928E-02 0. -1.
    10030    2    1    2    0    0  0.00000000000E+00  0.00000000000E+00 -0.82806118641E+03  0.27859424826E+04  0.26600357493E+04 0.  0.
        4    1    3    3  502    0 -0.30285542223E+03 -0.21613884536E+03  0.92332287937E+03  0.99547182769E+03  0.12699999809E+01 0.  1.
       -4    1    3    3    0  502  0.30285542223E+03  0.21613884536E+03 -0.17513840658E+04  0.17904706549E+04  0.12699999809E+01 0. -1.
</event>
<event>
 5   0  0.1232559E-05  0.2628897E+04  0.7818609E-02  0.8358451E-01
        2   -1    0    0  501    0  0.00000000000E+00  0.00000000000E+00  0.15072799670E+04  0.15072799670E+04  0.25500000920E-02 0. -1.
       -2   -1    0    0    0  501  0.00000000000E+00  0.00000000000E+00 -0.11462862900E+04  0.11462862900E+04  0.25500000920E-02 0.  1.
    10030    2    1    2    0    0  0.00000000000E+00  0.00000000000E+00  0.36099367705E+03  0.26535662570E+04  0.26288966213E+04 0.  0.
        3    1    3    3  502    0 -0.12134171248E+04 -0.46194391344E+03 -0.26367923663E+02  0.12986410495E+04  0.10100000352E+00 0.  1.
       -3    1    3    3    0  502  0.12134171248E+04  0.46194391344E+03  0.38736160072E+03  0.13549252075E+04  0.10100000352E+00 0. -1.
</event>
<event>
 5   0  0.5152288E-06  0.2755863E+04  0.7818609E-02  0.8317104E-01
        1   -1    0    0  501    0  0.00000000000E+00  0.00000000000E+00  0.14955273156E+04  0.14955273156E+04  0.50400001928E-02 0.  1.
       -1   -1    0    0    0  501  0.00000000000E+00  0.00000000000E+00 -0.12695826178E+04  0.12695826178E+04  0.50400001928E-02 0. -1.
    10030    2    1    2    0    0  0.00000000000E+00  0.00000000000E+00  0.22594469776E+03  0.27651099334E+04  0.27558631928E+04 0.  0.
        3    1    3    3  502    0  0.85900792995E+03 -0.26797741827E+03 -0.93407539464E+03  0.12969978310E+04  0.10100000352E+00 0. -1.
       -3    1    3    3    0  502 -0.85900792995E+03  0.26797741827E+03  0.11600200924E+04  0.14681121025E+04  0.10100000352E+00 0.  1.
</event>
<event>
 5   0  0.4846214E-06  0.2613274E+04  0.7818609E-02  0.8363706E-01
       -1   -1    0    0    0  501  0.00000000000E+00  0.00000000000E+00  0.14575099145E+04  0.14575099145E+04  0.50400001928E-02 0. -1.
        1   -1    0    0  501    0  0.00000000000E+00  0.00000000000E+00 -0.11713811833E+04  0.11713811833E+04  0.50400001928E-02 0.  1.
    10030    2    1    2    0    0  0.00000000000E+00  0.00000000000E+00  0.28612873116E+03  0.26288910978E+04  0.26132735704E+04 0.  0.
        2    1    3    3  502    0 -0.10953333326E+03 -0.57150260635E+03  0.13199649436E+04  0.14425395081E+04  0.25500000920E-02 0. -1.
       -2    1    3    3    0  502  0.10953333326E+03  0.57150260635E+03 -0.10338362125E+04  0.11863515897E+04  0.25500000920E-02 0.  1.
</event>
<event>
 5   0  0.4846214E-06  0.2700651E+04  0.7818609E-02  0.8334794E-01
       -1   -1    0    0    0  501  0.00000000000E+00  0.00000000000E+00  0.17722292163E+04  0.17722292163E+04  0.50400001928E-02 0.  1.
        1   -1    0    0  501    0  0.00000000000E+00  0.00000000000E+00 -0.10288617793E+04  0.10288617793E+04  0.50400001928E-02 0. -1.
    10030    2    1    2    0    0  0.00000000000E+00  0.00000000000E+00  0.74336743701E+03  0.28010909957E+04  0.27006509622E+04 0.  0.
        2    1    3    3  502    0 -0.12531313627E+04  0.17194123781E+03 -0.11863117049E+03  0.12704232980E+04  0.25500000920E-02 0. -1.
       -2    1    3    3    0  502  0.12531313627E+04 -0.17194123781E+03  0.86199860750E+03  0.15306676977E+04  0.25500000920E-02 0.  1.
</event>
<event>
 5   0  0.1286641E-05  0.2696362E+04  0.7818609E-02  0.8336186E-01
       -2   -1    0    0    0  501  0.00000000000E+00  0.00000000000E+00  0.81193172692E+03  0.81193172692E+03  0.25500000920E-02 0.  1.
        2   -1    0    0  501    0  0.00000000000E+00  0.00000000000E+00 -0.22386013228E+04  0.22386013228E+04  0.25500000920E-02 0. -1.
    10030    2    1    2    0    0  0.00000000000E+00  0.00000000000E+00 -0.14266695959E+04  0.30505330497E+04  0.26963615766E+04 0.  0.
        4    1    3    3  502    0 -0.26396276292E+03 -0.67193837894E+03 -0.20014929200E+04  0.21277107526E+04  0.12699999809E+01 0. -1.
       -4    1    3    3    0  502  0.26396276292E+03  0.67193837894E+03  0.57482332405E+03  0.92282229712E+03  0.12699999809E+01 0.  1.
</event>
<event>
 5   0  0.4826140E-06  0.2647052E+04  0.7818609E-02  0.8352392E-01
       -1   -1    0    0    0  501  0.00000000000E+00  0.00000000000E+00  0.13554376463E+04  0.13554376463E+04  0.50400001928E-02 0.  1.
        1   -1    0    0  501    0  0.00000000000E+00  0.00000000000E+00 -0.12923653864E+04  0.12923653864E+04  0.50400001928E-02 0. -1.
    10030    2    1    2    0    0  0.00000000000E+00  0.00000000000E+00  0.63072259893E+02  0.26478030327E+04  0.26470517165E+04 0.  0.
        1    1    3    3  502    0  0.74354314745E+02  0.34658235507E+03 -0.12440014023E+04  0.12935174456E+04  0.50400001928E-02 0. -1.
       -1    1    3    3    0  502 -0.74354314745E+02 -0.34658235507E+03  0.13070736622E+04  0.13542855871E+04  0.50400001928E-02 0.  1.
</event>
<event>
 5   0  0.4826140E-06  0.2709599E+04  0.7818609E-02  0.8331897E-01
       -1   -1    0    0    0  501  0.00000000000E+00  0.00000000000E+00  0.11728475364E+04  0.11728475364E+04  0.50400001928E-02 0. -1.
        1   -1    0    0  501    0  0.00000000000E+00  0.00000000000E+00 -0.15649787734E+04  0.15649787734E+04  0.50400001928E-02 0.  1.
    10030    2    1    2    0    0  0.00000000000E+00  0.00000000000E+00 -0.39213123701E+03  0.27378263098E+04  0.27095988624E+04 0.  0.
        1    1    3    3  502    0  0.99543538578E+03  0.28575968523E+03 -0.10786243295E+04  0.14953195810E+04  0.50400001928E-02 0.  1.
       -1    1    3    3    0  502 -0.99543538578E+03 -0.28575968523E+03  0.68649309252E+03  0.12425067288E+04  0.50400001928E-02 0. -1.
</event>
<event>
 5   0  0.1261364E-05  0.2676696E+04  0.7818609E-02  0.8342606E-01
        2   -1    0    0  501    0  0.00000000000E+00  0.00000000000E+00  0.23397557365E+04  0.23397557365E+04  0.25500000920E-02 0. -1.
       -2   -1    0    0    0  501  0.00000000000E+00  0.00000000000E+00 -0.76553924632E+03  0.76553924632E+03  0.25500000920E-02 0.  1.
    10030    2    1    2    0    0  0.00000000000E+00  0.00000000000E+00  0.15742164902E+04  0.31052949828E+04  0.26766956070E+04 0.  0.
        5    1    3    3  502    0  0.41631403915E+01  0.10837262376E+04  0.16981353415E+04  0.20144889223E+04  0.46999998093E+01 0. -1.
       -5    1    3    3    0  502 -0.41631403915E+01 -0.10837262376E+04 -0.12391885139E+03  0.10908060605E+04  0.46999998093E+01 0.  1.
</event>
<event>
 5   0  0.1276517E-05  0.2693464E+04  0.7818609E-02  0.8337129E-01
       -2   -1    0    0    0  501  0.00000000000E+00  0.00000000000E+00  0.97372217661E+03  0.97372217661E+03  0.25500000920E-02 0. -1.
        2   -1    0    0  501    0  0.00000000000E+00  0.00000000000E+00 -0.18626335590E+04  0.18626335590E+04  0.25500000920E-02 0.  1.
    10030    2    1    2    0    0  0.00000000000E+00  0.00000000000E+00 -0.88891138239E+03  0.28363557356E+04  0.26934643887E+04 0.  0.
        1    1    3    3  502    0  0.65054313526E+03 -0.78930361898E+03  0.47808023088E+03  0.11290559246E+04  0.50400001928E-02 0. -1.
       -1    1    3    3    0  502 -0.65054313526E+03  0.78930361898E+03 -0.13669916133E+04  0.17072998110E+04  0.50400001928E-02 0.  1.
</event>
<event>
 5   0  0.1276517E-05  0.2674584E+04  0.7818609E-02  0.8343299E-01
       -2   -1    0    0    0  501  0.00000000000E+00  0.00000000000E+00  0.92282147079E+03  0.92282147080E+03  0.25500000920E-02 0.  1.
        2   -1    0    0  501    0  0.00000000000E+00  0.00000000000E+00 -0.19379160087E+04  0.19379160087E+04  0.25500000920E-02 0. -1.
    10030    2    1    2    0    0  0.00000000000E+00  0.00000000000E+00 -0.10150945379E+04  0.28607374795E+04  0.26745844548E+04 0.  0.
        1    1    3    3  502    0  0.10727578634E+04 -0.48669164422E+03 -0.11845904298E+04  0.16706084749E+04  0.50400001928E-02 0. -1.
       -1    1    3    3    0  502 -0.10727578634E+04  0.48669164422E+03  0.16949589197E+03  0.11901290045E+04  0.50400001928E-02 0.  1.
</event>
<event>
 5   0  0.5152288E-06  0.2698951E+04  0.7818609E-02  0.8335345E-01
        1   -1    0    0  501    0  0.00000000000E+00  0.00000000000E+00  0.10780154903E+04  0.10780154904E+04  0.50400001928E-02 0. -1.
       -1   -1    0    0    0  501  0.00000000000E+00  0.00000000000E+00 -0.16892929875E+04  0.16892929875E+04  0.50400001928E-02 0.  1.
    10030    2    1    2    0    0  0.00000000000E+00  0.00000000000E+00 -0.61127749713E+03  0.27673084778E+04  0.26989509134E+04 0.  0.
        3    1    3    3  502    0 -0.10835542301E+04 -0.73125175282E+03 -0.64918481189E+03  0.14595409640E+04  0.10100000352E+00 0. -1.
       -3    1    3    3    0  502  0.10835542301E+04  0.73125175282E+03  0.37907314769E+02  0.13077675138E+04  0.10100000352E+00 0.  1.
</event>
<event>
 5   0  0.1261364E-05  0.2725491E+04  0.7818609E-02  0.8326781E-01
       -2   -1    0    0    0  501  0.00000000000E+00  0.00000000000E+00  0.94416933441E+03  0.94416933442E+03  0.25500000920E-02 0.  1.
        2   -1    0    0  501    0  0.00000000000E+00  0.00000000000E+00 -0.19668883177E+04  0.19668883177E+04  0.25500000920E-02 0. -1.
    10030    2    1    2    0    0  0.00000000000E+00  0.00000000000E+00 -0.10227189833E+04  0.29110576521E+04  0.27254912466E+04 0.  0.
        5    1    3    3  502    0 -0.13069658733E+03  0.12718394382E+04 -0.10150570910E+04  0.16324889410E+04  0.46999998093E+01 0. -1.
       -5    1    3    3    0  502  0.13069658733E+03 -0.12718394382E+04 -0.76618922810E+01  0.12785687111E+04  0.46999998093E+01 0.  1.
</event>
<event>
 5   0  0.1220908E-05  0.2200986E+04  0.7818609E-02  0.8518018E-01
       -2   -1    0    0    0  501  0.00000000000E+00  0.00000000000E+00  0.14748012973E+04  0.14748012973E+04  0.25500000920E-02 0. -1.
        2   -1    0    0  501    0  0.00000000000E+00  0.00000000000E+00 -0.82118503659E+03  0.82118503660E+03  0.25500000920E-02 0.  1.
    10030    2    1    2    0    0  0.00000000000E+00  0.00000000000E+00  0.65361626070E+03  0.22959863339E+04  0.22009859221E+04 0.  0.
        2    1    3    3  502    0  0.50973810858E+03 -0.94488376197E+03  0.57900010807E+03  0.12197866158E+04  0.25500000920E-02 0. -1.
       -2    1    3    3    0  502 -0.50973810858E+03  0.94488376197E+03  0.74616152630E+02  0.10761997181E+04  0.25500000920E-02 0.  1.
</event>
<event>
 5   0  0.4824715E-06  0.2600911E+04  0.7818609E-02  0.8367892E-01
       -1   -1    0    0    0  501  0.00000000000E+00  0.00000000000E+00  0.88583827794E+03  0.88583827795E+03  0.50400001928E-02 0. -1.
        1   -1    0    0  501    0  0.00000000000E+00  0.00000000000E+00 -0.19091346405E+04  0.19091346405E+04  0.50400001928E-02 0.  1.
    10030    2    1    2    0    0  0.00000000000E+00  0.00000000000E+00 -0.10232963625E+04  0.27949729184E+04  0.26009110268E+04 0.  0.
        5    1    3    3  502    0  0.44567446676E+03 -0.41203665141E+03  0.72427946981E+03  0.94498823951E+03  0.46999998093E+01 0. -1.
       -5    1    3    3    0  502 -0.44567446676E+03  0.41203665141E+03 -0.17475758324E+04  0.18499846789E+04  0.46999998093E+01 0.  1.
</event>
<event>
 5   0  0.1276517E-05  0.2659609E+04  0.7818609E-02  0.8348231E-01
       -2   -1    0    0    0  501  0.00000000000E+00  0.00000000000E+00  0.10368584100E+04  0.10368584100E+04  0.25500000920E-02 0. -1.
        2   -1    0    0  501    0  0.00000000000E+00  0.00000000000E+00 -0.17055177588E+04  0.17055177588E+04  0.25500000920E-02 0.  1.
    10030    2    1    2    0    0  0.00000000000E+00  0.00000000000E+00 -0.66865934886E+03  0.27423761688E+04  0.26596093184E+04 0.  0.
        1    1    3    3  502    0  0.77998225299E+03  0.10530236399E+04 -0.10112934638E+03  0.13143280587E+04  0.50400001928E-02 0. -1.
       -1    1    3    3    0  502 -0.77998225299E+03 -0.10530236399E+04 -0.56753000248E+03  0.14280481101E+04  0.50400001928E-02 0.  1.
</event>
<event>
 5   0  0.1286641E-05  0.2399329E+04  0.7818609E-02  0.8439755E-01
        2   -1    0    0  501    0  0.00000000000E+00  0.00000000000E+00  0.31109270970E+04  0.31109270970E+04  0.25500000920E-02 0.  1.
       -2   -1    0    0    0  501  0.00000000000E+00  0.00000000000E+00 -0.46262567522E+03  0.46262567522E+03  0.25500000920E-02 0. -1.
    10030    2    1    2    0    0  0.00000000000E+00  0.00000000000E+00  0.26483014218E+04  0.35735527723E+04  0.23993288635E+04 0.  0.
        4    1    3    3  502    0  0.78617031540E+02  0.78417725150E+03  0.26712757876E+04  0.27851087135E+04  0.12699999809E+01 0.  1.
       -4    1    3    3    0  502 -0.78617031540E+02 -0.78417725150E+03 -0.22974365828E+02  0.78844405877E+03  0.12699999809E+01 0. -1.
</event>
<event>
 5   0  0.1276517E-05  0.2709590E+04  0.7818609E-02  0.8331900E-01
        2   -1    0    0  501    0  0.00000000000E+00  0.00000000000E+00  0.17309150347E+04  0.17309150347E+04  0.25500000920E-02 0. -1.
       -2   -1    0    0    0  501  0.00000000000E+00  0.00000000000E+00 -0.10604040484E+04  0.10604040484E+04  0.25500000920E-02 0.  1.
    10030    2    1    2    0    0  0.00000000000E+00  0.00000000000E+00  0.67051098631E+03  0.27913190832E+04  0.27095898659E+04 0.  0.
        1    1    3    3  502    0  0.72675324177E+03  0.34464291622E+03 -0.78782071395E+03  0.11258820948E+04  0.50400001928E-02 0. -1.
       -1    1    3    3    0  502 -0.72675324177E+03 -0.34464291622E+03  0.14583317003E+04  0.16654369883E+04  0.50400001928E-02 0.  1.
</event>
<event>
 5   0  0.1220908E-05  0.2662071E+04  0.7818609E-02  0.8347418E-01
        2   -1    0    0  501    0  0.00000000000E+00  0.00000000000E+00  0.12721874644E+04  0.12721874644E+04  0.25500000920E-02 0.  1.
       -2   -1    0    0    0  501  0.00000000000E+00  0.00000000000E+00 -0.13926052567E+04  0.13926052568E+04  0.25500000920E-02 0. -1.
    10030    2    1    2    0    0  0.00000000000E+00  0.00000000000E+00 -0.12041779237E+03  0.26647927211E+04  0.26620705854E+04 0.  0.
        2    1    3    3  502    0 -0.98144967738E+03  0.13949449857E+03 -0.94934729900E+03  0.13725751267E+04  0.25500000920E-02 0. -1.
       -2    1    3    3    0  502  0.98144967738E+03 -0.13949449857E+03  0.82892950663E+03  0.12922175944E+04  0.25500000920E-02 0.  1.
</event>
<event>
 5   0  0.4846214E-06  0.2710729E+04  0.7818609E-02  0.8331532E-01
        1   -1    0    0  501    0  0.00000000000E+00  0.00000000000E+00  0.21010330295E+04  0.21010330295E+04  0.50400001928E-02 0.  1.
       -1   -1    0    0    0  501  0.00000000000E+00  0.00000000000E+00 -0.87433765896E+03  0.87433765897E+03  0.50400001928E-02 0. -1.
    10030    2    1    2    0    0  0.00000000000E+00  0.00000000000E+00  0.12266953705E+04  0.29753706884E+04  0.27107285371E+04 0.  0.
        2    1    3    3  502    0 -0.68702256597E+03  0.61278580483E+03 -0.47850547610E+03  0.10375326209E+04  0.25500000920E-02 0. -1.
       -2    1    3    3    0  502  0.68702256597E+03 -0.61278580483E+03  0.17052008466E+04  0.19378380675E+04  0.25500000920E-02 0.  1.
</event>
<event>
 5   0  0.4846214E-06  0.2595709E+04  0.7818609E-02  0.8369660E-01
       -1   -1    0    0    0  501  0.00000000000E+00  0.00000000000E+00  0.18758756799E+04  0.18758756799E+04  0.50400001928E-02 0.  1.
        1   -1    0    0  501    0  0.00000000000E+00  0.00000000000E+00 -0.89794155135E+03  0.89794155137E+03  0.50400001928E-02 0. -1.
    10030    2    1    2    0    0  0.00000000000E+00  0.00000000000E+00  0.97793412852E+03  0.27738172312E+04  0.25957093198E+04 0.  0.
        2    1    3    3  502    0  0.10800504292E+03  0.11543163344E+04  0.11123610454E+04  0.16066917516E+04  0.25500000920E-02 0.  1.
       -2    1    3    3    0  502 -0.10800504292E+03 -0.11543163344E+04 -0.13442691692E+03  0.11671254796E+04  0.25500000920E-02 0. -1.
</event>
<event>
 5   0  0.1276517E-05  0.2712163E+04  0.7818609E-02  0.8331069E-01
        2   -1    0    0  501    0  0.00000000000E+00  0.00000000000E+00  0.10685219103E+04  0.10685219103E+04  0.25500000920E-02 0. -1.
       -2   -1    0    0    0  501  0.00000000000E+00  0.00000000000E+00 -0.17210283797E+04  0.17210283797E+04  0.25500000920E-02 0.  1.
    10030    2    1    2    0    0  0.00000000000E+00  0.00000000000E+00 -0.65250646943E+03  0.27895502900E+04  0.27121626293E+04 0.  0.
        1    1    3    3  502    0  0.72401818289E+03  0.41877752275E+03 -0.14241277028E+04  0.16515800485E+04  0.50400001928E-02 0.  1.
       -1    1    3    3    0  502 -0.72401818289E+03 -0.41877752275E+03  0.77162123337E+03  0.11379702415E+04  0.50400001928E-02 0. -1.
</event>
<event>
 5   0  0.4826140E-06  0.3228140E+04  0.7818609E-02  0.8181425E-01
        1   -1    0    0  501    0  0.00000000000E+00  0.00000000000E+00  0.25774065011E+04  0.25774065011E+04  0.50400001928E-02 0.  1.
       -1   -1    0    0    0  501  0.00000000000E+00  0.00000000000E+00 -0.10107919815E+04  0.10107919815E+04  0.50400001928E-02 0. -1.
    10030    2    1    2    0    0  0.00000000000E+00  0.00000000000E+00  0.15666145196E+04  0.35881984826E+04  0.32281399130E+04 0.  0.
        1    1    3    3  502    0  0.56457116170E+03 -0.84308144854E+03 -0.61196889824E+03  0.11849189246E+04  0.50400001928E-02 0. -1.
       -1    1    3    3    0  502 -0.56457116170E+03  0.84308144854E+03  0.21785834178E+04  0.24032795580E+04  0.50400001928E-02 0.  1.
</event>
<event>
 5   0  0.4824715E-06  0.2697542E+04  0.7818609E-02  0.8335803E-01
        1   -1    0    0  501    0  0.00000000000E+00  0.00000000000E+00  0.12657748144E+04  0.12657748145E+04  0.50400001928E-02 0. -1.
       -1   -1    0    0    0  501  0.00000000000E+00  0.00000000000E+00 -0.14372089541E+04  0.14372089541E+04  0.50400001928E-02 0.  1.
    10030    2    1    2    0    0  0.00000000000E+00  0.00000000000E+00 -0.17143413968E+03  0.27029837686E+04  0.26975417678E+04 0.  0.
        5    1    3    3  502    0  0.70885496371E+03  0.82659946730E+03  0.71176462584E+03  0.13009123766E+04  0.46999998093E+01 0. -1.
       -5    1    3    3    0  502 -0.70885496371E+03 -0.82659946730E+03 -0.88319876552E+03  0.14020713920E+04  0.46999998093E+01 0.  1.
</event>
<event>
 5   0  0.1232559E-05  0.2698618E+04  0.7818609E-02  0.8335454E-01
       -2   -1    0    0    0  501  0.00000000000E+00  0.00000000000E+00  0.13410586829E+04  0.13410586829E+04  0.25500000920E-02 0.  1.
        2   -1    0    0  501    0  0.00000000000E+00  0.00000000000E+00 -0.13576100030E+04  0.13576100030E+04  0.25500000920E-02 0. -1.
    10030    2    1    2    0    0  0.00000000000E+00  0.00000000000E+00 -0.16551320069E+02  0.26986686859E+04  0.26986179296E+04 0.  0.
        3    1    3    3  502    0  0.11243298984E+04 -0.60423119195E+03  0.42925013259E+03  0.13466509349E+04  0.10100000352E+00 0. -1.
       -3    1    3    3    0  502 -0.11243298984E+04  0.60423119195E+03 -0.44580145266E+03  0.13520177511E+04  0.10100000352E+00 0.  1.
</event>
<event>
 5   0  0.4756800E-06  0.2638436E+04  0.7818609E-02  0.8355262E-01
        1   -1    0    0  501    0  0.00000000000E+00  0.00000000000E+00  0.15231157383E+04  0.15231157383E+04  0.50400001928E-02 0. -1.
       -1   -1    0    0    0  501  0.00000000000E+00  0.00000000000E+00 -0.11426153971E+04  0.11426153971E+04  0.50400001928E-02 0.  1.
    10030    2    1    2    0    0  0.00000000000E+00  0.00000000000E+00  0.38050034118E+03  0.26657311354E+04  0.26384355168E+04 0.  0.
        4    1    3    3  502    0  0.11608554544E+04 -0.58132498657E+03  0.42678701075E+03  0.13666282931E+04  0.12699999809E+01 0. -1.
       -4    1    3    3    0  502 -0.11608554544E+04  0.58132498657E+03 -0.46286669561E+02  0.12991028423E+04  0.12699999809E+01 0.  1.
</event>
<event>
 5   0  0.1220908E-05  0.2760055E+04  0.7818609E-02  0.8315778E-01
       -2   -1    0    0    0  501  0.00000000000E+00  0.00000000000E+00  0.82601352112E+03  0.82601352113E+03  0.25500000920E-02 0.  1.
        2   -1    0    0  501    0  0.00000000000E+00  0.00000000000E+00 -0.23056230922E+04  0.23056230922E+04  0.25500000920E-02 0. -1.
    10030    2    1    2    0    0  0.00000000000E+00  0.00000000000E+00 -0.14796095711E+04  0.31316366134E+04  0.27600549623E+04 0.  0.
        2    1    3    3  502    0 -0.24821801016E+03  0.11198086113E+04  0.13090131018E+03  0.11544343462E+04  0.25500000920E-02 0.  1.
       -2    1    3    3    0  502  0.24821801016E+03 -0.11198086113E+04 -0.16105108813E+04  0.19772022672E+04  0.25500000920E-02 0. -1.
</event>
<event>
 5   0  0.4756800E-06  0.2694323E+04  0.7818609E-02  0.8336849E-01
        1   -1    0    0  501    0  0.00000000000E+00  0.00000000000E+00  0.12785699813E+04  0.12785699814E+04  0.50400001928E-02 0.  1.
       -1   -1    0    0    0  501  0.00000000000E+00  0.00000000000E+00 -0.14194328989E+04  0.14194328989E+04  0.50400001928E-02 0. -1.
    10030    2    1    2    0    0  0.00000000000E+00  0.00000000000E+00 -0.14086291755E+03  0.26980028803E+04  0.26943231396E+04 0.  0.
        4    1    3    3  502    0  0.55608145377E+03 -0.45461021205E+03  0.10708380611E+04  0.12894156793E+04  0.12699999809E+01 0.  1.
       -4    1    3    3    0  502 -0.55608145377E+03  0.45461021205E+03 -0.12117009786E+04  0.14085872009E+04  0.12699999809E+01 0. -1.
</event>
<event>
 5   0  0.4826140E-06  0.2287790E+04  0.7818609E-02  0.8482751E-01
        1   -1    0    0  501    0  0.00000000000E+00  0.00000000000E+00  0.13589509469E+04  0.13589509469E+04  0.50400001928E-02 0.  1.
       -1   -1    0    0    0  501  0.00000000000E+00  0.00000000000E+00 -0.96287188985E+03  0.96287188986E+03  0.50400001928E-02 0. -1.
    10030    2    1    2    0    0  0.00000000000E+00  0.00000000000E+00  0.39607905702E+03  0.23218228367E+04  0.22877899086E+04 0.  0.
        1    1    3    3  502    0  0.10074675943E+04  0.71679447445E+02 -0.34694672094E+03  0.10679423785E+04  0.50400001928E-02 0. -1.
       -1    1    3    3    0  502 -0.10074675943E+04 -0.71679447445E+02  0.74302577796E+03  0.12538804582E+04  0.50400001928E-02 0.  1.
</event>
<event>
 5   0  0.1261364E-05  0.2698778E+04  0.7818609E-02  0.8335402E-01
        2   -1    0    0  501    0  0.00000000000E+00  0.00000000000E+00  0.24263255883E+04  0.24263255883E+04  0.25500000920E-02 0. -1.
       -2   -1    0    0    0  501  0.00000000000E+00  0.00000000000E+00 -0.75045585133E+03  0.75045585134E+03  0.25500000920E-02 0.  1.
    10030    2    1    2    0    0  0.00000000000E+00  0.00000000000E+00  0.16758697370E+04  0.31767814397E+04  0.26987776752E+04 0.  0.
        5    1    3    3  502    0  0.48681648865E+03  0.55633355458E+03  0.21667400790E+04  0.22893846286E+04  0.46999998093E+01 0. -1.
       -5    1    3    3    0  502 -0.48681648865E+03 -0.55633355458E+03 -0.49087034205E+03  0.88739681106E+03  0.46999998093E+01 0.  1.
</event>
<event>
 5   0  0.5152288E-06  0.2724230E+04  0.7818609E-02  0.8327186E-01
       -1   -1    0    0    0  501  0.00000000000E+00  0.00000000000E+00  0.20014147999E+04  0.20014147999E+04  0.50400001928E-02 0.  1.
        1   -1    0    0  501    0  0.00000000000E+00  0.00000000000E+00 -0.92702297843E+03  0.92702297845E+03  0.50400001928E-02 0. -1.
    10030    2    1    2    0    0  0.00000000000E+00  0.00000000000E+00  0.10743918215E+04  0.29284377784E+04  0.27242301731E+04 0.  0.
        3    1    3    3  502    0 -0.18756880015E+03  0.32312251891E+02  0.19870497827E+04  0.19961445302E+04  0.10100000352E+00 0.  1.
       -3    1    3    3    0  502  0.18756880015E+03 -0.32312251891E+02 -0.91265796115E+03  0.93229324821E+03  0.10100000352E+00 0. -1.
</event>
<event>
 5   0  0.4824715E-06  0.2691644E+04  0.7818609E-02  0.8337721E-01
        1   -1    0    0  501    0  0.00000000000E+00  0.00000000000E+00  0.21131751005E+04  0.21131751005E+04  0.50400001928E-02 0.  1.
       -1   -1    0    0    0  501  0.00000000000E+00  0.00000000000E+00 -0.85711619321E+03  0.85711619323E+03  0.50400001928E-02 0. -1.
    10030    2    1    2    0    0  0.00000000000E+00  0.00000000000E+00  0.12560589073E+04  0.29702912937E+04  0.26916438083E+04 0.  0.
        5    1    3    3  502    0 -0.91266359774E+03 -0.61485949087E+03 -0.22690368783E+03  0.11236166649E+04  0.46999998093E+01 0. -1.
       -5    1    3    3    0  502  0.91266359774E+03  0.61485949087E+03  0.14829625951E+04  0.18466746288E+04  0.46999998093E+01 0.  1.
</event>
<event>
 5   0  0.1220908E-05  0.2717940E+04  0.7818609E-02  0.8329207E-01
        2   -1    0    0  501    0  0.00000000000E+00  0.00000000000E+00  0.15109788250E+04  0.15109788250E+04  0.25500000920E-02 0. -1.
       -2   -1    0    0    0  501  0.00000000000E+00  0.00000000000E+00 -0.12222535818E+04  0.12222535818E+04  0.25500000920E-02 0.  1.
    10030    2    1    2    0    0  0.00000000000E+00  0.00000000000E+00  0.28872524320E+03  0.27332324068E+04  0.27179398676E+04 0.  0.
        2    1    3    3  502    0  0.27302067517E+03  0.43409019924E+03  0.14099445705E+04  0.15003060628E+04  0.25500000920E-02 0. -1.
       -2    1    3    3    0  502 -0.27302067517E+03 -0.43409019924E+03 -0.11212193273E+04  0.12329263441E+04  0.25500000920E-02 0.  1.
</event>
<event>
 5   0  0.1286641E-05  0.2684811E+04  0.7818609E-02  0.8339950E-01
        2   -1    0    0  501    0  0.00000000000E+00  0.00000000000E+00  0.19934712654E+04  0.19934712654E+04  0.25500000920E-02 0. -1.
       -2   -1    0    0    0  501  0.00000000000E+00  0.00000000000E+00 -0.90397695773E+03  0.90397695774E+03  0.25500000920E-02 0.  1.
    10030    2    1    2    0    0  0.00000000000E+00  0.00000000000E+00  0.10894943077E+04  0.28974482232E+04  0.26848106748E+04 0.  0.
        4    1    3    3  502    0  0.93159789038E+03 -0.52806314322E+03 -0.32888868292E+03  0.11202208225E+04  0.12699999809E+01 0.  1.
       -4    1    3    3    0  502 -0.93159789038E+03  0.52806314322E+03  0.14183829906E+04  0.17772274006E+04  0.12699999809E+01 0. -1.
</event>
<event>
 5   0  0.5152288E-06  0.2724696E+04  0.7818609E-02  0.8327036E-01
        1   -1    0    0  501    0  0.00000000000E+00  0.00000000000E+00  0.12545975511E+04  0.12545975511E+04  0.50400001928E-02 0.  1.
       -1   -1    0    0    0  501  0.00000000000E+00  0.00000000000E+00 -0.14793523014E+04  0.14793523014E+04  0.50400001928E-02 0. -1.
    10030    2    1    2    0    0  0.00000000000E+00  0.00000000000E+00 -0.22475475029E+03  0.27339498525E+04  0.27246957808E+04 0.  0.
        3    1    3    3  502    0  0.12361548568E+04 -0.49513286775E+03 -0.40102850458E+03  0.13907045906E+04  0.10100000352E+00 0. -1.
       -3    1    3    3    0  502 -0.12361548568E+04  0.49513286775E+03  0.17627375428E+03  0.13432452618E+04  0.10100000352E+00 0.  1.
</event>
<event>
 5   0  0.1220908E-05  0.2664200E+04  0.7818609E-02  0.8346715E-01
       -2   -1    0    0    0  501  0.00000000000E+00  0.00000000000E+00  0.76955013790E+03  0.76955013790E+03  0.25500000920E-02 0. -1.
        2   -1    0    0  501    0  0.00000000000E+00  0.00000000000E+00 -0.23058793635E+04  0.23058793635E+04  0.25500000920E-02 0.  1.
    10030    2    1    2    0    0  0.00000000000E+00  0.00000000000E+00 -0.15363292256E+04  0.30754295014E+04  0.26641995287E+04 0.  0.
        2    1    3    3  502    0 -0.38073969763E+03  0.62927983894E+02 -0.22399398239E+04  0.22729393004E+04  0.25500000920E-02 0.  1.
       -2    1    3    3    0  502  0.38073969763E+03 -0.62927983894E+02  0.70361059836E+03  0.80249020096E+03  0.25500000920E-02 0. -1.
</event>
<event>
 5   0  0.1286641E-05  0.2566814E+04  0.7818609E-02  0.8379562E-01
       -2   -1    0    0    0  501  0.00000000000E+00  0.00000000000E+00  0.86852862843E+03  0.86852862844E+03  0.25500000920E-02 0. -1.
        2   -1    0    0  501    0  0.00000000000E+00  0.00000000000E+00 -0.18964639879E+04  0.18964639879E+04  0.25500000920E-02 0.  1.
    10030    2    1    2    0    0  0.00000000000E+00  0.00000000000E+00 -0.10279353594E+04  0.27649926163E+04  0.25668137963E+04 0.  0.
        4    1    3    3  502    0 -0.10861784607E+04  0.69779728578E+02 -0.12465315962E+04  0.16548400201E+04  0.12699999809E+01 0.  1.
       -4    1    3    3    0  502  0.10861784607E+04 -0.69779728578E+02  0.21859623675E+03  0.11101525961E+04  0.12699999809E+01 0. -1.
</event>
<event>
 5   0  0.1232559E-05  0.2700024E+04  0.7818609E-02  0.8334997E-01
       -2   -1    0    0    0  501  0.00000000000E+00  0.00000000000E+00  0.15405557265E+04  0.15405557266E+04  0.25500000920E-02 0.  1.
        2   -1    0    0  501    0  0.00000000000E+00  0.00000000000E+00 -0.11830357854E+04  0.11830357854E+04  0.25500000920E-02 0. -1.
    10030    2    1    2    0    0  0.00000000000E+00  0.00000000000E+00  0.35751994117E+03  0.27235915119E+04  0.27000241139E+04 0.  0.
        3    1    3    3  502    0 -0.48619839694E+03 -0.11490215181E+04  0.69890919539E+03  0.14300746148E+04  0.10100000352E+00 0.  1.
       -3    1    3    3    0  502  0.48619839694E+03  0.11490215181E+04 -0.34138925422E+03  0.12935168972E+04  0.10100000352E+00 0. -1.
</event>
<event>
 5   0  0.4824715E-06  0.2588283E+04  0.7818609E-02  0.8372192E-01
        1   -1    0    0  501    0  0.00000000000E+00  0.00000000000E+00  0.10775194843E+04  0.10775194843E+04  0.50400001928E-02 0.  1.
       -1   -1    0    0    0  501  0.00000000000E+00  0.00000000000E+00 -0.15543131539E+04  0.15543131539E+04  0.50400001928E-02 0. -1.
    10030    2    1    2    0    0  0.00000000000E+00  0.00000000000E+00 -0.47679366961E+03  0.26318326382E+04  0.25882833755E+04 0.  0.
        5    1    3    3  502    0 -0.12269391322E+04  0.40813137899E+03 -0.18430629042E+03  0.13061170527E+04  0.46999998093E+01 0.  1.
       -5    1    3    3    0  502  0.12269391322E+04 -0.40813137899E+03 -0.29248737919E+03  0.13257155855E+04  0.46999998093E+01 0. -1.
</event>
<event>
 5   0  0.1220908E-05  0.2699859E+04  0.7818609E-02  0.8335051E-01
        2   -1    0    0  501    0  0.00000000000E+00  0.00000000000E+00  0.13402690483E+04  0.13402690483E+04  0.25500000920E-02 0.  1.
       -2   -1    0    0    0  501  0.00000000000E+00  0.00000000000E+00 -0.13596599818E+04  0.13596599818E+04  0.25500000920E-02 0. -1.
    10030    2    1    2    0    0  0.00000000000E+00  0.00000000000E+00 -0.19390933524E+02  0.26999290302E+04  0.26998593963E+04 0.  0.
        2    1    3    3  502    0 -0.83786987727E+03  0.24681371574E+02  0.10484788317E+04  0.13423646903E+04  0.25500000920E-02 0.  1.
       -2    1    3    3    0  502  0.83786987727E+03 -0.24681371574E+02 -0.10678697652E+04  0.13575643398E+04  0.25500000920E-02 0. -1.
</event>
<event>
 5   0  0.4188000E-06  0.2323023E+04  0.7818609E-02  0.8468898E-01
        3   -1    0    0  501    0  0.00000000000E+00  0.00000000000E+00  0.27925173152E+04  0.27925173170E+04  0.10100000352E+00 0. -1.
       -3   -1    0    0    0  501  0.00000000000E+00  0.00000000000E+00 -0.48311589721E+03  0.48311590777E+03  0.10100000352E+00 0.  1.
    10030    2    1    2    0    0  0.00000000000E+00  0.00000000000E+00  0.23094014180E+04  0.32756332248E+04  0.23230234855E+04 0.  0.
        4    1    3    3  502    0 -0.58128372708E+03  0.54262066584E+03  0.23485090076E+04  0.24794806170E+04  0.12699999809E+01 0. -1.
       -4    1    3    3    0  502  0.58128372708E+03 -0.54262066584E+03 -0.39107589662E+02  0.79615260776E+03  0.12699999809E+01 0.  1.
</event>
<event>
 5   0  0.4756800E-06  0.2740829E+04  0.7818609E-02  0.8321878E-01
       -1   -1    0    0    0  501  0.00000000000E+00  0.00000000000E+00  0.13765379202E+04  0.13765379202E+04  0.50400001928E-02 0.  1.
        1   -1    0    0  501    0  0.00000000000E+00  0.00000000000E+00 -0.13643179410E+04  0.13643179410E+04  0.50400001928E-02 0. -1.
    10030    2    1    2    0    0  0.00000000000E+00  0.00000000000E+00  0.12219979205E+02  0.27408558612E+04  0.27408286199E+04 0.  0.
        4    1    3    3  502    0  0.85676067404E+03 -0.12914914773E+03  0.10678716494E+04  0.13751617459E+04  0.12699999809E+01 0.  1.
       -4    1    3    3    0  502 -0.85676067404E+03  0.12914914773E+03 -0.10556516701E+04  0.13656941153E+04  0.12699999809E+01 0. -1.
</event>
<event>
 5   0  0.1220908E-05  0.2669500E+04  0.7818609E-02  0.8344969E-01
       -2   -1    0    0    0  501  0.00000000000E+00  0.00000000000E+00  0.16089597809E+04  0.16089597809E+04  0.25500000920E-02 0. -1.
        2   -1    0    0  501    0  0.00000000000E+00  0.00000000000E+00 -0.11072730271E+04  0.11072730271E+04  0.25500000920E-02 0.  1.
    10030    2    1    2    0    0  0.00000000000E+00  0.00000000000E+00  0.50168675386E+03  0.27162328080E+04  0.26695001532E+04 0.  0.
        2    1    3    3  502    0  0.64887871544E+01  0.98583259176E+03  0.11664009034E+04  0.15272193918E+04  0.25500000920E-02 0. -1.
       -2    1    3    3    0  502 -0.64887871544E+01 -0.98583259176E+03 -0.66471414949E+03  0.11890134162E+04  0.25500000920E-02 0.  1.
</event>
<event>
 5   0  0.4824715E-06  0.2648828E+04  0.7818609E-02  0.8351802E-01
        1   -1    0    0  501    0  0.00000000000E+00  0.00000000000E+00  0.15589287342E+04  0.15589287342E+04  0.50400001928E-02 0.  1.
       -1   -1    0    0    0  501  0.00000000000E+00  0.00000000000E+00 -0.11251779863E+04  0.11251779863E+04  0.50400001928E-02 0. -1.
    10030    2    1    2    0    0  0.00000000000E+00  0.00000000000E+00  0.43375074787E+03  0.26841067205E+04  0.26488278871E+04 0.  0.
        5    1    3    3  502    0  0.76808214800E+03 -0.22083918796E+03 -0.85328223857E+03  0.11691162481E+04  0.46999998093E+01 0. -1.
       -5    1    3    3    0  502 -0.76808214800E+03  0.22083918796E+03  0.12870329864E+04  0.15149904723E+04  0.46999998093E+01 0.  1.
</event>
<event>
 5   0  0.4824715E-06  0.2255732E+04  0.7818609E-02  0.8495583E-01
       -1   -1    0    0    0  501  0.00000000000E+00  0.00000000000E+00  0.82382929923E+03  0.82382929924E+03  0.50400001928E-02 0.  1.
        1   -1    0    0  501    0  0.00000000000E+00  0.00000000000E+00 -0.15441089345E+04  0.15441089345E+04  0.50400001928E-02 0. -1.
    10030    2    1    2    0    0  0.00000000000E+00  0.00000000000E+00 -0.72027963525E+03  0.23679382337E+04  0.22557324145E+04 0.  0.
        5    1    3    3  502    0  0.31008029052E+03  0.94587852583E+03 -0.91682424452E+03  0.13533014289E+04  0.46999998093E+01 0. -1.
       -5    1    3    3    0  502 -0.31008029052E+03 -0.94587852583E+03  0.19654460927E+03  0.10146368048E+04  0.46999998093E+01 0.  1.
</event>
<event>
 5   0  0.5152288E-06  0.2648628E+04  0.7818609E-02  0.8351868E-01
        1   -1    0    0  501    0  0.00000000000E+00  0.00000000000E+00  0.16433724363E+04  0.16433724363E+04  0.50400001928E-02 0. -1.
       -1   -1    0    0    0  501  0.00000000000E+00  0.00000000000E+00 -0.10672003437E+04  0.10672003437E+04  0.50400001928E-02 0.  1.
    10030    2    1    2    0    0  0.00000000000E+00  0.00000000000E+00  0.57617209265E+03  0.27105727801E+04  0.26486280440E+04 0.  0.
        3    1    3    3  502    0 -0.26079756436E+03  0.86723697120E+03 -0.70079029087E+03  0.11450861870E+04  0.10100000352E+00 0.  1.
       -3    1    3    3    0  502  0.26079756436E+03 -0.86723697120E+03  0.12769623835E+04  0.15654865930E+04  0.10100000352E+00 0. -1.
</event>
<event>
 5   0  0.4846214E-06  0.2592728E+04  0.7818609E-02  0.8370676E-01
        1   -1    0    0  501    0  0.00000000000E+00  0.00000000000E+00  0.14343590730E+04  0.14343590730E+04  0.50400001928E-02 0. -1.
       -1   -1    0    0    0  501  0.00000000000E+00  0.00000000000E+00 -0.11716450142E+04  0.11716450142E+04  0.50400001928E-02 0.  1.
    10030    2    1    2    0    0  0.00000000000E+00  0.00000000000E+00  0.26271405873E+03  0.26060040872E+04  0.25927280277E+04 0.  0.
        2    1    3    3  502    0 -0.10894646531E+04  0.23874279512E+01  0.83753606964E+03  0.13741927078E+04  0.25500000920E-02 0. -1.
       -2    1    3    3    0  502  0.10894646531E+04 -0.23874279512E+01 -0.57482201091E+03  0.12318113794E+04  0.25500000920E-02 0.  1.
</event>
<event>
 5   0  0.1261364E-05  0.2671952E+04  0.7818609E-02  0.8344163E-01
        2   -1    0    0  501    0  0.00000000000E+00  0.00000000000E+00  0.11788759898E+04  0.11788759898E+04  0.25500000920E-02 0.  1.
       -2   -1    0    0    0  501  0.00000000000E+00  0.00000000000E+00 -0.15140116476E+04  0.15140116476E+04  0.25500000920E-02 0. -1.
    10030    2    1    2    0    0  0.00000000000E+00  0.00000000000E+00 -0.33513565776E+03  0.26928876373E+04  0.26719520801E+04 0.  0.
        5    1    3    3  502    0  0.30920004466E+03  0.41889807848E+03 -0.14075450935E+04  0.15007616559E+04  0.46999998093E+01 0. -1.
       -5    1    3    3    0  502 -0.30920004466E+03 -0.41889807848E+03  0.10724094357E+04  0.11921259814E+04  0.46999998093E+01 0.  1.
</event>
<event>
 5   0  0.4756800E-06  0.2737223E+04  0.7818609E-02  0.8323028E-01
        1   -1    0    0  501    0  0.00000000000E+00  0.00000000000E+00  0.14838386780E+04  0.14838386780E+04  0.50400001928E-02 0.  1.
       -1   -1    0    0    0  501  0.00000000000E+00  0.00000000000E+00 -0.12623319087E+04  0.12623319087E+04  0.50400001928E-02 0. -1.
    10030    2    1    2    0    0  0.00000000000E+00  0.00000000000E+00  0.22150676931E+03  0.27461705867E+04  0.27372226147E+04 0.  0.
        4    1    3    3  502    0  0.81788529627E+03  0.42881037986E+03 -0.90263799538E+03  0.12913449049E+04  0.12699999809E+01 0. -1.
       -4    1    3    3    0  502 -0.81788529627E+03 -0.42881037986E+03  0.11241447647E+04  0.14548256819E+04  0.12699999809E+01 0.  1.
</event>
<event>
 5   0  0.4824715E-06  0.2717467E+04  0.7818609E-02  0.8329360E-01
        1   -1    0    0  501    0  0.00000000000E+00  0.00000000000E+00  0.14357087443E+04  0.14357087443E+04  0.50400001928E-02 0.  1.
       -1   -1    0    0    0  501  0.00000000000E+00  0.00000000000E+00 -0.12858853066E+04  0.12858853066E+04  0.50400001928E-02 0. -1.
    10030    2    1    2    0    0  0.00000000000E+00  0.00000000000E+00  0.14982343768E+03  0.27215940509E+04  0.27174670403E+04 0.  0.
        5    1    3    3  502    0  0.50773787086E+03  0.13653856933E+03  0.13296888162E+04  0.14298723595E+04  0.46999998093E+01 0.  1.
       -5    1    3    3    0  502 -0.50773787086E+03 -0.13653856933E+03 -0.11798653786E+04  0.12917216914E+04  0.46999998093E+01 0. -1.
</event>
<event>
 5   0  0.1220908E-05  0.2644465E+04  0.7818609E-02  0.8353253E-01
       -2   -1    0    0    0  501  0.00000000000E+00  0.00000000000E+00  0.93806764372E+03  0.93806764373E+03  0.25500000920E-02 0.  1.
        2   -1    0    0  501    0  0.00000000000E+00  0.00000000000E+00 -0.18637231095E+04  0.18637231095E+04  0.25500000920E-02 0. -1.
    10030    2    1    2    0    0  0.00000000000E+00  0.00000000000E+00 -0.92565546581E+03  0.28017907533E+04  0.26444646686E+04 0.  0.
        2    1    3    3  502    0 -0.49625749676E+02  0.66855542165E+03 -0.16703096932E+04  0.17998231963E+04  0.25500000920E-02 0. -1.
       -2    1    3    3    0  502  0.49625749676E+02 -0.66855542165E+03  0.74465422737E+03  0.10019675570E+04  0.25500000920E-02 0.  1.
</event>
<event>
 5   0  0.4846214E-06  0.2676682E+04  0.7818609E-02  0.8342611E-01
       -1   -1    0    0    0  501  0.00000000000E+00  0.00000000000E+00  0.98207689852E+03  0.98207689853E+03  0.50400001928E-02 0.  1.
        1   -1    0    0  501    0  0.00000000000E+00  0.00000000000E+00 -0.18238461332E+04  0.18238461332E+04  0.50400001928E-02 0. -1.
    10030    2    1    2    0    0  0.00000000000E+00  0.00000000000E+00 -0.84176923473E+03  0.28059230318E+04  0.26766823898E+04 0.  0.
        2    1    3    3  502    0  0.79115703563E+03 -0.66382066587E+02 -0.15503204518E+04  0.17417891770E+04  0.25500000920E-02 0. -1.
       -2    1    3    3    0  502 -0.79115703563E+03  0.66382066587E+02  0.70855121704E+03  0.10641338548E+04  0.25500000920E-02 0.  1.
</event>
<event>
 5   0  0.1261364E-05  0.2690171E+04  0.7818609E-02  0.8338201E-01
       -2   -1    0    0    0  501  0.00000000000E+00  0.00000000000E+00  0.12807227043E+04  0.12807227043E+04  0.25500000920E-02 0.  1.
        2   -1    0    0  501    0  0.00000000000E+00  0.00000000000E+00 -0.14126830184E+04  0.14126830184E+04  0.25500000920E-02 0. -1.
    10030    2    1    2    0    0  0.00000000000E+00  0.00000000000E+00 -0.13196031412E+03  0.26934057227E+04  0.26901711586E+04 0.  0.
        5    1    3    3  502    0  0.77139343458E+03 -0.96255510965E+03  0.47101625496E+03  0.13203933401E+04  0.46999998093E+01 0.  1.
       -5    1    3    3    0  502 -0.77139343458E+03  0.96255510965E+03 -0.60297656908E+03  0.13730123826E+04  0.46999998093E+01 0. -1.
</event>
<event>
 5   0  0.4826140E-06  0.2728939E+04  0.7818609E-02  0.8325676E-01
        1   -1    0    0  501    0  0.00000000000E+00  0.00000000000E+00  0.14784136743E+04  0.14784136743E+04  0.50400001928E-02 0.  1.
       -1   -1    0    0    0  501  0.00000000000E+00  0.00000000000E+00 -0.12593069175E+04  0.12593069175E+04  0.50400001928E-02 0. -1.
    10030    2    1    2    0    0  0.00000000000E+00  0.00000000000E+00  0.21910675679E+03  0.27377205918E+04  0.27289386706E+04 0.  0.
        1    1    3    3  502    0 -0.89612940630E+03  0.17377623352E+03  0.11269819491E+04  0.14502876976E+04  0.50400001928E-02 0.  1.
       -1    1    3    3    0  502  0.89612940630E+03 -0.17377623352E+03 -0.90787519234E+03  0.12874328942E+04  0.50400001928E-02 0. -1.
</event>
<event>
 5   0  0.1232559E-05  0.2683361E+04  0.7818609E-02  0.8340424E-01
       -2   -1    0    0    0  501  0.00000000000E+00  0.00000000000E+00  0.57467179072E+03  0.57467179072E+03  0.25500000920E-02 0.  1.
        2   -1    0    0  501    0  0.00000000000E+00  0.00000000000E+00 -0.31324089132E+04  0.31324089132E+04  0.25500000920E-02 0. -1.
    10030    2    1    2    0    0  0.00000000000E+00  0.00000000000E+00 -0.25577371225E+04  0.37070807040E+04  0.26833613543E+04 0.  0.
        3    1    3    3  502    0 -0.11163358179E+04  0.71910338398E+03 -0.10138796064E+04  0.16707085927E+04  0.10100000352E+00 0.  1.
       -3    1    3    3    0  502  0.11163358179E+04 -0.71910338398E+03 -0.15438575161E+04  0.20363721113E+04  0.10100000352E+00 0. -1.
</event>
<event>
 5   0  0.1261364E-05  0.2704552E+04  0.7818609E-02  0.8333530E-01
        2   -1    0    0  501    0  0.00000000000E+00  0.00000000000E+00  0.21056002598E+04  0.21056002598E+04  0.25500000920E-02 0.  1.
       -2   -1    0    0    0  501  0.00000000000E+00  0.00000000000E+00 -0.86846957442E+03  0.86846957443E+03  0.25500000920E-02 0. -1.
    10030    2    1    2    0    0  0.00000000000E+00  0.00000000000E+00  0.12371306854E+04  0.29740698342E+04  0.27045515425E+04 0.  0.
        5    1    3    3  502    0  0.55432352862E+02 -0.13386899915E+04  0.41740376328E+03  0.14033572712E+04  0.46999998093E+01 0.  1.
       -5    1    3    3    0  502 -0.55432352862E+02  0.13386899915E+04  0.81972692211E+03  0.15707125631E+04  0.46999998093E+01 0. -1.
</event>
<event>
 5   0  0.4826140E-06  0.2705755E+04  0.7818609E-02  0.8333140E-01
       -1   -1    0    0    0  501  0.00000000000E+00  0.00000000000E+00  0.15397332552E+04  0.15397332552E+04  0.50400001928E-02 0. -1.
        1   -1    0    0  501    0  0.00000000000E+00  0.00000000000E+00 -0.11886975187E+04  0.11886975187E+04  0.50400001928E-02 0.  1.
    10030    2    1    2    0    0  0.00000000000E+00  0.00000000000E+00  0.35103573644E+03  0.27284307739E+04  0.27057546821E+04 0.  0.
        1    1    3    3  502    0  0.54698894698E+03 -0.73902236877E+03  0.11762696002E+04  0.14929705764E+04  0.50400001928E-02 0. -1.
       -1    1    3    3    0  502 -0.54698894698E+03  0.73902236877E+03 -0.82523386377E+03  0.12354601975E+04  0.50400001928E-02 0.  1.
</event>
<event>
 5   0  0.1220908E-05  0.2722407E+04  0.7818609E-02  0.8327771E-01
       -2   -1    0    0    0  501  0.00000000000E+00  0.00000000000E+00  0.18034055031E+04  0.18034055031E+04  0.25500000920E-02 0. -1.
        2   -1    0    0  501    0  0.00000000000E+00  0.00000000000E+00 -0.10274309324E+04  0.10274309324E+04  0.25500000920E-02 0.  1.
    10030    2    1    2    0    0  0.00000000000E+00  0.00000000000E+00  0.77597457066E+03  0.28308364355E+04  0.27224067276E+04 0.  0.
        2    1    3    3  502    0  0.27800805512E+03  0.13074376061E+04  0.65551444703E+03  0.14887514107E+04  0.25500000920E-02 0. -1.
       -2    1    3    3    0  502 -0.27800805512E+03 -0.13074376061E+04  0.12046012363E+03  0.13420850248E+04  0.25500000920E-02 0.  1.
</event>
<event>
 5   0  0.1261364E-05  0.2635569E+04  0.7818609E-02  0.8356219E-01
       -2   -1    0    0    0  501  0.00000000000E+00  0.00000000000E+00  0.89876516668E+03  0.89876516668E+03  0.25500000920E-02 0.  1.
        2   -1    0    0  501    0  0.00000000000E+00  0.00000000000E+00 -0.19321576946E+04  0.19321576946E+04  0.25500000920E-02 0. -1.
    10030    2    1    2    0    0  0.00000000000E+00  0.00000000000E+00 -0.10333925279E+04  0.28309228613E+04  0.26355690334E+04 0.  0.
        5    1    3    3  502    0  0.68764908180E+03 -0.76607664593E+03  0.36696043776E+03  0.10928937460E+04  0.46999998093E+01 0.  1.
       -5    1    3    3    0  502 -0.68764908180E+03  0.76607664593E+03 -0.14003529657E+04  0.17380291153E+04  0.46999998093E+01 0. -1.
</event>
<event>
 5   0  0.4846214E-06  0.2576712E+04  0.7818609E-02  0.8376155E-01
        1   -1    0    0  501    0  0.00000000000E+00  0.00000000000E+00  0.82658709444E+03  0.82658709446E+03  0.50400001928E-02 0. -1.
       -1   -1    0    0    0  501  0.00000000000E+00  0.00000000000E+00 -0.20080901597E+04  0.20080901597E+04  0.50400001928E-02 0.  1.
    10030    2    1    2    0    0  0.00000000000E+00  0.00000000000E+00 -0.11815030652E+04  0.28346772541E+04  0.25767121768E+04 0.  0.
        2    1    3    3  502    0  0.16980595829E+02  0.11965836712E+04 -0.11157729213E+04  0.16361693173E+04  0.25500000920E-02 0.  1.
       -2    1    3    3    0  502 -0.16980595829E+02 -0.11965836712E+04 -0.65730143887E+02  0.11985079368E+04  0.25500000920E-02 0. -1.
</event>
<event>
 5   0  0.1261364E-05  0.2693164E+04  0.7818609E-02  0.8337226E-01
        2   -1    0    0  501    0  0.00000000000E+00  0.00000000000E+00  0.10321696084E+04  0.10321696085E+04  0.25500000920E-02 0. -1.
       -2   -1    0    0    0  501  0.00000000000E+00  0.00000000000E+00 -0.17567685479E+04  0.17567685479E+04  0.25500000920E-02 0.  1.
    10030    2    1    2    0    0  0.00000000000E+00  0.00000000000E+00 -0.72459893943E+03  0.27889381563E+04  0.26931640160E+04 0.  0.
        5    1    3    3  502    0 -0.81958484173E+03  0.20729648354E+03 -0.14476997331E+04  0.16764688342E+04  0.46999998093E+01 0.  1.
       -5    1    3    3    0  502  0.81958484173E+03 -0.20729648354E+03  0.72310079366E+03  0.11124693221E+04  0.46999998093E+01 0. -1.
</event>
<event>
 5   0  0.4756800E-06  0.2709518E+04  0.7818609E-02  0.8331923E-01
        1   -1    0    0  501    0  0.00000000000E+00  0.00000000000E+00  0.18154952622E+04  0.18154952622E+04  0.50400001928E-02 0. -1.
       -1   -1    0    0    0  501  0.00000000000E+00  0.00000000000E+00 -0.10109480930E+04  0.10109480930E+04  0.50400001928E-02 0.  1.
    10030    2    1    2    0    0  0.00000000000E+00  0.00000000000E+00  0.80454716922E+03  0.28264433552E+04  0.27095176494E+04 0.  0.
        4    1    3    3  502    0 -0.47601970391E+03 -0.14575509248E+03 -0.91207132740E+03  0.10390933667E+04  0.12699999809E+01 0.  1.
       -4    1    3    3    0  502  0.47601970391E+03  0.14575509248E+03  0.17166184966E+04  0.17873499885E+04  0.12699999809E+01 0. -1.
</event>
<event>
 5   0  0.4824715E-06  0.2707902E+04  0.7818609E-02  0.8332446E-01
       -1   -1    0    0    0  501  0.00000000000E+00  0.00000000000E+00  0.10100643515E+04  0.10100643515E+04  0.50400001928E-02 0.  1.
        1   -1    0    0  501    0  0.00000000000E+00  0.00000000000E+00 -0.18149177253E+04  0.18149177253E+04  0.50400001928E-02 0. -1.
    10030    2    1    2    0    0  0.00000000000E+00  0.00000000000E+00 -0.80485337372E+03  0.28249820768E+04  0.27079022842E+04 0.  0.
        5    1    3    3  502    0 -0.13473997104E+04 -0.10472680741E+03 -0.31698364731E+03  0.13881478331E+04  0.46999998093E+01 0.  1.
       -5    1    3    3    0  502  0.13473997104E+04  0.10472680741E+03 -0.48786972641E+03  0.14368342437E+04  0.46999998093E+01 0. -1.
</event>
<event>
 5   0  0.4824715E-06  0.2237986E+04  0.7818609E-02  0.8502782E-01
       -1   -1    0    0    0  501  0.00000000000E+00  0.00000000000E+00  0.94343376083E+03  0.94343376085E+03  0.50400001928E-02 0. -1.
        1   -1    0    0  501    0  0.00000000000E+00  0.00000000000E+00 -0.13272208217E+04  0.13272208217E+04  0.50400001928E-02 0.  1.
    10030    2    1    2    0    0  0.00000000000E+00  0.00000000000E+00 -0.38378706082E+03  0.22706545825E+04  0.22379856400E+04 0.  0.
        5    1    3    3  502    0 -0.87240300835E+03 -0.21833865808E+02  0.51872978484E+03  0.10152174183E+04  0.46999998093E+01 0. -1.
       -5    1    3    3    0  502  0.87240300835E+03  0.21833865808E+02 -0.90251684566E+03  0.12554371642E+04  0.46999998093E+01 0.  1.
</event>
<event>
 5   0  0.4188000E-06  0.2684756E+04  0.7818609E-02  0.8339968E-01
        3   -1    0    0  501    0  0.00000000000E+00  0.00000000000E+00  0.15190841841E+04  0.15190841874E+04  0.10100000352E+00 0.  1.
       -3   -1    0    0    0  501  0.00000000000E+00  0.00000000000E+00 -0.11862268204E+04  0.11862268247E+04  0.10100000352E+00 0. -1.
    10030    2    1    2    0    0  0.00000000000E+00  0.00000000000E+00  0.33285736367E+03  0.27053110121E+04  0.26847557892E+04 0.  0.
        1    1    3    3  502    0  0.36708269130E+03  0.12792491050E+04  0.34312929592E+03  0.13743964816E+04  0.50400001928E-02 0. -1.
       -1    1    3    3    0  502 -0.36708269130E+03 -0.12792491050E+04 -0.10271932252E+02  0.13309145305E+04  0.50400001928E-02 0.  1.
</event>
<event>
 5   0  0.1232559E-05  0.2720917E+04  0.7818609E-02  0.8328250E-01
       -2   -1    0    0    0  501  0.00000000000E+00  0.00000000000E+00  0.58511405018E+03  0.58511405018E+03  0.25500000920E-02 0. -1.
        2   -1    0    0  501    0  0.00000000000E+00  0.00000000000E+00 -0.31632250806E+04  0.31632250806E+04  0.25500000920E-02 0.  1.
    10030    2    1    2    0    0  0.00000000000E+00  0.00000000000E+00 -0.25781110305E+04  0.37483391308E+04  0.27209170796E+04 0.  0.
        3    1    3    3  502    0  0.25672585337E+02  0.13444293500E+04 -0.15737163311E+04  0.20699595310E+04  0.10100000352E+00 0.  1.
       -3    1    3    3    0  502 -0.25672585337E+02 -0.13444293500E+04 -0.10043946994E+04  0.16783795999E+04  0.10100000352E+00 0. -1.
</event>
<event>
 5   0  0.4824715E-06  0.2636032E+04  0.7818609E-02  0.8356064E-01
       -1   -1    0    0    0  501  0.00000000000E+00  0.00000000000E+00  0.17107284046E+04  0.17107284046E+04  0.50400001928E-02 0.  1.
        1   -1    0    0  501    0  0.00000000000E+00  0.00000000000E+00 -0.10154540458E+04  0.10154540459E+04  0.50400001928E-02 0. -1.
    10030    2    1    2    0    0  0.00000000000E+00  0.00000000000E+00  0.69527435875E+03  0.27261824505E+04  0.26360319268E+04 0.  0.
        5    1    3    3  502    0  0.41337434041E+03 -0.16305746581E+03  0.16309105753E+04  0.16903719937E+04  0.46999998093E+01 0.  1.
       -5    1    3    3    0  502 -0.41337434041E+03  0.16305746581E+03 -0.93563621658E+03  0.10358104567E+04  0.46999998093E+01 0. -1.
</event>
<event>
 5   0  0.4824715E-06  0.2867147E+04  0.7818609E-02  0.8282720E-01
        1   -1    0    0  501    0  0.00000000000E+00  0.00000000000E+00  0.19899630903E+04  0.19899630903E+04  0.50400001928E-02 0. -1.
       -1   -1    0    0    0  501  0.00000000000E+00  0.00000000000E+00 -0.10327489957E+04  0.10327489958E+04  0.50400001928E-02 0.  1.
    10030    2    1    2    0    0  0.00000000000E+00  0.00000000000E+00  0.95721409455E+03  0.30227120861E+04  0.28671465837E+04 0.  0.
        5    1    3    3  502    0  0.22240701386E+03  0.48893201287E+03  0.18798546418E+04  0.19550946160E+04  0.46999998093E+01 0. -1.
       -5    1    3    3    0  502 -0.22240701386E+03 -0.48893201287E+03 -0.92264054726E+03  0.10676174701E+04  0.46999998093E+01 0.  1.
</event>
<event>
 5   0  0.1232559E-05  0.2738708E+04  0.7818609E-02  0.8322554E-01
       -2   -1    0    0    0  501  0.00000000000E+00  0.00000000000E+00  0.13373483726E+04  0.13373483726E+04  0.25500000920E-02 0.  1.
        2   -1    0    0  501    0  0.00000000000E+00  0.00000000000E+00 -0.14021251980E+04  0.14021251980E+04  0.25500000920E-02 0. -1.
    10030    2    1    2    0    0  0.00000000000E+00  0.00000000000E+00 -0.64776825415E+02  0.27394735706E+04  0.27387076162E+04 0.  0.
        3    1    3    3  502    0 -0.45715764628E+03  0.11392475203E+04 -0.63939568411E+03  0.13840899094E+04  0.10100000352E+00 0. -1.
       -3    1    3    3    0  502  0.45715764628E+03 -0.11392475203E+04  0.57461885870E+03  0.13553836612E+04  0.10100000352E+00 0.  1.
</event>
<event>
 5   0  0.1276517E-05  0.2639598E+04  0.7818609E-02  0.8354874E-01
       -2   -1    0    0    0  501  0.00000000000E+00  0.00000000000E+00  0.14823117088E+04  0.14823117088E+04  0.25500000920E-02 0. -1.
        2   -1    0    0  501    0  0.00000000000E+00  0.00000000000E+00 -0.11751035919E+04  0.11751035919E+04  0.25500000920E-02 0.  1.
    10030    2    1    2    0    0  0.00000000000E+00  0.00000000000E+00  0.30720811690E+03  0.26574153008E+04  0.26395983129E+04 0.  0.
        1    1    3    3  502    0 -0.72638320487E+03  0.79240047021E+03 -0.61729210934E+03  0.12395888890E+04  0.50400001928E-02 0.  1.
       -1    1    3    3    0  502  0.72638320487E+03 -0.79240047021E+03  0.92450022624E+03  0.14178264117E+04  0.50400001928E-02 0. -1.
</event>
<event>
 5   0  0.1286641E-05  0.2630076E+04  0.7818609E-02  0.8358056E-01
        2   -1    0    0  501    0  0.00000000000E+00  0.00000000000E+00  0.32835742736E+04  0.32835742736E+04  0.25500000920E-02 0.  1.
       -2   -1    0    0    0  501  0.00000000000E+00  0.00000000000E+00 -0.52665929493E+03  0.52665929493E+03  0.25500000920E-02 0. -1.
    10030    2    1    2    0    0  0.00000000000E+00  0.00000000000E+00  0.27569149787E+04  0.38102335685E+04  0.26300759775E+04 0.  0.
        4    1    3    3  502    0  0.36508850063E+02  0.74124930868E+03  0.29511920957E+04  0.30430773622E+04  0.12699999809E+01 0.  1.
       -4    1    3    3    0  502 -0.36508850063E+02 -0.74124930868E+03 -0.19427711706E+03  0.76715620630E+03  0.12699999809E+01 0. -1.
</event>
<event>
 5   0  0.4846214E-06  0.2708173E+04  0.7818609E-02  0.8332358E-01
       -1   -1    0    0    0  501  0.00000000000E+00  0.00000000000E+00  0.20567034834E+04  0.20567034834E+04  0.50400001928E-02 0.  1.
        1   -1    0    0  501    0  0.00000000000E+00  0.00000000000E+00 -0.89149937066E+03  0.89149937067E+03  0.50400001928E-02 0. -1.
    10030    2    1    2    0    0  0.00000000000E+00  0.00000000000E+00  0.11652041128E+04  0.29482028541E+04  0.27081727132E+04 0.  0.
        2    1    3    3  502    0  0.99946337322E+03 -0.20916951969E+03 -0.38552824441E+03  0.10914719188E+04  0.25500000920E-02 0. -1.
       -2    1    3    3    0  502 -0.99946337322E+03  0.20916951969E+03  0.15507323572E+04  0.18567309353E+04  0.25500000920E-02 0.  1.
</event>
<event>
 5   0  0.1261364E-05  0.2719084E+04  0.7818609E-02  0.8328839E-01
       -2   -1    0    0    0  501  0.00000000000E+00  0.00000000000E+00  0.19953433378E+04  0.19953433378E+04  0.25500000920E-02 0. -1.
        2   -1    0    0  501    0  0.00000000000E+00  0.00000000000E+00 -0.92633411824E+03  0.92633411824E+03  0.25500000920E-02 0.  1.
    10030    2    1    2    0    0  0.00000000000E+00  0.00000000000E+00  0.10690092195E+04  0.29216774560E+04  0.27190841189E+04 0.  0.
        5    1    3    3  502    0  0.12023113702E+04 -0.56473085065E+03  0.84566503315E+03  0.15746888591E+04  0.46999998093E+01 0. -1.
       -5    1    3    3    0  502 -0.12023113702E+04  0.56473085065E+03  0.22334418639E+03  0.13469885969E+04  0.46999998093E+01 0.  1.
</event>
<event>
 5   0  0.4756800E-06  0.2691084E+04  0.7818609E-02  0.8337904E-01
        1   -1    0    0  501    0  0.00000000000E+00  0.00000000000E+00  0.14963347993E+04  0.14963347993E+04  0.50400001928E-02 0. -1.
       -1   -1    0    0    0  501  0.00000000000E+00  0.00000000000E+00 -0.12099452766E+04  0.12099452766E+04  0.50400001928E-02 0.  1.
    10030    2    1    2    0    0  0.00000000000E+00  0.00000000000E+00  0.28638952265E+03  0.27062800759E+04  0.26910839620E+04 0.  0.
        4    1    3    3  502    0 -0.82932167030E+03  0.26151771020E+03 -0.88940215007E+03  0.12438664490E+04  0.12699999809E+01 0.  1.
       -4    1    3    3    0  502  0.82932167030E+03 -0.26151771020E+03  0.11757916727E+04  0.14624136269E+04  0.12699999809E+01 0. -1.
</event>
<event>
 5   0  0.1276517E-05  0.2676440E+04  0.7818609E-02  0.8342690E-01
        2   -1    0    0  501    0  0.00000000000E+00  0.00000000000E+00  0.17151939982E+04  0.17151939982E+04  0.25500000920E-02 0.  1.
       -2   -1    0    0    0  501  0.00000000000E+00  0.00000000000E+00 -0.10440994085E+04  0.10440994085E+04  0.25500000920E-02 0. -1.
    10030    2    1    2    0    0  0.00000000000E+00  0.00000000000E+00  0.67109458968E+03  0.27592934067E+04  0.26764402022E+04 0.  0.
        1    1    3    3  502    0  0.99105475936E+03  0.18572682527E+03  0.12426419979E+04  0.16002634548E+04  0.50400001928E-02 0.  1.
       -1    1    3    3    0  502 -0.99105475936E+03 -0.18572682527E+03 -0.57154740821E+03  0.11590299520E+04  0.50400001928E-02 0. -1.
</event>
<event>
 5   0  0.1261364E-05  0.2699668E+04  0.7818609E-02  0.8335113E-01
        2   -1    0    0  501    0  0.00000000000E+00  0.00000000000E+00  0.12544592076E+04  0.12544592076E+04  0.25500000920E-02 0. -1.
       -2   -1    0    0    0  501  0.00000000000E+00  0.00000000000E+00 -0.14524594860E+04  0.14524594860E+04  0.25500000920E-02 0.  1.
    10030    2    1    2    0    0  0.00000000000E+00  0.00000000000E+00 -0.19800027845E+03  0.27069186936E+04  0.26996675173E+04 0.  0.
        5    1    3    3  502    0 -0.98448205466E+03  0.86015166123E+03  0.23800272796E+03  0.13288089346E+04  0.46999998093E+01 0. -1.
       -5    1    3    3    0  502  0.98448205466E+03 -0.86015166123E+03 -0.43600300641E+03  0.13781097590E+04  0.46999998093E+01 0.  1.
</event>
<event>
 5   0  0.1220908E-05  0.2683878E+04  0.7818609E-02  0.8340255E-01
       -2   -1    0    0    0  501  0.00000000000E+00  0.00000000000E+00  0.89291956028E+03  0.89291956029E+03  0.25500000920E-02 0.  1.
        2   -1    0    0  501    0  0.00000000000E+00  0.00000000000E+00 -0.20167546010E+04  0.20167546010E+04  0.25500000920E-02 0. -1.
    10030    2    1    2    0    0  0.00000000000E+00  0.00000000000E+00 -0.11238350407E+04  0.29096741613E+04  0.26838775170E+04 0.  0.
        2    1    3    3  502    0 -0.42739569815E+03 -0.11420208058E+03 -0.19354262321E+04  0.19853422621E+04  0.25500000920E-02 0. -1.
       -2    1    3    3    0  502  0.42739569815E+03  0.11420208058E+03  0.81159119133E+03  0.92433189919E+03  0.25500000920E-02 0.  1.
</event>
<event>
 5   0  0.4826140E-06  0.2709725E+04  0.7818609E-02  0.8331857E-01
        1   -1    0    0  501    0  0.00000000000E+00  0.00000000000E+00  0.18410067351E+04  0.18410067351E+04  0.50400001928E-02 0. -1.
       -1   -1    0    0    0  501  0.00000000000E+00  0.00000000000E+00 -0.99709142750E+03  0.99709142751E+03  0.50400001928E-02 0.  1.
    10030    2    1    2    0    0  0.00000000000E+00  0.00000000000E+00  0.84391530764E+03  0.28380981627E+04  0.27097247341E+04 0.  0.
        1    1    3    3  502    0 -0.10594345626E+04  0.68534493375E+03 -0.94933104471E+02  0.12653503724E+04  0.50400001928E-02 0. -1.
       -1    1    3    3    0  502  0.10594345626E+04 -0.68534493375E+03  0.93884841211E+03  0.15727477902E+04  0.50400001928E-02 0.  1.
</event>
<event>
 5   0  0.4756800E-06  0.2512976E+04  0.7818609E-02  0.8398377E-01
       -1   -1    0    0    0  501  0.00000000000E+00  0.00000000000E+00  0.91948661308E+03  0.91948661309E+03  0.50400001928E-02 0. -1.
        1   -1    0    0  501    0  0.00000000000E+00  0.00000000000E+00 -0.17170040725E+04  0.17170040725E+04  0.50400001928E-02 0.  1.
    10030    2    1    2    0    0  0.00000000000E+00  0.00000000000E+00 -0.79751745940E+03  0.26364906856E+04  0.25129761314E+04 0.  0.
        4    1    3    3  502    0  0.10532692774E+04 -0.68359812078E+03 -0.35093212874E+03  0.13037781765E+04  0.12699999809E+01 0. -1.
       -4    1    3    3    0  502 -0.10532692774E+04  0.68359812078E+03 -0.44658533066E+03  0.13327125091E+04  0.12699999809E+01 0.  1.
</event>
<event>
 5   0  0.1220908E-05  0.2691999E+04  0.7818609E-02  0.8337606E-01
       -2   -1    0    0    0  501  0.00000000000E+00  0.00000000000E+00  0.12252642975E+04  0.12252642975E+04  0.25500000920E-02 0. -1.
        2   -1    0    0  501    0  0.00000000000E+00  0.00000000000E+00 -0.14786320293E+04  0.14786320293E+04  0.25500000920E-02 0.  1.
    10030    2    1    2    0    0  0.00000000000E+00  0.00000000000E+00 -0.25336773170E+03  0.27038963268E+04  0.26919992828E+04 0.  0.
        2    1    3    3  502    0 -0.11789042990E+04 -0.64780818322E+03 -0.79101026128E+02  0.13474894288E+04  0.25500000920E-02 0. -1.
       -2    1    3    3    0  502  0.11789042990E+04  0.64780818322E+03 -0.17426670558E+03  0.13564068980E+04  0.25500000920E-02 0.  1.
</event>
<event>
 5   0  0.1261364E-05  0.2647566E+04  0.7818609E-02  0.8352221E-01
       -2   -1    0    0    0  501  0.00000000000E+00  0.00000000000E+00  0.11646412644E+04  0.11646412644E+04  0.25500000920E-02 0.  1.
        2   -1    0    0  501    0  0.00000000000E+00  0.00000000000E+00 -0.15046703981E+04  0.15046703981E+04  0.25500000920E-02 0. -1.
    10030    2    1    2    0    0  0.00000000000E+00  0.00000000000E+00 -0.34002913368E+03  0.26693116625E+04  0.26475658518E+04 0.  0.
        5    1    3    3  502    0 -0.40666279023E+03  0.10221515695E+03  0.10959084434E+04  0.11733967657E+04  0.46999998093E+01 0.  1.
       -5    1    3    3    0  502  0.40666279023E+03 -0.10221515695E+03 -0.14359375771E+04  0.14959148968E+04  0.46999998093E+01 0. -1.
</event>
<event>
 5   0  0.4756800E-06  0.2709113E+04  0.7818609E-02  0.8332054E-01
        1   -1    0    0  501    0  0.00000000000E+00  0.00000000000E+00  0.14238462349E+04  0.14238462349E+04  0.50400001928E-02 0. -1.
       -1   -1    0    0    0  501  0.00000000000E+00  0.00000000000E+00 -0.12886383495E+04  0.12886383496E+04  0.50400001928E-02 0.  1.
    10030    2    1    2    0    0  0.00000000000E+00  0.00000000000E+00  0.13520788532E+03  0.27124845844E+04  0.27091126681E+04 0.  0.
        4    1    3    3  502    0 -0.71959776648E+03  0.79106164440E+03  0.90003623269E+03  0.13977361353E+04  0.12699999809E+01 0. -1.
       -4    1    3    3    0  502  0.71959776648E+03 -0.79106164440E+03 -0.76482834736E+03  0.13147484492E+04  0.12699999809E+01 0.  1.
</event>
<event>
 5   0  0.4846214E-06  0.2753081E+04  0.7818609E-02  0.8317985E-01
       -1   -1    0    0    0  501  0.00000000000E+00  0.00000000000E+00  0.84589988200E+03  0.84589988202E+03  0.50400001928E-02 0.  1.
        1   -1    0    0  501    0  0.00000000000E+00  0.00000000000E+00 -0.22400563520E+04  0.22400563520E+04  0.50400001928E-02 0. -1.
    10030    2    1    2    0    0  0.00000000000E+00  0.00000000000E+00 -0.13941564700E+04  0.30859562340E+04  0.27530807499E+04 0.  0.
        2    1    3    3  502    0 -0.87337454874E+02  0.24528115617E+03  0.81804769281E+03  0.85848279209E+03  0.25500000920E-02 0.  1.
       -2    1    3    3    0  502  0.87337454874E+02 -0.24528115617E+03 -0.22122041628E+04  0.22274734420E+04  0.25500000920E-02 0. -1.
</event>
<event>
 5   0  0.1286641E-05  0.2684319E+04  0.7818609E-02  0.8340111E-01
       -2   -1    0    0    0  501  0.00000000000E+00  0.00000000000E+00  0.12432215275E+04  0.12432215275E+04  0.25500000920E-02 0. -1.
        2   -1    0    0  501    0  0.00000000000E+00  0.00000000000E+00 -0.14489711363E+04  0.14489711363E+04  0.25500000920E-02 0.  1.
    10030    2    1    2    0    0  0.00000000000E+00  0.00000000000E+00 -0.20574960876E+03  0.26921926638E+04  0.26843189896E+04 0.  0.
        4    1    3    3  502    0 -0.44353879192E+03  0.10462333108E+04 -0.81915429593E+03  0.14008376687E+04  0.12699999809E+01 0.  1.
       -4    1    3    3    0  502  0.44353879192E+03 -0.10462333108E+04  0.61340468717E+03  0.12913549952E+04  0.12699999809E+01 0. -1.
</event>
<event>
 5   0  0.4188000E-06  0.2765738E+04  0.7818609E-02  0.8313985E-01
       -3   -1    0    0    0  501  0.00000000000E+00  0.00000000000E+00  0.10275545187E+04  0.10275545236E+04  0.10100000352E+00 0.  1.
        3   -1    0    0  501    0  0.00000000000E+00  0.00000000000E+00 -0.18610459056E+04  0.18610459083E+04  0.10100000352E+00 0. -1.
    10030    2    1    2    0    0  0.00000000000E+00  0.00000000000E+00 -0.83349138690E+03  0.28886004320E+04  0.27657376165E+04 0.  0.
        2    1    3    3  502    0 -0.10309610295E+04  0.48018106573E+03  0.40488524891E+03  0.12072226659E+04  0.25500000920E-02 0.  1.
       -2    1    3    3    0  502  0.10309610295E+04 -0.48018106573E+03 -0.12383766358E+04  0.16813777661E+04  0.25500000920E-02 0. -1.
</event>
<event>
 5   0  0.1286641E-05  0.2708461E+04  0.7818609E-02  0.8332265E-01
        2   -1    0    0  501    0  0.00000000000E+00  0.00000000000E+00  0.26300550061E+04  0.26300550061E+04  0.25500000920E-02 0.  1.
       -2   -1    0    0    0  501  0.00000000000E+00  0.00000000000E+00 -0.69730090380E+03  0.69730090380E+03  0.25500000920E-02 0. -1.
    10030    2    1    2    0    0  0.00000000000E+00  0.00000000000E+00  0.19327541023E+04  0.33273559099E+04  0.27084606202E+04 0.  0.
        4    1    3    3  502    0  0.38330595795E+03 -0.24757285972E+03  0.25327671132E+04  0.25735435961E+04  0.12699999809E+01 0.  1.
       -4    1    3    3    0  502 -0.38330595795E+03  0.24757285972E+03 -0.60001301093E+03  0.75381231381E+03  0.12699999809E+01 0. -1.
</event>
<event>
 5   0  0.1286641E-05  0.2709219E+04  0.7818609E-02  0.8332020E-01
        2   -1    0    0  501    0  0.00000000000E+00  0.00000000000E+00  0.64724081912E+03  0.64724081912E+03  0.25500000920E-02 0. -1.
       -2   -1    0    0    0  501  0.00000000000E+00  0.00000000000E+00 -0.28350610474E+04  0.28350610474E+04  0.25500000920E-02 0.  1.
    10030    2    1    2    0    0  0.00000000000E+00  0.00000000000E+00 -0.21878202283E+04  0.34823018665E+04  0.27092192488E+04 0.  0.
        4    1    3    3  502    0  0.47501672813E+03  0.11885377164E+03  0.52950517127E+03  0.72121040643E+03  0.12699999809E+01 0. -1.
       -4    1    3    3    0  502 -0.47501672813E+03 -0.11885377164E+03 -0.27173253995E+04  0.27610914601E+04  0.12699999809E+01 0.  1.
</event>
<event>
 5   0  0.1232559E-05  0.2708048E+04  0.7818609E-02  0.8332399E-01
        2   -1    0    0  501    0  0.00000000000E+00  0.00000000000E+00  0.20209772772E+04  0.20209772772E+04  0.25500000920E-02 0. -1.
       -2   -1    0    0    0  501  0.00000000000E+00  0.00000000000E+00 -0.90717514511E+03  0.90717514511E+03  0.25500000920E-02 0.  1.
    10030    2    1    2    0    0  0.00000000000E+00  0.00000000000E+00  0.11138021321E+04  0.29281524223E+04  0.27080475289E+04 0.  0.
        3    1    3    3  502    0 -0.32051580960E+03 -0.88765293620E+03 -0.49295381171E+03  0.10647354554E+04  0.10100000352E+00 0.  1.
       -3    1    3    3    0  502  0.32051580960E+03  0.88765293620E+03  0.16067559438E+04  0.18634169669E+04  0.10100000352E+00 0. -1.
</event>
<event>
 5   0  0.4846214E-06  0.2716521E+04  0.7818609E-02  0.8329664E-01
       -1   -1    0    0    0  501  0.00000000000E+00  0.00000000000E+00  0.17688598329E+04  0.17688598329E+04  0.50400001928E-02 0. -1.
        1   -1    0    0  501    0  0.00000000000E+00  0.00000000000E+00 -0.10429723793E+04  0.10429723793E+04  0.50400001928E-02 0.  1.
    10030    2    1    2    0    0  0.00000000000E+00  0.00000000000E+00  0.72588745360E+03  0.28118322123E+04  0.27165212671E+04 0.  0.
        2    1    3    3  502    0  0.95777144744E+03 -0.49141163501E+03 -0.49440492877E+03  0.11845875967E+04  0.25500000920E-02 0.  1.
       -2    1    3    3    0  502 -0.95777144744E+03  0.49141163501E+03  0.12202923824E+04  0.16272446156E+04  0.25500000920E-02 0. -1.
</event>
<event>
 5   0  0.4826140E-06  0.2715548E+04  0.7818609E-02  0.8329978E-01
        1   -1    0    0  501    0  0.00000000000E+00  0.00000000000E+00  0.29896702176E+04  0.29896702176E+04  0.50400001928E-02 0. -1.
       -1   -1    0    0    0  501  0.00000000000E+00  0.00000000000E+00 -0.61663997527E+03  0.61663997529E+03  0.50400001928E-02 0.  1.
    10030    2    1    2    0    0  0.00000000000E+00  0.00000000000E+00  0.23730302424E+04  0.36063101929E+04  0.27155479514E+04 0.  0.
        1    1    3    3  502    0 -0.18385980333E+03 -0.12230217908E+04  0.19306388326E+04  0.22928046210E+04  0.50400001928E-02 0. -1.
       -1    1    3    3    0  502  0.18385980333E+03  0.12230217908E+04  0.44239140979E+03  0.13135055719E+04  0.50400001928E-02 0.  1.
</event>
<event>
 5   0  0.4824715E-06  0.2659236E+04  0.7818609E-02  0.8348354E-01
       -1   -1    0    0    0  501  0.00000000000E+00  0.00000000000E+00  0.94605141661E+03  0.94605141662E+03  0.50400001928E-02 0. -1.
        1   -1    0    0  501    0  0.00000000000E+00  0.00000000000E+00 -0.18686973788E+04  0.18686973788E+04  0.50400001928E-02 0.  1.
    10030    2    1    2    0    0  0.00000000000E+00  0.00000000000E+00 -0.92264596216E+03  0.28147487954E+04  0.26592358319E+04 0.  0.
        5    1    3    3  502    0  0.12229878457E+03  0.44508525829E+03 -0.17811608625E+04  0.18400038011E+04  0.46999998093E+01 0.  1.
       -5    1    3    3    0  502 -0.12229878457E+03 -0.44508525829E+03  0.85851490034E+03  0.97474499432E+03  0.46999998093E+01 0. -1.
</event>
<event>
 5   0  0.1276517E-05  0.2695797E+04  0.7818609E-02  0.8336370E-01
        2   -1    0    0  501    0  0.00000000000E+00  0.00000000000E+00  0.15161922163E+04  0.15161922163E+04  0.25500000920E-02 0. -1.
       -2   -1    0    0    0  501  0.00000000000E+00  0.00000000000E+00 -0.11982848536E+04  0.11982848536E+04  0.25500000920E-02 0.  1.
    10030    2    1    2    0    0  0.00000000000E+00  0.00000000000E+00  0.31790736277E+03  0.27144770699E+04  0.26957968528E+04 0.  0.
        1    1    3    3  502    0  0.19573236736E+03 -0.11194095224E+04  0.88884992798E+03  0.14427207051E+04  0.50400001928E-02 0. -1.
       -1    1    3    3    0  502 -0.19573236736E+03  0.11194095224E+04 -0.57094256521E+03  0.12717563648E+04  0.50400001928E-02 0.  1.
</event>
<event>
 5   0  0.1261364E-05  0.2718289E+04  0.7818609E-02  0.8329095E-01
       -2   -1    0    0    0  501  0.00000000000E+00  0.00000000000E+00  0.14486927147E+04  0.14486927147E+04  0.25500000920E-02 0.  1.
        2   -1    0    0  501    0  0.00000000000E+00  0.00000000000E+00 -0.12751311390E+04  0.12751311390E+04  0.25500000920E-02 0. -1.
    10030    2    1    2    0    0  0.00000000000E+00  0.00000000000E+00  0.17356157573E+03  0.27238238537E+04  0.27182885729E+04 0.  0.
        5    1    3    3  502    0  0.93754042233E+02  0.24126828584E+03  0.14237581871E+04  0.14471038910E+04  0.46999998093E+01 0.  1.
       -5    1    3    3    0  502 -0.93754042233E+02 -0.24126828584E+03 -0.12501966113E+04  0.12767199627E+04  0.46999998093E+01 0. -1.
</event>
<event>
 5   0  0.1286641E-05  0.2709491E+04  0.7818609E-02  0.8331932E-01
        2   -1    0    0  501    0  0.00000000000E+00  0.00000000000E+00  0.14829415743E+04  0.14829415743E+04  0.25500000920E-02 0.  1.
       -2   -1    0    0    0  501  0.00000000000E+00  0.00000000000E+00 -0.12376317356E+04  0.12376317356E+04  0.25500000920E-02 0. -1.
    10030    2    1    2    0    0  0.00000000000E+00  0.00000000000E+00  0.24530983875E+03  0.27205733099E+04  0.27094911363E+04 0.  0.
        4    1    3    3  502    0  0.85210581232E+03 -0.10199170747E+04  0.38644372381E+03  0.13840720787E+04  0.12699999809E+01 0.  1.
       -4    1    3    3    0  502 -0.85210581232E+03  0.10199170747E+04 -0.14113388506E+03  0.13365012312E+04  0.12699999809E+01 0. -1.
</event>
<event>
 5   0  0.4824715E-06  0.2827885E+04  0.7818609E-02  0.8294663E-01
       -1   -1    0    0    0  501  0.00000000000E+00  0.00000000000E+00  0.87797393180E+03  0.87797393182E+03  0.50400001928E-02 0.  1.
        1   -1    0    0  501    0  0.00000000000E+00  0.00000000000E+00 -0.22770980400E+04  0.22770980400E+04  0.50400001928E-02 0. -1.
    10030    2    1    2    0    0  0.00000000000E+00  0.00000000000E+00 -0.13991241082E+04  0.31550719719E+04  0.28278845233E+04 0.  0.
        5    1    3    3  502    0 -0.22886944059E+03  0.13427500616E+04 -0.27640160508E+03  0.13898844866E+04  0.46999998093E+01 0. -1.
       -5    1    3    3    0  502  0.22886944059E+03 -0.13427500616E+04 -0.11227225032E+04  0.17651874852E+04  0.46999998093E+01 0.  1.
</event>
<event>
 5   0  0.4826140E-06  0.2688869E+04  0.7818609E-02  0.8338625E-01
        1   -1    0    0  501    0  0.00000000000E+00  0.00000000000E+00  0.11893912327E+04  0.11893912327E+04  0.50400001928E-02 0. -1.
       -1   -1    0    0    0  501  0.00000000000E+00  0.00000000000E+00 -0.15196889320E+04  0.15196889320E+04  0.50400001928E-02 0.  1.
    10030    2    1    2    0    0  0.00000000000E+00  0.00000000000E+00 -0.33029769933E+03  0.27090801647E+04  0.26888694220E+04 0.  0.
        1    1    3    3  502    0 -0.55021047852E+03 -0.98219798640E+03  0.57526280359E+03  0.12642672773E+04  0.50400001928E-02 0. -1.
       -1    1    3    3    0  502  0.55021047852E+03  0.98219798640E+03 -0.90556050292E+03  0.14448128874E+04  0.50400001928E-02 0.  1.
</event>
<event>
 5   0  0.4846214E-06  0.2694847E+04  0.7818609E-02  0.8336679E-01
       -1   -1    0    0    0  501  0.00000000000E+00  0.00000000000E+00  0.12828846387E+04  0.12828846387E+04  0.50400001928E-02 0. -1.
        1   -1    0    0  501    0  0.00000000000E+00  0.00000000000E+00 -0.14152089653E+04  0.14152089654E+04  0.50400001928E-02 0.  1.
    10030    2    1    2    0    0  0.00000000000E+00  0.00000000000E+00 -0.13232432661E+03  0.26980936041E+04  0.26948468174E+04 0.  0.
        2    1    3    3  502    0 -0.18917809544E+03  0.30229498060E+03  0.12347798219E+04  0.12852438740E+04  0.25500000920E-02 0. -1.
       -2    1    3    3    0  502  0.18917809544E+03 -0.30229498060E+03 -0.13671041485E+04  0.14128497301E+04  0.25500000920E-02 0.  1.
</event>
<event>
 5   0  0.4846214E-06  0.2689788E+04  0.7818609E-02  0.8338326E-01
       -1   -1    0    0    0  501  0.00000000000E+00  0.00000000000E+00  0.11884693997E+04  0.11884693997E+04  0.50400001928E-02 0. -1.
        1   -1    0    0  501    0  0.00000000000E+00  0.00000000000E+00 -0.15219065513E+04  0.15219065513E+04  0.50400001928E-02 0.  1.
    10030    2    1    2    0    0  0.00000000000E+00  0.00000000000E+00 -0.33343715155E+03  0.27103759510E+04  0.26897876239E+04 0.  0.
        2    1    3    3  502    0  0.57657448457E+03  0.10075420134E+04  0.51756719668E+03  0.12710054477E+04  0.25500000920E-02 0. -1.
       -2    1    3    3    0  502 -0.57657448457E+03 -0.10075420134E+04 -0.85100434823E+03  0.14393705033E+04  0.25500000920E-02 0.  1.
</event>
<event>
 5   0  0.4824715E-06  0.2731097E+04  0.7818609E-02  0.8324985E-01
        1   -1    0    0  501    0  0.00000000000E+00  0.00000000000E+00  0.11179305066E+04  0.11179305066E+04  0.50400001928E-02 0. -1.
       -1   -1    0    0    0  501  0.00000000000E+00  0.00000000000E+00 -0.16680126928E+04  0.16680126928E+04  0.50400001928E-02 0.  1.
    10030    2    1    2    0    0  0.00000000000E+00  0.00000000000E+00 -0.55008218621E+03  0.27859431995E+04  0.27310966843E+04 0.  0.
        5    1    3    3  502    0  0.95032492333E+03  0.15767588579E+03 -0.12623210498E+04  0.15879092126E+04  0.46999998093E+01 0.  1.
       -5    1    3    3    0  502 -0.95032492333E+03 -0.15767588579E+03  0.71223886356E+03  0.11980339868E+04  0.46999998093E+01 0. -1.
</event>
<event>
 5   0  0.1276517E-05  0.2752327E+04  0.7818609E-02  0.8318223E-01
        2   -1    0    0  501    0  0.00000000000E+00  0.00000000000E+00  0.18151152755E+04  0.18151152755E+04  0.25500000920E-02 0. -1.
       -2   -1    0    0    0  501  0.00000000000E+00  0.00000000000E+00 -0.10433643985E+04  0.10433643985E+04  0.25500000920E-02 0.  1.
    10030    2    1    2    0    0  0.00000000000E+00  0.00000000000E+00  0.77175087700E+03  0.28584796740E+04  0.27523274933E+04 0.  0.
        1    1    3    3  502    0 -0.55283571468E+02 -0.10139537681E+04  0.13504968100E+04  0.16896745696E+04  0.50400001928E-02 0. -1.
       -1    1    3    3    0  502  0.55283571468E+02  0.10139537681E+04 -0.57874593301E+03  0.11688051044E+04  0.50400001928E-02 0.  1.
</event>
<event>
 5   0  0.4756800E-06  0.2690380E+04  0.7818609E-02  0.8338133E-01
       -1   -1    0    0    0  501  0.00000000000E+00  0.00000000000E+00  0.12317246475E+04  0.12317246475E+04  0.50400001928E-02 0.  1.
        1   -1    0    0  501    0  0.00000000000E+00  0.00000000000E+00 -0.14691073662E+04  0.14691073663E+04  0.50400001928E-02 0. -1.
    10030    2    1    2    0    0  0.00000000000E+00  0.00000000000E+00 -0.23738271872E+03  0.27008320138E+04  0.26903797151E+04 0.  0.
        4    1    3    3  502    0 -0.13069024796E+04  0.12209201329E+03 -0.41417071697E+03  0.13763864089E+04  0.12699999809E+01 0.  1.
       -4    1    3    3    0  502  0.13069024796E+04 -0.12209201329E+03  0.17678799825E+03  0.13244456049E+04  0.12699999809E+01 0. -1.
</event>
<event>
 5   0  0.4826140E-06  0.2690942E+04  0.7818609E-02  0.8337950E-01
       -1   -1    0    0    0  501  0.00000000000E+00  0.00000000000E+00  0.86979107573E+03  0.86979107575E+03  0.50400001928E-02 0. -1.
        1   -1    0    0  501    0  0.00000000000E+00  0.00000000000E+00 -0.20812960609E+04  0.20812960609E+04  0.50400001928E-02 0.  1.
    10030    2    1    2    0    0  0.00000000000E+00  0.00000000000E+00 -0.12115049852E+04  0.29510871367E+04  0.26909423924E+04 0.  0.
        1    1    3    3  502    0 -0.36174281410E+03  0.46183580112E+03  0.72214861872E+03  0.93040249263E+03  0.50400001928E-02 0. -1.
       -1    1    3    3    0  502  0.36174281410E+03 -0.46183580112E+03 -0.19336536039E+04  0.20206846440E+04  0.50400001928E-02 0.  1.
</event>
<event>
 5   0  0.1286641E-05  0.2695155E+04  0.7818609E-02  0.8336579E-01
       -2   -1    0    0    0  501  0.00000000000E+00  0.00000000000E+00  0.10924980061E+04  0.10924980061E+04  0.25500000920E-02 0. -1.
        2   -1    0    0  501    0  0.00000000000E+00  0.00000000000E+00 -0.16622138421E+04  0.16622138421E+04  0.25500000920E-02 0.  1.
    10030    2    1    2    0    0  0.00000000000E+00  0.00000000000E+00 -0.56971583593E+03  0.27547118482E+04  0.26951551408E+04 0.  0.
        4    1    3    3  502    0 -0.29255870312E+03  0.13092803365E+04 -0.15493446114E+03  0.13504857994E+04  0.12699999809E+01 0. -1.
       -4    1    3    3    0  502  0.29255870312E+03 -0.13092803365E+04 -0.41478137479E+03  0.14042260488E+04  0.12699999809E+01 0.  1.
</event>
<event>
 5   0  0.4824715E-06  0.2396964E+04  0.7818609E-02  0.8440641E-01
       -1   -1    0    0    0  501  0.00000000000E+00  0.00000000000E+00  0.18230226832E+04  0.18230226832E+04  0.50400001928E-02 0.  1.
        1   -1    0    0  501    0  0.00000000000E+00  0.00000000000E+00 -0.78789974443E+03  0.78789974445E+03  0.50400001928E-02 0. -1.
    10030    2    1    2    0    0  0.00000000000E+00  0.00000000000E+00  0.10351229388E+04  0.26109224277E+04  0.23969640016E+04 0.  0.
        5    1    3    3  502    0  0.10580313304E+04  0.46298665230E+03  0.86638073129E+03  0.14437536486E+04  0.46999998093E+01 0.  1.
       -5    1    3    3    0  502 -0.10580313304E+04 -0.46298665230E+03  0.16874220748E+03  0.11671687791E+04  0.46999998093E+01 0. -1.
</event>
<event>
 5   0  0.4824715E-06  0.2720541E+04  0.7818609E-02  0.8328371E-01
       -1   -1    0    0    0  501  0.00000000000E+00  0.00000000000E+00  0.14323787971E+04  0.14323787971E+04  0.50400001928E-02 0. -1.
        1   -1    0    0  501    0  0.00000000000E+00  0.00000000000E+00 -0.12917923875E+04  0.12917923875E+04  0.50400001928E-02 0.  1.
    10030    2    1    2    0    0  0.00000000000E+00  0.00000000000E+00  0.14058640963E+03  0.27241711846E+04  0.27205411418E+04 0.  0.
        5    1    3    3  502    0 -0.81427509450E+03 -0.29188618302E+02 -0.10203883436E+04  0.13057987467E+04  0.46999998093E+01 0.  1.
       -5    1    3    3    0  502  0.81427509450E+03  0.29188618302E+02  0.11609747533E+04  0.14183724379E+04  0.46999998093E+01 0. -1.
</event>
<event>
 5   0  0.4756800E-06  0.2700626E+04  0.7818609E-02  0.8334802E-01
       -1   -1    0    0    0  501  0.00000000000E+00  0.00000000000E+00  0.12132547801E+04  0.12132547801E+04  0.50400001928E-02 0. -1.
        1   -1    0    0  501    0  0.00000000000E+00  0.00000000000E+00 -0.15028538143E+04  0.15028538143E+04  0.50400001928E-02 0.  1.
    10030    2    1    2    0    0  0.00000000000E+00  0.00000000000E+00 -0.28959903421E+03  0.27161085944E+04  0.27006255379E+04 0.  0.
        4    1    3    3  502    0  0.32366254608E+03 -0.92954138927E+03 -0.10745117207E+04  0.14571827918E+04  0.12699999809E+01 0.  1.
       -4    1    3    3    0  502 -0.32366254608E+03  0.92954138927E+03  0.78491268646E+03  0.12589258026E+04  0.12699999809E+01 0. -1.
</event>
<event>
 5   0  0.1276517E-05  0.2643565E+04  0.7818609E-02  0.8353552E-01
       -2   -1    0    0    0  501  0.00000000000E+00  0.00000000000E+00  0.19123846614E+04  0.19123846614E+04  0.25500000920E-02 0.  1.
        2   -1    0    0  501    0  0.00000000000E+00  0.00000000000E+00 -0.91357645190E+03  0.91357645190E+03  0.25500000920E-02 0. -1.
    10030    2    1    2    0    0  0.00000000000E+00  0.00000000000E+00  0.99880820953E+03  0.28259611133E+04  0.26435654663E+04 0.  0.
        1    1    3    3  502    0  0.11828380407E+04 -0.34607899027E+03  0.10101035921E+04  0.15934822763E+04  0.50400001928E-02 0.  1.
       -1    1    3    3    0  502 -0.11828380407E+04  0.34607899027E+03 -0.11295382566E+02  0.12324788370E+04  0.50400001928E-02 0. -1.
</event>
<event>
 5   0  0.4756800E-06  0.2640399E+04  0.7818609E-02  0.8354607E-01
        1   -1    0    0  501    0  0.00000000000E+00  0.00000000000E+00  0.14029955917E+04  0.14029955918E+04  0.50400001928E-02 0. -1.
       -1   -1    0    0    0  501  0.00000000000E+00  0.00000000000E+00 -0.12422898143E+04  0.12422898143E+04  0.50400001928E-02 0.  1.
    10030    2    1    2    0    0  0.00000000000E+00  0.00000000000E+00  0.16070577750E+03  0.26452854060E+04  0.26403993131E+04 0.  0.
        4    1    3    3  502    0 -0.30368840635E+03  0.39182996011E+03  0.13062053836E+04  0.13971154150E+04  0.12699999809E+01 0. -1.
       -4    1    3    3    0  502  0.30368840635E+03 -0.39182996011E+03 -0.11454996062E+04  0.12481699910E+04  0.12699999809E+01 0.  1.
</event>
<event>
 5   0  0.1276517E-05  0.2704277E+04  0.7818609E-02  0.8333619E-01
        2   -1    0    0  501    0  0.00000000000E+00  0.00000000000E+00  0.13014918856E+04  0.13014918856E+04  0.25500000920E-02 0.  1.
       -2   -1    0    0    0  501  0.00000000000E+00  0.00000000000E+00 -0.14047559140E+04  0.14047559140E+04  0.25500000920E-02 0. -1.
    10030    2    1    2    0    0  0.00000000000E+00  0.00000000000E+00 -0.10326402834E+03  0.27062477996E+04  0.27042769262E+04 0.  0.
        1    1    3    3  502    0  0.52633731246E+03 -0.17601244473E+03 -0.12855217260E+04  0.14002062188E+04  0.50400001928E-02 0. -1.
       -1    1    3    3    0  502 -0.52633731246E+03  0.17601244473E+03  0.11822576976E+04  0.13060415808E+04  0.50400001928E-02 0.  1.
</event>
<event>
 5   0  0.1232559E-05  0.2717272E+04  0.7818609E-02  0.8329423E-01
       -2   -1    0    0    0  501  0.00000000000E+00  0.00000000000E+00  0.15642090748E+04  0.15642090748E+04  0.25500000920E-02 0. -1.
        2   -1    0    0  501    0  0.00000000000E+00  0.00000000000E+00 -0.11800798154E+04  0.11800798154E+04  0.25500000920E-02 0.  1.
    10030    2    1    2    0    0  0.00000000000E+00  0.00000000000E+00  0.38412925939E+03  0.27442888901E+04  0.27172718349E+04 0.  0.
        3    1    3    3  502    0  0.16941012132E+03  0.12816136871E+04 -0.23001182223E+03  0.13130646902E+04  0.10100000352E+00 0. -1.
       -3    1    3    3    0  502 -0.16941012132E+03 -0.12816136871E+04  0.61414108162E+03  0.14312241999E+04  0.10100000352E+00 0.  1.
</event>
<event>
 5   0  0.1232559E-05  0.2710683E+04  0.7818609E-02  0.8331547E-01
       -2   -1    0    0    0  501  0.00000000000E+00  0.00000000000E+00  0.14326451181E+04  0.14326451181E+04  0.25500000920E-02 0. -1.
        2   -1    0    0  501    0  0.00000000000E+00  0.00000000000E+00 -0.12822094044E+04  0.12822094044E+04  0.25500000920E-02 0.  1.
    10030    2    1    2    0    0  0.00000000000E+00  0.00000000000E+00  0.15043571365E+03  0.27148545225E+04  0.27106833409E+04 0.  0.
        3    1    3    3  502    0  0.13489484882E+04 -0.59783794998E+02  0.19250872974E+03  0.13639265915E+04  0.10100000352E+00 0. -1.
       -3    1    3    3    0  502 -0.13489484882E+04  0.59783794998E+02 -0.42073016091E+02  0.13509279310E+04  0.10100000352E+00 0.  1.
</event>
<event>
 5   0  0.4826140E-06  0.2690152E+04  0.7818609E-02  0.8338208E-01
       -1   -1    0    0    0  501  0.00000000000E+00  0.00000000000E+00  0.11029809031E+04  0.11029809031E+04  0.50400001928E-02 0. -1.
        1   -1    0    0  501    0  0.00000000000E+00  0.00000000000E+00 -0.16403084190E+04  0.16403084190E+04  0.50400001928E-02 0.  1.
    10030    2    1    2    0    0  0.00000000000E+00  0.00000000000E+00 -0.53732751587E+03  0.27432893221E+04  0.26901515655E+04 0.  0.
        1    1    3    3  502    0  0.11208925821E+03  0.71107155898E+03 -0.14273479067E+04  0.15985958872E+04  0.50400001928E-02 0.  1.
       -1    1    3    3    0  502 -0.11208925821E+03 -0.71107155898E+03  0.89002039080E+03  0.11446934349E+04  0.50400001928E-02 0. -1.
</event>
<event>
 5   0  0.4824715E-06  0.2675153E+04  0.7818609E-02  0.8343112E-01
       -1   -1    0    0    0  501  0.00000000000E+00  0.00000000000E+00  0.15146156803E+04  0.15146156803E+04  0.50400001928E-02 0. -1.
        1   -1    0    0  501    0  0.00000000000E+00  0.00000000000E+00 -0.11812313555E+04  0.11812313555E+04  0.50400001928E-02 0.  1.
    10030    2    1    2    0    0  0.00000000000E+00  0.00000000000E+00  0.33338432486E+03  0.26958470358E+04  0.26751534783E+04 0.  0.
        5    1    3    3  502    0 -0.11016059958E+04  0.28832812373E+03 -0.54046286728E+03  0.12604725613E+04  0.46999998093E+01 0.  1.
       -5    1    3    3    0  502  0.11016059958E+04 -0.28832812373E+03  0.87384719214E+03  0.14353744745E+04  0.46999998093E+01 0. -1.
</event>
<event>
 5   0  0.1232559E-05  0.2737042E+04  0.7818609E-02  0.8323085E-01
        2   -1    0    0  501    0  0.00000000000E+00  0.00000000000E+00  0.15852212662E+04  0.15852212662E+04  0.25500000920E-02 0.  1.
       -2   -1    0    0    0  501  0.00000000000E+00  0.00000000000E+00 -0.11814435494E+04  0.11814435494E+04  0.25500000920E-02 0. -1.
    10030    2    1    2    0    0  0.00000000000E+00  0.00000000000E+00  0.40377771673E+03  0.27666648156E+04  0.27370417895E+04 0.  0.
        3    1    3    3  502    0  0.71976927911E+03 -0.42176375348E+03  0.12984790006E+04  0.15433729958E+04  0.10100000352E+00 0.  1.
       -3    1    3    3    0  502 -0.71976927911E+03  0.42176375348E+03 -0.89470128386E+03  0.12232918198E+04  0.10100000352E+00 0. -1.
</event>
<event>
 5   0  0.4824715E-06  0.2695828E+04  0.7818609E-02  0.8336360E-01
       -1   -1    0    0    0  501  0.00000000000E+00  0.00000000000E+00  0.11822647705E+04  0.11822647705E+04  0.50400001928E-02 0.  1.
        1   -1    0    0  501    0  0.00000000000E+00  0.00000000000E+00 -0.15367724020E+04  0.15367724020E+04  0.50400001928E-02 0. -1.
    10030    2    1    2    0    0  0.00000000000E+00  0.00000000000E+00 -0.35450763151E+03  0.27190371725E+04  0.26958277921E+04 0.  0.
        5    1    3    3  502    0  0.32677047104E+03 -0.12795516913E+03 -0.14898798886E+04  0.15306585636E+04  0.46999998093E+01 0. -1.
       -5    1    3    3    0  502 -0.32677047104E+03  0.12795516913E+03  0.11353722570E+04  0.11883786089E+04  0.46999998093E+01 0.  1.
</event>
<event>
 5   0  0.1220908E-05  0.2676689E+04  0.7818609E-02  0.8342608E-01
        2   -1    0    0  501    0  0.00000000000E+00  0.00000000000E+00  0.19408537186E+04  0.19408537186E+04  0.25500000920E-02 0. -1.
       -2   -1    0    0    0  501  0.00000000000E+00  0.00000000000E+00 -0.92287548649E+03  0.92287548650E+03  0.25500000920E-02 0.  1.
    10030    2    1    2    0    0  0.00000000000E+00  0.00000000000E+00  0.10179782321E+04  0.28637292051E+04  0.26766892384E+04 0.  0.
        2    1    3    3  502    0  0.39020878936E+03 -0.12780288976E+04  0.58866127789E+03  0.14601858999E+04  0.25500000920E-02 0.  1.
       -2    1    3    3    0  502 -0.39020878936E+03  0.12780288976E+04  0.42931695422E+03  0.14035433052E+04  0.25500000920E-02 0. -1.
</event>
<event>
 5   0  0.5152288E-06  0.2683575E+04  0.7818609E-02  0.8340354E-01
        1   -1    0    0  501    0  0.00000000000E+00  0.00000000000E+00  0.12023208765E+04  0.12023208766E+04  0.50400001928E-02 0. -1.
       -1   -1    0    0    0  501  0.00000000000E+00  0.00000000000E+00 -0.14974324876E+04  0.14974324877E+04  0.50400001928E-02 0.  1.
    10030    2    1    2    0    0  0.00000000000E+00  0.00000000000E+00 -0.29511161111E+03  0.26997533642E+04  0.26835754814E+04 0.  0.
        3    1    3    3  502    0  0.18676115127E+03  0.45452576443E+03 -0.14036503232E+04  0.14871811047E+04  0.10100000352E+00 0.  1.
       -3    1    3    3    0  502 -0.18676115127E+03 -0.45452576443E+03  0.11085387121E+04  0.12125722595E+04  0.10100000352E+00 0. -1.
</event>
<event>
 5   0  0.4826140E-06  0.2719608E+04  0.7818609E-02  0.8328671E-01
       -1   -1    0    0    0  501  0.00000000000E+00  0.00000000000E+00  0.11611477279E+04  0.11611477279E+04  0.50400001928E-02 0.  1.
        1   -1    0    0  501    0  0.00000000000E+00  0.00000000000E+00 -0.15924479471E+04  0.15924479471E+04  0.50400001928E-02 0. -1.
    10030    2    1    2    0    0  0.00000000000E+00  0.00000000000E+00 -0.43130021921E+03  0.27535956750E+04  0.27196082921E+04 0.  0.
        1    1    3    3  502    0  0.58598191255E+03 -0.12051419634E+04 -0.44945883783E+03  0.14134196832E+04  0.50400001928E-02 0.  1.
       -1    1    3    3    0  502 -0.58598191255E+03  0.12051419634E+04  0.18158618621E+02  0.13401759919E+04  0.50400001928E-02 0. -1.
</event>
<event>
 5   0  0.4756800E-06  0.2572625E+04  0.7818609E-02  0.8377560E-01
       -1   -1    0    0    0  501  0.00000000000E+00  0.00000000000E+00  0.11400367189E+04  0.11400367189E+04  0.50400001928E-02 0.  1.
        1   -1    0    0  501    0  0.00000000000E+00  0.00000000000E+00 -0.14513566216E+04  0.14513566216E+04  0.50400001928E-02 0. -1.
    10030    2    1    2    0    0  0.00000000000E+00  0.00000000000E+00 -0.31131990271E+03  0.25913933406E+04  0.25726249948E+04 0.  0.
        4    1    3    3  502    0  0.11382917232E+04  0.38207131630E+03 -0.62044977134E+03  0.13515347089E+04  0.12699999809E+01 0. -1.
       -4    1    3    3    0  502 -0.11382917232E+04 -0.38207131630E+03  0.30912986863E+03  0.12398586316E+04  0.12699999809E+01 0.  1.
</event>
<event>
 5   0  0.1286641E-05  0.2765878E+04  0.7818609E-02  0.8313941E-01
        2   -1    0    0  501    0  0.00000000000E+00  0.00000000000E+00  0.22552789235E+04  0.22552789235E+04  0.25500000920E-02 0. -1.
       -2   -1    0    0    0  501  0.00000000000E+00  0.00000000000E+00 -0.84801949730E+03  0.84801949731E+03  0.25500000920E-02 0.  1.
    10030    2    1    2    0    0  0.00000000000E+00  0.00000000000E+00  0.14072594262E+04  0.31032984209E+04  0.27658781600E+04 0.  0.
        4    1    3    3  502    0 -0.77969180460E+03  0.38003532076E+02 -0.57719171279E+03  0.97083235671E+03  0.12699999809E+01 0.  1.
       -4    1    3    3    0  502  0.77969180460E+03 -0.38003532076E+02  0.19844511390E+04  0.21324660641E+04  0.12699999809E+01 0. -1.
</event>
<event>
 5   0  0.5152288E-06  0.2615906E+04  0.7818609E-02  0.8362818E-01
       -1   -1    0    0    0  501  0.00000000000E+00  0.00000000000E+00  0.89588658086E+03  0.89588658088E+03  0.50400001928E-02 0. -1.
        1   -1    0    0  501    0  0.00000000000E+00  0.00000000000E+00 -0.19095505219E+04  0.19095505219E+04  0.50400001928E-02 0.  1.
    10030    2    1    2    0    0  0.00000000000E+00  0.00000000000E+00 -0.10136639410E+04  0.28054371028E+04  0.26159057231E+04 0.  0.
        3    1    3    3  502    0  0.22224142030E+03 -0.80728048885E+03  0.57078237911E+03  0.10133536259E+04  0.10100000352E+00 0. -1.
       -3    1    3    3    0  502 -0.22224142030E+03  0.80728048885E+03 -0.15844463201E+04  0.17920834769E+04  0.10100000352E+00 0.  1.
</event>
<event>
 5   0  0.4824715E-06  0.2714629E+04  0.7818609E-02  0.8330274E-01
       -1   -1    0    0    0  501  0.00000000000E+00  0.00000000000E+00  0.10262965171E+04  0.10262965172E+04  0.50400001928E-02 0. -1.
        1   -1    0    0  501    0  0.00000000000E+00  0.00000000000E+00 -0.17950975584E+04  0.17950975584E+04  0.50400001928E-02 0.  1.
    10030    2    1    2    0    0  0.00000000000E+00  0.00000000000E+00 -0.76880104124E+03  0.28213940755E+04  0.27146287939E+04 0.  0.
        5    1    3    3  502    0 -0.10865538965E+04 -0.21196845185E+03 -0.12006219244E+04  0.16331090257E+04  0.46999998093E+01 0.  1.
       -5    1    3    3    0  502  0.10865538965E+04  0.21196845185E+03  0.43182088313E+03  0.11882850498E+04  0.46999998093E+01 0. -1.
</event>
<event>
 5   0  0.4756800E-06  0.2686296E+04  0.7818609E-02  0.8339465E-01
       -1   -1    0    0    0  501  0.00000000000E+00  0.00000000000E+00  0.86298221982E+03  0.86298221983E+03  0.50400001928E-02 0.  1.
        1   -1    0    0  501    0  0.00000000000E+00  0.00000000000E+00 -0.20904790798E+04  0.20904790798E+04  0.50400001928E-02 0. -1.
    10030    2    1    2    0    0  0.00000000000E+00  0.00000000000E+00 -0.12274968600E+04  0.29534612996E+04  0.26862957967E+04 0.  0.
        4    1    3    3  502    0  0.65589846642E+03  0.19025506456E+03 -0.18853406647E+04  0.20052208912E+04  0.12699999809E+01 0. -1.
       -4    1    3    3    0  502 -0.65589846642E+03 -0.19025506456E+03  0.65784380471E+03  0.94824040840E+03  0.12699999809E+01 0.  1.
</event>
<event>
 5   0  0.1220908E-05  0.2652083E+04  0.7818609E-02  0.8350722E-01
       -2   -1    0    0    0  501  0.00000000000E+00  0.00000000000E+00  0.10938819589E+04  0.10938819589E+04  0.25500000920E-02 0.  1.
        2   -1    0    0  501    0  0.00000000000E+00  0.00000000000E+00 -0.16074733627E+04  0.16074733627E+04  0.25500000920E-02 0. -1.
    10030    2    1    2    0    0  0.00000000000E+00  0.00000000000E+00 -0.51359140373E+03  0.27013553216E+04  0.26520830386E+04 0.  0.
        2    1    3    3  502    0 -0.25856311537E+03  0.12998634602E+04 -0.21255828715E+03  0.13422670842E+04  0.25500000920E-02 0. -1.
       -2    1    3    3    0  502  0.25856311537E+03 -0.12998634602E+04 -0.30103311658E+03  0.13590882374E+04  0.25500000920E-02 0.  1.
</event>
<event>
 5   0  0.1286641E-05  0.2706784E+04  0.7818609E-02  0.8332807E-01
       -2   -1    0    0    0  501  0.00000000000E+00  0.00000000000E+00  0.82758228284E+03  0.82758228285E+03  0.25500000920E-02 0. -1.
        2   -1    0    0  501    0  0.00000000000E+00  0.00000000000E+00 -0.22132780364E+04  0.22132780364E+04  0.25500000920E-02 0.  1.
    10030    2    1    2    0    0  0.00000000000E+00  0.00000000000E+00 -0.13856957536E+04  0.30408603193E+04  0.27067838406E+04 0.  0.
        4    1    3    3  502    0 -0.36771162383E+03 -0.87736236326E+03  0.38861219922E+03  0.10276174430E+04  0.12699999809E+01 0. -1.
       -4    1    3    3    0  502  0.36771162383E+03  0.87736236326E+03 -0.17743079528E+04  0.20132428763E+04  0.12699999809E+01 0.  1.
</event>
<event>
 5   0  0.1286641E-05  0.2688453E+04  0.7818609E-02  0.8338761E-01
       -2   -1    0    0    0  501  0.00000000000E+00  0.00000000000E+00  0.11790879496E+04  0.11790879496E+04  0.25500000920E-02 0. -1.
        2   -1    0    0  501    0  0.00000000000E+00  0.00000000000E+00 -0.15324932749E+04  0.15324932749E+04  0.25500000920E-02 0.  1.
    10030    2    1    2    0    0  0.00000000000E+00  0.00000000000E+00 -0.35340532531E+03  0.27115812245E+04  0.26884526057E+04 0.  0.
        4    1    3    3  502    0  0.36728609645E+03 -0.18356813162E+03 -0.14676933206E+04  0.15240477787E+04  0.12699999809E+01 0.  1.
       -4    1    3    3    0  502 -0.36728609645E+03  0.18356813162E+03  0.11142879953E+04  0.11875334458E+04  0.12699999809E+01 0. -1.
</event>
<event>
 5   0  0.4756800E-06  0.2708406E+04  0.7818609E-02  0.8332283E-01
        1   -1    0    0  501    0  0.00000000000E+00  0.00000000000E+00  0.19618662556E+04  0.19618662556E+04  0.50400001928E-02 0. -1.
       -1   -1    0    0    0  501  0.00000000000E+00  0.00000000000E+00 -0.93475549730E+03  0.93475549732E+03  0.50400001928E-02 0.  1.
    10030    2    1    2    0    0  0.00000000000E+00  0.00000000000E+00  0.10271107583E+04  0.28966217529E+04  0.27084056324E+04 0.  0.
        4    1    3    3  502    0  0.26013990909E+03  0.10854789264E+04 -0.30649315020E+03  0.11575305335E+04  0.12699999809E+01 0.  1.
       -4    1    3    3    0  502 -0.26013990909E+03 -0.10854789264E+04  0.13336039085E+04  0.17390912194E+04  0.12699999809E+01 0. -1.
</event>
<event>
 5   0  0.1220908E-05  0.2707802E+04  0.7818609E-02  0.8332478E-01
        2   -1    0    0  501    0  0.00000000000E+00  0.00000000000E+00  0.24491530948E+04  0.24491530948E+04  0.25500000920E-02 0.  1.
       -2   -1    0    0    0  501  0.00000000000E+00  0.00000000000E+00 -0.74844171592E+03  0.74844171593E+03  0.25500000920E-02 0. -1.
    10030    2    1    2    0    0  0.00000000000E+00  0.00000000000E+00  0.17007113788E+04  0.31975948107E+04  0.27078023154E+04 0.  0.
        2    1    3    3  502    0  0.68867233471E+03  0.47169967855E+03  0.21091327138E+04  0.22683057501E+04  0.25500000920E-02 0.  1.
       -2    1    3    3    0  502 -0.68867233471E+03 -0.47169967855E+03 -0.40842133496E+03  0.92928906063E+03  0.25500000920E-02 0. -1.
</event>
<event>
 5   0  0.1286641E-05  0.2725273E+04  0.7818609E-02  0.8326851E-01
        2   -1    0    0  501    0  0.00000000000E+00  0.00000000000E+00  0.19506942402E+04  0.19506942402E+04  0.25500000920E-02 0. -1.
       -2   -1    0    0    0  501  0.00000000000E+00  0.00000000000E+00 -0.95185505552E+03  0.95185505552E+03  0.25500000920E-02 0.  1.
    10030    2    1    2    0    0  0.00000000000E+00  0.00000000000E+00  0.99883918465E+03  0.29025492957E+04  0.27252729583E+04 0.  0.
        4    1    3    3  502    0  0.90607060599E+03 -0.16999790921E+03  0.15681437894E+04  0.18190491443E+04  0.12699999809E+01 0. -1.
       -4    1    3    3    0  502 -0.90607060599E+03  0.16999790921E+03 -0.56930460476E+03  0.10835001514E+04  0.12699999809E+01 0.  1.
</event>
<event>
 5   0  0.1261364E-05  0.2726583E+04  0.7818609E-02  0.8326431E-01
       -2   -1    0    0    0  501  0.00000000000E+00  0.00000000000E+00  0.10145326742E+04  0.10145326742E+04  0.25500000920E-02 0. -1.
        2   -1    0    0  501    0  0.00000000000E+00  0.00000000000E+00 -0.18319411495E+04  0.18319411495E+04  0.25500000920E-02 0.  1.
    10030    2    1    2    0    0  0.00000000000E+00  0.00000000000E+00 -0.81740847534E+03  0.28464738237E+04  0.27265833223E+04 0.  0.
        5    1    3    3  502    0  0.73313953957E+03 -0.38423701444E+03 -0.15395760683E+04  0.17479840468E+04  0.46999998093E+01 0.  1.
       -5    1    3    3    0  502 -0.73313953957E+03  0.38423701444E+03  0.72216759296E+03  0.10984897770E+04  0.46999998093E+01 0. -1.
</event>
<event>
 5   0  0.4846214E-06  0.2723310E+04  0.7818609E-02  0.8327481E-01
        1   -1    0    0  501    0  0.00000000000E+00  0.00000000000E+00  0.24376200961E+04  0.24376200961E+04  0.50400001928E-02 0.  1.
       -1   -1    0    0    0  501  0.00000000000E+00  0.00000000000E+00 -0.76062045907E+03  0.76062045908E+03  0.50400001928E-02 0. -1.
    10030    2    1    2    0    0  0.00000000000E+00  0.00000000000E+00  0.16769996370E+04  0.31982405552E+04  0.27233095429E+04 0.  0.
        2    1    3    3  502    0  0.75051962393E+03 -0.81646198714E+03 -0.89356678100E+02  0.11125980848E+04  0.25500000920E-02 0. -1.
       -2    1    3    3    0  502 -0.75051962393E+03  0.81646198714E+03  0.17663563151E+04  0.20856424704E+04  0.25500000920E-02 0.  1.
</event>
<event>
 5   0  0.1261364E-05  0.2663039E+04  0.7818609E-02  0.8347098E-01
       -2   -1    0    0    0  501  0.00000000000E+00  0.00000000000E+00  0.14540129392E+04  0.14540129392E+04  0.25500000920E-02 0.  1.
        2   -1    0    0  501    0  0.00000000000E+00  0.00000000000E+00 -0.12193459467E+04  0.12193459467E+04  0.25500000920E-02 0. -1.
    10030    2    1    2    0    0  0.00000000000E+00  0.00000000000E+00  0.23466699256E+03  0.26733588859E+04  0.26630394543E+04 0.  0.
        5    1    3    3  502    0  0.48490479745E+03 -0.11477820669E+04 -0.35393891665E+03  0.12953112299E+04  0.46999998093E+01 0. -1.
       -5    1    3    3    0  502 -0.48490479745E+03  0.11477820669E+04  0.58860590921E+03  0.13780476559E+04  0.46999998093E+01 0.  1.
</event>
<event>
 5   0  0.4824715E-06  0.2745529E+04  0.7818609E-02  0.8320382E-01
        1   -1    0    0  501    0  0.00000000000E+00  0.00000000000E+00  0.14904557206E+04  0.14904557206E+04  0.50400001928E-02 0.  1.
       -1   -1    0    0    0  501  0.00000000000E+00  0.00000000000E+00 -0.12643662911E+04  0.12643662911E+04  0.50400001928E-02 0. -1.
    10030    2    1    2    0    0  0.00000000000E+00  0.00000000000E+00  0.22608942949E+03  0.27548220118E+04  0.27455287080E+04 0.  0.
        5    1    3    3  502    0  0.46702994190E+03  0.93767074226E+03 -0.77715420283E+03  0.13043519972E+04  0.46999998093E+01 0. -1.
       -5    1    3    3    0  502 -0.46702994190E+03 -0.93767074226E+03  0.10032436323E+04  0.14504700146E+04  0.46999998093E+01 0.  1.
</event>
<event>
 5   0  0.4846214E-06  0.2699285E+04  0.7818609E-02  0.8335237E-01
       -1   -1    0    0    0  501  0.00000000000E+00  0.00000000000E+00  0.14081162945E+04  0.14081162945E+04  0.50400001928E-02 0. -1.
        1   -1    0    0  501    0  0.00000000000E+00  0.00000000000E+00 -0.12935966300E+04  0.12935966300E+04  0.50400001928E-02 0.  1.
    10030    2    1    2    0    0  0.00000000000E+00  0.00000000000E+00  0.11451966452E+03  0.27017129245E+04  0.26992847150E+04 0.  0.
        2    1    3    3  502    0  0.17347392428E+03 -0.15800721096E+03  0.13875434846E+04  0.14072442584E+04  0.25500000920E-02 0. -1.
       -2    1    3    3    0  502 -0.17347392428E+03  0.15800721096E+03 -0.12730238200E+04  0.12944686661E+04  0.25500000920E-02 0.  1.
</event>
<event>
 5   0  0.1276517E-05  0.2710492E+04  0.7818609E-02  0.8331609E-01
        2   -1    0    0  501    0  0.00000000000E+00  0.00000000000E+00  0.18426428325E+04  0.18426428325E+04  0.25500000920E-02 0.  1.
       -2   -1    0    0    0  501  0.00000000000E+00  0.00000000000E+00 -0.99677002526E+03  0.99677002527E+03  0.25500000920E-02 0. -1.
    10030    2    1    2    0    0  0.00000000000E+00  0.00000000000E+00  0.84587280726E+03  0.28394128578E+04  0.27104915737E+04 0.  0.
        1    1    3    3  502    0  0.12399748664E+04  0.53294472222E+03  0.55176288664E+03  0.14580843698E+04  0.50400001928E-02 0.  1.
       -1    1    3    3    0  502 -0.12399748664E+04 -0.53294472222E+03  0.29410992062E+03  0.13813284880E+04  0.50400001928E-02 0. -1.
</event>
<event>
 5   0  0.4756800E-06  0.2701306E+04  0.7818609E-02  0.8334581E-01
       -1   -1    0    0    0  501  0.00000000000E+00  0.00000000000E+00  0.11925945776E+04  0.11925945776E+04  0.50400001928E-02 0. -1.
        1   -1    0    0  501    0  0.00000000000E+00  0.00000000000E+00 -0.15296596116E+04  0.15296596116E+04  0.50400001928E-02 0.  1.
    10030    2    1    2    0    0  0.00000000000E+00  0.00000000000E+00 -0.33706503405E+03  0.27222541892E+04  0.27013061718E+04 0.  0.
        4    1    3    3  502    0 -0.97561218029E+03 -0.61806169889E+03 -0.87427949293E+03  0.14485115238E+04  0.12699999809E+01 0.  1.
       -4    1    3    3    0  502  0.97561218029E+03  0.61806169889E+03  0.53721445888E+03  0.12737426654E+04  0.12699999809E+01 0. -1.
</event>
<event>
 5   0  0.1232559E-05  0.2716418E+04  0.7818609E-02  0.8329698E-01
       -2   -1    0    0    0  501  0.00000000000E+00  0.00000000000E+00  0.20062760667E+04  0.20062760667E+04  0.25500000920E-02 0.  1.
        2   -1    0    0  501    0  0.00000000000E+00  0.00000000000E+00 -0.91948047691E+03  0.91948047691E+03  0.25500000920E-02 0. -1.
    10030    2    1    2    0    0  0.00000000000E+00  0.00000000000E+00  0.10867955898E+04  0.29257565436E+04  0.27164179904E+04 0.  0.
        3    1    3    3  502    0  0.56362851312E+03 -0.13198880078E+03 -0.77996022043E+03  0.97130638832E+03  0.10100000352E+00 0. -1.
       -3    1    3    3    0  502 -0.56362851312E+03  0.13198880078E+03  0.18667558102E+04  0.19544501553E+04  0.10100000352E+00 0.  1.
</event>
<event>
 5   0  0.4824715E-06  0.2636694E+04  0.7818609E-02  0.8355843E-01
       -1   -1    0    0    0  501  0.00000000000E+00  0.00000000000E+00  0.16930691346E+04  0.16930691346E+04  0.50400001928E-02 0.  1.
        1   -1    0    0  501    0  0.00000000000E+00  0.00000000000E+00 -0.10265608634E+04  0.10265608634E+04  0.50400001928E-02 0. -1.
    10030    2    1    2    0    0  0.00000000000E+00  0.00000000000E+00  0.66650827113E+03  0.27196299980E+04  0.26366937726E+04 0.  0.
        5    1    3    3  502    0  0.35587176444E+03 -0.64896643181E+03 -0.79203132552E+03  0.10840377544E+04  0.46999998093E+01 0. -1.
       -5    1    3    3    0  502 -0.35587176444E+03  0.64896643181E+03  0.14585395966E+04  0.16355922436E+04  0.46999998093E+01 0.  1.
</event>
<event>
 5   0  0.5152288E-06  0.2688827E+04  0.7818609E-02  0.8338639E-01
        1   -1    0    0  501    0  0.00000000000E+00  0.00000000000E+00  0.16641194818E+04  0.16641194818E+04  0.50400001928E-02 0.  1.
       -1   -1    0    0    0  501  0.00000000000E+00  0.00000000000E+00 -0.10861281671E+04  0.10861281671E+04  0.50400001928E-02 0. -1.
    10030    2    1    2    0    0  0.00000000000E+00  0.00000000000E+00  0.57799131470E+03  0.27502476489E+04  0.26888265415E+04 0.  0.
        3    1    3    3  502    0  0.82137800409E+03 -0.65440699638E+03 -0.56954491379E+03  0.11946931663E+04  0.10100000352E+00 0. -1.
       -3    1    3    3    0  502 -0.82137800409E+03  0.65440699638E+03  0.11475362285E+04  0.15555544826E+04  0.10100000352E+00 0.  1.
</event>
<event>
 5   0  0.4188000E-06  0.2636924E+04  0.7818609E-02  0.8355766E-01
        3   -1    0    0  501    0  0.00000000000E+00  0.00000000000E+00  0.12295781500E+04  0.12295781542E+04  0.10100000352E+00 0. -1.
       -3   -1    0    0    0  501  0.00000000000E+00  0.00000000000E+00 -0.14137708474E+04  0.14137708510E+04  0.10100000352E+00 0.  1.
    10030    2    1    2    0    0  0.00000000000E+00  0.00000000000E+00 -0.18419269735E+03  0.26433490051E+04  0.26369237784E+04 0.  0.
        3    1    3    3  502    0 -0.58727861325E+03  0.17487685240E+03  0.10781657418E+04  0.12401288078E+04  0.10100000352E+00 0. -1.
       -3    1    3    3    0  502  0.58727861325E+03 -0.17487685240E+03 -0.12623584391E+04  0.14032201973E+04  0.10100000352E+00 0.  1.
</event>
<event>
 5   0  0.1220908E-05  0.2659962E+04  0.7818609E-02  0.8348114E-01
       -2   -1    0    0    0  501  0.00000000000E+00  0.00000000000E+00  0.11056690297E+04  0.11056690297E+04  0.25500000920E-02 0. -1.
        2   -1    0    0  501    0  0.00000000000E+00  0.00000000000E+00 -0.15998003004E+04  0.15998003004E+04  0.25500000920E-02 0.  1.
    10030    2    1    2    0    0  0.00000000000E+00  0.00000000000E+00 -0.49413127071E+03  0.27054693301E+04  0.26599621395E+04 0.  0.
        2    1    3    3  502    0  0.15425331682E+03 -0.91486129443E+03 -0.12163032513E+04  0.15297577824E+04  0.25500000920E-02 0.  1.
       -2    1    3    3    0  502 -0.15425331682E+03  0.91486129443E+03  0.72217198058E+03  0.11757115477E+04  0.25500000920E-02 0. -1.
</event>
<event>
 5   0  0.1261364E-05  0.2663003E+04  0.7818609E-02  0.8347110E-01
        2   -1    0    0  501    0  0.00000000000E+00  0.00000000000E+00  0.28213762842E+04  0.28213762842E+04  0.25500000920E-02 0.  1.
       -2   -1    0    0    0  501  0.00000000000E+00  0.00000000000E+00 -0.62837985499E+03  0.62837985499E+03  0.25500000920E-02 0. -1.
    10030    2    1    2    0    0  0.00000000000E+00  0.00000000000E+00  0.21929964292E+04  0.34497561392E+04  0.26630028317E+04 0.  0.
        5    1    3    3  502    0 -0.20081294237E+03  0.89058821769E+03  0.23520719203E+04  0.25230413432E+04  0.46999998093E+01 0.  1.
       -5    1    3    3    0  502  0.20081294237E+03 -0.89058821769E+03 -0.15907549105E+03  0.92671479602E+03  0.46999998093E+01 0. -1.
</event>
<event>
 5   0  0.4756800E-06  0.2719163E+04  0.7818609E-02  0.8328814E-01
       -1   -1    0    0    0  501  0.00000000000E+00  0.00000000000E+00  0.11312748557E+04  0.11312748557E+04  0.50400001928E-02 0.  1.
        1   -1    0    0  501    0  0.00000000000E+00  0.00000000000E+00 -0.16339630780E+04  0.16339630781E+04  0.50400001928E-02 0. -1.
    10030    2    1    2    0    0  0.00000000000E+00  0.00000000000E+00 -0.50268822233E+03  0.27652379338E+04  0.27191626251E+04 0.  0.
        4    1    3    3  502    0  0.28553601115E+03  0.59545260500E+03  0.95722311971E+03  0.11629154450E+04  0.12699999809E+01 0.  1.
       -4    1    3    3    0  502 -0.28553601115E+03 -0.59545260500E+03 -0.14599113420E+04  0.16023224888E+04  0.12699999809E+01 0. -1.
</event>
<event>
 5   0  0.1286641E-05  0.2781581E+04  0.7818609E-02  0.8309010E-01
       -2   -1    0    0    0  501  0.00000000000E+00  0.00000000000E+00  0.11578017369E+04  0.11578017369E+04  0.25500000920E-02 0.  1.
        2   -1    0    0  501    0  0.00000000000E+00  0.00000000000E+00 -0.16706647059E+04  0.16706647060E+04  0.25500000920E-02 0. -1.
    10030    2    1    2    0    0  0.00000000000E+00  0.00000000000E+00 -0.51286296903E+03  0.28284664429E+04  0.27815812038E+04 0.  0.
        4    1    3    3  502    0 -0.91677784677E+02 -0.30228201675E+03  0.11208421541E+04  0.11645033195E+04  0.12699999809E+01 0.  1.
       -4    1    3    3    0  502  0.91677784677E+02  0.30228201675E+03 -0.16337051231E+04  0.16639631234E+04  0.12699999809E+01 0. -1.
</event>
<event>
 5   0  0.4824715E-06  0.2688641E+04  0.7818609E-02  0.8338700E-01
        1   -1    0    0  501    0  0.00000000000E+00  0.00000000000E+00  0.17107178483E+04  0.17107178483E+04  0.50400001928E-02 0.  1.
       -1   -1    0    0    0  501  0.00000000000E+00  0.00000000000E+00 -0.10563974979E+04  0.10563974979E+04  0.50400001928E-02 0. -1.
    10030    2    1    2    0    0  0.00000000000E+00  0.00000000000E+00  0.65432035032E+03  0.27671153462E+04  0.26886413332E+04 0.  0.
        5    1    3    3  502    0  0.94461870268E+03 -0.41550125205E+03  0.12138336099E+04  0.15932231188E+04  0.46999998093E+01 0.  1.
       -5    1    3    3    0  502 -0.94461870268E+03  0.41550125205E+03 -0.55951325956E+03  0.11738922274E+04  0.46999998093E+01 0. -1.
</event>
<event>
 5   0  0.1220908E-05  0.2775259E+04  0.7818609E-02  0.8310991E-01
       -2   -1    0    0    0  501  0.00000000000E+00  0.00000000000E+00  0.10077692252E+04  0.10077692252E+04  0.25500000920E-02 0. -1.
        2   -1    0    0  501    0  0.00000000000E+00  0.00000000000E+00 -0.19106707401E+04  0.19106707401E+04  0.25500000920E-02 0.  1.
    10030    2    1    2    0    0  0.00000000000E+00  0.00000000000E+00 -0.90290151488E+03  0.29184399654E+04  0.27752586701E+04 0.  0.
        2    1    3    3  502    0 -0.13439516680E+04 -0.28365295848E+03 -0.24417749638E+03  0.13950941676E+04  0.25500000920E-02 0.  1.
       -2    1    3    3    0  502  0.13439516680E+04  0.28365295848E+03 -0.65872401850E+03  0.15233457977E+04  0.25500000920E-02 0. -1.
</event>
<event>
 5   0  0.1232559E-05  0.2704445E+04  0.7818609E-02  0.8333564E-01
        2   -1    0    0  501    0  0.00000000000E+00  0.00000000000E+00  0.14435994811E+04  0.14435994811E+04  0.25500000920E-02 0.  1.
       -2   -1    0    0    0  501  0.00000000000E+00  0.00000000000E+00 -0.12666295702E+04  0.12666295702E+04  0.25500000920E-02 0. -1.
    10030    2    1    2    0    0  0.00000000000E+00  0.00000000000E+00  0.17696991092E+03  0.27102290512E+04  0.27044450745E+04 0.  0.
        3    1    3    3  502    0 -0.85650761141E+03  0.52473363567E+03 -0.81874401496E+03  0.12958751672E+04  0.10100000352E+00 0. -1.
       -3    1    3    3    0  502  0.85650761141E+03 -0.52473363567E+03  0.99571392588E+03  0.14143538840E+04  0.10100000352E+00 0.  1.
</event>
<event>
 5   0  0.4846214E-06  0.2674219E+04  0.7818609E-02  0.8343419E-01
       -1   -1    0    0    0  501  0.00000000000E+00  0.00000000000E+00  0.94960053379E+03  0.94960053380E+03  0.50400001928E-02 0. -1.
        1   -1    0    0  501    0  0.00000000000E+00  0.00000000000E+00 -0.18827512765E+04  0.18827512765E+04  0.50400001928E-02 0.  1.
    10030    2    1    2    0    0  0.00000000000E+00  0.00000000000E+00 -0.93315074271E+03  0.28323518103E+04  0.26742188521E+04 0.  0.
        2    1    3    3  502    0  0.58699261657E+03  0.60844789051E+03  0.63058173454E+03  0.10547049309E+04  0.25500000920E-02 0. -1.
       -2    1    3    3    0  502 -0.58699261657E+03 -0.60844789051E+03 -0.15637324773E+04  0.17776468794E+04  0.25500000920E-02 0.  1.
</event>
<event>
 5   0  0.4824715E-06  0.2718393E+04  0.7818609E-02  0.8329062E-01
       -1   -1    0    0    0  501  0.00000000000E+00  0.00000000000E+00  0.72366938902E+03  0.72366938903E+03  0.50400001928E-02 0. -1.
        1   -1    0    0  501    0  0.00000000000E+00  0.00000000000E+00 -0.25528433938E+04  0.25528433938E+04  0.50400001928E-02 0.  1.
    10030    2    1    2    0    0  0.00000000000E+00  0.00000000000E+00 -0.18291740048E+04  0.32765127829E+04  0.27183926273E+04 0.  0.
        5    1    3    3  502    0  0.68991795132E+03  0.51335345524E+03  0.35407187892E+03  0.93000405107E+03  0.46999998093E+01 0. -1.
       -5    1    3    3    0  502 -0.68991795132E+03 -0.51335345524E+03 -0.21832458837E+04  0.23465087318E+04  0.46999998093E+01 0.  1.
</event>
<event>
 5   0  0.1232559E-05  0.2713428E+04  0.7818609E-02  0.8330661E-01
       -2   -1    0    0    0  501  0.00000000000E+00  0.00000000000E+00  0.12441845618E+04  0.12441845618E+04  0.25500000920E-02 0.  1.
        2   -1    0    0  501    0  0.00000000000E+00  0.00000000000E+00 -0.14794209486E+04  0.14794209486E+04  0.25500000920E-02 0. -1.
    10030    2    1    2    0    0  0.00000000000E+00  0.00000000000E+00 -0.23523638678E+03  0.27236055104E+04  0.27134278724E+04 0.  0.
        3    1    3    3  502    0 -0.34561253035E+03  0.34570212145E+02  0.11988000112E+04  0.12481044018E+04  0.10100000352E+00 0.  1.
       -3    1    3    3    0  502  0.34561253035E+03 -0.34570212145E+02 -0.14340363980E+04  0.14755011086E+04  0.10100000352E+00 0. -1.
</event>
<event>
 5   0  0.1232559E-05  0.2697974E+04  0.7818609E-02  0.8335663E-01
       -2   -1    0    0    0  501  0.00000000000E+00  0.00000000000E+00  0.80968265700E+03  0.80968265700E+03  0.25500000920E-02 0.  1.
        2   -1    0    0  501    0  0.00000000000E+00  0.00000000000E+00 -0.22475054825E+04  0.22475054825E+04  0.25500000920E-02 0. -1.
    10030    2    1    2    0    0  0.00000000000E+00  0.00000000000E+00 -0.14378228255E+04  0.30571881396E+04  0.26979742109E+04 0.  0.
        3    1    3    3  502    0  0.56349744661E+03  0.13304098179E+03 -0.20995495770E+04  0.21779205017E+04  0.10100000352E+00 0. -1.
       -3    1    3    3    0  502 -0.56349744661E+03 -0.13304098179E+03  0.66172675147E+03  0.87926763785E+03  0.10100000352E+00 0.  1.
</event>
<event>
 5   0  0.1220908E-05  0.2704003E+04  0.7818609E-02  0.8333707E-01
        2   -1    0    0  501    0  0.00000000000E+00  0.00000000000E+00  0.26446685940E+04  0.26446685940E+04  0.25500000920E-02 0. -1.
       -2   -1    0    0    0  501  0.00000000000E+00  0.00000000000E+00 -0.69116734669E+03  0.69116734669E+03  0.25500000920E-02 0.  1.
    10030    2    1    2    0    0  0.00000000000E+00  0.00000000000E+00  0.19535012473E+04  0.33358359407E+04  0.27040033839E+04 0.  0.
        2    1    3    3  502    0 -0.10408438289E+04  0.74599794989E+03  0.15117118357E+04  0.19811969846E+04  0.25500000920E-02 0. -1.
       -2    1    3    3    0  502  0.10408438289E+04 -0.74599794989E+03  0.44178941159E+03  0.13546389561E+04  0.25500000920E-02 0.  1.
</event>
<event>
 5   0  0.4826140E-06  0.2693900E+04  0.7818609E-02  0.8336987E-01
       -1   -1    0    0    0  501  0.00000000000E+00  0.00000000000E+00  0.20019656238E+04  0.20019656238E+04  0.50400001928E-02 0.  1.
        1   -1    0    0  501    0  0.00000000000E+00  0.00000000000E+00 -0.90624635543E+03  0.90624635544E+03  0.50400001928E-02 0. -1.
    10030    2    1    2    0    0  0.00000000000E+00  0.00000000000E+00  0.10957192684E+04  0.29082119793E+04  0.26938998128E+04 0.  0.
        1    1    3    3  502    0  0.40863051839E+02  0.13305791283E+04  0.32618670478E+03  0.13705868714E+04  0.50400001928E-02 0.  1.
       -1    1    3    3    0  502 -0.40863051839E+02 -0.13305791283E+04  0.76953256360E+03  0.15376251078E+04  0.50400001928E-02 0. -1.
</event>
<event>
 5   0  0.1286641E-05  0.2711858E+04  0.7818609E-02  0.8331168E-01
        2   -1    0    0  501    0  0.00000000000E+00  0.00000000000E+00  0.21834706429E+04  0.21834706429E+04  0.25500000920E-02 0.  1.
       -2   -1    0    0    0  501  0.00000000000E+00  0.00000000000E+00 -0.84202798996E+03  0.84202798997E+03  0.25500000920E-02 0. -1.
    10030    2    1    2    0    0  0.00000000000E+00  0.00000000000E+00  0.13414426529E+04  0.30254986329E+04  0.27118579584E+04 0.  0.
        4    1    3    3  502    0  0.11321539853E+04 -0.70970183988E+03  0.41365431556E+03  0.13987711942E+04  0.12699999809E+01 0. -1.
       -4    1    3    3    0  502 -0.11321539853E+04  0.70970183988E+03  0.92778833738E+03  0.16267274387E+04  0.12699999809E+01 0.  1.
</event>
<event>
 5   0  0.1232559E-05  0.2677603E+04  0.7818609E-02  0.8342309E-01
       -2   -1    0    0    0  501  0.00000000000E+00  0.00000000000E+00  0.12985797239E+04  0.12985797239E+04  0.25500000920E-02 0.  1.
        2   -1    0    0  501    0  0.00000000000E+00  0.00000000000E+00 -0.13802688853E+04  0.13802688853E+04  0.25500000920E-02 0. -1.
    10030    2    1    2    0    0  0.00000000000E+00  0.00000000000E+00 -0.81689161390E+02  0.26788486093E+04  0.26776027996E+04 0.  0.
        3    1    3    3  502    0  0.19496549186E+03  0.10113416099E+04  0.81486956155E+03  0.13133300452E+04  0.10100000352E+00 0.  1.
       -3    1    3    3    0  502 -0.19496549186E+03 -0.10113416099E+04 -0.89655872294E+03  0.13655185641E+04  0.10100000352E+00 0. -1.
</event>
<event>
 5   0  0.4846214E-06  0.2713012E+04  0.7818609E-02  0.8330795E-01
        1   -1    0    0  501    0  0.00000000000E+00  0.00000000000E+00  0.24387379135E+04  0.24387379135E+04  0.50400001928E-02 0.  1.
       -1   -1    0    0    0  501  0.00000000000E+00  0.00000000000E+00 -0.75453296235E+03  0.75453296236E+03  0.50400001928E-02 0. -1.
    10030    2    1    2    0    0  0.00000000000E+00  0.00000000000E+00  0.16842049512E+04  0.31932708759E+04  0.27130117157E+04 0.  0.
        2    1    3    3  502    0 -0.75466006563E+03 -0.10219524547E+04  0.14019110144E+04  0.18918914151E+04  0.25500000920E-02 0.  1.
       -2    1    3    3    0  502  0.75466006563E+03  0.10219524547E+04  0.28229393683E+03  0.13013794608E+04  0.25500000920E-02 0. -1.
</event>
<event>
 5   0  0.4826140E-06  0.2664186E+04  0.7818609E-02  0.8346720E-01
        1   -1    0    0  501    0  0.00000000000E+00  0.00000000000E+00  0.16234761425E+04  0.16234761425E+04  0.50400001928E-02 0. -1.
       -1   -1    0    0    0  501  0.00000000000E+00  0.00000000000E+00 -0.10930079885E+04  0.10930079885E+04  0.50400001928E-02 0.  1.
    10030    2    1    2    0    0  0.00000000000E+00  0.00000000000E+00  0.53046815402E+03  0.27164841310E+04  0.26641864747E+04 0.  0.
        1    1    3    3  502    0  0.13051070846E+04  0.25416855474E+03  0.18261110578E+03  0.13421076606E+04  0.50400001928E-02 0.  1.
       -1    1    3    3    0  502 -0.13051070846E+04 -0.25416855474E+03  0.34785704824E+03  0.13743764705E+04  0.50400001928E-02 0. -1.
</event>
<event>
 5   0  0.1276517E-05  0.2567349E+04  0.7818609E-02  0.8379377E-01
       -2   -1    0    0    0  501  0.00000000000E+00  0.00000000000E+00  0.15896100019E+04  0.15896100019E+04  0.25500000920E-02 0.  1.
        2   -1    0    0  501    0  0.00000000000E+00  0.00000000000E+00 -0.10366191991E+04  0.10366191991E+04  0.25500000920E-02 0. -1.
    10030    2    1    2    0    0  0.00000000000E+00  0.00000000000E+00  0.55299080288E+03  0.26262292010E+04  0.25673490195E+04 0.  0.
        1    1    3    3  502    0 -0.38360682078E+03  0.12225852221E+04  0.35541017898E+03  0.13297312561E+04  0.50400001928E-02 0.  1.
       -1    1    3    3    0  502  0.38360682078E+03 -0.12225852221E+04  0.19758062390E+03  0.12964979449E+04  0.50400001928E-02 0. -1.
</event>
<event>
 5   0  0.4824715E-06  0.2681732E+04  0.7818609E-02  0.8340957E-01
        1   -1    0    0  501    0  0.00000000000E+00  0.00000000000E+00  0.12657913766E+04  0.12657913766E+04  0.50400001928E-02 0. -1.
       -1   -1    0    0    0  501  0.00000000000E+00  0.00000000000E+00 -0.14203937495E+04  0.14203937495E+04  0.50400001928E-02 0.  1.
    10030    2    1    2    0    0  0.00000000000E+00  0.00000000000E+00 -0.15460237282E+03  0.26861851261E+04  0.26817323949E+04 0.  0.
        5    1    3    3  502    0 -0.28692494689E+03  0.13093991036E+04 -0.10972980581E+03  0.13449589800E+04  0.46999998093E+01 0.  1.
       -5    1    3    3    0  502  0.28692494689E+03 -0.13093991036E+04 -0.44872567014E+02  0.13412261461E+04  0.46999998093E+01 0. -1.
</event>
<event>
 5   0  0.4826140E-06  0.2687221E+04  0.7818609E-02  0.8339163E-01
        1   -1    0    0  501    0  0.00000000000E+00  0.00000000000E+00  0.11442088566E+04  0.11442088566E+04  0.50400001928E-02 0.  1.
       -1   -1    0    0    0  501  0.00000000000E+00  0.00000000000E+00 -0.15777616321E+04  0.15777616322E+04  0.50400001928E-02 0. -1.
    10030    2    1    2    0    0  0.00000000000E+00  0.00000000000E+00 -0.43355277557E+03  0.27219704887E+04  0.26872207450E+04 0.  0.
        1    1    3    3  502    0 -0.65096667846E+03 -0.11375429921E+04 -0.51645205534E+03  0.14087172892E+04  0.50400001928E-02 0. -1.
       -1    1    3    3    0  502  0.65096667846E+03  0.11375429921E+04  0.82899279776E+02  0.13132531995E+04  0.50400001928E-02 0.  1.
</event>
<event>
 5   0  0.1232559E-05  0.2706424E+04  0.7818609E-02  0.8332924E-01
       -2   -1    0    0    0  501  0.00000000000E+00  0.00000000000E+00  0.10341885942E+04  0.10341885942E+04  0.25500000920E-02 0. -1.
        2   -1    0    0  501    0  0.00000000000E+00  0.00000000000E+00 -0.17706470906E+04  0.17706470906E+04  0.25500000920E-02 0.  1.
    10030    2    1    2    0    0  0.00000000000E+00  0.00000000000E+00 -0.73645849647E+03  0.28048356848E+04  0.27064242279E+04 0.  0.
        3    1    3    3  502    0 -0.27156994144E+03  0.13015843237E+04 -0.10746308153E+03  0.13339491402E+04  0.10100000352E+00 0.  1.
       -3    1    3    3    0  502  0.27156994144E+03 -0.13015843237E+04 -0.62899541495E+03  0.14708865445E+04  0.10100000352E+00 0. -1.
</event>
<event>
 5   0  0.4826140E-06  0.2709059E+04  0.7818609E-02  0.8332072E-01
       -1   -1    0    0    0  501  0.00000000000E+00  0.00000000000E+00  0.11778996382E+04  0.11778996382E+04  0.50400001928E-02 0.  1.
        1   -1    0    0  501    0  0.00000000000E+00  0.00000000000E+00 -0.15576455418E+04  0.15576455419E+04  0.50400001928E-02 0. -1.
    10030    2    1    2    0    0  0.00000000000E+00  0.00000000000E+00 -0.37974590361E+03  0.27355451801E+04  0.27090589660E+04 0.  0.
        1    1    3    3  502    0 -0.25979084300E+03  0.47575026244E+03  0.10636016944E+04  0.11937663753E+04  0.50400001928E-02 0.  1.
       -1    1    3    3    0  502  0.25979084300E+03 -0.47575026244E+03 -0.14433475980E+04  0.15417788048E+04  0.50400001928E-02 0. -1.
</event>
<event>
 5   0  0.4826140E-06  0.2791810E+04  0.7818609E-02  0.8305816E-01
       -1   -1    0    0    0  501  0.00000000000E+00  0.00000000000E+00  0.15959274842E+04  0.15959274842E+04  0.50400001928E-02 0.  1.
        1   -1    0    0  501    0  0.00000000000E+00  0.00000000000E+00 -0.12209517571E+04  0.12209517571E+04  0.50400001928E-02 0. -1.
    10030    2    1    2    0    0  0.00000000000E+00  0.00000000000E+00  0.37497572715E+03  0.28168792413E+04  0.27918097829E+04 0.  0.
        1    1    3    3  502    0  0.44199095719E+03 -0.13215086978E+04  0.27074685186E+03  0.14195228432E+04  0.50400001928E-02 0.  1.
       -1    1    3    3    0  502 -0.44199095719E+03  0.13215086978E+04  0.10422887529E+03  0.13973563980E+04  0.50400001928E-02 0. -1.
</event>
<event>
 5   0  0.4846214E-06  0.2764511E+04  0.7818609E-02  0.8314372E-01
        1   -1    0    0  501    0  0.00000000000E+00  0.00000000000E+00  0.17500632467E+04  0.17500632467E+04  0.50400001928E-02 0. -1.
       -1   -1    0    0    0  501  0.00000000000E+00  0.00000000000E+00 -0.10917490978E+04  0.10917490979E+04  0.50400001928E-02 0.  1.
    10030    2    1    2    0    0  0.00000000000E+00  0.00000000000E+00  0.65831414889E+03  0.28418123446E+04  0.27645107855E+04 0.  0.
        2    1    3    3  502    0  0.10257300235E+04 -0.87076619626E+03  0.36416743217E+01  0.13454995769E+04  0.25500000920E-02 0.  1.
       -2    1    3    3    0  502 -0.10257300235E+04  0.87076619626E+03  0.65467247457E+03  0.14963127677E+04  0.25500000920E-02 0. -1.
</event>
<event>
 5   0  0.1276517E-05  0.2866887E+04  0.7818609E-02  0.8282798E-01
       -2   -1    0    0    0  501  0.00000000000E+00  0.00000000000E+00  0.80290827160E+03  0.80290827160E+03  0.25500000920E-02 0.  1.
        2   -1    0    0  501    0  0.00000000000E+00  0.00000000000E+00 -0.25591470689E+04  0.25591470689E+04  0.25500000920E-02 0. -1.
    10030    2    1    2    0    0  0.00000000000E+00  0.00000000000E+00 -0.17562387973E+04  0.33620553405E+04  0.28668870573E+04 0.  0.
        1    1    3    3  502    0  0.50360566103E+03  0.10350352234E+04 -0.18799844513E+04  0.22043724986E+04  0.50400001928E-02 0. -1.
       -1    1    3    3    0  502 -0.50360566103E+03 -0.10350352234E+04  0.12374565401E+03  0.11576828419E+04  0.50400001928E-02 0.  1.
</event>
<event>
 5   0  0.4188000E-06  0.2722274E+04  0.7818609E-02  0.8327814E-01
       -3   -1    0    0    0  501  0.00000000000E+00  0.00000000000E+00  0.10234898352E+04  0.10234898402E+04  0.10100000352E+00 0. -1.
        3   -1    0    0  501    0  0.00000000000E+00  0.00000000000E+00 -0.18101734253E+04  0.18101734281E+04  0.10100000352E+00 0.  1.
    10030    2    1    2    0    0  0.00000000000E+00  0.00000000000E+00 -0.78668359009E+03  0.28336632683E+04  0.27222741315E+04 0.  0.
        1    1    3    3  502    0 -0.42941875164E+03 -0.74389710463E+03  0.70575624869E+03  0.11116992620E+04  0.50400001928E-02 0. -1.
       -1    1    3    3    0  502  0.42941875164E+03  0.74389710463E+03 -0.14924398388E+04  0.17219640063E+04  0.50400001928E-02 0.  1.
</event>
<event>
 5   0  0.1232559E-05  0.2719837E+04  0.7818609E-02  0.8328597E-01
       -2   -1    0    0    0  501  0.00000000000E+00  0.00000000000E+00  0.10930381833E+04  0.10930381833E+04  0.25500000920E-02 0.  1.
        2   -1    0    0  501    0  0.00000000000E+00  0.00000000000E+00 -0.16919616015E+04  0.16919616015E+04  0.25500000920E-02 0. -1.
    10030    2    1    2    0    0  0.00000000000E+00  0.00000000000E+00 -0.59892341819E+03  0.27849997848E+04  0.27198372269E+04 0.  0.
        3    1    3    3  502    0  0.46753004274E+03  0.12134867138E+04  0.10786816398E+03  0.13049022555E+04  0.10100000352E+00 0.  1.
       -3    1    3    3    0  502 -0.46753004274E+03 -0.12134867138E+04 -0.70679158217E+03  0.14800975293E+04  0.10100000352E+00 0. -1.
</event>
<event>
 5   0  0.1220908E-05  0.2720622E+04  0.7818609E-02  0.8328345E-01
       -2   -1    0    0    0  501  0.00000000000E+00  0.00000000000E+00  0.19337936426E+04  0.19337936426E+04  0.25500000920E-02 0. -1.
        2   -1    0    0  501    0  0.00000000000E+00  0.00000000000E+00 -0.95689946416E+03  0.95689946417E+03  0.25500000920E-02 0.  1.
    10030    2    1    2    0    0  0.00000000000E+00  0.00000000000E+00  0.97689417841E+03  0.28906931067E+04  0.27206220615E+04 0.  0.
        2    1    3    3  502    0  0.51581277956E+03  0.17606517087E+02 -0.84883000753E+03  0.99342095543E+03  0.25500000920E-02 0.  1.
       -2    1    3    3    0  502 -0.51581277956E+03 -0.17606517087E+02  0.18257241859E+04  0.18972721513E+04  0.25500000920E-02 0. -1.
</event>
<event>
 5   0  0.1276517E-05  0.2689812E+04  0.7818609E-02  0.8338318E-01
        2   -1    0    0  501    0  0.00000000000E+00  0.00000000000E+00  0.22111597754E+04  0.22111597754E+04  0.25500000920E-02 0.  1.
       -2   -1    0    0    0  501  0.00000000000E+00  0.00000000000E+00 -0.81801984921E+03  0.81801984922E+03  0.25500000920E-02 0. -1.
    10030    2    1    2    0    0  0.00000000000E+00  0.00000000000E+00  0.13931399262E+04  0.30291796247E+04  0.26898123251E+04 0.  0.
        1    1    3    3  502    0 -0.81133339046E+03  0.70830764570E+03 -0.21054461829E+03  0.10974017622E+04  0.50400001928E-02 0. -1.
       -1    1    3    3    0  502  0.81133339046E+03 -0.70830764570E+03  0.16036845445E+04  0.19317778624E+04  0.50400001928E-02 0.  1.
</event>
<event>
 5   0  0.1232559E-05  0.2709116E+04  0.7818609E-02  0.8332053E-01
       -2   -1    0    0    0  501  0.00000000000E+00  0.00000000000E+00  0.90322629024E+03  0.90322629025E+03  0.25500000920E-02 0.  1.
        2   -1    0    0  501    0  0.00000000000E+00  0.00000000000E+00 -0.20314145575E+04  0.20314145575E+04  0.25500000920E-02 0. -1.
    10030    2    1    2    0    0  0.00000000000E+00  0.00000000000E+00 -0.11281882673E+04  0.29346408477E+04  0.27091157485E+04 0.  0.
        3    1    3    3  502    0 -0.23184297740E+03 -0.12746305812E+04 -0.13570771739E+03  0.13026322887E+04  0.10100000352E+00 0. -1.
       -3    1    3    3    0  502  0.23184297740E+03  0.12746305812E+04 -0.99248054987E+03  0.16320085591E+04  0.10100000352E+00 0.  1.
</event>
<event>
 5   0  0.4826140E-06  0.2650299E+04  0.7818609E-02  0.8351314E-01
        1   -1    0    0  501    0  0.00000000000E+00  0.00000000000E+00  0.15167028510E+04  0.15167028510E+04  0.50400001928E-02 0. -1.
       -1   -1    0    0    0  501  0.00000000000E+00  0.00000000000E+00 -0.11577884096E+04  0.11577884096E+04  0.50400001928E-02 0.  1.
    10030    2    1    2    0    0  0.00000000000E+00  0.00000000000E+00  0.35891444147E+03  0.26744912606E+04  0.26502988373E+04 0.  0.
        1    1    3    3  502    0 -0.98815853180E+03  0.87930533312E+03  0.26009804803E+03  0.13480675604E+04  0.50400001928E-02 0. -1.
       -1    1    3    3    0  502  0.98815853180E+03 -0.87930533312E+03  0.98816393436E+02  0.13264237002E+04  0.50400001928E-02 0.  1.
</event>
<event>
 5   0  0.4188000E-06  0.2618082E+04  0.7818609E-02  0.8362085E-01
        3   -1    0    0  501    0  0.00000000000E+00  0.00000000000E+00  0.80677479396E+03  0.80677480028E+03  0.10100000352E+00 0.  1.
       -3   -1    0    0    0  501  0.00000000000E+00  0.00000000000E+00 -0.21239977957E+04  0.21239977981E+04  0.10100000352E+00 0. -1.
    10030    2    1    2    0    0  0.00000000000E+00  0.00000000000E+00 -0.13172230017E+04  0.29307725984E+04  0.26180816616E+04 0.  0.
        4    1    3    3  502    0 -0.82866659334E+03 -0.90112235598E+03 -0.11775230713E+04  0.16986088483E+04  0.12699999809E+01 0. -1.
       -4    1    3    3    0  502  0.82866659334E+03  0.90112235598E+03 -0.13969993043E+03  0.12321637500E+04  0.12699999809E+01 0.  1.
</event>
<event>
 5   0  0.1286641E-05  0.2415270E+04  0.7818609E-02  0.8433809E-01
        2   -1    0    0  501    0  0.00000000000E+00  0.00000000000E+00  0.12767364222E+04  0.12767364222E+04  0.25500000920E-02 0. -1.
       -2   -1    0    0    0  501  0.00000000000E+00  0.00000000000E+00 -0.11422732242E+04  0.11422732242E+04  0.25500000920E-02 0.  1.
    10030    2    1    2    0    0  0.00000000000E+00  0.00000000000E+00  0.13446319794E+03  0.24190096464E+04  0.24152696159E+04 0.  0.
        4    1    3    3  502    0  0.10479590069E+04 -0.42119759798E+03 -0.36092858968E+03  0.11857050883E+04  0.12699999809E+01 0.  1.
       -4    1    3    3    0  502 -0.10479590069E+04  0.42119759798E+03  0.49539178762E+03  0.12333045580E+04  0.12699999809E+01 0. -1.
</event>
<event>
 5   0  0.1220908E-05  0.2687469E+04  0.7818609E-02  0.8339082E-01
       -2   -1    0    0    0  501  0.00000000000E+00  0.00000000000E+00  0.86119221181E+03  0.86119221182E+03  0.25500000920E-02 0.  1.
        2   -1    0    0  501    0  0.00000000000E+00  0.00000000000E+00 -0.20966550151E+04  0.20966550151E+04  0.25500000920E-02 0. -1.
    10030    2    1    2    0    0  0.00000000000E+00  0.00000000000E+00 -0.12354628033E+04  0.29578472269E+04  0.26874694192E+04 0.  0.
        2    1    3    3  502    0 -0.81602136487E+03 -0.14799546748E+03  0.54591218466E+03  0.99288148320E+03  0.25500000920E-02 0.  1.
       -2    1    3    3    0  502  0.81602136487E+03  0.14799546748E+03 -0.17813749879E+04  0.19649657437E+04  0.25500000920E-02 0. -1.
</event>
<event>
 5   0  0.4846214E-06  0.2624333E+04  0.7818609E-02  0.8359982E-01
        1   -1    0    0  501    0  0.00000000000E+00  0.00000000000E+00  0.12478110879E+04  0.12478110880E+04  0.50400001928E-02 0.  1.
       -1   -1    0    0    0  501  0.00000000000E+00  0.00000000000E+00 -0.13798413198E+04  0.13798413198E+04  0.50400001928E-02 0. -1.
    10030    2    1    2    0    0  0.00000000000E+00  0.00000000000E+00 -0.13203023184E+03  0.26276524077E+04  0.26243332856E+04 0.  0.
        2    1    3    3  502    0 -0.83066789611E+03  0.40398262518E+03 -0.99916495319E+03  0.13607136799E+04  0.25500000920E-02 0. -1.
       -2    1    3    3    0  502  0.83066789611E+03 -0.40398262518E+03  0.86713472135E+03  0.12669387278E+04  0.25500000920E-02 0.  1.
</event>
<event>
 5   0  0.4846214E-06  0.2700101E+04  0.7818609E-02  0.8334972E-01
        1   -1    0    0  501    0  0.00000000000E+00  0.00000000000E+00  0.16084310680E+04  0.16084310680E+04  0.50400001928E-02 0.  1.
       -1   -1    0    0    0  501  0.00000000000E+00  0.00000000000E+00 -0.11331768386E+04  0.11331768386E+04  0.50400001928E-02 0. -1.
    10030    2    1    2    0    0  0.00000000000E+00  0.00000000000E+00  0.47525422936E+03  0.27416079066E+04  0.27001013557E+04 0.  0.
        2    1    3    3  502    0 -0.10707186034E+04 -0.68650448817E+03 -0.22200138738E+03  0.12911279394E+04  0.25500000920E-02 0. -1.
       -2    1    3    3    0  502  0.10707186034E+04  0.68650448817E+03  0.69725561674E+03  0.14504799671E+04  0.25500000920E-02 0.  1.
</event>
<event>
 5   0  0.1276517E-05  0.2698389E+04  0.7818609E-02  0.8335528E-01
        2   -1    0    0  501    0  0.00000000000E+00  0.00000000000E+00  0.87233018059E+03  0.87233018059E+03  0.25500000920E-02 0. -1.
       -2   -1    0    0    0  501  0.00000000000E+00  0.00000000000E+00 -0.20867401800E+04  0.20867401800E+04  0.25500000920E-02 0.  1.
    10030    2    1    2    0    0  0.00000000000E+00  0.00000000000E+00 -0.12144099994E+04  0.29590703606E+04  0.26983894738E+04 0.  0.
        1    1    3    3  502    0  0.47624013083E+03 -0.11235328572E+04  0.23887471456E+02  0.12205332256E+04  0.50400001928E-02 0. -1.
       -1    1    3    3    0  502 -0.47624013083E+03  0.11235328572E+04 -0.12382974708E+04  0.17385371350E+04  0.50400001928E-02 0.  1.
</event>
<event>
 5   0  0.4826140E-06  0.2696071E+04  0.7818609E-02  0.8336281E-01
        1   -1    0    0  501    0  0.00000000000E+00  0.00000000000E+00  0.12030276327E+04  0.12030276327E+04  0.50400001928E-02 0.  1.
       -1   -1    0    0    0  501  0.00000000000E+00  0.00000000000E+00 -0.15105218618E+04  0.15105218618E+04  0.50400001928E-02 0. -1.
    10030    2    1    2    0    0  0.00000000000E+00  0.00000000000E+00 -0.30749422915E+03  0.27135494945E+04  0.26960708741E+04 0.  0.
        1    1    3    3  502    0 -0.94670503370E+03  0.87331070641E+03  0.24667317299E+03  0.13113998875E+04  0.50400001928E-02 0.  1.
       -1    1    3    3    0  502  0.94670503370E+03 -0.87331070641E+03 -0.55416740214E+03  0.14021496070E+04  0.50400001928E-02 0. -1.
</event>
<event>
 5   0  0.4824715E-06  0.2719276E+04  0.7818609E-02  0.8328778E-01
        1   -1    0    0  501    0  0.00000000000E+00  0.00000000000E+00  0.23804575408E+04  0.23804575408E+04  0.50400001928E-02 0. -1.
       -1   -1    0    0    0  501  0.00000000000E+00  0.00000000000E+00 -0.77657998487E+03  0.77657998489E+03  0.50400001928E-02 0.  1.
    10030    2    1    2    0    0  0.00000000000E+00  0.00000000000E+00  0.16038775559E+04  0.31570375257E+04  0.27192761397E+04 0.  0.
        5    1    3    3  502    0 -0.66174820835E+03 -0.78878569074E+03  0.18328642975E+04  0.21022623956E+04  0.46999998093E+01 0. -1.
       -5    1    3    3    0  502  0.66174820835E+03  0.78878569074E+03 -0.22898674154E+03  0.10547751301E+04  0.46999998093E+01 0.  1.
</event>
<event>
 5   0  0.4826140E-06  0.2691838E+04  0.7818609E-02  0.8337658E-01
       -1   -1    0    0    0  501  0.00000000000E+00  0.00000000000E+00  0.13352656790E+04  0.13352656790E+04  0.50400001928E-02 0. -1.
        1   -1    0    0  501    0  0.00000000000E+00  0.00000000000E+00 -0.13566573792E+04  0.13566573792E+04  0.50400001928E-02 0.  1.
    10030    2    1    2    0    0  0.00000000000E+00  0.00000000000E+00 -0.21391700171E+02  0.26919230582E+04  0.26918380610E+04 0.  0.
        1    1    3    3  502    0  0.44480155862E+03 -0.37803684429E+02 -0.12804683918E+04  0.13560519340E+04  0.50400001928E-02 0.  1.
       -1    1    3    3    0  502 -0.44480155862E+03  0.37803684429E+02  0.12590766917E+04  0.13358711243E+04  0.50400001928E-02 0. -1.
</event>
<event>
 5   0  0.5152288E-06  0.2694080E+04  0.7818609E-02  0.8336928E-01
       -1   -1    0    0    0  501  0.00000000000E+00  0.00000000000E+00  0.11780809923E+04  0.11780809923E+04  0.50400001928E-02 0. -1.
        1   -1    0    0  501    0  0.00000000000E+00  0.00000000000E+00 -0.15402312186E+04  0.15402312186E+04  0.50400001928E-02 0.  1.
    10030    2    1    2    0    0  0.00000000000E+00  0.00000000000E+00 -0.36215022628E+03  0.27183122109E+04  0.26940802679E+04 0.  0.
        3    1    3    3  502    0  0.68727556351E+03 -0.10180727487E+04  0.37679693213E+03  0.12848329697E+04  0.10100000352E+00 0. -1.
       -3    1    3    3    0  502 -0.68727556351E+03  0.10180727487E+04 -0.73894715842E+03  0.14334792412E+04  0.10100000352E+00 0.  1.
</event>
<event>
 5   0  0.1232559E-05  0.2680039E+04  0.7818609E-02  0.8341511E-01
       -2   -1    0    0    0  501  0.00000000000E+00  0.00000000000E+00  0.12103150194E+04  0.12103150194E+04  0.25500000920E-02 0. -1.
        2   -1    0    0  501    0  0.00000000000E+00  0.00000000000E+00 -0.14836235728E+04  0.14836235728E+04  0.25500000920E-02 0.  1.
    10030    2    1    2    0    0  0.00000000000E+00  0.00000000000E+00 -0.27330855340E+03  0.26939385922E+04  0.26800387261E+04 0.  0.
        3    1    3    3  502    0 -0.11438204587E+04 -0.28355348427E+03  0.50456018435E+03  0.12819160698E+04  0.10100000352E+00 0. -1.
       -3    1    3    3    0  502  0.11438204587E+04  0.28355348427E+03 -0.77786873775E+03  0.14120225224E+04  0.10100000352E+00 0.  1.
</event>
<event>
 5   0  0.1276517E-05  0.2701807E+04  0.7818609E-02  0.8334419E-01
        2   -1    0    0  501    0  0.00000000000E+00  0.00000000000E+00  0.19109479846E+04  0.19109479846E+04  0.25500000920E-02 0.  1.
       -2   -1    0    0    0  501  0.00000000000E+00  0.00000000000E+00 -0.95499230035E+03  0.95499230036E+03  0.25500000920E-02 0. -1.
    10030    2    1    2    0    0  0.00000000000E+00  0.00000000000E+00  0.95595568421E+03  0.28659402849E+04  0.27018072556E+04 0.  0.
        1    1    3    3  502    0 -0.55967357713E+03  0.61736143198E+03 -0.64989901810E+03  0.10567584324E+04  0.50400001928E-02 0. -1.
       -1    1    3    3    0  502  0.55967357713E+03 -0.61736143198E+03  0.16058547023E+04  0.18091818525E+04  0.50400001928E-02 0.  1.
</event>
<event>
 5   0  0.4188000E-06  0.2677626E+04  0.7818609E-02  0.8342301E-01
       -3   -1    0    0    0  501  0.00000000000E+00  0.00000000000E+00  0.97570212413E+03  0.97570212936E+03  0.10100000352E+00 0.  1.
        3   -1    0    0  501    0  0.00000000000E+00  0.00000000000E+00 -0.18370572120E+04  0.18370572148E+04  0.10100000352E+00 0. -1.
    10030    2    1    2    0    0  0.00000000000E+00  0.00000000000E+00 -0.86135508790E+03  0.28127593442E+04  0.26776262885E+04 0.  0.
        5    1    3    3  502    0  0.95856427570E+03 -0.13774210295E+03 -0.14017665177E+04  0.17037575583E+04  0.46999998093E+01 0. -1.
       -5    1    3    3    0  502 -0.95856427570E+03  0.13774210295E+03  0.54041142975E+03  0.11090017858E+04  0.46999998093E+01 0.  1.
</event>
<event>
 5   0  0.1286641E-05  0.2749753E+04  0.7818609E-02  0.8319040E-01
        2   -1    0    0  501    0  0.00000000000E+00  0.00000000000E+00  0.24674679355E+04  0.24674679355E+04  0.25500000920E-02 0. -1.
       -2   -1    0    0    0  501  0.00000000000E+00  0.00000000000E+00 -0.76608308318E+03  0.76608308319E+03  0.25500000920E-02 0.  1.
    10030    2    1    2    0    0  0.00000000000E+00  0.00000000000E+00  0.17013848523E+04  0.32335510186E+04  0.27497530388E+04 0.  0.
        4    1    3    3  502    0  0.48574194074E+03 -0.19014331558E+03  0.23465835803E+04  0.24038626886E+04  0.12699999809E+01 0. -1.
       -4    1    3    3    0  502 -0.48574194074E+03  0.19014331558E+03 -0.64519872803E+03  0.82968833004E+03  0.12699999809E+01 0.  1.
</event>
<event>
 5   0  0.4846214E-06  0.2749632E+04  0.7818609E-02  0.8319078E-01
        1   -1    0    0  501    0  0.00000000000E+00  0.00000000000E+00  0.14592551403E+04  0.14592551403E+04  0.50400001928E-02 0. -1.
       -1   -1    0    0    0  501  0.00000000000E+00  0.00000000000E+00 -0.12952630869E+04  0.12952630869E+04  0.50400001928E-02 0.  1.
    10030    2    1    2    0    0  0.00000000000E+00  0.00000000000E+00  0.16399205338E+03  0.27545182273E+04  0.27496322065E+04 0.  0.
        2    1    3    3  502    0 -0.11088535360E+04 -0.56181103438E+03  0.67034836312E+03  0.14122870567E+04  0.25500000920E-02 0. -1.
       -2    1    3    3    0  502  0.11088535360E+04  0.56181103438E+03 -0.50635630974E+03  0.13422311705E+04  0.25500000920E-02 0.  1.
</event>
<event>
 5   0  0.1261364E-05  0.2707054E+04  0.7818609E-02  0.8332720E-01
       -2   -1    0    0    0  501  0.00000000000E+00  0.00000000000E+00  0.10718025381E+04  0.10718025381E+04  0.25500000920E-02 0.  1.
        2   -1    0    0  501    0  0.00000000000E+00  0.00000000000E+00 -0.17093034175E+04  0.17093034175E+04  0.25500000920E-02 0. -1.
    10030    2    1    2    0    0  0.00000000000E+00  0.00000000000E+00 -0.63750087936E+03  0.27811059556E+04  0.27070542966E+04 0.  0.
        5    1    3    3  502    0  0.10607122232E+04 -0.63388550652E+03 -0.88621175417E+03  0.15206296785E+04  0.46999998093E+01 0. -1.
       -5    1    3    3    0  502 -0.10607122232E+04  0.63388550652E+03  0.24871087481E+03  0.12604762771E+04  0.46999998093E+01 0.  1.
</event>
<event>
 5   0  0.1261364E-05  0.2738242E+04  0.7818609E-02  0.8322702E-01
       -2   -1    0    0    0  501  0.00000000000E+00  0.00000000000E+00  0.11601010008E+04  0.11601010008E+04  0.25500000920E-02 0. -1.
        2   -1    0    0  501    0  0.00000000000E+00  0.00000000000E+00 -0.16158010611E+04  0.16158010611E+04  0.25500000920E-02 0.  1.
    10030    2    1    2    0    0  0.00000000000E+00  0.00000000000E+00 -0.45570006029E+03  0.27759020619E+04  0.27382420843E+04 0.  0.
        5    1    3    3  502    0 -0.45255661321E+03 -0.43861068037E+03  0.10043017966E+04  0.11856774459E+04  0.46999998093E+01 0. -1.
       -5    1    3    3    0  502  0.45255661321E+03  0.43861068037E+03 -0.14600018569E+04  0.15902246160E+04  0.46999998093E+01 0.  1.
</event>
<event>
 5   0  0.1232559E-05  0.2681459E+04  0.7818609E-02  0.8341046E-01
        2   -1    0    0  501    0  0.00000000000E+00  0.00000000000E+00  0.20443425817E+04  0.20443425817E+04  0.25500000920E-02 0. -1.
       -2   -1    0    0    0  501  0.00000000000E+00  0.00000000000E+00 -0.87928298183E+03  0.87928298183E+03  0.25500000920E-02 0.  1.
    10030    2    1    2    0    0  0.00000000000E+00  0.00000000000E+00  0.11650595999E+04  0.29236255635E+04  0.26814590365E+04 0.  0.
        3    1    3    3  502    0 -0.53481635249E+03 -0.84687561364E+03 -0.38921166984E+03  0.10745755302E+04  0.10100000352E+00 0.  1.
       -3    1    3    3    0  502  0.53481635249E+03  0.84687561364E+03  0.15542712697E+04  0.18490500334E+04  0.10100000352E+00 0. -1.
</event>
<event>
 5   0  0.1261364E-05  0.2690922E+04  0.7818609E-02  0.8337956E-01
       -2   -1    0    0    0  501  0.00000000000E+00  0.00000000000E+00  0.88390368989E+03  0.88390368989E+03  0.25500000920E-02 0.  1.
        2   -1    0    0  501    0  0.00000000000E+00  0.00000000000E+00 -0.20480349298E+04  0.20480349298E+04  0.25500000920E-02 0. -1.
    10030    2    1    2    0    0  0.00000000000E+00  0.00000000000E+00 -0.11641312399E+04  0.29319386197E+04  0.26909222445E+04 0.  0.
        5    1    3    3  502    0  0.79969601192E+02 -0.11506208164E+04  0.17274536792E+03  0.11662703171E+04  0.46999998093E+01 0. -1.
       -5    1    3    3    0  502 -0.79969601192E+02  0.11506208164E+04 -0.13368766078E+04  0.17656683026E+04  0.46999998093E+01 0.  1.
</event>
<event>
 5   0  0.1220908E-05  0.2704110E+04  0.7818609E-02  0.8333673E-01
        2   -1    0    0  501    0  0.00000000000E+00  0.00000000000E+00  0.14323215752E+04  0.14323215752E+04  0.25500000920E-02 0.  1.
       -2   -1    0    0    0  501  0.00000000000E+00  0.00000000000E+00 -0.12762868926E+04  0.12762868926E+04  0.25500000920E-02 0. -1.
    10030    2    1    2    0    0  0.00000000000E+00  0.00000000000E+00  0.15603468262E+03  0.27086084678E+04  0.27041103915E+04 0.  0.
        2    1    3    3  502    0  0.35110826272E+02  0.18485453831E+03  0.14191430274E+04  0.14315623992E+04  0.25500000920E-02 0.  1.
       -2    1    3    3    0  502 -0.35110826272E+02 -0.18485453831E+03 -0.12631083448E+04  0.12770460686E+04  0.25500000920E-02 0. -1.
</event>
<event>
 5   0  0.1261364E-05  0.2706180E+04  0.7818609E-02  0.8333003E-01
        2   -1    0    0  501    0  0.00000000000E+00  0.00000000000E+00  0.87406352923E+03  0.87406352923E+03  0.25500000920E-02 0.  1.
       -2   -1    0    0    0  501  0.00000000000E+00  0.00000000000E+00 -0.20946442077E+04  0.20946442077E+04  0.25500000920E-02 0. -1.
    10030    2    1    2    0    0  0.00000000000E+00  0.00000000000E+00 -0.12205806785E+04  0.29687077370E+04  0.27061796752E+04 0.  0.
        5    1    3    3  502    0  0.24554412835E+02  0.14286085950E+03 -0.20860928774E+04  0.20911283384E+04  0.46999998093E+01 0. -1.
       -5    1    3    3    0  502 -0.24554412835E+02 -0.14286085950E+03  0.86551219891E+03  0.87757939859E+03  0.46999998093E+01 0.  1.
</event>
<event>
 5   0  0.1220908E-05  0.2714253E+04  0.7818609E-02  0.8330395E-01
       -2   -1    0    0    0  501  0.00000000000E+00  0.00000000000E+00  0.64782000427E+03  0.64782000428E+03  0.25500000920E-02 0.  1.
        2   -1    0    0  501    0  0.00000000000E+00  0.00000000000E+00 -0.28430625820E+04  0.28430625820E+04  0.25500000920E-02 0. -1.
    10030    2    1    2    0    0  0.00000000000E+00  0.00000000000E+00 -0.21952425777E+04  0.34908825863E+04  0.27142533515E+04 0.  0.
        2    1    3    3  502    0 -0.56021789092E+03  0.60155690730E+03  0.29120734829E+03  0.87207598162E+03  0.25500000920E-02 0.  1.
       -2    1    3    3    0  502  0.56021789092E+03 -0.60155690730E+03 -0.24864499260E+04  0.26188066047E+04  0.25500000920E-02 0. -1.
</event>
<event>
 5   0  0.1286641E-05  0.2517857E+04  0.7818609E-02  0.8396652E-01
        2   -1    0    0  501    0  0.00000000000E+00  0.00000000000E+00  0.90213964192E+03  0.90213964193E+03  0.25500000920E-02 0. -1.
       -2   -1    0    0    0  501  0.00000000000E+00  0.00000000000E+00 -0.17568237759E+04  0.17568237759E+04  0.25500000920E-02 0.  1.
    10030    2    1    2    0    0  0.00000000000E+00  0.00000000000E+00 -0.85468413396E+03  0.26589634178E+04  0.25178565266E+04 0.  0.
        4    1    3    3  502    0  0.20508938569E+03 -0.16574262129E+03  0.87264856326E+03  0.91161910932E+03  0.12699999809E+01 0. -1.
       -4    1    3    3    0  502 -0.20508938569E+03  0.16574262129E+03 -0.17273326972E+04  0.17473443085E+04  0.12699999809E+01 0.  1.
</event>
<event>
 5   0  0.1276517E-05  0.2717117E+04  0.7818609E-02  0.8329472E-01
        2   -1    0    0  501    0  0.00000000000E+00  0.00000000000E+00  0.15317800837E+04  0.15317800837E+04  0.25500000920E-02 0.  1.
       -2   -1    0    0    0  501  0.00000000000E+00  0.00000000000E+00 -0.12049256099E+04  0.12049256099E+04  0.25500000920E-02 0. -1.
    10030    2    1    2    0    0  0.00000000000E+00  0.00000000000E+00  0.32685447378E+03  0.27367056936E+04  0.27171168923E+04 0.  0.
        1    1    3    3  502    0 -0.13092643976E+04 -0.33424507095E+03  0.30511128485E+03  0.13852746755E+04  0.50400001928E-02 0. -1.
       -1    1    3    3    0  502  0.13092643976E+04  0.33424507095E+03  0.21743188929E+02  0.13514310181E+04  0.50400001928E-02 0.  1.
</event>
<event>
 5   0  0.4826140E-06  0.2667161E+04  0.7818609E-02  0.8345739E-01
        1   -1    0    0  501    0  0.00000000000E+00  0.00000000000E+00  0.15087673505E+04  0.15087673505E+04  0.50400001928E-02 0. -1.
       -1   -1    0    0    0  501  0.00000000000E+00  0.00000000000E+00 -0.11787350317E+04  0.11787350318E+04  0.50400001928E-02 0.  1.
    10030    2    1    2    0    0  0.00000000000E+00  0.00000000000E+00  0.33003231875E+03  0.26875023823E+04  0.26671609856E+04 0.  0.
        1    1    3    3  502    0  0.26785035155E+03  0.92425772349E+03  0.10953348304E+04  0.14579967562E+04  0.50400001928E-02 0. -1.
       -1    1    3    3    0  502 -0.26785035155E+03 -0.92425772349E+03 -0.76530251164E+03  0.12295056261E+04  0.50400001928E-02 0.  1.
</event>
<event>
 5   0  0.4824715E-06  0.2721677E+04  0.7818609E-02  0.8328005E-01
        1   -1    0    0  501    0  0.00000000000E+00  0.00000000000E+00  0.20151861456E+04  0.20151861456E+04  0.50400001928E-02 0. -1.
       -1   -1    0    0    0  501  0.00000000000E+00  0.00000000000E+00 -0.91896329281E+03  0.91896329282E+03  0.50400001928E-02 0.  1.
    10030    2    1    2    0    0  0.00000000000E+00  0.00000000000E+00  0.10962228528E+04  0.29341494384E+04  0.27216774945E+04 0.  0.
        5    1    3    3  502    0 -0.93088427914E+03 -0.70040105552E+03  0.13064090741E+04  0.17503810838E+04  0.46999998093E+01 0. -1.
       -5    1    3    3    0  502  0.93088427914E+03  0.70040105552E+03 -0.21018622132E+03  0.11837683546E+04  0.46999998093E+01 0.  1.
</event>
<event>
 5   0  0.4846214E-06  0.2702492E+04  0.7818609E-02  0.8334197E-01
       -1   -1    0    0    0  501  0.00000000000E+00  0.00000000000E+00  0.15049009941E+04  0.15049009941E+04  0.50400001928E-02 0.  1.
        1   -1    0    0  501    0  0.00000000000E+00  0.00000000000E+00 -0.12132796072E+04  0.12132796072E+04  0.50400001928E-02 0. -1.
    10030    2    1    2    0    0  0.00000000000E+00  0.00000000000E+00  0.29162138688E+03  0.27181806013E+04  0.27024919515E+04 0.  0.
        2    1    3    3  502    0  0.29704742744E+03  0.11750750731E+04  0.74662851434E+03  0.14235493458E+04  0.25500000920E-02 0.  1.
       -2    1    3    3    0  502 -0.29704742744E+03 -0.11750750731E+04 -0.45500712746E+03  0.12946312555E+04  0.25500000920E-02 0. -1.
</event>
<event>
 5   0  0.4824715E-06  0.2704764E+04  0.7818609E-02  0.8333461E-01
       -1   -1    0    0    0  501  0.00000000000E+00  0.00000000000E+00  0.12630539075E+04  0.12630539075E+04  0.50400001928E-02 0.  1.
        1   -1    0    0  501    0  0.00000000000E+00  0.00000000000E+00 -0.14480280066E+04  0.14480280066E+04  0.50400001928E-02 0. -1.
    10030    2    1    2    0    0  0.00000000000E+00  0.00000000000E+00 -0.18497409909E+03  0.27110819141E+04  0.27047642647E+04 0.  0.
        5    1    3    3  502    0  0.55505534059E+03 -0.12305687871E+04 -0.17348031269E+03  0.13610670372E+04  0.46999998093E+01 0. -1.
       -5    1    3    3    0  502 -0.55505534059E+03  0.12305687871E+04 -0.11493786400E+02  0.13500148769E+04  0.46999998093E+01 0.  1.
</event>
<event>
 5   0  0.1276517E-05  0.2646168E+04  0.7818609E-02  0.8352686E-01
       -2   -1    0    0    0  501  0.00000000000E+00  0.00000000000E+00  0.98003757048E+03  0.98003757048E+03  0.25500000920E-02 0. -1.
        2   -1    0    0  501    0  0.00000000000E+00  0.00000000000E+00 -0.17862080336E+04  0.17862080336E+04  0.25500000920E-02 0.  1.
    10030    2    1    2    0    0  0.00000000000E+00  0.00000000000E+00 -0.80617046311E+03  0.27662456041E+04  0.26461677812E+04 0.  0.
        1    1    3    3  502    0 -0.13706919048E+03 -0.34246542770E+03 -0.17313656020E+04  0.17702252342E+04  0.50400001928E-02 0.  1.
       -1    1    3    3    0  502  0.13706919048E+03  0.34246542770E+03  0.92519513886E+03  0.99602036985E+03  0.50400001928E-02 0. -1.
</event>
<event>
 5   0  0.1286641E-05  0.2700487E+04  0.7818609E-02  0.8334847E-01
       -2   -1    0    0    0  501  0.00000000000E+00  0.00000000000E+00  0.80214822306E+03  0.80214822307E+03  0.25500000920E-02 0.  1.
        2   -1    0    0  501    0  0.00000000000E+00  0.00000000000E+00 -0.22728444313E+04  0.22728444313E+04  0.25500000920E-02 0. -1.
    10030    2    1    2    0    0  0.00000000000E+00  0.00000000000E+00 -0.14706962082E+04  0.30749926543E+04  0.27004874537E+04 0.  0.
        4    1    3    3  502    0 -0.22914044537E+03  0.13303166091E+04 -0.76967672295E+03  0.15539148931E+04  0.12699999809E+01 0. -1.
       -4    1    3    3    0  502  0.22914044537E+03 -0.13303166091E+04 -0.70101948524E+03  0.15210777612E+04  0.12699999809E+01 0.  1.
</event>
<event>
 5   0  0.4756800E-06  0.2698552E+04  0.7818609E-02  0.8335475E-01
        1   -1    0    0  501    0  0.00000000000E+00  0.00000000000E+00  0.16391315960E+04  0.16391315960E+04  0.50400001928E-02 0. -1.
       -1   -1    0    0    0  501  0.00000000000E+00  0.00000000000E+00 -0.11106771165E+04  0.11106771165E+04  0.50400001928E-02 0.  1.
    10030    2    1    2    0    0  0.00000000000E+00  0.00000000000E+00  0.52845447946E+03  0.27498087125E+04  0.26985521708E+04 0.  0.
        4    1    3    3  502    0 -0.54930574326E+03  0.34123371697E+03 -0.94248167485E+03  0.11430006866E+04  0.12699999809E+01 0.  1.
       -4    1    3    3    0  502  0.54930574326E+03 -0.34123371697E+03  0.14709361543E+04  0.16068080259E+04  0.12699999809E+01 0. -1.
</event>
<event>
 5   0  0.4846214E-06  0.2626547E+04  0.7818609E-02  0.8359239E-01
       -1   -1    0    0    0  501  0.00000000000E+00  0.00000000000E+00  0.80738388443E+03  0.80738388444E+03  0.50400001928E-02 0.  1.
        1   -1    0    0  501    0  0.00000000000E+00  0.00000000000E+00 -0.21361434941E+04  0.21361434941E+04  0.50400001928E-02 0. -1.
    10030    2    1    2    0    0  0.00000000000E+00  0.00000000000E+00 -0.13287596096E+04  0.29435273785E+04  0.26265474159E+04 0.  0.
        2    1    3    3  502    0  0.91351890095E+03 -0.41426569985E+02  0.39195241109E+03  0.99491689887E+03  0.25500000920E-02 0.  1.
       -2    1    3    3    0  502 -0.91351890095E+03  0.41426569985E+02 -0.17207120207E+04  0.19486104796E+04  0.25500000920E-02 0. -1.
</event>
<event>
 5   0  0.4846214E-06  0.2210934E+04  0.7818609E-02  0.8513891E-01
       -1   -1    0    0    0  501  0.00000000000E+00  0.00000000000E+00  0.12866067523E+04  0.12866067523E+04  0.50400001928E-02 0. -1.
        1   -1    0    0  501    0  0.00000000000E+00  0.00000000000E+00 -0.94982931328E+03  0.94982931329E+03  0.50400001928E-02 0.  1.
    10030    2    1    2    0    0  0.00000000000E+00  0.00000000000E+00  0.33677743905E+03  0.22364360656E+04  0.22109335658E+04 0.  0.
        2    1    3    3  502    0  0.63776440821E+03 -0.38676417140E+03  0.99372099431E+03  0.12425020641E+04  0.25500000920E-02 0. -1.
       -2    1    3    3    0  502 -0.63776440821E+03  0.38676417140E+03 -0.65694355526E+03  0.99393400157E+03  0.25500000920E-02 0.  1.
</event>
<event>
 5   0  0.1220908E-05  0.2720777E+04  0.7818609E-02  0.8328295E-01
       -2   -1    0    0    0  501  0.00000000000E+00  0.00000000000E+00  0.10038160902E+04  0.10038160902E+04  0.25500000920E-02 0. -1.
        2   -1    0    0  501    0  0.00000000000E+00  0.00000000000E+00 -0.18436210913E+04  0.18436210913E+04  0.25500000920E-02 0.  1.
    10030    2    1    2    0    0  0.00000000000E+00  0.00000000000E+00 -0.83980500113E+03  0.28474371815E+04  0.27207767389E+04 0.  0.
        2    1    3    3  502    0 -0.54035702682E+03  0.95026053363E+03 -0.12673363277E+04  0.16736553306E+04  0.25500000920E-02 0.  1.
       -2    1    3    3    0  502  0.54035702682E+03 -0.95026053363E+03  0.42753132660E+03  0.11737818509E+04  0.25500000920E-02 0. -1.
</event>
<event>
 5   0  0.4826140E-06  0.2638735E+04  0.7818609E-02  0.8355162E-01
       -1   -1    0    0    0  501  0.00000000000E+00  0.00000000000E+00  0.13229434438E+04  0.13229434438E+04  0.50400001928E-02 0.  1.
        1   -1    0    0  501    0  0.00000000000E+00  0.00000000000E+00 -0.13158009390E+04  0.13158009390E+04  0.50400001928E-02 0. -1.
    10030    2    1    2    0    0  0.00000000000E+00  0.00000000000E+00  0.71425047359E+01  0.26387443828E+04  0.26387347162E+04 0.  0.
        1    1    3    3  502    0  0.12167483396E+03 -0.12456422385E+04  0.42106634360E+03  0.13205022594E+04  0.50400001928E-02 0.  1.
       -1    1    3    3    0  502 -0.12167483396E+03  0.12456422385E+04 -0.41392383886E+03  0.13182421234E+04  0.50400001928E-02 0. -1.
</event>
<event>
 5   0  0.4756800E-06  0.2679978E+04  0.7818609E-02  0.8341531E-01
        1   -1    0    0  501    0  0.00000000000E+00  0.00000000000E+00  0.93604733522E+03  0.93604733524E+03  0.50400001928E-02 0.  1.
       -1   -1    0    0    0  501  0.00000000000E+00  0.00000000000E+00 -0.19182481307E+04  0.19182481307E+04  0.50400001928E-02 0. -1.
    10030    2    1    2    0    0  0.00000000000E+00  0.00000000000E+00 -0.98220079550E+03  0.28542954660E+04  0.26799783962E+04 0.  0.
        4    1    3    3  502    0 -0.39919260813E+03  0.20167538390E+03  0.85420758568E+03  0.96420947474E+03  0.12699999809E+01 0.  1.
       -4    1    3    3    0  502  0.39919260813E+03 -0.20167538390E+03 -0.18364083812E+04  0.18900859912E+04  0.12699999809E+01 0. -1.
</event>
<event>
 5   0  0.5152288E-06  0.2639813E+04  0.7818609E-02  0.8354802E-01
       -1   -1    0    0    0  501  0.00000000000E+00  0.00000000000E+00  0.12530181598E+04  0.12530181598E+04  0.50400001928E-02 0.  1.
        1   -1    0    0  501    0  0.00000000000E+00  0.00000000000E+00 -0.13903653408E+04  0.13903653408E+04  0.50400001928E-02 0. -1.
    10030    2    1    2    0    0  0.00000000000E+00  0.00000000000E+00 -0.13734718100E+03  0.26433835006E+04  0.26398128879E+04 0.  0.
        3    1    3    3  502    0 -0.35268183762E+03 -0.11404724390E+04  0.49519653942E+03  0.12923937037E+04  0.10100000352E+00 0.  1.
       -3    1    3    3    0  502  0.35268183762E+03  0.11404724390E+04 -0.63254372043E+03  0.13509897968E+04  0.10100000352E+00 0. -1.
</event>
<event>
 5   0  0.4756800E-06  0.2644506E+04  0.7818609E-02  0.8353239E-01
       -1   -1    0    0    0  501  0.00000000000E+00  0.00000000000E+00  0.70189216975E+03  0.70189216977E+03  0.50400001928E-02 0.  1.
        1   -1    0    0  501    0  0.00000000000E+00  0.00000000000E+00 -0.24909138717E+04  0.24909138717E+04  0.50400001928E-02 0. -1.
    10030    2    1    2    0    0  0.00000000000E+00  0.00000000000E+00 -0.17890217020E+04  0.31928060415E+04  0.26445059592E+04 0.  0.
        4    1    3    3  502    0 -0.19934741353E+02 -0.75801151249E+03  0.41330301023E+03  0.86359703458E+03  0.12699999809E+01 0.  1.
       -4    1    3    3    0  502  0.19934741353E+02  0.75801151249E+03 -0.22023247122E+04  0.23292090069E+04  0.12699999809E+01 0. -1.
</event>
<event>
 5   0  0.1286641E-05  0.2668955E+04  0.7818609E-02  0.8345149E-01
        2   -1    0    0  501    0  0.00000000000E+00  0.00000000000E+00  0.15329799176E+04  0.15329799176E+04  0.25500000920E-02 0. -1.
       -2   -1    0    0    0  501  0.00000000000E+00  0.00000000000E+00 -0.11616791784E+04  0.11616791784E+04  0.25500000920E-02 0.  1.
    10030    2    1    2    0    0  0.00000000000E+00  0.00000000000E+00  0.37130073925E+03  0.26946590960E+04  0.26689554895E+04 0.  0.
        4    1    3    3  502    0  0.10854309901E+04  0.31618206768E+03 -0.53018960958E+03  0.12486929844E+04  0.12699999809E+01 0.  1.
       -4    1    3    3    0  502 -0.10854309901E+04 -0.31618206768E+03  0.90149034883E+03  0.14459661117E+04  0.12699999809E+01 0. -1.
</event>
<event>
 5   0  0.1220908E-05  0.2635380E+04  0.7818609E-02  0.8356282E-01
       -2   -1    0    0    0  501  0.00000000000E+00  0.00000000000E+00  0.92089838529E+03  0.92089838530E+03  0.25500000920E-02 0. -1.
        2   -1    0    0  501    0  0.00000000000E+00  0.00000000000E+00 -0.18854489987E+04  0.18854489987E+04  0.25500000920E-02 0.  1.
    10030    2    1    2    0    0  0.00000000000E+00  0.00000000000E+00 -0.96455061342E+03  0.28063473840E+04  0.26353800018E+04 0.  0.
        2    1    3    3  502    0 -0.95886894556E+03 -0.87444780578E+03 -0.23893747980E+03  0.13195376990E+04  0.25500000920E-02 0. -1.
       -2    1    3    3    0  502  0.95886894556E+03  0.87444780578E+03 -0.72561313362E+03  0.14868096850E+04  0.25500000920E-02 0.  1.
</event>
<event>
 5   0  0.1261364E-05  0.2711963E+04  0.7818609E-02  0.8331134E-01
        2   -1    0    0  501    0  0.00000000000E+00  0.00000000000E+00  0.17816542212E+04  0.17816542212E+04  0.25500000920E-02 0.  1.
       -2   -1    0    0    0  501  0.00000000000E+00  0.00000000000E+00 -0.10320103706E+04  0.10320103706E+04  0.25500000920E-02 0. -1.
    10030    2    1    2    0    0  0.00000000000E+00  0.00000000000E+00  0.74964385056E+03  0.28136645918E+04  0.27119628560E+04 0.  0.
        5    1    3    3  502    0  0.59320346818E+03 -0.11772273017E+04  0.70439648992E+03  0.14946407527E+04  0.46999998093E+01 0.  1.
       -5    1    3    3    0  502 -0.59320346818E+03  0.11772273017E+04  0.45247360639E+02  0.13190238391E+04  0.46999998093E+01 0. -1.
</event>
<event>
 5   0  0.1232559E-05  0.2720215E+04  0.7818609E-02  0.8328475E-01
       -2   -1    0    0    0  501  0.00000000000E+00  0.00000000000E+00  0.11073376358E+04  0.11073376358E+04  0.25500000920E-02 0. -1.
        2   -1    0    0  501    0  0.00000000000E+00  0.00000000000E+00 -0.16705772302E+04  0.16705772302E+04  0.25500000920E-02 0.  1.
    10030    2    1    2    0    0  0.00000000000E+00  0.00000000000E+00 -0.56323959435E+03  0.27779148660E+04  0.27202154624E+04 0.  0.
        3    1    3    3  502    0  0.13105245754E+04 -0.60403581384E+01 -0.65318060799E+03  0.14642937087E+04  0.10100000352E+00 0.  1.
       -3    1    3    3    0  502 -0.13105245754E+04  0.60403581384E+01  0.89941013637E+02  0.13136211572E+04  0.10100000352E+00 0. -1.
</event>
<event>
 5   0  0.1276517E-05  0.2673011E+04  0.7818609E-02  0.8343815E-01
        2   -1    0    0  501    0  0.00000000000E+00  0.00000000000E+00  0.16634363372E+04  0.16634363372E+04  0.25500000920E-02 0. -1.
       -2   -1    0    0    0  501  0.00000000000E+00  0.00000000000E+00 -0.10738298291E+04  0.10738298291E+04  0.25500000920E-02 0.  1.
    10030    2    1    2    0    0  0.00000000000E+00  0.00000000000E+00  0.58960650809E+03  0.27372661663E+04  0.26730114535E+04 0.  0.
        1    1    3    3  502    0 -0.10394212554E+04  0.83791622834E+03  0.35749084215E+03  0.13821359753E+04  0.50400001928E-02 0. -1.
       -1    1    3    3    0  502  0.10394212554E+04 -0.83791622834E+03  0.23211566594E+03  0.13551301909E+04  0.50400001928E-02 0.  1.
</event>
<event>
 5   0  0.5152288E-06  0.2756091E+04  0.7818609E-02  0.8317032E-01
       -1   -1    0    0    0  501  0.00000000000E+00  0.00000000000E+00  0.12333238987E+04  0.12333238987E+04  0.50400001928E-02 0.  1.
        1   -1    0    0  501    0  0.00000000000E+00  0.00000000000E+00 -0.15397489169E+04  0.15397489169E+04  0.50400001928E-02 0. -1.
    10030    2    1    2    0    0  0.00000000000E+00  0.00000000000E+00 -0.30642501819E+03  0.27730728155E+04  0.27560908092E+04 0.  0.
        3    1    3    3  502    0  0.44045775139E+03  0.81017916483E+03  0.87711655952E+03  0.12726848703E+04  0.10100000352E+00 0.  1.
       -3    1    3    3    0  502 -0.44045775139E+03 -0.81017916483E+03 -0.11835415777E+04  0.15003879452E+04  0.10100000352E+00 0. -1.
</event>
<event>
 5   0  0.5152288E-06  0.2729649E+04  0.7818609E-02  0.8325449E-01
       -1   -1    0    0    0  501  0.00000000000E+00  0.00000000000E+00  0.14907410202E+04  0.14907410202E+04  0.50400001928E-02 0.  1.
        1   -1    0    0  501    0  0.00000000000E+00  0.00000000000E+00 -0.12495432110E+04  0.12495432110E+04  0.50400001928E-02 0. -1.
    10030    2    1    2    0    0  0.00000000000E+00  0.00000000000E+00  0.24119780922E+03  0.27402842312E+04  0.27296485643E+04 0.  0.
        3    1    3    3  502    0  0.11434906133E+04  0.62038439897E+03  0.53487826722E+03  0.14066066814E+04  0.10100000352E+00 0.  1.
       -3    1    3    3    0  502 -0.11434906133E+04 -0.62038439897E+03 -0.29368045800E+03  0.13336775498E+04  0.10100000352E+00 0. -1.
</event>
<event>
 5   0  0.1261364E-05  0.2719241E+04  0.7818609E-02  0.8328789E-01
        2   -1    0    0  501    0  0.00000000000E+00  0.00000000000E+00  0.11059809381E+04  0.11059809381E+04  0.25500000920E-02 0.  1.
       -2   -1    0    0    0  501  0.00000000000E+00  0.00000000000E+00 -0.16714286814E+04  0.16714286814E+04  0.25500000920E-02 0. -1.
    10030    2    1    2    0    0  0.00000000000E+00  0.00000000000E+00 -0.56544774327E+03  0.27774096195E+04  0.27192412626E+04 0.  0.
        5    1    3    3  502    0  0.10693336692E+04 -0.60796147447E+03 -0.87429778956E+03  0.15091422615E+04  0.46999998093E+01 0.  1.
       -5    1    3    3    0  502 -0.10693336692E+04  0.60796147447E+03  0.30885004629E+03  0.12682673581E+04  0.46999998093E+01 0. -1.
</event>
<event>
 5   0  0.4756800E-06  0.2675930E+04  0.7818609E-02  0.8342857E-01
       -1   -1    0    0    0  501  0.00000000000E+00  0.00000000000E+00  0.12500814302E+04  0.12500814302E+04  0.50400001928E-02 0.  1.
        1   -1    0    0  501    0  0.00000000000E+00  0.00000000000E+00 -0.14320270992E+04  0.14320270992E+04  0.50400001928E-02 0. -1.
    10030    2    1    2    0    0  0.00000000000E+00  0.00000000000E+00 -0.18194566902E+03  0.26821085293E+04  0.26759301068E+04 0.  0.
        4    1    3    3  502    0 -0.71167320899E+03  0.11082192720E+04  0.14519836550E+03  0.13250331654E+04  0.12699999809E+01 0.  1.
       -4    1    3    3    0  502  0.71167320899E+03 -0.11082192720E+04 -0.32714403452E+03  0.13570753639E+04  0.12699999809E+01 0. -1.
</event>
<event>
 5   0  0.1276517E-05  0.2702611E+04  0.7818609E-02  0.8334158E-01
       -2   -1    0    0    0  501  0.00000000000E+00  0.00000000000E+00  0.11657383430E+04  0.11657383430E+04  0.25500000920E-02 0. -1.
        2   -1    0    0  501    0  0.00000000000E+00  0.00000000000E+00 -0.15664117566E+04  0.15664117566E+04  0.25500000920E-02 0.  1.
    10030    2    1    2    0    0  0.00000000000E+00  0.00000000000E+00 -0.40067341358E+03  0.27321500995E+04  0.27026107715E+04 0.  0.
        1    1    3    3  502    0  0.88272165982E+03  0.22335752880E+03  0.80904537490E+03  0.12180478369E+04  0.50400001928E-02 0. -1.
       -1    1    3    3    0  502 -0.88272165982E+03 -0.22335752880E+03 -0.12097187885E+04  0.15141022626E+04  0.50400001928E-02 0.  1.
</event>
<event>
 5   0  0.1232559E-05  0.2701686E+04  0.7818609E-02  0.8334458E-01
        2   -1    0    0  501    0  0.00000000000E+00  0.00000000000E+00  0.14213504901E+04  0.14213504901E+04  0.25500000920E-02 0.  1.
       -2   -1    0    0    0  501  0.00000000000E+00  0.00000000000E+00 -0.12838335036E+04  0.12838335036E+04  0.25500000920E-02 0. -1.
    10030    2    1    2    0    0  0.00000000000E+00  0.00000000000E+00  0.13751698650E+03  0.27051839938E+04  0.27016864212E+04 0.  0.
        3    1    3    3  502    0  0.10031855834E+04 -0.65148956589E+03 -0.55971432715E+03  0.13206438231E+04  0.10100000352E+00 0. -1.
       -3    1    3    3    0  502 -0.10031855834E+04  0.65148956589E+03  0.69723131365E+03  0.13845401707E+04  0.10100000352E+00 0.  1.
</event>
<event>
 5   0  0.5152288E-06  0.2678122E+04  0.7818609E-02  0.8342139E-01
        1   -1    0    0  501    0  0.00000000000E+00  0.00000000000E+00  0.10583083122E+04  0.10583083122E+04  0.50400001928E-02 0.  1.
       -1   -1    0    0    0  501  0.00000000000E+00  0.00000000000E+00 -0.16942928513E+04  0.16942928513E+04  0.50400001928E-02 0. -1.
    10030    2    1    2    0    0  0.00000000000E+00  0.00000000000E+00 -0.63598453917E+03  0.27526011635E+04  0.26781218851E+04 0.  0.
        3    1    3    3  502    0  0.96205107056E+03 -0.47037164130E+03 -0.11442727500E+04  0.15672114981E+04  0.10100000352E+00 0. -1.
       -3    1    3    3    0  502 -0.96205107056E+03  0.47037164130E+03  0.50828821084E+03  0.11853896654E+04  0.10100000352E+00 0.  1.
</event>
<event>
 5   0  0.1232559E-05  0.2687564E+04  0.7818609E-02  0.8339051E-01
       -2   -1    0    0    0  501  0.00000000000E+00  0.00000000000E+00  0.99232971367E+03  0.99232971367E+03  0.25500000920E-02 0. -1.
        2   -1    0    0  501    0  0.00000000000E+00  0.00000000000E+00 -0.18197074996E+04  0.18197074996E+04  0.25500000920E-02 0.  1.
    10030    2    1    2    0    0  0.00000000000E+00  0.00000000000E+00 -0.82737778590E+03  0.28120372132E+04  0.26875638203E+04 0.  0.
        3    1    3    3  502    0  0.12701599684E+04  0.39347499517E+03 -0.21074460256E+03  0.13463068799E+04  0.10100000352E+00 0. -1.
       -3    1    3    3    0  502 -0.12701599684E+04 -0.39347499517E+03 -0.61663318334E+03  0.14657303334E+04  0.10100000352E+00 0.  1.
</event>
<event>
 5   0  0.1276517E-05  0.2690728E+04  0.7818609E-02  0.8338020E-01
       -2   -1    0    0    0  501  0.00000000000E+00  0.00000000000E+00  0.23852144467E+04  0.23852144467E+04  0.25500000920E-02 0.  1.
        2   -1    0    0  501    0  0.00000000000E+00  0.00000000000E+00 -0.75884325258E+03  0.75884325258E+03  0.25500000920E-02 0. -1.
    10030    2    1    2    0    0  0.00000000000E+00  0.00000000000E+00  0.16263711941E+04  0.31440576993E+04  0.26907277000E+04 0.  0.
        1    1    3    3  502    0 -0.62788420513E+01  0.49600183669E+03 -0.64808862806E+03  0.81613486367E+03  0.50400001928E-02 0. -1.
       -1    1    3    3    0  502  0.62788420513E+01 -0.49600183669E+03  0.22744598222E+04  0.23279228356E+04  0.50400001928E-02 0.  1.
</event>
<event>
 5   0  0.4846214E-06  0.2704377E+04  0.7818609E-02  0.8333586E-01
        1   -1    0    0  501    0  0.00000000000E+00  0.00000000000E+00  0.12063495144E+04  0.12063495144E+04  0.50400001928E-02 0. -1.
       -1   -1    0    0    0  501  0.00000000000E+00  0.00000000000E+00 -0.15156586321E+04  0.15156586321E+04  0.50400001928E-02 0.  1.
    10030    2    1    2    0    0  0.00000000000E+00  0.00000000000E+00 -0.30930911771E+03  0.27220081465E+04  0.27043772331E+04 0.  0.
        2    1    3    3  502    0 -0.13313520703E+03 -0.73694419952E+03  0.97856395682E+03  0.12322334008E+04  0.25500000920E-02 0. -1.
       -2    1    3    3    0  502  0.13313520703E+03  0.73694419952E+03 -0.12878730745E+04  0.14897747456E+04  0.25500000920E-02 0.  1.
</event>
<event>
 5   0  0.1286641E-05  0.2510285E+04  0.7818609E-02  0.8399331E-01
       -2   -1    0    0    0  501  0.00000000000E+00  0.00000000000E+00  0.13087928410E+04  0.13087928410E+04  0.25500000920E-02 0. -1.
        2   -1    0    0  501    0  0.00000000000E+00  0.00000000000E+00 -0.12036911530E+04  0.12036911530E+04  0.25500000920E-02 0.  1.
    10030    2    1    2    0    0  0.00000000000E+00  0.00000000000E+00  0.10510168801E+03  0.25124839939E+04  0.25102847358E+04 0.  0.
        4    1    3    3  502    0  0.36582940683E+03 -0.80023362320E+03  0.94841923713E+03  0.12937177702E+04  0.12699999809E+01 0. -1.
       -4    1    3    3    0  502 -0.36582940683E+03  0.80023362320E+03 -0.84331754912E+03  0.12187662237E+04  0.12699999809E+01 0.  1.
</event>
<event>
 5   0  0.1220908E-05  0.2750976E+04  0.7818609E-02  0.8318652E-01
       -2   -1    0    0    0  501  0.00000000000E+00  0.00000000000E+00  0.10922508309E+04  0.10922508309E+04  0.25500000920E-02 0.  1.
        2   -1    0    0  501    0  0.00000000000E+00  0.00000000000E+00 -0.17321722890E+04  0.17321722890E+04  0.25500000920E-02 0. -1.
    10030    2    1    2    0    0  0.00000000000E+00  0.00000000000E+00 -0.63992145815E+03  0.28244231199E+04  0.27509755520E+04 0.  0.
        2    1    3    3  502    0  0.54577553256E+03 -0.60771367193E+03 -0.14562058504E+04  0.16696473633E+04  0.25500000920E-02 0. -1.
       -2    1    3    3    0  502 -0.54577553256E+03  0.60771367193E+03  0.81628439224E+03  0.11547757566E+04  0.25500000920E-02 0.  1.
</event>
<event>
 5   0  0.5152288E-06  0.2699925E+04  0.7818609E-02  0.8335029E-01
       -1   -1    0    0    0  501  0.00000000000E+00  0.00000000000E+00  0.10987497371E+04  0.10987497371E+04  0.50400001928E-02 0.  1.
        1   -1    0    0  501    0  0.00000000000E+00  0.00000000000E+00 -0.16586109579E+04  0.16586109579E+04  0.50400001928E-02 0. -1.
    10030    2    1    2    0    0  0.00000000000E+00  0.00000000000E+00 -0.55986122086E+03  0.27573606950E+04  0.26999247056E+04 0.  0.
        3    1    3    3  502    0  0.89873719412E+03  0.42568501552E+03 -0.12122932166E+04  0.15679895184E+04  0.10100000352E+00 0. -1.
       -3    1    3    3    0  502 -0.89873719412E+03 -0.42568501552E+03  0.65243199576E+03  0.11893711766E+04  0.10100000352E+00 0.  1.
</event>
<event>
 5   0  0.4756800E-06  0.2465003E+04  0.7818609E-02  0.8415561E-01
       -1   -1    0    0    0  501  0.00000000000E+00  0.00000000000E+00  0.85721184763E+03  0.85721184765E+03  0.50400001928E-02 0. -1.
        1   -1    0    0  501    0  0.00000000000E+00  0.00000000000E+00 -0.17720937141E+04  0.17720937141E+04  0.50400001928E-02 0.  1.
    10030    2    1    2    0    0  0.00000000000E+00  0.00000000000E+00 -0.91488186651E+03  0.26293055618E+04  0.24650028210E+04 0.  0.
        4    1    3    3  502    0 -0.38001718214E+03  0.97818810400E+03 -0.11468932973E+04  0.15545516633E+04  0.12699999809E+01 0.  1.
       -4    1    3    3    0  502  0.38001718214E+03 -0.97818810400E+03  0.23201143075E+03  0.10747538985E+04  0.12699999809E+01 0. -1.
</event>
<event>
 5   0  0.4824715E-06  0.2702165E+04  0.7818609E-02  0.8334303E-01
       -1   -1    0    0    0  501  0.00000000000E+00  0.00000000000E+00  0.99760518825E+03  0.99760518826E+03  0.50400001928E-02 0.  1.
        1   -1    0    0  501    0  0.00000000000E+00  0.00000000000E+00 -0.18298053276E+04  0.18298053276E+04  0.50400001928E-02 0. -1.
    10030    2    1    2    0    0  0.00000000000E+00  0.00000000000E+00 -0.83220013934E+03  0.28274105158E+04  0.27021645311E+04 0.  0.
        5    1    3    3  502    0  0.94830235441E+03  0.39951497377E+03 -0.13321865077E+04  0.16833397015E+04  0.46999998093E+01 0. -1.
       -5    1    3    3    0  502 -0.94830235441E+03 -0.39951497377E+03  0.49998636831E+03  0.11440708143E+04  0.46999998093E+01 0.  1.
</event>
<event>
 5   0  0.4756800E-06  0.2614452E+04  0.7818609E-02  0.8363309E-01
        1   -1    0    0  501    0  0.00000000000E+00  0.00000000000E+00  0.15234364434E+04  0.15234364434E+04  0.50400001928E-02 0. -1.
       -1   -1    0    0    0  501  0.00000000000E+00  0.00000000000E+00 -0.11217003311E+04  0.11217003311E+04  0.50400001928E-02 0.  1.
    10030    2    1    2    0    0  0.00000000000E+00  0.00000000000E+00  0.40173611233E+03  0.26451367745E+04  0.26144515012E+04 0.  0.
        4    1    3    3  502    0 -0.75529881137E+03  0.10607968485E+04  0.85196397280E+02  0.13050004932E+04  0.12699999809E+01 0. -1.
       -4    1    3    3    0  502  0.75529881137E+03 -0.10607968485E+04  0.31653971505E+03  0.13401362813E+04  0.12699999809E+01 0.  1.
</event>
<event>
 5   0  0.4826140E-06  0.2709120E+04  0.7818609E-02  0.8332052E-01
       -1   -1    0    0    0  501  0.00000000000E+00  0.00000000000E+00  0.12743340277E+04  0.12743340277E+04  0.50400001928E-02 0. -1.
        1   -1    0    0  501    0  0.00000000000E+00  0.00000000000E+00 -0.14398369194E+04  0.14398369194E+04  0.50400001928E-02 0.  1.
    10030    2    1    2    0    0  0.00000000000E+00  0.00000000000E+00 -0.16550289178E+03  0.27141709471E+04  0.27091202858E+04 0.  0.
        1    1    3    3  502    0 -0.70669047571E+03  0.54985176504E+03  0.93555124793E+03  0.12949920963E+04  0.50400001928E-02 0. -1.
       -1    1    3    3    0  502  0.70669047571E+03 -0.54985176504E+03 -0.11010541397E+04  0.14191788508E+04  0.50400001928E-02 0.  1.
</event>
<event>
 5   0  0.1261364E-05  0.2704652E+04  0.7818609E-02  0.8333497E-01
       -2   -1    0    0    0  501  0.00000000000E+00  0.00000000000E+00  0.97965241177E+03  0.97965241178E+03  0.25500000920E-02 0. -1.
        2   -1    0    0  501    0  0.00000000000E+00  0.00000000000E+00 -0.18667698662E+04  0.18667698662E+04  0.25500000920E-02 0.  1.
    10030    2    1    2    0    0  0.00000000000E+00  0.00000000000E+00 -0.88711745440E+03  0.28464222780E+04  0.27046519936E+04 0.  0.
        5    1    3    3  502    0  0.60005836201E+03 -0.11952942585E+04 -0.65395034825E+03  0.14887819015E+04  0.46999998093E+01 0. -1.
       -5    1    3    3    0  502 -0.60005836201E+03  0.11952942585E+04 -0.23316710615E+03  0.13576403764E+04  0.46999998093E+01 0.  1.
</event>
<event>
 5   0  0.4756800E-06  0.2704145E+04  0.7818609E-02  0.8333661E-01
        1   -1    0    0  501    0  0.00000000000E+00  0.00000000000E+00  0.11421919800E+04  0.11421919801E+04  0.50400001928E-02 0. -1.
       -1   -1    0    0    0  501  0.00000000000E+00  0.00000000000E+00 -0.16005186411E+04  0.16005186411E+04  0.50400001928E-02 0.  1.
    10030    2    1    2    0    0  0.00000000000E+00  0.00000000000E+00 -0.45832666103E+03  0.27427106211E+04  0.27041446380E+04 0.  0.
        4    1    3    3  502    0 -0.12220212179E+04 -0.19463764837E+03  0.32347280335E+03  0.12790058399E+04  0.12699999809E+01 0. -1.
       -4    1    3    3    0  502  0.12220212179E+04  0.19463764837E+03 -0.78179946438E+03  0.14637047812E+04  0.12699999809E+01 0.  1.
</event>
<event>
 5   0  0.4846214E-06  0.2693008E+04  0.7818609E-02  0.8337277E-01
        1   -1    0    0  501    0  0.00000000000E+00  0.00000000000E+00  0.23661009534E+04  0.23661009534E+04  0.50400001928E-02 0. -1.
       -1   -1    0    0    0  501  0.00000000000E+00  0.00000000000E+00 -0.76627060980E+03  0.76627060982E+03  0.50400001928E-02 0.  1.
    10030    2    1    2    0    0  0.00000000000E+00  0.00000000000E+00  0.15998303436E+04  0.31323715632E+04  0.26930084444E+04 0.  0.
        2    1    3    3  502    0 -0.67354980330E+03  0.56107322052E+03 -0.38889031768E+03  0.95901416856E+03  0.25500000920E-02 0.  1.
       -2    1    3    3    0  502  0.67354980330E+03 -0.56107322052E+03  0.19887206612E+04  0.21733573946E+04  0.25500000920E-02 0. -1.
</event>
<event>
 5   0  0.1232559E-05  0.2694421E+04  0.7818609E-02  0.8336817E-01
        2   -1    0    0  501    0  0.00000000000E+00  0.00000000000E+00  0.17606407059E+04  0.17606407059E+04  0.25500000920E-02 0. -1.
       -2   -1    0    0    0  501  0.00000000000E+00  0.00000000000E+00 -0.10308610624E+04  0.10308610624E+04  0.25500000920E-02 0.  1.
    10030    2    1    2    0    0  0.00000000000E+00  0.00000000000E+00  0.72977964354E+03  0.27915017683E+04  0.26944208644E+04 0.  0.
        3    1    3    3  502    0  0.96452440623E+03 -0.63910702078E+03  0.10798339535E+04  0.15826580463E+04  0.10100000352E+00 0. -1.
       -3    1    3    3    0  502 -0.96452440623E+03  0.63910702078E+03 -0.35005430992E+03  0.12088437220E+04  0.10100000352E+00 0.  1.
</event>
<event>
 5   0  0.1232559E-05  0.2746979E+04  0.7818609E-02  0.8319921E-01
        2   -1    0    0  501    0  0.00000000000E+00  0.00000000000E+00  0.23792842662E+04  0.23792842662E+04  0.25500000920E-02 0. -1.
       -2   -1    0    0    0  501  0.00000000000E+00  0.00000000000E+00 -0.79287411786E+03  0.79287411786E+03  0.25500000920E-02 0.  1.
    10030    2    1    2    0    0  0.00000000000E+00  0.00000000000E+00  0.15864101484E+04  0.31721583841E+04  0.27469786412E+04 0.  0.
        3    1    3    3  502    0  0.65110736054E+03  0.10488705717E+04  0.14883818461E+04  0.19337401069E+04  0.10100000352E+00 0.  1.
       -3    1    3    3    0  502 -0.65110736054E+03 -0.10488705717E+04  0.98028302262E+02  0.12384182772E+04  0.10100000352E+00 0. -1.
</event>
<event>
 5   0  0.4824715E-06  0.2261308E+04  0.7818609E-02  0.8493335E-01
       -1   -1    0    0    0  501  0.00000000000E+00  0.00000000000E+00  0.95968076623E+03  0.95968076625E+03  0.50400001928E-02 0. -1.
        1   -1    0    0  501    0  0.00000000000E+00  0.00000000000E+00 -0.13320872426E+04  0.13320872426E+04  0.50400001928E-02 0.  1.
    10030    2    1    2    0    0  0.00000000000E+00  0.00000000000E+00 -0.37240647636E+03  0.22917680089E+04  0.22613080336E+04 0.  0.
        5    1    3    3  502    0 -0.35302717405E+03  0.68265126855E+03  0.65425342724E+03  0.10093119325E+04  0.46999998093E+01 0. -1.
       -5    1    3    3    0  502  0.35302717405E+03 -0.68265126855E+03 -0.10266599036E+04  0.12824560763E+04  0.46999998093E+01 0.  1.
</event>
<event>
 5   0  0.1261364E-05  0.2326292E+04  0.7818609E-02  0.8467626E-01
        2   -1    0    0  501    0  0.00000000000E+00  0.00000000000E+00  0.15838676467E+04  0.15838676467E+04  0.25500000920E-02 0. -1.
       -2   -1    0    0    0  501  0.00000000000E+00  0.00000000000E+00 -0.85418050499E+03  0.85418050499E+03  0.25500000920E-02 0.  1.
    10030    2    1    2    0    0  0.00000000000E+00  0.00000000000E+00  0.72968714168E+03  0.24380481517E+04  0.23262922140E+04 0.  0.
        5    1    3    3  502    0  0.42607076925E+03 -0.10423932904E+04  0.66997761151E+03  0.13103481072E+04  0.46999998093E+01 0.  1.
       -5    1    3    3    0  502 -0.42607076925E+03  0.10423932904E+04  0.59709530168E+02  0.11277000444E+04  0.46999998093E+01 0. -1.
</event>
<event>
 5   0  0.1232559E-05  0.2696497E+04  0.7818609E-02  0.8336143E-01
       -2   -1    0    0    0  501  0.00000000000E+00  0.00000000000E+00  0.11136933618E+04  0.11136933618E+04  0.25500000920E-02 0.  1.
        2   -1    0    0  501    0  0.00000000000E+00  0.00000000000E+00 -0.16322031402E+04  0.16322031402E+04  0.25500000920E-02 0. -1.
    10030    2    1    2    0    0  0.00000000000E+00  0.00000000000E+00 -0.51850977836E+03  0.27458965020E+04  0.26964968403E+04 0.  0.
        3    1    3    3  502    0 -0.96992335271E+02  0.56829905360E+03 -0.15003535821E+04  0.16073058853E+04  0.10100000352E+00 0. -1.
       -3    1    3    3    0  502  0.96992335271E+02 -0.56829905360E+03  0.98184380371E+03  0.11385906167E+04  0.10100000352E+00 0.  1.
</event>
<event>
 5   0  0.5152288E-06  0.2671741E+04  0.7818609E-02  0.8344233E-01
       -1   -1    0    0    0  501  0.00000000000E+00  0.00000000000E+00  0.81209693267E+03  0.81209693269E+03  0.50400001928E-02 0.  1.
        1   -1    0    0  501    0  0.00000000000E+00  0.00000000000E+00 -0.21974593361E+04  0.21974593361E+04  0.50400001928E-02 0. -1.
    10030    2    1    2    0    0  0.00000000000E+00  0.00000000000E+00 -0.13853624034E+04  0.30095562688E+04  0.26717409953E+04 0.  0.
        3    1    3    3  502    0 -0.52799821865E+03 -0.42206035368E+03 -0.19905987934E+04  0.21022370531E+04  0.10100000352E+00 0. -1.
       -3    1    3    3    0  502  0.52799821865E+03  0.42206035368E+03  0.60523639002E+03  0.90731921563E+03  0.10100000352E+00 0.  1.
</event>
<event>
 5   0  0.5152288E-06  0.2721205E+04  0.7818609E-02  0.8328157E-01
       -1   -1    0    0    0  501  0.00000000000E+00  0.00000000000E+00  0.84862498043E+03  0.84862498045E+03  0.50400001928E-02 0.  1.
        1   -1    0    0  501    0  0.00000000000E+00  0.00000000000E+00 -0.21814572303E+04  0.21814572303E+04  0.50400001928E-02 0. -1.
    10030    2    1    2    0    0  0.00000000000E+00  0.00000000000E+00 -0.13328322498E+04  0.30300822107E+04  0.27212049532E+04 0.  0.
        3    1    3    3  502    0  0.73966756564E+03  0.38662122476E+03  0.53010199825E+03  0.98873263214E+03  0.10100000352E+00 0.  1.
       -3    1    3    3    0  502 -0.73966756564E+03 -0.38662122476E+03 -0.18629342481E+04  0.20413495786E+04  0.10100000352E+00 0. -1.
</event>
<event>
 5   0  0.4756800E-06  0.2428099E+04  0.7818609E-02  0.8429058E-01
        1   -1    0    0  501    0  0.00000000000E+00  0.00000000000E+00  0.20157710841E+04  0.20157710841E+04  0.50400001928E-02 0.  1.
       -1   -1    0    0    0  501  0.00000000000E+00  0.00000000000E+00 -0.73119204117E+03  0.73119204118E+03  0.50400001928E-02 0. -1.
    10030    2    1    2    0    0  0.00000000000E+00  0.00000000000E+00  0.12845790429E+04  0.27469631253E+04  0.24280986582E+04 0.  0.
        4    1    3    3  502    0  0.53974851087E+03 -0.88157277204E+03 -0.78048749806E+02  0.10366254037E+04  0.12699999809E+01 0. -1.
       -4    1    3    3    0  502 -0.53974851087E+03  0.88157277204E+03  0.13626277927E+04  0.17103377216E+04  0.12699999809E+01 0.  1.
</event>
<event>
 5   0  0.1276517E-05  0.2688859E+04  0.7818609E-02  0.8338629E-01
        2   -1    0    0  501    0  0.00000000000E+00  0.00000000000E+00  0.21052352953E+04  0.21052352953E+04  0.25500000920E-02 0. -1.
       -2   -1    0    0    0  501  0.00000000000E+00  0.00000000000E+00 -0.85856935219E+03  0.85856935220E+03  0.25500000920E-02 0.  1.
    10030    2    1    2    0    0  0.00000000000E+00  0.00000000000E+00  0.12466659431E+04  0.29638046475E+04  0.26888588685E+04 0.  0.
        1    1    3    3  502    0 -0.95400301418E+03 -0.94071515191E+03  0.50047367734E+03  0.14302239859E+04  0.50400001928E-02 0. -1.
       -1    1    3    3    0  502  0.95400301418E+03  0.94071515191E+03  0.74619226575E+03  0.15335806616E+04  0.50400001928E-02 0.  1.
</event>
<event>
 5   0  0.4188000E-06  0.2691257E+04  0.7818609E-02  0.8337847E-01
        4   -1    0    0  501    0  0.00000000000E+00  0.00000000000E+00  0.11708823365E+04  0.11708830252E+04  0.12699999809E+01 0.  1.
       -4   -1    0    0    0  501  0.00000000000E+00  0.00000000000E+00 -0.15464526040E+04  0.15464531255E+04  0.12699999809E+01 0. -1.
    10030    2    1    2    0    0  0.00000000000E+00  0.00000000000E+00 -0.37557026755E+03  0.27173361507E+04  0.26912567195E+04 0.  0.
        3    1    3    3  502    0 -0.26228821623E+03 -0.66660267548E+03  0.96235882974E+03  0.11997036145E+04  0.10100000352E+00 0.  1.
       -3    1    3    3    0  502  0.26228821623E+03  0.66660267548E+03 -0.13379290973E+04  0.15176325362E+04  0.10100000352E+00 0. -1.
</event>
<event>
 5   0  0.1220908E-05  0.2708664E+04  0.7818609E-02  0.8332199E-01
       -2   -1    0    0    0  501  0.00000000000E+00  0.00000000000E+00  0.83931875020E+03  0.83931875020E+03  0.25500000920E-02 0. -1.
        2   -1    0    0  501    0  0.00000000000E+00  0.00000000000E+00 -0.21853618234E+04  0.21853618234E+04  0.25500000920E-02 0.  1.
    10030    2    1    2    0    0  0.00000000000E+00  0.00000000000E+00 -0.13460430732E+04  0.30246805736E+04  0.27086639913E+04 0.  0.
        2    1    3    3  502    0  0.84472269739E+03 -0.74824364916E+03 -0.15092492862E+04  0.18844782837E+04  0.25500000920E-02 0.  1.
       -2    1    3    3    0  502 -0.84472269739E+03  0.74824364916E+03  0.16320621293E+03  0.11402022899E+04  0.25500000920E-02 0. -1.
</event>
<event>
 5   0  0.1232559E-05  0.2618253E+04  0.7818609E-02  0.8362027E-01
       -2   -1    0    0    0  501  0.00000000000E+00  0.00000000000E+00  0.20574793013E+04  0.20574793013E+04  0.25500000920E-02 0.  1.
        2   -1    0    0  501    0  0.00000000000E+00  0.00000000000E+00 -0.83296709611E+03  0.83296709612E+03  0.25500000920E-02 0. -1.
    10030    2    1    2    0    0  0.00000000000E+00  0.00000000000E+00  0.12245122052E+04  0.28904463974E+04  0.26182532795E+04 0.  0.
        3    1    3    3  502    0  0.13492720923E+03 -0.10199569268E+04  0.15059148531E+04  0.18238138718E+04  0.10100000352E+00 0.  1.
       -3    1    3    3    0  502 -0.13492720923E+03  0.10199569268E+04 -0.28140264786E+03  0.10666325256E+04  0.10100000352E+00 0. -1.
</event>
<event>
 5   0  0.4756800E-06  0.2694486E+04  0.7818609E-02  0.8336796E-01
        1   -1    0    0  501    0  0.00000000000E+00  0.00000000000E+00  0.13921507057E+04  0.13921507057E+04  0.50400001928E-02 0. -1.
       -1   -1    0    0    0  501  0.00000000000E+00  0.00000000000E+00 -0.13037838847E+04  0.13037838847E+04  0.50400001928E-02 0.  1.
    10030    2    1    2    0    0  0.00000000000E+00  0.00000000000E+00  0.88366820975E+02  0.26959345904E+04  0.26944859659E+04 0.  0.
        4    1    3    3  502    0 -0.95751693727E+03 -0.72788188893E+03 -0.56311186695E+03  0.13280614884E+04  0.12699999809E+01 0.  1.
       -4    1    3    3    0  502  0.95751693727E+03  0.72788188893E+03  0.65147868793E+03  0.13678731020E+04  0.12699999809E+01 0. -1.
</event>
<event>
 5   0  0.4826140E-06  0.2713147E+04  0.7818609E-02  0.8330752E-01
        1   -1    0    0  501    0  0.00000000000E+00  0.00000000000E+00  0.16789671874E+04  0.16789671874E+04  0.50400001928E-02 0.  1.
       -1   -1    0    0    0  501  0.00000000000E+00  0.00000000000E+00 -0.10960855744E+04  0.10960855744E+04  0.50400001928E-02 0. -1.
    10030    2    1    2    0    0  0.00000000000E+00  0.00000000000E+00  0.58288161300E+03  0.27750527618E+04  0.27131470391E+04 0.  0.
        1    1    3    3  502    0 -0.14062008699E+03 -0.90829720516E+03  0.13119609376E+04  0.16018799342E+04  0.50400001928E-02 0.  1.
       -1    1    3    3    0  502  0.14062008699E+03  0.90829720516E+03 -0.72907932461E+03  0.11731728276E+04  0.50400001928E-02 0. -1.
</event>
<event>
 5   0  0.1232559E-05  0.2868331E+04  0.7818609E-02  0.8282363E-01
       -2   -1    0    0    0  501  0.00000000000E+00  0.00000000000E+00  0.10851868681E+04  0.10851868681E+04  0.25500000920E-02 0.  1.
        2   -1    0    0  501    0  0.00000000000E+00  0.00000000000E+00 -0.18953704713E+04  0.18953704713E+04  0.25500000920E-02 0. -1.
    10030    2    1    2    0    0  0.00000000000E+00  0.00000000000E+00 -0.81018360323E+03  0.29805573394E+04  0.28683313237E+04 0.  0.
        3    1    3    3  502    0  0.10435366007E+03  0.22479485772E+03 -0.18729499852E+04  0.18892760708E+04  0.10100000352E+00 0. -1.
       -3    1    3    3    0  502 -0.10435366007E+03 -0.22479485772E+03  0.10627663820E+04  0.10912812686E+04  0.10100000352E+00 0.  1.
</event>
<event>
 5   0  0.1261364E-05  0.2693440E+04  0.7818609E-02  0.8337137E-01
       -2   -1    0    0    0  501  0.00000000000E+00  0.00000000000E+00  0.21091899059E+04  0.21091899059E+04  0.25500000920E-02 0.  1.
        2   -1    0    0  501    0  0.00000000000E+00  0.00000000000E+00 -0.85988193498E+03  0.85988193498E+03  0.25500000920E-02 0. -1.
    10030    2    1    2    0    0  0.00000000000E+00  0.00000000000E+00  0.12493079710E+04  0.29690718409E+04  0.26934396578E+04 0.  0.
        5    1    3    3  502    0  0.86447123350E+03 -0.97365821091E+03  0.24549031382E+03  0.13249937394E+04  0.46999998093E+01 0. -1.
       -5    1    3    3    0  502 -0.86447123350E+03  0.97365821091E+03  0.10038176571E+04  0.16440781016E+04  0.46999998093E+01 0.  1.
</event>
<event>
 5   0  0.5152288E-06  0.2641803E+04  0.7818609E-02  0.8354139E-01
       -1   -1    0    0    0  501  0.00000000000E+00  0.00000000000E+00  0.14974095979E+04  0.14974095979E+04  0.50400001928E-02 0.  1.
        1   -1    0    0  501    0  0.00000000000E+00  0.00000000000E+00 -0.11651992310E+04  0.11651992311E+04  0.50400001928E-02 0. -1.
    10030    2    1    2    0    0  0.00000000000E+00  0.00000000000E+00  0.33221036689E+03  0.26626088290E+04  0.26418028027E+04 0.  0.
        3    1    3    3  502    0 -0.78756228754E+03 -0.10247122047E+04 -0.10897480513E+03  0.12969830290E+04  0.10100000352E+00 0. -1.
       -3    1    3    3    0  502  0.78756228754E+03  0.10247122047E+04  0.44118517202E+03  0.13656258000E+04  0.10100000352E+00 0.  1.
</event>
<event>
 5   0  0.4756800E-06  0.2697765E+04  0.7818609E-02  0.8335730E-01
       -1   -1    0    0    0  501  0.00000000000E+00  0.00000000000E+00  0.12475290899E+04  0.12475290899E+04  0.50400001928E-02 0. -1.
        1   -1    0    0  501    0  0.00000000000E+00  0.00000000000E+00 -0.14584706220E+04  0.14584706220E+04  0.50400001928E-02 0.  1.
    10030    2    1    2    0    0  0.00000000000E+00  0.00000000000E+00 -0.21094153206E+03  0.27059997119E+04  0.26977653921E+04 0.  0.
        4    1    3    3  502    0 -0.12734297921E+04 -0.42978943259E+03  0.95112431676E+01  0.13440366321E+04  0.12699999809E+01 0.  1.
       -4    1    3    3    0  502  0.12734297921E+04  0.42978943259E+03 -0.22045277523E+03  0.13619630798E+04  0.12699999809E+01 0. -1.
</event>
<event>
 5   0  0.4846214E-06  0.2700720E+04  0.7818609E-02  0.8334771E-01
       -1   -1    0    0    0  501  0.00000000000E+00  0.00000000000E+00  0.11726397053E+04  0.11726397053E+04  0.50400001928E-02 0.  1.
        1   -1    0    0  501    0  0.00000000000E+00  0.00000000000E+00 -0.15550151291E+04  0.15550151291E+04  0.50400001928E-02 0. -1.
    10030    2    1    2    0    0  0.00000000000E+00  0.00000000000E+00 -0.38237542380E+03  0.27276548344E+04  0.27007202615E+04 0.  0.
        2    1    3    3  502    0 -0.25250069542E+03 -0.12353910184E+03  0.11427623372E+04  0.11768280546E+04  0.25500000920E-02 0.  1.
       -2    1    3    3    0  502  0.25250069542E+03  0.12353910184E+03 -0.15251377610E+04  0.15508267798E+04  0.25500000920E-02 0. -1.
</event>
<event>
 5   0  0.1286641E-05  0.2663220E+04  0.7818609E-02  0.8347038E-01
        2   -1    0    0  501    0  0.00000000000E+00  0.00000000000E+00  0.15865625898E+04  0.15865625898E+04  0.25500000920E-02 0. -1.
       -2   -1    0    0    0  501  0.00000000000E+00  0.00000000000E+00 -0.11176271737E+04  0.11176271737E+04  0.25500000920E-02 0.  1.
    10030    2    1    2    0    0  0.00000000000E+00  0.00000000000E+00  0.46893541609E+03  0.27041897636E+04  0.26632202036E+04 0.  0.
        4    1    3    3  502    0 -0.55863880462E+03  0.11783088345E+04  0.50823517710E+03  0.13995690878E+04  0.12699999809E+01 0. -1.
       -4    1    3    3    0  502  0.55863880462E+03 -0.11783088345E+04 -0.39299761009E+02  0.13046206757E+04  0.12699999809E+01 0.  1.
</event>
<event>
 5   0  0.4824715E-06  0.2664355E+04  0.7818609E-02  0.8346664E-01
        1   -1    0    0  501    0  0.00000000000E+00  0.00000000000E+00  0.20642273293E+04  0.20642273293E+04  0.50400001928E-02 0. -1.
       -1   -1    0    0    0  501  0.00000000000E+00  0.00000000000E+00 -0.85973906887E+03  0.85973906889E+03  0.50400001928E-02 0.  1.
    10030    2    1    2    0    0  0.00000000000E+00  0.00000000000E+00  0.12044882604E+04  0.29239663982E+04  0.26643549929E+04 0.  0.
        5    1    3    3  502    0  0.37600626360E+03  0.97402240295E+03  0.15102541243E+04  0.18360255885E+04  0.46999998093E+01 0. -1.
       -5    1    3    3    0  502 -0.37600626360E+03 -0.97402240295E+03 -0.30576586392E+03  0.10879408096E+04  0.46999998093E+01 0.  1.
</event>
<event>
 5   0  0.1261364E-05  0.2697430E+04  0.7818609E-02  0.8335839E-01
        2   -1    0    0  501    0  0.00000000000E+00  0.00000000000E+00  0.21976380519E+04  0.21976380519E+04  0.25500000920E-02 0.  1.
       -2   -1    0    0    0  501  0.00000000000E+00  0.00000000000E+00 -0.82772154318E+03  0.82772154318E+03  0.25500000920E-02 0. -1.
    10030    2    1    2    0    0  0.00000000000E+00  0.00000000000E+00  0.13699165087E+04  0.30253595951E+04  0.26974301546E+04 0.  0.
        5    1    3    3  502    0  0.38301209802E+03 -0.65228110845E+03 -0.56741099088E+03  0.94559305954E+03  0.46999998093E+01 0. -1.
       -5    1    3    3    0  502 -0.38301209802E+03  0.65228110845E+03  0.19373274996E+04  0.20797665356E+04  0.46999998093E+01 0.  1.
</event>
<event>
 5   0  0.4846214E-06  0.2693619E+04  0.7818609E-02  0.8337078E-01
        1   -1    0    0  501    0  0.00000000000E+00  0.00000000000E+00  0.15354037828E+04  0.15354037828E+04  0.50400001928E-02 0. -1.
       -1   -1    0    0    0  501  0.00000000000E+00  0.00000000000E+00 -0.11813799345E+04  0.11813799345E+04  0.50400001928E-02 0.  1.
    10030    2    1    2    0    0  0.00000000000E+00  0.00000000000E+00  0.35402384823E+03  0.27167837173E+04  0.26936185479E+04 0.  0.
        2    1    3    3  502    0 -0.60099486649E+02 -0.79061299279E+02  0.15317057778E+04  0.15349218961E+04  0.25500000920E-02 0. -1.
       -2    1    3    3    0  502  0.60099486649E+02  0.79061299279E+02 -0.11776819295E+04  0.11818618212E+04  0.25500000920E-02 0.  1.
</event>
<event>
 5   0  0.1276517E-05  0.2658875E+04  0.7818609E-02  0.8348473E-01
        2   -1    0    0  501    0  0.00000000000E+00  0.00000000000E+00  0.15591372811E+04  0.15591372811E+04  0.25500000920E-02 0. -1.
       -2   -1    0    0    0  501  0.00000000000E+00  0.00000000000E+00 -0.11335778462E+04  0.11335778462E+04  0.25500000920E-02 0.  1.
    10030    2    1    2    0    0  0.00000000000E+00  0.00000000000E+00  0.42555943490E+03  0.26927151273E+04  0.26588745597E+04 0.  0.
        1    1    3    3  502    0 -0.50312725175E+03 -0.10064383930E+04 -0.50429150898E+03  0.12330308984E+04  0.50400001928E-02 0.  1.
       -1    1    3    3    0  502  0.50312725175E+03  0.10064383930E+04  0.92985094389E+03  0.14596842289E+04  0.50400001928E-02 0. -1.
</event>
<event>
 5   0  0.4824715E-06  0.2700578E+04  0.7818609E-02  0.8334817E-01
       -1   -1    0    0    0  501  0.00000000000E+00  0.00000000000E+00  0.12726886649E+04  0.12726886649E+04  0.50400001928E-02 0.  1.
        1   -1    0    0  501    0  0.00000000000E+00  0.00000000000E+00 -0.14326208262E+04  0.14326208262E+04  0.50400001928E-02 0. -1.
    10030    2    1    2    0    0  0.00000000000E+00  0.00000000000E+00 -0.15993216131E+03  0.27053094911E+04  0.27005779282E+04 0.  0.
        5    1    3    3  502    0  0.41714819220E+02  0.13481214276E+04 -0.14400528350E+03  0.13564406074E+04  0.46999998093E+01 0. -1.
       -5    1    3    3    0  502 -0.41714819220E+02 -0.13481214276E+04 -0.15926877813E+02  0.13488688836E+04  0.46999998093E+01 0.  1.
</event>
<event>
 5   0  0.4846214E-06  0.2699590E+04  0.7818609E-02  0.8335138E-01
        1   -1    0    0  501    0  0.00000000000E+00  0.00000000000E+00  0.10792593638E+04  0.10792593638E+04  0.50400001928E-02 0.  1.
       -1   -1    0    0    0  501  0.00000000000E+00  0.00000000000E+00 -0.16881453195E+04  0.16881453195E+04  0.50400001928E-02 0. -1.
    10030    2    1    2    0    0  0.00000000000E+00  0.00000000000E+00 -0.60888595574E+03  0.27674046833E+04  0.26995900752E+04 0.  0.
        2    1    3    3  502    0 -0.63891660380E+03  0.70507521999E+03  0.67699994544E+03  0.11677647103E+04  0.25500000920E-02 0.  1.
       -2    1    3    3    0  502  0.63891660380E+03 -0.70507521999E+03 -0.12858859012E+04  0.15996399730E+04  0.25500000920E-02 0. -1.
</event>
<event>
 5   0  0.1220908E-05  0.2771932E+04  0.7818609E-02  0.8312036E-01
       -2   -1    0    0    0  501  0.00000000000E+00  0.00000000000E+00  0.89242887096E+03  0.89242887096E+03  0.25500000920E-02 0.  1.
        2   -1    0    0  501    0  0.00000000000E+00  0.00000000000E+00 -0.21524420259E+04  0.21524420259E+04  0.25500000920E-02 0. -1.
    10030    2    1    2    0    0  0.00000000000E+00  0.00000000000E+00 -0.12600131550E+04  0.30448708969E+04  0.27719317502E+04 0.  0.
        2    1    3    3  502    0  0.20283842667E+02  0.13790659706E+04 -0.47992621716E+03  0.14603299488E+04  0.25500000920E-02 0. -1.
       -2    1    3    3    0  502 -0.20283842667E+02 -0.13790659706E+04 -0.78008693780E+03  0.15845409481E+04  0.25500000920E-02 0.  1.
</event>
<event>
 5   0  0.1220908E-05  0.2701263E+04  0.7818609E-02  0.8334595E-01
        2   -1    0    0  501    0  0.00000000000E+00  0.00000000000E+00  0.16196867857E+04  0.16196867857E+04  0.25500000920E-02 0. -1.
       -2   -1    0    0    0  501  0.00000000000E+00  0.00000000000E+00 -0.11262701629E+04  0.11262701629E+04  0.25500000920E-02 0.  1.
    10030    2    1    2    0    0  0.00000000000E+00  0.00000000000E+00  0.49341662284E+03  0.27459569486E+04  0.27012625936E+04 0.  0.
        2    1    3    3  502    0 -0.93573753463E+03  0.54609589233E+03 -0.57309623437E+03  0.12256691035E+04  0.25500000920E-02 0.  1.
       -2    1    3    3    0  502  0.93573753463E+03 -0.54609589233E+03  0.10665128572E+04  0.15202878451E+04  0.25500000920E-02 0. -1.
</event>
<event>
 5   0  0.1286641E-05  0.2700074E+04  0.7818609E-02  0.8334981E-01
       -2   -1    0    0    0  501  0.00000000000E+00  0.00000000000E+00  0.95927913859E+03  0.95927913860E+03  0.25500000920E-02 0. -1.
        2   -1    0    0  501    0  0.00000000000E+00  0.00000000000E+00 -0.18999686560E+04  0.18999686560E+04  0.25500000920E-02 0.  1.
    10030    2    1    2    0    0  0.00000000000E+00  0.00000000000E+00 -0.94068951744E+03  0.28592477946E+04  0.27000742921E+04 0.  0.
        4    1    3    3  502    0  0.20708053657E+03 -0.12182397966E+04  0.10540566938E+03  0.12402026120E+04  0.12699999809E+01 0. -1.
       -4    1    3    3    0  502 -0.20708053657E+03  0.12182397966E+04 -0.10460951868E+04  0.16190451827E+04  0.12699999809E+01 0.  1.
</event>
<event>
 5   0  0.1220908E-05  0.2701013E+04  0.7818609E-02  0.8334676E-01
       -2   -1    0    0    0  501  0.00000000000E+00  0.00000000000E+00  0.89414658576E+03  0.89414658576E+03  0.25500000920E-02 0.  1.
        2   -1    0    0  501    0  0.00000000000E+00  0.00000000000E+00 -0.20397857907E+04  0.20397857907E+04  0.25500000920E-02 0. -1.
    10030    2    1    2    0    0  0.00000000000E+00  0.00000000000E+00 -0.11456392049E+04  0.29339323765E+04  0.27010127733E+04 0.  0.
        2    1    3    3  502    0  0.47487917386E+03  0.29149475205E+03 -0.19091031341E+04  0.19887569476E+04  0.25500000920E-02 0. -1.
       -2    1    3    3    0  502 -0.47487917386E+03 -0.29149475205E+03  0.76346392911E+03  0.94517542885E+03  0.25500000920E-02 0.  1.
</event>
<event>
 5   0  0.1220908E-05  0.2699606E+04  0.7818609E-02  0.8335133E-01
        2   -1    0    0  501    0  0.00000000000E+00  0.00000000000E+00  0.29348976069E+04  0.29348976069E+04  0.25500000920E-02 0. -1.
       -2   -1    0    0    0  501  0.00000000000E+00  0.00000000000E+00 -0.62079428298E+03  0.62079428298E+03  0.25500000920E-02 0.  1.
    10030    2    1    2    0    0  0.00000000000E+00  0.00000000000E+00  0.23141033239E+04  0.35556918899E+04  0.26996056419E+04 0.  0.
        2    1    3    3  502    0 -0.77008262769E+03  0.11073082078E+04  0.10872453586E+04  0.17324148436E+04  0.25500000920E-02 0.  1.
       -2    1    3    3    0  502  0.77008262769E+03 -0.11073082078E+04  0.12268579653E+04  0.18232770463E+04  0.25500000920E-02 0. -1.
</event>
<event>
 5   0  0.1232559E-05  0.2707284E+04  0.7818609E-02  0.8332645E-01
       -2   -1    0    0    0  501  0.00000000000E+00  0.00000000000E+00  0.99923652476E+03  0.99923652476E+03  0.25500000920E-02 0.  1.
        2   -1    0    0  501    0  0.00000000000E+00  0.00000000000E+00 -0.18337466295E+04  0.18337466295E+04  0.25500000920E-02 0. -1.
    10030    2    1    2    0    0  0.00000000000E+00  0.00000000000E+00 -0.83451010472E+03  0.28329831542E+04  0.27072839595E+04 0.  0.
        3    1    3    3  502    0 -0.33524199551E+03  0.32743676324E+03 -0.17461571168E+04  0.18079454406E+04  0.10100000352E+00 0. -1.
       -3    1    3    3    0  502  0.33524199551E+03 -0.32743676324E+03  0.91164701210E+03  0.10250377136E+04  0.10100000352E+00 0.  1.
</event>
<event>
 5   0  0.4756800E-06  0.2269064E+04  0.7818609E-02  0.8490220E-01
        1   -1    0    0  501    0  0.00000000000E+00  0.00000000000E+00  0.20664474400E+04  0.20664474400E+04  0.50400001928E-02 0. -1.
       -1   -1    0    0    0  501  0.00000000000E+00  0.00000000000E+00 -0.62288664715E+03  0.62288664717E+03  0.50400001928E-02 0.  1.
    10030    2    1    2    0    0  0.00000000000E+00  0.00000000000E+00  0.14435607929E+04  0.26893340872E+04  0.22690636989E+04 0.  0.
        4    1    3    3  502    0  0.72318021065E+03  0.17123376988E+03  0.17377892717E+04  0.18900327475E+04  0.12699999809E+01 0. -1.
       -4    1    3    3    0  502 -0.72318021065E+03 -0.17123376988E+03 -0.29422847879E+03  0.79930133970E+03  0.12699999809E+01 0.  1.
</event>
<event>
 5   0  0.4826140E-06  0.2711313E+04  0.7818609E-02  0.8331344E-01
        1   -1    0    0  501    0  0.00000000000E+00  0.00000000000E+00  0.15935234185E+04  0.15935234185E+04  0.50400001928E-02 0. -1.
       -1   -1    0    0    0  501  0.00000000000E+00  0.00000000000E+00 -0.11532963321E+04  0.11532963322E+04  0.50400001928E-02 0.  1.
    10030    2    1    2    0    0  0.00000000000E+00  0.00000000000E+00  0.44022708637E+03  0.27468197507E+04  0.27113131238E+04 0.  0.
        1    1    3    3  502    0 -0.90499916952E+03 -0.66797555438E+03  0.98671972604E+03  0.14962722533E+04  0.50400001928E-02 0. -1.
       -1    1    3    3    0  502  0.90499916952E+03  0.66797555438E+03 -0.54649263967E+03  0.12505474974E+04  0.50400001928E-02 0.  1.
</event>
<event>
 5   0  0.5152288E-06  0.2476683E+04  0.7818609E-02  0.8411340E-01
       -1   -1    0    0    0  501  0.00000000000E+00  0.00000000000E+00  0.75532244199E+03  0.75532244201E+03  0.50400001928E-02 0. -1.
        1   -1    0    0  501    0  0.00000000000E+00  0.00000000000E+00 -0.20302443455E+04  0.20302443455E+04  0.50400001928E-02 0.  1.
    10030    2    1    2    0    0  0.00000000000E+00  0.00000000000E+00 -0.12749219035E+04  0.27855667875E+04  0.24766825529E+04 0.  0.
        3    1    3    3  502    0  0.11253275220E+04  0.28005520877E+03 -0.11260286568E+04  0.16163952172E+04  0.10100000352E+00 0.  1.
       -3    1    3    3    0  502 -0.11253275220E+04 -0.28005520877E+03 -0.14889324664E+03  0.11691715703E+04  0.10100000352E+00 0. -1.
</event>
<event>
 5   0  0.4846214E-06  0.2743881E+04  0.7818609E-02  0.8320906E-01
       -1   -1    0    0    0  501  0.00000000000E+00  0.00000000000E+00  0.12256933538E+04  0.12256933538E+04  0.50400001928E-02 0.  1.
        1   -1    0    0  501    0  0.00000000000E+00  0.00000000000E+00 -0.15356380306E+04  0.15356380306E+04  0.50400001928E-02 0. -1.
    10030    2    1    2    0    0  0.00000000000E+00  0.00000000000E+00 -0.30994467677E+03  0.27613313844E+04  0.27438814318E+04 0.  0.
        2    1    3    3  502    0 -0.50790181831E+03 -0.33265809624E+03  0.10831345087E+04  0.12416948216E+04  0.25500000920E-02 0.  1.
       -2    1    3    3    0  502  0.50790181831E+03  0.33265809624E+03 -0.13930791855E+04  0.15196365628E+04  0.25500000920E-02 0. -1.
</event>
<event>
 5   0  0.5152288E-06  0.2847731E+04  0.7818609E-02  0.8288601E-01
        1   -1    0    0  501    0  0.00000000000E+00  0.00000000000E+00  0.23951320594E+04  0.23951320594E+04  0.50400001928E-02 0. -1.
       -1   -1    0    0    0  501  0.00000000000E+00  0.00000000000E+00 -0.84646385315E+03  0.84646385316E+03  0.50400001928E-02 0.  1.
    10030    2    1    2    0    0  0.00000000000E+00  0.00000000000E+00  0.15486682063E+04  0.32415959126E+04  0.28477308243E+04 0.  0.
        3    1    3    3  502    0 -0.24208040505E+03  0.35706291714E+03 -0.77028615833E+03  0.88285764720E+03  0.10100000352E+00 0.  1.
       -3    1    3    3    0  502  0.24208040505E+03 -0.35706291714E+03  0.23189543646E+04  0.23587382654E+04  0.10100000352E+00 0. -1.
</event>
<event>
 5   0  0.1286641E-05  0.2688884E+04  0.7818609E-02  0.8338621E-01
       -2   -1    0    0    0  501  0.00000000000E+00  0.00000000000E+00  0.12059823669E+04  0.12059823669E+04  0.25500000920E-02 0. -1.
        2   -1    0    0  501    0  0.00000000000E+00  0.00000000000E+00 -0.14987983239E+04  0.14987983239E+04  0.25500000920E-02 0.  1.
    10030    2    1    2    0    0  0.00000000000E+00  0.00000000000E+00 -0.29281595705E+03  0.27047806908E+04  0.26888840437E+04 0.  0.
        4    1    3    3  502    0 -0.75066582581E+03 -0.52932047346E+03 -0.11339673632E+04  0.14593022098E+04  0.12699999809E+01 0. -1.
       -4    1    3    3    0  502  0.75066582581E+03  0.52932047346E+03  0.84115140618E+03  0.12454784810E+04  0.12699999809E+01 0.  1.
</event>
<event>
 5   0  0.1286641E-05  0.2718860E+04  0.7818609E-02  0.8328911E-01
        2   -1    0    0  501    0  0.00000000000E+00  0.00000000000E+00  0.16856419518E+04  0.16856419518E+04  0.25500000920E-02 0. -1.
       -2   -1    0    0    0  501  0.00000000000E+00  0.00000000000E+00 -0.10963477502E+04  0.10963477502E+04  0.25500000920E-02 0.  1.
    10030    2    1    2    0    0  0.00000000000E+00  0.00000000000E+00  0.58929420160E+03  0.27819897020E+04  0.27188598798E+04 0.  0.
        4    1    3    3  502    0 -0.34198967093E+03 -0.98833063881E+03  0.11833138893E+04  0.15792364484E+04  0.12699999809E+01 0. -1.
       -4    1    3    3    0  502  0.34198967093E+03  0.98833063881E+03 -0.59401968767E+03  0.12027532535E+04  0.12699999809E+01 0.  1.
</event>
<event>
 5   0  0.1220908E-05  0.2729952E+04  0.7818609E-02  0.8325352E-01
        2   -1    0    0  501    0  0.00000000000E+00  0.00000000000E+00  0.17645343726E+04  0.17645343726E+04  0.25500000920E-02 0.  1.
       -2   -1    0    0    0  501  0.00000000000E+00  0.00000000000E+00 -0.10558926661E+04  0.10558926661E+04  0.25500000920E-02 0. -1.
    10030    2    1    2    0    0  0.00000000000E+00  0.00000000000E+00  0.70864170644E+03  0.28204270387E+04  0.27299515770E+04 0.  0.
        2    1    3    3  502    0  0.37540964714E+03 -0.26283080997E+03 -0.97403854325E+03  0.10764587877E+04  0.25500000920E-02 0. -1.
       -2    1    3    3    0  502 -0.37540964714E+03  0.26283080997E+03  0.16826802497E+04  0.17439682510E+04  0.25500000920E-02 0.  1.
</event>
<event>
 5   0  0.4188000E-06  0.2775157E+04  0.7818609E-02  0.8311023E-01
        3   -1    0    0  501    0  0.00000000000E+00  0.00000000000E+00  0.86512091137E+03  0.86512091727E+03  0.10100000352E+00 0. -1.
       -3   -1    0    0    0  501  0.00000000000E+00  0.00000000000E+00 -0.22255542651E+04  0.22255542674E+04  0.10100000352E+00 0.  1.
    10030    2    1    2    0    0  0.00000000000E+00  0.00000000000E+00 -0.13604333538E+04  0.30906751847E+04  0.27751566059E+04 0.  0.
        4    1    3    3  502    0 -0.12207115847E+04 -0.61162498095E+03 -0.40481647498E+03  0.14241137180E+04  0.12699999809E+01 0. -1.
       -4    1    3    3    0  502  0.12207115847E+04  0.61162498095E+03 -0.95561687878E+03  0.16665614667E+04  0.12699999809E+01 0.  1.
</event>
<event>
 5   0  0.4756800E-06  0.2701170E+04  0.7818609E-02  0.8334626E-01
       -1   -1    0    0    0  501  0.00000000000E+00  0.00000000000E+00  0.86167845345E+03  0.86167845346E+03  0.50400001928E-02 0. -1.
        1   -1    0    0  501    0  0.00000000000E+00  0.00000000000E+00 -0.21168909575E+04  0.21168909575E+04  0.50400001928E-02 0.  1.
    10030    2    1    2    0    0  0.00000000000E+00  0.00000000000E+00 -0.12552125040E+04  0.29785694109E+04  0.27011696181E+04 0.  0.
        4    1    3    3  502    0  0.27776218226E+03 -0.12116644216E+04 -0.45370961925E+02  0.12439222796E+04  0.12699999809E+01 0. -1.
       -4    1    3    3    0  502 -0.27776218226E+03  0.12116644216E+04 -0.12098415421E+04  0.17346471314E+04  0.12699999809E+01 0.  1.
</event>
<event>
 5   0  0.5152288E-06  0.2683060E+04  0.7818609E-02  0.8340522E-01
        1   -1    0    0  501    0  0.00000000000E+00  0.00000000000E+00  0.19673783191E+04  0.19673783191E+04  0.50400001928E-02 0.  1.
       -1   -1    0    0    0  501  0.00000000000E+00  0.00000000000E+00 -0.91477238925E+03  0.91477238926E+03  0.50400001928E-02 0. -1.
    10030    2    1    2    0    0  0.00000000000E+00  0.00000000000E+00  0.10526059298E+04  0.28821507083E+04  0.26830604656E+04 0.  0.
        3    1    3    3  502    0  0.18268541926E+03  0.12176109601E+04  0.10985142433E+04  0.16500557461E+04  0.10100000352E+00 0.  1.
       -3    1    3    3    0  502 -0.18268541926E+03 -0.12176109601E+04 -0.45908313431E+02  0.12320949622E+04  0.10100000352E+00 0. -1.
</event>
<event>
 5   0  0.4756800E-06  0.2691742E+04  0.7818609E-02  0.8337689E-01
        1   -1    0    0  501    0  0.00000000000E+00  0.00000000000E+00  0.25039497870E+04  0.25039497870E+04  0.50400001928E-02 0.  1.
       -1   -1    0    0    0  501  0.00000000000E+00  0.00000000000E+00 -0.72340481404E+03  0.72340481406E+03  0.50400001928E-02 0. -1.
    10030    2    1    2    0    0  0.00000000000E+00  0.00000000000E+00  0.17805449730E+04  0.32273546011E+04  0.26917424320E+04 0.  0.
        4    1    3    3  502    0  0.64681131854E+03 -0.13415387902E+03 -0.51566306809E+03  0.83801680039E+03  0.12699999809E+01 0. -1.
       -4    1    3    3    0  502 -0.64681131854E+03  0.13415387902E+03  0.22962080410E+04  0.23893378007E+04  0.12699999809E+01 0.  1.
</event>
<event>
 5   0  0.4756800E-06  0.2620728E+04  0.7818609E-02  0.8361194E-01
       -1   -1    0    0    0  501  0.00000000000E+00  0.00000000000E+00  0.76729316808E+03  0.76729316810E+03  0.50400001928E-02 0.  1.
        1   -1    0    0  501    0  0.00000000000E+00  0.00000000000E+00 -0.22378060959E+04  0.22378060959E+04  0.50400001928E-02 0. -1.
    10030    2    1    2    0    0  0.00000000000E+00  0.00000000000E+00 -0.14705129278E+04  0.30050992640E+04  0.26207276309E+04 0.  0.
        4    1    3    3  502    0  0.89885036729E+03 -0.12044466873E+03  0.34930580610E+03  0.97183077749E+03  0.12699999809E+01 0.  1.
       -4    1    3    3    0  502 -0.89885036729E+03  0.12044466873E+03 -0.18198187339E+04  0.20332684865E+04  0.12699999809E+01 0. -1.
</event>
<event>
 5   0  0.1276517E-05  0.2693250E+04  0.7818609E-02  0.8337198E-01
        2   -1    0    0  501    0  0.00000000000E+00  0.00000000000E+00  0.24547099159E+04  0.24547099159E+04  0.25500000920E-02 0.  1.
       -2   -1    0    0    0  501  0.00000000000E+00  0.00000000000E+00 -0.73874255974E+03  0.73874255975E+03  0.25500000920E-02 0. -1.
    10030    2    1    2    0    0  0.00000000000E+00  0.00000000000E+00  0.17159673562E+04  0.31934524757E+04  0.26932498486E+04 0.  0.
        1    1    3    3  502    0  0.60370508134E+03 -0.98861163627E+03  0.16722457696E+04  0.20342612189E+04  0.50400001928E-02 0.  1.
       -1    1    3    3    0  502 -0.60370508134E+03  0.98861163627E+03  0.43721586532E+02  0.11591912568E+04  0.50400001928E-02 0. -1.
</event>
<event>
 5   0  0.1220908E-05  0.2711040E+04  0.7818609E-02  0.8331432E-01
        2   -1    0    0  501    0  0.00000000000E+00  0.00000000000E+00  0.22772286857E+04  0.22772286857E+04  0.25500000920E-02 0. -1.
       -2   -1    0    0    0  501  0.00000000000E+00  0.00000000000E+00 -0.80687276141E+03  0.80687276142E+03  0.25500000920E-02 0.  1.
    10030    2    1    2    0    0  0.00000000000E+00  0.00000000000E+00  0.14703559243E+04  0.30841014471E+04  0.27110395040E+04 0.  0.
        2    1    3    3  502    0 -0.32924776559E+03  0.91473180527E+03  0.18097787232E+04  0.20543703156E+04  0.25500000920E-02 0. -1.
       -2    1    3    3    0  502  0.32924776559E+03 -0.91473180527E+03 -0.33942279893E+03  0.10297311315E+04  0.25500000920E-02 0.  1.
</event>
<event>
 5   0  0.1232559E-05  0.2781865E+04  0.7818609E-02  0.8308921E-01
       -2   -1    0    0    0  501  0.00000000000E+00  0.00000000000E+00  0.12549582443E+04  0.12549582443E+04  0.25500000920E-02 0.  1.
        2   -1    0    0  501    0  0.00000000000E+00  0.00000000000E+00 -0.15416391891E+04  0.15416391892E+04  0.25500000920E-02 0. -1.
    10030    2    1    2    0    0  0.00000000000E+00  0.00000000000E+00 -0.28668094489E+03  0.27965974334E+04  0.27818647056E+04 0.  0.
        3    1    3    3  502    0 -0.12796413495E+03 -0.13714297441E+04  0.51330202227E+02  0.13783429046E+04  0.10100000352E+00 0. -1.
       -3    1    3    3    0  502  0.12796413495E+03  0.13714297441E+04 -0.33801114712E+03  0.14182545288E+04  0.10100000352E+00 0.  1.
</event>
<event>
 5   0  0.1261364E-05  0.2751404E+04  0.7818609E-02  0.8318516E-01
       -2   -1    0    0    0  501  0.00000000000E+00  0.00000000000E+00  0.10793521020E+04  0.10793521020E+04  0.25500000920E-02 0. -1.
        2   -1    0    0  501    0  0.00000000000E+00  0.00000000000E+00 -0.17534189757E+04  0.17534189757E+04  0.25500000920E-02 0.  1.
    10030    2    1    2    0    0  0.00000000000E+00  0.00000000000E+00 -0.67406687367E+03  0.28327710777E+04  0.27514043375E+04 0.  0.
        5    1    3    3  502    0 -0.26273307166E+03 -0.11711222432E+04  0.35514154538E+03  0.12516803037E+04  0.46999998093E+01 0. -1.
       -5    1    3    3    0  502  0.26273307166E+03  0.11711222432E+04 -0.10292084190E+04  0.15810907739E+04  0.46999998093E+01 0.  1.
</event>
<event>
 5   0  0.4824715E-06  0.2636453E+04  0.7818609E-02  0.8355923E-01
       -1   -1    0    0    0  501  0.00000000000E+00  0.00000000000E+00  0.64136831330E+03  0.64136831332E+03  0.50400001928E-02 0.  1.
        1   -1    0    0  501    0  0.00000000000E+00  0.00000000000E+00 -0.27093973879E+04  0.27093973880E+04  0.50400001928E-02 0. -1.
    10030    2    1    2    0    0  0.00000000000E+00  0.00000000000E+00 -0.20680290746E+04  0.33507657013E+04  0.26364534002E+04 0.  0.
        5    1    3    3  502    0  0.56348478523E+03  0.62503463078E+03 -0.23235715387E+04  0.24712729874E+04  0.46999998093E+01 0. -1.
       -5    1    3    3    0  502 -0.56348478523E+03 -0.62503463078E+03  0.25554246403E+03  0.87949271389E+03  0.46999998093E+01 0.  1.
</event>
<event>
 5   0  0.4846214E-06  0.2711702E+04  0.7818609E-02  0.8331218E-01
        1   -1    0    0  501    0  0.00000000000E+00  0.00000000000E+00  0.16410774127E+04  0.16410774127E+04  0.50400001928E-02 0. -1.
       -1   -1    0    0    0  501  0.00000000000E+00  0.00000000000E+00 -0.11201981091E+04  0.11201981091E+04  0.50400001928E-02 0.  1.
    10030    2    1    2    0    0  0.00000000000E+00  0.00000000000E+00  0.52087930366E+03  0.27612755218E+04  0.27117019118E+04 0.  0.
        2    1    3    3  502    0  0.10206498897E+04 -0.23068953906E+03  0.11384013207E+04  0.15462539984E+04  0.25500000920E-02 0. -1.
       -2    1    3    3    0  502 -0.10206498897E+04  0.23068953906E+03 -0.61752201702E+03  0.12150215234E+04  0.25500000920E-02 0.  1.
</event>
<event>
 5   0  0.4824715E-06  0.2686563E+04  0.7818609E-02  0.8339378E-01
       -1   -1    0    0    0  501  0.00000000000E+00  0.00000000000E+00  0.12864579347E+04  0.12864579347E+04  0.50400001928E-02 0.  1.
        1   -1    0    0  501    0  0.00000000000E+00  0.00000000000E+00 -0.14026147160E+04  0.14026147160E+04  0.50400001928E-02 0. -1.
    10030    2    1    2    0    0  0.00000000000E+00  0.00000000000E+00 -0.11615678127E+03  0.26890726507E+04  0.26865627338E+04 0.  0.
        5    1    3    3  502    0  0.43375318620E+03 -0.52899070485E+03  0.10990335279E+04  0.12945538914E+04  0.46999998093E+01 0.  1.
       -5    1    3    3    0  502 -0.43375318620E+03  0.52899070485E+03 -0.12151903092E+04  0.13945187592E+04  0.46999998093E+01 0. -1.
</event>
<event>
 5   0  0.1220908E-05  0.2674961E+04  0.7818609E-02  0.8343175E-01
       -2   -1    0    0    0  501  0.00000000000E+00  0.00000000000E+00  0.13772931117E+04  0.13772931117E+04  0.25500000920E-02 0. -1.
        2   -1    0    0  501    0  0.00000000000E+00  0.00000000000E+00 -0.12988185376E+04  0.12988185376E+04  0.25500000920E-02 0.  1.
    10030    2    1    2    0    0  0.00000000000E+00  0.00000000000E+00  0.78474574145E+02  0.26761116494E+04  0.26749608036E+04 0.  0.
        2    1    3    3  502    0 -0.57183339795E+03 -0.56030088478E+03  0.11111100692E+04  0.13694875327E+04  0.25500000920E-02 0. -1.
       -2    1    3    3    0  502  0.57183339795E+03  0.56030088478E+03 -0.10326354950E+04  0.13066241166E+04  0.25500000920E-02 0.  1.
</event>
<event>
 5   0  0.1276517E-05  0.2667734E+04  0.7818609E-02  0.8345551E-01
       -2   -1    0    0    0  501  0.00000000000E+00  0.00000000000E+00  0.14389250425E+04  0.14389250425E+04  0.25500000920E-02 0. -1.
        2   -1    0    0  501    0  0.00000000000E+00  0.00000000000E+00 -0.12364792654E+04  0.12364792654E+04  0.25500000920E-02 0.  1.
    10030    2    1    2    0    0  0.00000000000E+00  0.00000000000E+00  0.20244577710E+03  0.26754043079E+04  0.26677338545E+04 0.  0.
        1    1    3    3  502    0  0.10191948471E+04 -0.59895607625E+03 -0.51836775547E+03  0.12908182086E+04  0.50400001928E-02 0.  1.
       -1    1    3    3    0  502 -0.10191948471E+04  0.59895607625E+03  0.72081353257E+03  0.13845860993E+04  0.50400001928E-02 0. -1.
</event>
<event>
 5   0  0.1276517E-05  0.2696134E+04  0.7818609E-02  0.8336260E-01
        2   -1    0    0  501    0  0.00000000000E+00  0.00000000000E+00  0.19408447731E+04  0.19408447731E+04  0.25500000920E-02 0. -1.
       -2   -1    0    0    0  501  0.00000000000E+00  0.00000000000E+00 -0.93633726358E+03  0.93633726359E+03  0.25500000920E-02 0.  1.
    10030    2    1    2    0    0  0.00000000000E+00  0.00000000000E+00  0.10045075095E+04  0.28771820367E+04  0.26961344802E+04 0.  0.
        1    1    3    3  502    0 -0.10513300167E+04  0.46324744468E+03  0.12548729869E+04  0.17013521717E+04  0.50400001928E-02 0. -1.
       -1    1    3    3    0  502  0.10513300167E+04 -0.46324744468E+03 -0.25036547742E+03  0.11758298649E+04  0.50400001928E-02 0.  1.
</event>
<event>
 5   0  0.1232559E-05  0.2676131E+04  0.7818609E-02  0.8342791E-01
        2   -1    0    0  501    0  0.00000000000E+00  0.00000000000E+00  0.19013379944E+04  0.19013379944E+04  0.25500000920E-02 0. -1.
       -2   -1    0    0    0  501  0.00000000000E+00  0.00000000000E+00 -0.94166269808E+03  0.94166269808E+03  0.25500000920E-02 0.  1.
    10030    2    1    2    0    0  0.00000000000E+00  0.00000000000E+00  0.95967529634E+03  0.28430006925E+04  0.26761308382E+04 0.  0.
        3    1    3    3  502    0  0.96126924094E+03  0.42255248597E+03 -0.40123181175E+03  0.11240890240E+04  0.10100000352E+00 0.  1.
       -3    1    3    3    0  502 -0.96126924094E+03 -0.42255248597E+03  0.13609071081E+04  0.17189116685E+04  0.10100000352E+00 0. -1.
</event>
<event>
 5   0  0.4756800E-06  0.2659055E+04  0.7818609E-02  0.8348414E-01
       -1   -1    0    0    0  501  0.00000000000E+00  0.00000000000E+00  0.76430849724E+03  0.76430849726E+03  0.50400001928E-02 0.  1.
        1   -1    0    0  501    0  0.00000000000E+00  0.00000000000E+00 -0.23127362217E+04  0.23127362217E+04  0.50400001928E-02 0. -1.
    10030    2    1    2    0    0  0.00000000000E+00  0.00000000000E+00 -0.15484277245E+04  0.30770447190E+04  0.26590554309E+04 0.  0.
        4    1    3    3  502    0  0.11862761433E+04  0.59866315599E+03 -0.82588323009E+03  0.15645233731E+04  0.12699999809E+01 0.  1.
       -4    1    3    3    0  502 -0.11862761433E+04 -0.59866315599E+03 -0.72254449438E+03  0.15125213459E+04  0.12699999809E+01 0. -1.
</event>
<event>
 5   0  0.1232559E-05  0.2747673E+04  0.7818609E-02  0.8319700E-01
        2   -1    0    0  501    0  0.00000000000E+00  0.00000000000E+00  0.19233398208E+04  0.19233398208E+04  0.25500000920E-02 0.  1.
       -2   -1    0    0    0  501  0.00000000000E+00  0.00000000000E+00 -0.98132791836E+03  0.98132791837E+03  0.25500000920E-02 0. -1.
    10030    2    1    2    0    0  0.00000000000E+00  0.00000000000E+00  0.94201190243E+03  0.29046677392E+04  0.27476732431E+04 0.  0.
        3    1    3    3  502    0  0.55415989638E+02  0.82001269424E+02  0.19195663416E+04  0.19221160449E+04  0.10100000352E+00 0.  1.
       -3    1    3    3    0  502 -0.55415989638E+02 -0.82001269424E+02 -0.97755443918E+03  0.98255169424E+03  0.10100000352E+00 0. -1.
</event>
<event>
 5   0  0.4846214E-06  0.2230449E+04  0.7818609E-02  0.8505861E-01
       -1   -1    0    0    0  501  0.00000000000E+00  0.00000000000E+00  0.74213988700E+03  0.74213988702E+03  0.50400001928E-02 0.  1.
        1   -1    0    0  501    0  0.00000000000E+00  0.00000000000E+00 -0.16758636940E+04  0.16758636940E+04  0.50400001928E-02 0. -1.
    10030    2    1    2    0    0  0.00000000000E+00  0.00000000000E+00 -0.93372380704E+03  0.24180035811E+04  0.22304486477E+04 0.  0.
        2    1    3    3  502    0  0.68799738931E+03 -0.47948750938E+03  0.33012863215E+03  0.90124003080E+03  0.25500000920E-02 0.  1.
       -2    1    3    3    0  502 -0.68799738931E+03  0.47948750938E+03 -0.12638524392E+04  0.15167635503E+04  0.25500000920E-02 0. -1.
</event>
<event>
 5   0  0.4188000E-06  0.2705346E+04  0.7818609E-02  0.8333272E-01
       -4   -1    0    0    0  501  0.00000000000E+00  0.00000000000E+00  0.14872908100E+04  0.14872913523E+04  0.12699999809E+01 0.  1.
        4   -1    0    0  501    0  0.00000000000E+00  0.00000000000E+00 -0.12302387588E+04  0.12302394143E+04  0.12699999809E+01 0. -1.
    10030    2    1    2    0    0  0.00000000000E+00  0.00000000000E+00  0.25705205123E+03  0.27175307666E+04  0.27053461350E+04 0.  0.
        4    1    3    3  502    0 -0.12473864477E+04 -0.45629361392E+03  0.38569865013E+03  0.13830914191E+04  0.12699999809E+01 0. -1.
       -4    1    3    3    0  502  0.12473864477E+04  0.45629361392E+03 -0.12864659890E+03  0.13344393475E+04  0.12699999809E+01 0.  1.
</event>
<event>
 5   0  0.1232559E-05  0.2723008E+04  0.7818609E-02  0.8327578E-01
       -2   -1    0    0    0  501  0.00000000000E+00  0.00000000000E+00  0.20183350129E+04  0.20183350129E+04  0.25500000920E-02 0. -1.
        2   -1    0    0  501    0  0.00000000000E+00  0.00000000000E+00 -0.91842686049E+03  0.91842686049E+03  0.25500000920E-02 0.  1.
    10030    2    1    2    0    0  0.00000000000E+00  0.00000000000E+00  0.10999081524E+04  0.29367618734E+04  0.27230079613E+04 0.  0.
        3    1    3    3  502    0 -0.10715879700E+03  0.68299954073E+03 -0.71503016675E+03  0.99460521313E+03  0.10100000352E+00 0.  1.
       -3    1    3    3    0  502  0.10715879700E+03 -0.68299954073E+03  0.18149383191E+04  0.19421566602E+04  0.10100000352E+00 0. -1.
</event>
<event>
 5   0  0.4846214E-06  0.2707209E+04  0.7818609E-02  0.8332670E-01
       -1   -1    0    0    0  501  0.00000000000E+00  0.00000000000E+00  0.14437768971E+04  0.14437768972E+04  0.50400001928E-02 0. -1.
        1   -1    0    0  501    0  0.00000000000E+00  0.00000000000E+00 -0.12690639731E+04  0.12690639731E+04  0.50400001928E-02 0.  1.
    10030    2    1    2    0    0  0.00000000000E+00  0.00000000000E+00  0.17471292404E+03  0.27128408703E+04  0.27072090761E+04 0.  0.
        2    1    3    3  502    0  0.75649102573E+03  0.10473808512E+04 -0.31716626985E+03  0.13303682807E+04  0.25500000920E-02 0. -1.
       -2    1    3    3    0  502 -0.75649102573E+03 -0.10473808512E+04  0.49187919389E+03  0.13824725896E+04  0.25500000920E-02 0.  1.
</event>
<event>
 5   0  0.4846214E-06  0.2743482E+04  0.7818609E-02  0.8321033E-01
        1   -1    0    0  501    0  0.00000000000E+00  0.00000000000E+00  0.13046813504E+04  0.13046813504E+04  0.50400001928E-02 0. -1.
       -1   -1    0    0    0  501  0.00000000000E+00  0.00000000000E+00 -0.14422474535E+04  0.14422474535E+04  0.50400001928E-02 0.  1.
    10030    2    1    2    0    0  0.00000000000E+00  0.00000000000E+00 -0.13756610306E+03  0.27469288039E+04  0.27434819885E+04 0.  0.
        2    1    3    3  502    0 -0.12835682145E+04  0.38353175031E+03  0.22659502706E+03  0.13586718776E+04  0.25500000920E-02 0. -1.
       -2    1    3    3    0  502  0.12835682145E+04 -0.38353175031E+03 -0.36416113012E+03  0.13882569263E+04  0.25500000920E-02 0.  1.
</event>
<event>
 5   0  0.4824715E-06  0.2684188E+04  0.7818609E-02  0.8340154E-01
       -1   -1    0    0    0  501  0.00000000000E+00  0.00000000000E+00  0.75921394947E+03  0.75921394949E+03  0.50400001928E-02 0.  1.
        1   -1    0    0  501    0  0.00000000000E+00  0.00000000000E+00 -0.23724745581E+04  0.23724745582E+04  0.50400001928E-02 0. -1.
    10030    2    1    2    0    0  0.00000000000E+00  0.00000000000E+00 -0.16132606087E+04  0.31316885076E+04  0.26841876084E+04 0.  0.
        5    1    3    3  502    0  0.18905005250E+03 -0.46496212154E+03  0.64557629194E+03  0.81775334640E+03  0.46999998093E+01 0.  1.
       -5    1    3    3    0  502 -0.18905005250E+03  0.46496212154E+03 -0.22588369006E+04  0.23139351612E+04  0.46999998093E+01 0. -1.
</event>
<event>
 5   0  0.1220908E-05  0.2757326E+04  0.7818609E-02  0.8316641E-01
       -2   -1    0    0    0  501  0.00000000000E+00  0.00000000000E+00  0.10104074328E+04  0.10104074328E+04  0.25500000920E-02 0. -1.
        2   -1    0    0  501    0  0.00000000000E+00  0.00000000000E+00 -0.18811344497E+04  0.18811344497E+04  0.25500000920E-02 0.  1.
    10030    2    1    2    0    0  0.00000000000E+00  0.00000000000E+00 -0.87072701687E+03  0.28915418824E+04  0.27573264079E+04 0.  0.
        2    1    3    3  502    0 -0.33330510099E+03  0.13055914138E+04 -0.74119416627E+03  0.15378654109E+04  0.25500000920E-02 0.  1.
       -2    1    3    3    0  502  0.33330510099E+03 -0.13055914138E+04 -0.12953285060E+03  0.13536764715E+04  0.25500000920E-02 0. -1.
</event>
<event>
 5   0  0.1220908E-05  0.2693181E+04  0.7818609E-02  0.8337221E-01
        2   -1    0    0  501    0  0.00000000000E+00  0.00000000000E+00  0.15402284198E+04  0.15402284198E+04  0.25500000920E-02 0. -1.
       -2   -1    0    0    0  501  0.00000000000E+00  0.00000000000E+00 -0.11772970861E+04  0.11772970861E+04  0.25500000920E-02 0.  1.
    10030    2    1    2    0    0  0.00000000000E+00  0.00000000000E+00  0.36293133371E+03  0.27175255059E+04  0.26931813386E+04 0.  0.
        2    1    3    3  502    0  0.11663879320E+04 -0.67279757041E+03  0.16759176149E+03  0.13569098633E+04  0.25500000920E-02 0. -1.
       -2    1    3    3    0  502 -0.11663879320E+04  0.67279757041E+03  0.19533957222E+03  0.13606156427E+04  0.25500000920E-02 0.  1.
</event>
<event>
 5   0  0.5152288E-06  0.2278323E+04  0.7818609E-02  0.8486517E-01
       -1   -1    0    0    0  501  0.00000000000E+00  0.00000000000E+00  0.65200531363E+03  0.65200531365E+03  0.50400001928E-02 0. -1.
        1   -1    0    0  501    0  0.00000000000E+00  0.00000000000E+00 -0.19903040618E+04  0.19903040618E+04  0.50400001928E-02 0.  1.
    10030    2    1    2    0    0  0.00000000000E+00  0.00000000000E+00 -0.13382987482E+04  0.26423093755E+04  0.22783229131E+04 0.  0.
        3    1    3    3  502    0 -0.11072799792E+04 -0.20799556568E+03 -0.86445013552E+03  0.14200722358E+04  0.10100000352E+00 0. -1.
       -3    1    3    3    0  502  0.11072799792E+04  0.20799556568E+03 -0.47384861268E+03  0.12222371397E+04  0.10100000352E+00 0.  1.
</event>
<event>
 5   0  0.1286641E-05  0.2578617E+04  0.7818609E-02  0.8375501E-01
       -2   -1    0    0    0  501  0.00000000000E+00  0.00000000000E+00  0.11367559656E+04  0.11367559656E+04  0.25500000920E-02 0.  1.
        2   -1    0    0  501    0  0.00000000000E+00  0.00000000000E+00 -0.14623338506E+04  0.14623338507E+04  0.25500000920E-02 0. -1.
    10030    2    1    2    0    0  0.00000000000E+00  0.00000000000E+00 -0.32557788501E+03  0.25990898163E+04  0.25786172484E+04 0.  0.
        4    1    3    3  502    0  0.70822797364E+02 -0.12492611911E+04 -0.47613607507E+03  0.13387966862E+04  0.12699999809E+01 0.  1.
       -4    1    3    3    0  502 -0.70822797364E+02  0.12492611911E+04  0.15055819005E+03  0.12602931301E+04  0.12699999809E+01 0. -1.
</event>
<event>
 5   0  0.4826140E-06  0.2722914E+04  0.7818609E-02  0.8327608E-01
        1   -1    0    0  501    0  0.00000000000E+00  0.00000000000E+00  0.11545452186E+04  0.11545452186E+04  0.50400001928E-02 0.  1.
       -1   -1    0    0    0  501  0.00000000000E+00  0.00000000000E+00 -0.16054503250E+04  0.16054503250E+04  0.50400001928E-02 0. -1.
    10030    2    1    2    0    0  0.00000000000E+00  0.00000000000E+00 -0.45090510641E+03  0.27599955437E+04  0.27229138778E+04 0.  0.
        1    1    3    3  502    0  0.14932872186E+03  0.13420846624E+04 -0.49670293857E+02  0.13512799290E+04  0.50400001928E-02 0.  1.
       -1    1    3    3    0  502 -0.14932872186E+03 -0.13420846624E+04 -0.40123481255E+03  0.14087156147E+04  0.50400001928E-02 0. -1.
</event>
<event>
 5   0  0.1220908E-05  0.2650683E+04  0.7818609E-02  0.8351186E-01
        2   -1    0    0  501    0  0.00000000000E+00  0.00000000000E+00  0.16432778718E+04  0.16432778718E+04  0.25500000920E-02 0.  1.
       -2   -1    0    0    0  501  0.00000000000E+00  0.00000000000E+00 -0.10689184858E+04  0.10689184858E+04  0.25500000920E-02 0. -1.
    10030    2    1    2    0    0  0.00000000000E+00  0.00000000000E+00  0.57435938602E+03  0.27121963577E+04  0.26506830022E+04 0.  0.
        2    1    3    3  502    0 -0.12768048434E+04  0.31010397567E+03  0.46480261487E+03  0.13937132254E+04  0.25500000920E-02 0. -1.
       -2    1    3    3    0  502  0.12768048434E+04 -0.31010397567E+03  0.10955677115E+03  0.13184831323E+04  0.25500000920E-02 0.  1.
</event>
<event>
 5   0  0.4824715E-06  0.2691783E+04  0.7818609E-02  0.8337676E-01
       -1   -1    0    0    0  501  0.00000000000E+00  0.00000000000E+00  0.10107969235E+04  0.10107969235E+04  0.50400001928E-02 0. -1.
        1   -1    0    0  501    0  0.00000000000E+00  0.00000000000E+00 -0.17920753655E+04  0.17920753655E+04  0.50400001928E-02 0.  1.
    10030    2    1    2    0    0  0.00000000000E+00  0.00000000000E+00 -0.78127844202E+03  0.28028722890E+04  0.26917832499E+04 0.  0.
        5    1    3    3  502    0 -0.10547438609E+04 -0.30173334148E+03 -0.12024787727E+04  0.16277299869E+04  0.46999998093E+01 0.  1.
       -5    1    3    3    0  502  0.10547438609E+04  0.30173334148E+03  0.42120033073E+03  0.11751423021E+04  0.46999998093E+01 0. -1.
</event>
<event>
 5   0  0.1276517E-05  0.2818914E+04  0.7818609E-02  0.8297420E-01
        2   -1    0    0  501    0  0.00000000000E+00  0.00000000000E+00  0.87613184930E+03  0.87613184930E+03  0.25500000920E-02 0.  1.
       -2   -1    0    0    0  501  0.00000000000E+00  0.00000000000E+00 -0.22674310375E+04  0.22674310375E+04  0.25500000920E-02 0. -1.
    10030    2    1    2    0    0  0.00000000000E+00  0.00000000000E+00 -0.13912991882E+04  0.31435628868E+04  0.28189136546E+04 0.  0.
        1    1    3    3  502    0 -0.12820392649E+04 -0.37981281213E+03 -0.19857207630E+03  0.13517815351E+04  0.50400001928E-02 0. -1.
       -1    1    3    3    0  502  0.12820392649E+04  0.37981281213E+03 -0.11927271119E+04  0.17917813518E+04  0.50400001928E-02 0.  1.
</event>
<event>
 5   0  0.4188000E-06  0.2808328E+04  0.7818609E-02  0.8300688E-01
       -4   -1    0    0    0  501  0.00000000000E+00  0.00000000000E+00  0.16168672241E+04  0.16168677229E+04  0.12699999809E+01 0. -1.
        4   -1    0    0  501    0  0.00000000000E+00  0.00000000000E+00 -0.12194413310E+04  0.12194419923E+04  0.12699999809E+01 0.  1.
    10030    2    1    2    0    0  0.00000000000E+00  0.00000000000E+00  0.39742589312E+03  0.28363097152E+04  0.28083278761E+04 0.  0.
        1    1    3    3  502    0 -0.59582645189E+03  0.38008780001E+02  0.14822902360E+04  0.15980106921E+04  0.50400001928E-02 0. -1.
       -1    1    3    3    0  502  0.59582645189E+03 -0.38008780001E+02 -0.10848643429E+04  0.12382990231E+04  0.50400001928E-02 0.  1.
</event>
<event>
 5   0  0.4826140E-06  0.2791510E+04  0.7818609E-02  0.8305909E-01
       -1   -1    0    0    0  501  0.00000000000E+00  0.00000000000E+00  0.99922474215E+03  0.99922474217E+03  0.50400001928E-02 0.  1.
        1   -1    0    0  501    0  0.00000000000E+00  0.00000000000E+00 -0.19496438312E+04  0.19496438312E+04  0.50400001928E-02 0. -1.
    10030    2    1    2    0    0  0.00000000000E+00  0.00000000000E+00 -0.95041908906E+03  0.29488685734E+04  0.27915102397E+04 0.  0.
        1    1    3    3  502    0 -0.50472129329E+03  0.75630915754E+03  0.64343885979E+03  0.11138943810E+04  0.50400001928E-02 0.  1.
       -1    1    3    3    0  502  0.50472129329E+03 -0.75630915754E+03 -0.15938579489E+04  0.18349741924E+04  0.50400001928E-02 0. -1.
</event>
<event>
 5   0  0.4756800E-06  0.2733303E+04  0.7818609E-02  0.8324279E-01
        1   -1    0    0  501    0  0.00000000000E+00  0.00000000000E+00  0.15034830050E+04  0.15034830050E+04  0.50400001928E-02 0. -1.
       -1   -1    0    0    0  501  0.00000000000E+00  0.00000000000E+00 -0.12422730833E+04  0.12422730833E+04  0.50400001928E-02 0.  1.
    10030    2    1    2    0    0  0.00000000000E+00  0.00000000000E+00  0.26120992173E+03  0.27457560883E+04  0.27333031067E+04 0.  0.
        4    1    3    3  502    0 -0.96111695750E+03 -0.73007793482E+03  0.77459922452E+03  0.14341426597E+04  0.12699999809E+01 0. -1.
       -4    1    3    3    0  502  0.96111695750E+03  0.73007793482E+03 -0.51338930278E+03  0.13116134286E+04  0.12699999809E+01 0.  1.
</event>
<event>
 5   0  0.4756800E-06  0.2708994E+04  0.7818609E-02  0.8332093E-01
       -1   -1    0    0    0  501  0.00000000000E+00  0.00000000000E+00  0.11883850406E+04  0.11883850406E+04  0.50400001928E-02 0.  1.
        1   -1    0    0  501    0  0.00000000000E+00  0.00000000000E+00 -0.15438277327E+04  0.15438277327E+04  0.50400001928E-02 0. -1.
    10030    2    1    2    0    0  0.00000000000E+00  0.00000000000E+00 -0.35544269215E+03  0.27322127733E+04  0.27089937489E+04 0.  0.
        4    1    3    3  502    0  0.12918754075E+04  0.39966525031E+03 -0.25575235441E+03  0.13762577014E+04  0.12699999809E+01 0.  1.
       -4    1    3    3    0  502 -0.12918754075E+04 -0.39966525031E+03 -0.99690337736E+02  0.13559550720E+04  0.12699999809E+01 0. -1.
</event>
<event>
 5   0  0.1220908E-05  0.2714646E+04  0.7818609E-02  0.8330269E-01
       -2   -1    0    0    0  501  0.00000000000E+00  0.00000000000E+00  0.94343315507E+03  0.94343315507E+03  0.25500000920E-02 0.  1.
        2   -1    0    0  501    0  0.00000000000E+00  0.00000000000E+00 -0.19527886350E+04  0.19527886350E+04  0.25500000920E-02 0. -1.
    10030    2    1    2    0    0  0.00000000000E+00  0.00000000000E+00 -0.10093554799E+04  0.28962217901E+04  0.27146458650E+04 0.  0.
        2    1    3    3  502    0  0.11022277525E+04 -0.69691061789E+03 -0.90633661279E+03  0.15880920891E+04  0.25500000920E-02 0. -1.
       -2    1    3    3    0  502 -0.11022277525E+04  0.69691061789E+03 -0.10301886713E+03  0.13081297010E+04  0.25500000920E-02 0.  1.
</event>
<event>
 5   0  0.1220908E-05  0.2194241E+04  0.7818609E-02  0.8520829E-01
        2   -1    0    0  501    0  0.00000000000E+00  0.00000000000E+00  0.20139213614E+04  0.20139213614E+04  0.25500000920E-02 0. -1.
       -2   -1    0    0    0  501  0.00000000000E+00  0.00000000000E+00 -0.59767643535E+03  0.59767643536E+03  0.25500000920E-02 0.  1.
    10030    2    1    2    0    0  0.00000000000E+00  0.00000000000E+00  0.14162449261E+04  0.26115977968E+04  0.21942409534E+04 0.  0.
        2    1    3    3  502    0  0.14369155705E+03 -0.52859269065E+03 -0.42327160070E+03  0.69225453710E+03  0.25500000920E-02 0.  1.
       -2    1    3    3    0  502 -0.14369155705E+03  0.52859269065E+03  0.18395165268E+04  0.19193432597E+04  0.25500000920E-02 0. -1.
</event>
<event>
 5   0  0.1286641E-05  0.2694946E+04  0.7818609E-02  0.8336647E-01
        2   -1    0    0  501    0  0.00000000000E+00  0.00000000000E+00  0.13691277498E+04  0.13691277498E+04  0.25500000920E-02 0.  1.
       -2   -1    0    0    0  501  0.00000000000E+00  0.00000000000E+00 -0.13261603154E+04  0.13261603154E+04  0.25500000920E-02 0. -1.
    10030    2    1    2    0    0  0.00000000000E+00  0.00000000000E+00  0.42967434374E+02  0.26952880652E+04  0.26949455567E+04 0.  0.
        4    1    3    3  502    0 -0.10983769345E+04 -0.35013474216E+03  0.71917903477E+03  0.13587664718E+04  0.12699999809E+01 0.  1.
       -4    1    3    3    0  502  0.10983769345E+04  0.35013474216E+03 -0.67621160040E+03  0.13365215933E+04  0.12699999809E+01 0. -1.
</event>
<event>
 5   0  0.1261364E-05  0.2666187E+04  0.7818609E-02  0.8346060E-01
       -2   -1    0    0    0  501  0.00000000000E+00  0.00000000000E+00  0.15597753841E+04  0.15597753841E+04  0.25500000920E-02 0. -1.
        2   -1    0    0  501    0  0.00000000000E+00  0.00000000000E+00 -0.11393551780E+04  0.11393551780E+04  0.25500000920E-02 0.  1.
    10030    2    1    2    0    0  0.00000000000E+00  0.00000000000E+00  0.42042020610E+03  0.26991305621E+04  0.26661869105E+04 0.  0.
        5    1    3    3  502    0  0.97841777544E+03 -0.69744633884E+03 -0.37431779245E+03  0.12585184300E+04  0.46999998093E+01 0.  1.
       -5    1    3    3    0  502 -0.97841777544E+03  0.69744633884E+03  0.79473799855E+03  0.14406121321E+04  0.46999998093E+01 0. -1.
</event>
<event>
 5   0  0.1220908E-05  0.2713743E+04  0.7818609E-02  0.8330560E-01
       -2   -1    0    0    0  501  0.00000000000E+00  0.00000000000E+00  0.11957695485E+04  0.11957695485E+04  0.25500000920E-02 0.  1.
        2   -1    0    0  501    0  0.00000000000E+00  0.00000000000E+00 -0.15396784849E+04  0.15396784849E+04  0.25500000920E-02 0. -1.
    10030    2    1    2    0    0  0.00000000000E+00  0.00000000000E+00 -0.34390893636E+03  0.27354480335E+04  0.27137432795E+04 0.  0.
        2    1    3    3  502    0 -0.22283259557E+03  0.38360348843E+03  0.11206020108E+04  0.12052198425E+04  0.25500000920E-02 0.  1.
       -2    1    3    3    0  502  0.22283259557E+03 -0.38360348843E+03 -0.14645109472E+04  0.15302281910E+04  0.25500000920E-02 0. -1.
</event>
<event>
 5   0  0.1276517E-05  0.2732679E+04  0.7818609E-02  0.8324479E-01
        2   -1    0    0  501    0  0.00000000000E+00  0.00000000000E+00  0.18314113523E+04  0.18314113523E+04  0.25500000920E-02 0. -1.
       -2   -1    0    0    0  501  0.00000000000E+00  0.00000000000E+00 -0.10193686857E+04  0.10193686857E+04  0.25500000920E-02 0.  1.
    10030    2    1    2    0    0  0.00000000000E+00  0.00000000000E+00  0.81204266665E+03  0.28507800380E+04  0.27326788198E+04 0.  0.
        1    1    3    3  502    0 -0.12085923255E+04  0.13286071002E+03  0.10562868944E+04  0.16106177016E+04  0.50400001928E-02 0. -1.
       -1    1    3    3    0  502  0.12085923255E+04 -0.13286071002E+03 -0.24424422772E+03  0.12401623363E+04  0.50400001928E-02 0.  1.
</event>
<event>
 5   0  0.1286641E-05  0.2701800E+04  0.7818609E-02  0.8334421E-01
        2   -1    0    0  501    0  0.00000000000E+00  0.00000000000E+00  0.18744812145E+04  0.18744812145E+04  0.25500000920E-02 0. -1.
       -2   -1    0    0    0  501  0.00000000000E+00  0.00000000000E+00 -0.97356544982E+03  0.97356544982E+03  0.25500000920E-02 0.  1.
    10030    2    1    2    0    0  0.00000000000E+00  0.00000000000E+00  0.90091576468E+03  0.28480466643E+04  0.27017995090E+04 0.  0.
        4    1    3    3  502    0  0.33397861554E+02  0.17406467062E+03  0.18621709715E+04  0.18705871449E+04  0.12699999809E+01 0. -1.
       -4    1    3    3    0  502 -0.33397861554E+02 -0.17406467062E+03 -0.96125520677E+03  0.97745951945E+03  0.12699999809E+01 0.  1.
</event>
<event>
 5   0  0.1286641E-05  0.2707538E+04  0.7818609E-02  0.8332563E-01
       -2   -1    0    0    0  501  0.00000000000E+00  0.00000000000E+00  0.16568392121E+04  0.16568392121E+04  0.25500000920E-02 0. -1.
        2   -1    0    0  501    0  0.00000000000E+00  0.00000000000E+00 -0.11061365173E+04  0.11061365173E+04  0.25500000920E-02 0.  1.
    10030    2    1    2    0    0  0.00000000000E+00  0.00000000000E+00  0.55070269482E+03  0.27629757295E+04  0.27075378896E+04 0.  0.
        4    1    3    3  502    0  0.23533768637E+03  0.33116875142E+03  0.15931609259E+04  0.16441471702E+04  0.12699999809E+01 0. -1.
       -4    1    3    3    0  502 -0.23533768637E+03 -0.33116875142E+03 -0.10424582311E+04  0.11188285593E+04  0.12699999809E+01 0.  1.
</event>
<event>
 5   0  0.1261364E-05  0.2665504E+04  0.7818609E-02  0.8346285E-01
        2   -1    0    0  501    0  0.00000000000E+00  0.00000000000E+00  0.23739962116E+04  0.23739962116E+04  0.25500000920E-02 0. -1.
       -2   -1    0    0    0  501  0.00000000000E+00  0.00000000000E+00 -0.74820182895E+03  0.74820182896E+03  0.25500000920E-02 0.  1.
    10030    2    1    2    0    0  0.00000000000E+00  0.00000000000E+00  0.16257943826E+04  0.31221980406E+04  0.26655043106E+04 0.  0.
        5    1    3    3  502    0 -0.12548861561E+04  0.75988700740E+02  0.29473187854E+03  0.12912794112E+04  0.46999998093E+01 0.  1.
       -5    1    3    3    0  502  0.12548861561E+04 -0.75988700740E+02  0.13310625041E+04  0.18309186294E+04  0.46999998093E+01 0. -1.
</event>
<event>
 5   0  0.4756800E-06  0.2670420E+04  0.7818609E-02  0.8344667E-01
        1   -1    0    0  501    0  0.00000000000E+00  0.00000000000E+00  0.15889349524E+04  0.15889349524E+04  0.50400001928E-02 0.  1.
       -1   -1    0    0    0  501  0.00000000000E+00  0.00000000000E+00 -0.11220001358E+04  0.11220001358E+04  0.50400001928E-02 0. -1.
    10030    2    1    2    0    0  0.00000000000E+00  0.00000000000E+00  0.46693481659E+03  0.27109350883E+04  0.26704196168E+04 0.  0.
        4    1    3    3  502    0  0.96086315764E+03 -0.41344558951E+03  0.10758695193E+04  0.15005639269E+04  0.12699999809E+01 0.  1.
       -4    1    3    3    0  502 -0.96086315764E+03  0.41344558951E+03 -0.60893470273E+03  0.12103711614E+04  0.12699999809E+01 0. -1.
</event>
<event>
 5   0  0.1261364E-05  0.2703706E+04  0.7818609E-02  0.8333803E-01
       -2   -1    0    0    0  501  0.00000000000E+00  0.00000000000E+00  0.83394240863E+03  0.83394240863E+03  0.25500000920E-02 0. -1.
        2   -1    0    0  501    0  0.00000000000E+00  0.00000000000E+00 -0.21914062356E+04  0.21914062356E+04  0.25500000920E-02 0.  1.
    10030    2    1    2    0    0  0.00000000000E+00  0.00000000000E+00 -0.13574638270E+04  0.30253486442E+04  0.27037060450E+04 0.  0.
        5    1    3    3  502    0  0.11827903983E+04 -0.99234131528E+02  0.45267769337E+02  0.11878180838E+04  0.46999998093E+01 0. -1.
       -5    1    3    3    0  502 -0.11827903983E+04  0.99234131528E+02 -0.14027315963E+04  0.18375305604E+04  0.46999998093E+01 0.  1.
</event>
<event>
 5   0  0.1232559E-05  0.2714884E+04  0.7818609E-02  0.8330192E-01
        2   -1    0    0  501    0  0.00000000000E+00  0.00000000000E+00  0.12752932313E+04  0.12752932313E+04  0.25500000920E-02 0.  1.
       -2   -1    0    0    0  501  0.00000000000E+00  0.00000000000E+00 -0.14448820322E+04  0.14448820322E+04  0.25500000920E-02 0. -1.
    10030    2    1    2    0    0  0.00000000000E+00  0.00000000000E+00 -0.16958880090E+03  0.27201752635E+04  0.27148836260E+04 0.  0.
        3    1    3    3  502    0  0.64553192615E+03  0.24489038449E+03  0.10862288921E+04  0.12870804110E+04  0.10100000352E+00 0.  1.
       -3    1    3    3    0  502 -0.64553192615E+03 -0.24489038449E+03 -0.12558176930E+04  0.14330948525E+04  0.10100000352E+00 0. -1.
</event>
<event>
 5   0  0.4846214E-06  0.2670735E+04  0.7818609E-02  0.8344563E-01
       -1   -1    0    0    0  501  0.00000000000E+00  0.00000000000E+00  0.86281518458E+03  0.86281518459E+03  0.50400001928E-02 0. -1.
        1   -1    0    0  501    0  0.00000000000E+00  0.00000000000E+00 -0.20667302176E+04  0.20667302176E+04  0.50400001928E-02 0.  1.
    10030    2    1    2    0    0  0.00000000000E+00  0.00000000000E+00 -0.12039150330E+04  0.29295454022E+04  0.26707348908E+04 0.  0.
        2    1    3    3  502    0 -0.72797196625E+03  0.10202600501E+04 -0.96508158355E+02  0.12570551214E+04  0.25500000920E-02 0. -1.
       -2    1    3    3    0  502  0.72797196625E+03 -0.10202600501E+04 -0.11074068747E+04  0.16724902809E+04  0.25500000920E-02 0.  1.
</event>
<event>
 5   0  0.4826140E-06  0.2699389E+04  0.7818609E-02  0.8335203E-01
       -1   -1    0    0    0  501  0.00000000000E+00  0.00000000000E+00  0.12499455295E+04  0.12499455295E+04  0.50400001928E-02 0.  1.
        1   -1    0    0  501    0  0.00000000000E+00  0.00000000000E+00 -0.14574038943E+04  0.14574038943E+04  0.50400001928E-02 0. -1.
    10030    2    1    2    0    0  0.00000000000E+00  0.00000000000E+00 -0.20745836476E+03  0.27073494238E+04  0.26993891771E+04 0.  0.
        1    1    3    3  502    0 -0.72115514543E+03  0.11069961438E+04 -0.38053268060E+03  0.13748855687E+04  0.50400001928E-02 0. -1.
       -1    1    3    3    0  502  0.72115514543E+03 -0.11069961438E+04  0.17307431584E+03  0.13324638550E+04  0.50400001928E-02 0.  1.
</event>
<event>
 5   0  0.4824715E-06  0.2719181E+04  0.7818609E-02  0.8328808E-01
        1   -1    0    0  501    0  0.00000000000E+00  0.00000000000E+00  0.14003117985E+04  0.14003117985E+04  0.50400001928E-02 0. -1.
       -1   -1    0    0    0  501  0.00000000000E+00  0.00000000000E+00 -0.13200531569E+04  0.13200531569E+04  0.50400001928E-02 0.  1.
    10030    2    1    2    0    0  0.00000000000E+00  0.00000000000E+00  0.80258641563E+02  0.27203649554E+04  0.27191807666E+04 0.  0.
        5    1    3    3  502    0 -0.11965347094E+04  0.31371853485E+02 -0.60496496613E+03  0.13411503287E+04  0.46999998093E+01 0.  1.
       -5    1    3    3    0  502  0.11965347094E+04 -0.31371853485E+02  0.68522360769E+03  0.13792146267E+04  0.46999998093E+01 0. -1.
</event>
<event>
 5   0  0.4824715E-06  0.2688571E+04  0.7818609E-02  0.8338723E-01
       -1   -1    0    0    0  501  0.00000000000E+00  0.00000000000E+00  0.91875126391E+03  0.91875126392E+03  0.50400001928E-02 0. -1.
        1   -1    0    0  501    0  0.00000000000E+00  0.00000000000E+00 -0.19669123591E+04  0.19669123591E+04  0.50400001928E-02 0.  1.
    10030    2    1    2    0    0  0.00000000000E+00  0.00000000000E+00 -0.10481610952E+04  0.28856636230E+04  0.26885707846E+04 0.  0.
        5    1    3    3  502    0  0.11637527509E+04 -0.66626314074E+03 -0.42308641458E+03  0.14061476602E+04  0.46999998093E+01 0.  1.
       -5    1    3    3    0  502 -0.11637527509E+04  0.66626314074E+03 -0.62507468061E+03  0.14795159629E+04  0.46999998093E+01 0. -1.
</event>
<event>
 5   0  0.1276517E-05  0.2722737E+04  0.7818609E-02  0.8327665E-01
       -2   -1    0    0    0  501  0.00000000000E+00  0.00000000000E+00  0.94658381536E+03  0.94658381537E+03  0.25500000920E-02 0. -1.
        2   -1    0    0  501    0  0.00000000000E+00  0.00000000000E+00 -0.19579086475E+04  0.19579086475E+04  0.25500000920E-02 0.  1.
    10030    2    1    2    0    0  0.00000000000E+00  0.00000000000E+00 -0.10113248322E+04  0.29044924629E+04  0.27227373268E+04 0.  0.
        1    1    3    3  502    0 -0.33830219804E+03  0.93800435231E+03  0.48304361084E+03  0.11079854115E+04  0.50400001928E-02 0. -1.
       -1    1    3    3    0  502  0.33830219804E+03 -0.93800435231E+03 -0.14943684430E+04  0.17965070514E+04  0.50400001928E-02 0.  1.
</event>
<event>
 5   0  0.1276517E-05  0.2698173E+04  0.7818609E-02  0.8335598E-01
        2   -1    0    0  501    0  0.00000000000E+00  0.00000000000E+00  0.16013511995E+04  0.16013511995E+04  0.25500000920E-02 0.  1.
       -2   -1    0    0    0  501  0.00000000000E+00  0.00000000000E+00 -0.11365619292E+04  0.11365619292E+04  0.25500000920E-02 0. -1.
    10030    2    1    2    0    0  0.00000000000E+00  0.00000000000E+00  0.46478927028E+03  0.27379131288E+04  0.26981733145E+04 0.  0.
        1    1    3    3  502    0 -0.91094561598E+03 -0.34217372672E+03 -0.71578207867E+03  0.12079936915E+04  0.50400001928E-02 0. -1.
       -1    1    3    3    0  502  0.91094561598E+03  0.34217372672E+03  0.11805713489E+04  0.15299194373E+04  0.50400001928E-02 0.  1.
</event>
<event>
 5   0  0.4756800E-06  0.2653674E+04  0.7818609E-02  0.8350195E-01
        1   -1    0    0  501    0  0.00000000000E+00  0.00000000000E+00  0.18500633740E+04  0.18500633740E+04  0.50400001928E-02 0. -1.
       -1   -1    0    0    0  501  0.00000000000E+00  0.00000000000E+00 -0.95158680343E+03  0.95158680344E+03  0.50400001928E-02 0.  1.
    10030    2    1    2    0    0  0.00000000000E+00  0.00000000000E+00  0.89847657060E+03  0.28016501775E+04  0.26536735988E+04 0.  0.
        4    1    3    3  502    0  0.69388861139E+03 -0.11216657668E+04  0.60179066356E+03  0.14497479481E+04  0.12699999809E+01 0. -1.
       -4    1    3    3    0  502 -0.69388861139E+03  0.11216657668E+04  0.29668590704E+03  0.13519022294E+04  0.12699999809E+01 0.  1.
</event>
<event>
 5   0  0.1220908E-05  0.2683186E+04  0.7818609E-02  0.8340481E-01
       -2   -1    0    0    0  501  0.00000000000E+00  0.00000000000E+00  0.98564837693E+03  0.98564837693E+03  0.25500000920E-02 0.  1.
        2   -1    0    0  501    0  0.00000000000E+00  0.00000000000E+00 -0.18260784721E+04  0.18260784721E+04  0.25500000920E-02 0. -1.
    10030    2    1    2    0    0  0.00000000000E+00  0.00000000000E+00 -0.84043009521E+03  0.28117268491E+04  0.26831856307E+04 0.  0.
        2    1    3    3  502    0  0.97726853085E+03  0.55786258443E+03  0.34526363630E+03  0.11770605010E+04  0.25500000920E-02 0.  1.
       -2    1    3    3    0  502 -0.97726853085E+03 -0.55786258443E+03 -0.11856937315E+04  0.16346663481E+04  0.25500000920E-02 0. -1.
</event>
<event>
 5   0  0.4188000E-06  0.2680690E+04  0.7818609E-02  0.8341298E-01
       -3   -1    0    0    0  501  0.00000000000E+00  0.00000000000E+00  0.11874000146E+04  0.11874000189E+04  0.10100000352E+00 0. -1.
        3   -1    0    0  501    0  0.00000000000E+00  0.00000000000E+00 -0.15129900946E+04  0.15129900979E+04  0.10100000352E+00 0.  1.
    10030    2    1    2    0    0  0.00000000000E+00  0.00000000000E+00 -0.32559007996E+03  0.27003901168E+04  0.26806898147E+04 0.  0.
        5    1    3    3  502    0  0.10585722566E+04  0.49819114308E+03 -0.82161415925E+03  0.14296298661E+04  0.46999998093E+01 0.  1.
       -5    1    3    3    0  502 -0.10585722566E+04 -0.49819114308E+03  0.49602407930E+03  0.12707602507E+04  0.46999998093E+01 0. -1.
</event>
<event>
 5   0  0.1261364E-05  0.2620520E+04  0.7818609E-02  0.8361264E-01
        2   -1    0    0  501    0  0.00000000000E+00  0.00000000000E+00  0.20207478237E+04  0.20207478237E+04  0.25500000920E-02 0. -1.
       -2   -1    0    0    0  501  0.00000000000E+00  0.00000000000E+00 -0.84957736399E+03  0.84957736399E+03  0.25500000920E-02 0.  1.
    10030    2    1    2    0    0  0.00000000000E+00  0.00000000000E+00  0.11711704598E+04  0.28703251877E+04  0.26205202609E+04 0.  0.
        5    1    3    3  502    0  0.77523929525E+01  0.46950059200E+03 -0.75424065301E+03  0.88847732561E+03  0.46999998093E+01 0.  1.
       -5    1    3    3    0  502 -0.77523929525E+01 -0.46950059200E+03  0.19254111128E+04  0.19818478621E+04  0.46999998093E+01 0. -1.
</event>
<event>
 5   0  0.1261364E-05  0.2639417E+04  0.7818609E-02  0.8354934E-01
       -2   -1    0    0    0  501  0.00000000000E+00  0.00000000000E+00  0.55829456130E+03  0.55829456130E+03  0.25500000920E-02 0. -1.
        2   -1    0    0  501    0  0.00000000000E+00  0.00000000000E+00 -0.31195552424E+04  0.31195552424E+04  0.25500000920E-02 0.  1.
    10030    2    1    2    0    0  0.00000000000E+00  0.00000000000E+00 -0.25612606811E+04  0.36778498037E+04  0.26394171520E+04 0.  0.
        5    1    3    3  502    0  0.79578546990E+03 -0.10478968288E+04 -0.11395811138E+04  0.17406979873E+04  0.46999998093E+01 0. -1.
       -5    1    3    3    0  502 -0.79578546990E+03  0.10478968288E+04 -0.14216795673E+04  0.19371518164E+04  0.46999998093E+01 0.  1.
</event>
<event>
 5   0  0.4826140E-06  0.2694341E+04  0.7818609E-02  0.8336844E-01
        1   -1    0    0  501    0  0.00000000000E+00  0.00000000000E+00  0.23170528090E+04  0.23170528090E+04  0.50400001928E-02 0.  1.
       -1   -1    0    0    0  501  0.00000000000E+00  0.00000000000E+00 -0.78326574011E+03  0.78326574013E+03  0.50400001928E-02 0. -1.
    10030    2    1    2    0    0  0.00000000000E+00  0.00000000000E+00  0.15337870689E+04  0.31003185492E+04  0.26943407976E+04 0.  0.
        1    1    3    3  502    0  0.13124036301E+04  0.24655601962E+01  0.41700660392E+03  0.13770634971E+04  0.50400001928E-02 0. -1.
       -1    1    3    3    0  502 -0.13124036301E+04 -0.24655601962E+01  0.11167804650E+04  0.17232550520E+04  0.50400001928E-02 0.  1.
</event>
<event>
 5   0  0.4756800E-06  0.2694300E+04  0.7818609E-02  0.8336857E-01
       -1   -1    0    0    0  501  0.00000000000E+00  0.00000000000E+00  0.85528845516E+03  0.85528845517E+03  0.50400001928E-02 0. -1.
        1   -1    0    0  501    0  0.00000000000E+00  0.00000000000E+00 -0.21218727782E+04  0.21218727782E+04  0.50400001928E-02 0.  1.
    10030    2    1    2    0    0  0.00000000000E+00  0.00000000000E+00 -0.12665843231E+04  0.29771612334E+04  0.26943001248E+04 0.  0.
        4    1    3    3  502    0  0.10707590741E+03  0.82132309166E+02  0.84780028719E+03  0.85847417318E+03  0.12699999809E+01 0. -1.
       -4    1    3    3    0  502 -0.10707590741E+03 -0.82132309166E+02 -0.21143846103E+04  0.21186870602E+04  0.12699999809E+01 0.  1.
</event>
<event>
 5   0  0.1232559E-05  0.2691674E+04  0.7818609E-02  0.8337711E-01
       -2   -1    0    0    0  501  0.00000000000E+00  0.00000000000E+00  0.11090809600E+04  0.11090809600E+04  0.25500000920E-02 0.  1.
        2   -1    0    0  501    0  0.00000000000E+00  0.00000000000E+00 -0.16331336904E+04  0.16331336904E+04  0.25500000920E-02 0. -1.
    10030    2    1    2    0    0  0.00000000000E+00  0.00000000000E+00 -0.52405273041E+03  0.27422146504E+04  0.26916741862E+04 0.  0.
        3    1    3    3  502    0 -0.65092564314E+03  0.45489767820E+03  0.84494900377E+03  0.11595580709E+04  0.10100000352E+00 0.  1.
       -3    1    3    3    0  502  0.65092564314E+03 -0.45489767820E+03 -0.13690017342E+04  0.15826565796E+04  0.10100000352E+00 0. -1.
</event>
<event>
 5   0  0.1276517E-05  0.2693666E+04  0.7818609E-02  0.8337063E-01
       -2   -1    0    0    0  501  0.00000000000E+00  0.00000000000E+00  0.18545806728E+04  0.18545806728E+04  0.25500000920E-02 0.  1.
        2   -1    0    0  501    0  0.00000000000E+00  0.00000000000E+00 -0.97809697032E+03  0.97809697032E+03  0.25500000920E-02 0. -1.
    10030    2    1    2    0    0  0.00000000000E+00  0.00000000000E+00  0.87648370245E+03  0.28326776431E+04  0.26936664510E+04 0.  0.
        1    1    3    3  502    0  0.11575298393E+04  0.61331409621E+03  0.76732960382E+03  0.15181647573E+04  0.50400001928E-02 0.  1.
       -1    1    3    3    0  502 -0.11575298393E+04 -0.61331409621E+03  0.10915409863E+03  0.13145128857E+04  0.50400001928E-02 0. -1.
</event>
<event>
 5   0  0.1261364E-05  0.2780456E+04  0.7818609E-02  0.8309362E-01
       -2   -1    0    0    0  501  0.00000000000E+00  0.00000000000E+00  0.11035103974E+04  0.11035103974E+04  0.25500000920E-02 0. -1.
        2   -1    0    0  501    0  0.00000000000E+00  0.00000000000E+00 -0.17514413588E+04  0.17514413588E+04  0.25500000920E-02 0.  1.
    10030    2    1    2    0    0  0.00000000000E+00  0.00000000000E+00 -0.64793096145E+03  0.28549517562E+04  0.27804558978E+04 0.  0.
        5    1    3    3  502    0  0.86381354106E+03 -0.73927651442E+03  0.49747383471E+03  0.12410503232E+04  0.46999998093E+01 0. -1.
       -5    1    3    3    0  502 -0.86381354106E+03  0.73927651442E+03 -0.11454047962E+04  0.16139014330E+04  0.46999998093E+01 0.  1.
</event>
<event>
 5   0  0.4846214E-06  0.2707767E+04  0.7818609E-02  0.8332489E-01
        1   -1    0    0  501    0  0.00000000000E+00  0.00000000000E+00  0.21319837419E+04  0.21319837419E+04  0.50400001928E-02 0. -1.
       -1   -1    0    0    0  501  0.00000000000E+00  0.00000000000E+00 -0.85976289609E+03  0.85976289611E+03  0.50400001928E-02 0.  1.
    10030    2    1    2    0    0  0.00000000000E+00  0.00000000000E+00  0.12722208458E+04  0.29917466380E+04  0.27077669888E+04 0.  0.
        2    1    3    3  502    0  0.23191009040E+02  0.43491360278E+03  0.20524704066E+04  0.20981712120E+04  0.25500000920E-02 0. -1.
       -2    1    3    3    0  502 -0.23191009040E+02 -0.43491360278E+03 -0.78024956083E+03  0.89357542601E+03  0.25500000920E-02 0.  1.
</event>
<event>
 5   0  0.1232559E-05  0.2695135E+04  0.7818609E-02  0.8336585E-01
       -2   -1    0    0    0  501  0.00000000000E+00  0.00000000000E+00  0.13281144676E+04  0.13281144676E+04  0.25500000920E-02 0. -1.
        2   -1    0    0  501    0  0.00000000000E+00  0.00000000000E+00 -0.13673052083E+04  0.13673052083E+04  0.25500000920E-02 0.  1.
    10030    2    1    2    0    0  0.00000000000E+00  0.00000000000E+00 -0.39190740695E+02  0.26954196760E+04  0.26951347490E+04 0.  0.
        3    1    3    3  502    0  0.43784053125E+03  0.65455236031E+03 -0.11132349569E+04  0.13636110892E+04  0.10100000352E+00 0.  1.
       -3    1    3    3    0  502 -0.43784053125E+03 -0.65455236031E+03  0.10740442162E+04  0.13318085867E+04  0.10100000352E+00 0. -1.
</event>
<event>
 5   0  0.1286641E-05  0.2682612E+04  0.7818609E-02  0.8340669E-01
       -2   -1    0    0    0  501  0.00000000000E+00  0.00000000000E+00  0.76991805973E+03  0.76991805974E+03  0.25500000920E-02 0. -1.
        2   -1    0    0  501    0  0.00000000000E+00  0.00000000000E+00 -0.23367443920E+04  0.23367443920E+04  0.25500000920E-02 0.  1.
    10030    2    1    2    0    0  0.00000000000E+00  0.00000000000E+00 -0.15668263323E+04  0.31066624518E+04  0.26826119424E+04 0.  0.
        4    1    3    3  502    0  0.18720768534E+03  0.10933144598E+04  0.89928680933E+02  0.11128665715E+04  0.12699999809E+01 0. -1.
       -4    1    3    3    0  502 -0.18720768534E+03 -0.10933144598E+04 -0.16567550132E+04  0.19937958803E+04  0.12699999809E+01 0.  1.
</event>
<event>
 5   0  0.4188000E-06  0.2683139E+04  0.7818609E-02  0.8340497E-01
        3   -1    0    0  501    0  0.00000000000E+00  0.00000000000E+00  0.29616330059E+04  0.29616330076E+04  0.10100000352E+00 0.  1.
       -3   -1    0    0    0  501  0.00000000000E+00  0.00000000000E+00 -0.60770803839E+03  0.60770804678E+03  0.10100000352E+00 0. -1.
    10030    2    1    2    0    0  0.00000000000E+00  0.00000000000E+00  0.23539249675E+04  0.35693410544E+04  0.26831386118E+04 0.  0.
        4    1    3    3  502    0 -0.89626694575E+03 -0.91193858674E+02  0.24993734653E+04  0.26567800228E+04  0.12699999809E+01 0.  1.
       -4    1    3    3    0  502  0.89626694575E+03  0.91193858674E+02 -0.14544849778E+03  0.91256103155E+03  0.12699999809E+01 0. -1.
</event>
<event>
 5   0  0.1232559E-05  0.3024075E+04  0.7818609E-02  0.8236889E-01
        2   -1    0    0  501    0  0.00000000000E+00  0.00000000000E+00  0.20500761935E+04  0.20500761935E+04  0.25500000920E-02 0. -1.
       -2   -1    0    0    0  501  0.00000000000E+00  0.00000000000E+00 -0.11152057433E+04  0.11152057434E+04  0.25500000920E-02 0.  1.
    10030    2    1    2    0    0  0.00000000000E+00  0.00000000000E+00  0.93487045014E+03  0.31652819368E+04  0.30240745661E+04 0.  0.
        3    1    3    3  502    0  0.77896887101E+02 -0.15093726256E+04  0.42082396955E+03  0.15688742689E+04  0.10100000352E+00 0.  1.
       -3    1    3    3    0  502 -0.77896887101E+02  0.15093726256E+04  0.51404648058E+03  0.15964076680E+04  0.10100000352E+00 0. -1.
</event>
<event>
 5   0  0.1286641E-05  0.2532720E+04  0.7818609E-02  0.8391421E-01
        2   -1    0    0  501    0  0.00000000000E+00  0.00000000000E+00  0.64858560636E+03  0.64858560636E+03  0.25500000920E-02 0.  1.
       -2   -1    0    0    0  501  0.00000000000E+00  0.00000000000E+00 -0.24725621910E+04  0.24725621910E+04  0.25500000920E-02 0. -1.
    10030    2    1    2    0    0  0.00000000000E+00  0.00000000000E+00 -0.18239765847E+04  0.31211477974E+04  0.25327204725E+04 0.  0.
        4    1    3    3  502    0  0.45903775255E+03 -0.67360807448E+02  0.54007814480E+03  0.71199659552E+03  0.12699999809E+01 0.  1.
       -4    1    3    3    0  502 -0.45903775255E+03  0.67360807448E+02 -0.23640547295E+04  0.24091512019E+04  0.12699999809E+01 0. -1.
</event>
<event>
 5   0  0.1276517E-05  0.2699417E+04  0.7818609E-02  0.8335194E-01
        2   -1    0    0  501    0  0.00000000000E+00  0.00000000000E+00  0.12677804020E+04  0.12677804020E+04  0.25500000920E-02 0. -1.
       -2   -1    0    0    0  501  0.00000000000E+00  0.00000000000E+00 -0.14369306387E+04  0.14369306387E+04  0.25500000920E-02 0.  1.
    10030    2    1    2    0    0  0.00000000000E+00  0.00000000000E+00 -0.16915023672E+03  0.27047110406E+04  0.26994166056E+04 0.  0.
        1    1    3    3  502    0 -0.21368792005E+03  0.10329391800E+03  0.12467070097E+04  0.12690983133E+04  0.50400001928E-02 0. -1.
       -1    1    3    3    0  502  0.21368792005E+03 -0.10329391800E+03 -0.14158572464E+04  0.14356127274E+04  0.50400001928E-02 0.  1.
</event>
<event>
 5   0  0.4756800E-06  0.2747294E+04  0.7818609E-02  0.8319821E-01
       -1   -1    0    0    0  501  0.00000000000E+00  0.00000000000E+00  0.15961770222E+04  0.15961770222E+04  0.50400001928E-02 0. -1.
        1   -1    0    0  501    0  0.00000000000E+00  0.00000000000E+00 -0.11821405410E+04  0.11821405410E+04  0.50400001928E-02 0.  1.
    10030    2    1    2    0    0  0.00000000000E+00  0.00000000000E+00  0.41403648116E+03  0.27783175632E+04  0.27472936272E+04 0.  0.
        4    1    3    3  502    0  0.41432141281E+03  0.10403297631E+04  0.10115875559E+04  0.15090590596E+04  0.12699999809E+01 0. -1.
       -4    1    3    3    0  502 -0.41432141281E+03 -0.10403297631E+04 -0.59755107478E+03  0.12692585036E+04  0.12699999809E+01 0.  1.
</event>
<event>
 5   0  0.1232559E-05  0.2702411E+04  0.7818609E-02  0.8334223E-01
       -2   -1    0    0    0  501  0.00000000000E+00  0.00000000000E+00  0.13785911568E+04  0.13785911568E+04  0.25500000920E-02 0. -1.
        2   -1    0    0  501    0  0.00000000000E+00  0.00000000000E+00 -0.13243634525E+04  0.13243634525E+04  0.25500000920E-02 0.  1.
    10030    2    1    2    0    0  0.00000000000E+00  0.00000000000E+00  0.54227704297E+02  0.27029546092E+04  0.27024105860E+04 0.  0.
        3    1    3    3  502    0 -0.12002514270E+04  0.61159513894E+03 -0.78281132251E+02  0.13493628303E+04  0.10100000352E+00 0. -1.
       -3    1    3    3    0  502  0.12002514270E+04 -0.61159513894E+03  0.13250883655E+03  0.13535917789E+04  0.10100000352E+00 0.  1.
</event>
<event>
 5   0  0.1261364E-05  0.2711067E+04  0.7818609E-02  0.8331423E-01
       -2   -1    0    0    0  501  0.00000000000E+00  0.00000000000E+00  0.18860361495E+04  0.18860361495E+04  0.25500000920E-02 0.  1.
        2   -1    0    0  501    0  0.00000000000E+00  0.00000000000E+00 -0.97424993170E+03  0.97424993171E+03  0.25500000920E-02 0. -1.
    10030    2    1    2    0    0  0.00000000000E+00  0.00000000000E+00  0.91178621781E+03  0.28602860812E+04  0.27110666461E+04 0.  0.
        5    1    3    3  502    0 -0.61201669584E+02  0.10475753948E+04  0.13611947987E+04  0.17187301191E+04  0.46999998093E+01 0.  1.
       -5    1    3    3    0  502  0.61201669584E+02 -0.10475753948E+04 -0.44940858091E+03  0.11415559621E+04  0.46999998093E+01 0. -1.
</event>
<event>
 5   0  0.5152288E-06  0.2701689E+04  0.7818609E-02  0.8334457E-01
        1   -1    0    0  501    0  0.00000000000E+00  0.00000000000E+00  0.22677113895E+04  0.22677113895E+04  0.50400001928E-02 0. -1.
       -1   -1    0    0    0  501  0.00000000000E+00  0.00000000000E+00 -0.80467972957E+03  0.80467972959E+03  0.50400001928E-02 0.  1.
    10030    2    1    2    0    0  0.00000000000E+00  0.00000000000E+00  0.14630316599E+04  0.30723911191E+04  0.27016893883E+04 0.  0.
        3    1    3    3  502    0 -0.42067241004E+03 -0.66772121934E+03 -0.51525576703E+03  0.94249955914E+03  0.10100000352E+00 0.  1.
       -3    1    3    3    0  502  0.42067241004E+03  0.66772121934E+03  0.19782874270E+04  0.21298915600E+04  0.10100000352E+00 0. -1.
</event>
<event>
 5   0  0.4756800E-06  0.2708568E+04  0.7818609E-02  0.8332230E-01
        1   -1    0    0  501    0  0.00000000000E+00  0.00000000000E+00  0.20517734736E+04  0.20517734737E+04  0.50400001928E-02 0.  1.
       -1   -1    0    0    0  501  0.00000000000E+00  0.00000000000E+00 -0.89390227793E+03  0.89390227794E+03  0.50400001928E-02 0. -1.
    10030    2    1    2    0    0  0.00000000000E+00  0.00000000000E+00  0.11578711957E+04  0.29456757516E+04  0.27085678739E+04 0.  0.
        4    1    3    3  502    0 -0.42249264995E+03  0.12811860597E+04  0.70828250847E+03  0.15236808995E+04  0.12699999809E+01 0.  1.
       -4    1    3    3    0  502  0.42249264995E+03 -0.12811860597E+04  0.44958868725E+03  0.14219948521E+04  0.12699999809E+01 0. -1.
</event>
<event>
 5   0  0.1286641E-05  0.2534903E+04  0.7818609E-02  0.8390656E-01
        2   -1    0    0  501    0  0.00000000000E+00  0.00000000000E+00  0.19051641146E+04  0.19051641146E+04  0.25500000920E-02 0. -1.
       -2   -1    0    0    0  501  0.00000000000E+00  0.00000000000E+00 -0.84319921528E+03  0.84319921529E+03  0.25500000920E-02 0.  1.
    10030    2    1    2    0    0  0.00000000000E+00  0.00000000000E+00  0.10619648993E+04  0.27483633299E+04  0.25349026698E+04 0.  0.
        4    1    3    3  502    0 -0.53238893150E+03 -0.19563723365E+03 -0.69791881993E+03  0.89933541779E+03  0.12699999809E+01 0.  1.
       -4    1    3    3    0  502  0.53238893150E+03  0.19563723365E+03  0.17598837192E+04  0.18490279121E+04  0.12699999809E+01 0. -1.
</event>
<event>
 5   0  0.5152288E-06  0.3078850E+04  0.7818609E-02  0.8221567E-01
        1   -1    0    0  501    0  0.00000000000E+00  0.00000000000E+00  0.14346838281E+04  0.14346838281E+04  0.50400001928E-02 0. -1.
       -1   -1    0    0    0  501  0.00000000000E+00  0.00000000000E+00 -0.16518125826E+04  0.16518125826E+04  0.50400001928E-02 0.  1.
    10030    2    1    2    0    0  0.00000000000E+00  0.00000000000E+00 -0.21712875445E+03  0.30864964107E+04  0.30788496548E+04 0.  0.
        3    1    3    3  502    0  0.79558915111E+03  0.98216635171E+03  0.77237632813E+03  0.14812758157E+04  0.10100000352E+00 0.  1.
       -3    1    3    3    0  502 -0.79558915111E+03 -0.98216635171E+03 -0.98950508258E+03  0.16052205950E+04  0.10100000352E+00 0. -1.
</event>
<event>
 5   0  0.1261364E-05  0.2719494E+04  0.7818609E-02  0.8328708E-01
        2   -1    0    0  501    0  0.00000000000E+00  0.00000000000E+00  0.17520089030E+04  0.17520089030E+04  0.25500000920E-02 0.  1.
       -2   -1    0    0    0  501  0.00000000000E+00  0.00000000000E+00 -0.10553094571E+04  0.10553094571E+04  0.25500000920E-02 0. -1.
    10030    2    1    2    0    0  0.00000000000E+00  0.00000000000E+00  0.69669944592E+03  0.28073183600E+04  0.27194937501E+04 0.  0.
        5    1    3    3  502    0  0.54732485913E+03 -0.34552349074E+03 -0.88606837147E+03  0.10973104542E+04  0.46999998093E+01 0. -1.
       -5    1    3    3    0  502 -0.54732485913E+03  0.34552349074E+03  0.15827678174E+04  0.17100079058E+04  0.46999998093E+01 0.  1.
</event>
<event>
 5   0  0.1220908E-05  0.2539484E+04  0.7818609E-02  0.8389053E-01
        2   -1    0    0  501    0  0.00000000000E+00  0.00000000000E+00  0.16589597459E+04  0.16589597459E+04  0.25500000920E-02 0. -1.
       -2   -1    0    0    0  501  0.00000000000E+00  0.00000000000E+00 -0.97184062945E+03  0.97184062945E+03  0.25500000920E-02 0.  1.
    10030    2    1    2    0    0  0.00000000000E+00  0.00000000000E+00  0.68711911644E+03  0.26308003753E+04  0.25394837930E+04 0.  0.
        2    1    3    3  502    0 -0.73494990560E+03  0.11310506202E+03  0.14097922900E+04  0.15938815576E+04  0.25500000920E-02 0. -1.
       -2    1    3    3    0  502  0.73494990560E+03 -0.11310506202E+03 -0.72267317354E+03  0.10369188177E+04  0.25500000920E-02 0.  1.
</event>
<event>
 5   0  0.1261364E-05  0.2716490E+04  0.7818609E-02  0.8329674E-01
       -2   -1    0    0    0  501  0.00000000000E+00  0.00000000000E+00  0.79749155024E+03  0.79749155025E+03  0.25500000920E-02 0.  1.
        2   -1    0    0  501    0  0.00000000000E+00  0.00000000000E+00 -0.23132895326E+04  0.23132895326E+04  0.25500000920E-02 0. -1.
    10030    2    1    2    0    0  0.00000000000E+00  0.00000000000E+00 -0.15157979824E+04  0.31107810829E+04  0.27164895402E+04 0.  0.
        5    1    3    3  502    0  0.32140900876E+03 -0.10282022793E+04 -0.17051949005E+04  0.20169817591E+04  0.46999998093E+01 0. -1.
       -5    1    3    3    0  502 -0.32140900876E+03  0.10282022793E+04  0.18939691813E+03  0.10937993237E+04  0.46999998093E+01 0.  1.
</event>
<event>
 5   0  0.4824715E-06  0.2711880E+04  0.7818609E-02  0.8331161E-01
        1   -1    0    0  501    0  0.00000000000E+00  0.00000000000E+00  0.12290124097E+04  0.12290124097E+04  0.50400001928E-02 0.  1.
       -1   -1    0    0    0  501  0.00000000000E+00  0.00000000000E+00 -0.14959765338E+04  0.14959765338E+04  0.50400001928E-02 0. -1.
    10030    2    1    2    0    0  0.00000000000E+00  0.00000000000E+00 -0.26696412411E+03  0.27249889435E+04  0.27118803253E+04 0.  0.
        5    1    3    3  502    0 -0.11916390984E+04  0.20857988071E+03 -0.74884929413E+03  0.14227813124E+04  0.46999998093E+01 0. -1.
       -5    1    3    3    0  502  0.11916390984E+04 -0.20857988071E+03  0.48188517002E+03  0.13022076311E+04  0.46999998093E+01 0.  1.
</event>
<event>
 5   0  0.4756800E-06  0.2817858E+04  0.7818609E-02  0.8297746E-01
        1   -1    0    0  501    0  0.00000000000E+00  0.00000000000E+00  0.16642245265E+04  0.16642245265E+04  0.50400001928E-02 0. -1.
       -1   -1    0    0    0  501  0.00000000000E+00  0.00000000000E+00 -0.11927959445E+04  0.11927959445E+04  0.50400001928E-02 0.  1.
    10030    2    1    2    0    0  0.00000000000E+00  0.00000000000E+00  0.47142858199E+03  0.28570204709E+04  0.28178575307E+04 0.  0.
        4    1    3    3  502    0  0.12292532221E+04  0.67844801740E+03  0.11693900684E+03  0.14089114736E+04  0.12699999809E+01 0.  1.
       -4    1    3    3    0  502 -0.12292532221E+04 -0.67844801740E+03  0.35448957514E+03  0.14481089973E+04  0.12699999809E+01 0. -1.
</event>
<event>
 5   0  0.1232559E-05  0.2696724E+04  0.7818609E-02  0.8336069E-01
        2   -1    0    0  501    0  0.00000000000E+00  0.00000000000E+00  0.12964248734E+04  0.12964248734E+04  0.25500000920E-02 0.  1.
       -2   -1    0    0    0  501  0.00000000000E+00  0.00000000000E+00 -0.14023795615E+04  0.14023795616E+04  0.25500000920E-02 0. -1.
    10030    2    1    2    0    0  0.00000000000E+00  0.00000000000E+00 -0.10595468818E+03  0.26988044349E+04  0.26967237497E+04 0.  0.
        3    1    3    3  502    0  0.13216221196E+04  0.13177734544E+03 -0.28559902318E+03  0.13585349124E+04  0.10100000352E+00 0. -1.
       -3    1    3    3    0  502 -0.13216221196E+04 -0.13177734544E+03  0.17964433500E+03  0.13402695226E+04  0.10100000352E+00 0.  1.
</event>
<event>
 5   0  0.4846214E-06  0.2690384E+04  0.7818609E-02  0.8338132E-01
       -1   -1    0    0    0  501  0.00000000000E+00  0.00000000000E+00  0.60955215413E+03  0.60955215416E+03  0.50400001928E-02 0. -1.
        1   -1    0    0  501    0  0.00000000000E+00  0.00000000000E+00 -0.29686414539E+04  0.29686414539E+04  0.50400001928E-02 0.  1.
    10030    2    1    2    0    0  0.00000000000E+00  0.00000000000E+00 -0.23590892997E+04  0.35781936080E+04  0.26903842054E+04 0.  0.
        2    1    3    3  502    0 -0.11050081727E+04  0.76286251504E+03 -0.12870975902E+04  0.18600060444E+04  0.25500000920E-02 0. -1.
       -2    1    3    3    0  502  0.11050081727E+04 -0.76286251504E+03 -0.10719917096E+04  0.17181875637E+04  0.25500000920E-02 0.  1.
</event>
<event>
 5   0  0.1286641E-05  0.2685923E+04  0.7818609E-02  0.8339587E-01
        2   -1    0    0  501    0  0.00000000000E+00  0.00000000000E+00  0.22415188901E+04  0.22415188901E+04  0.25500000920E-02 0. -1.
       -2   -1    0    0    0  501  0.00000000000E+00  0.00000000000E+00 -0.80460851885E+03  0.80460851886E+03  0.25500000920E-02 0.  1.
    10030    2    1    2    0    0  0.00000000000E+00  0.00000000000E+00  0.14369103712E+04  0.30461274090E+04  0.26859227049E+04 0.  0.
        4    1    3    3  502    0 -0.49752292829E+03  0.16887269978E+03 -0.68321123732E+03  0.86187369180E+03  0.12699999809E+01 0.  1.
       -4    1    3    3    0  502  0.49752292829E+03 -0.16887269978E+03  0.21201216086E+04  0.21842537172E+04  0.12699999809E+01 0. -1.
</event>
<event>
 5   0  0.4756800E-06  0.2717268E+04  0.7818609E-02  0.8329424E-01
       -1   -1    0    0    0  501  0.00000000000E+00  0.00000000000E+00  0.14258829015E+04  0.14258829015E+04  0.50400001928E-02 0. -1.
        1   -1    0    0  501    0  0.00000000000E+00  0.00000000000E+00 -0.12945567191E+04  0.12945567191E+04  0.50400001928E-02 0.  1.
    10030    2    1    2    0    0  0.00000000000E+00  0.00000000000E+00  0.13132618237E+03  0.27204396206E+04  0.27172679594E+04 0.  0.
        4    1    3    3  502    0 -0.35789081975E+03  0.79658291559E+03  0.11076730601E+04  0.14105216770E+04  0.12699999809E+01 0. -1.
       -4    1    3    3    0  502  0.35789081975E+03 -0.79658291559E+03 -0.97634687776E+03  0.13099179436E+04  0.12699999809E+01 0.  1.
</event>
<event>
 5   0  0.4826140E-06  0.2691390E+04  0.7818609E-02  0.8337804E-01
        1   -1    0    0  501    0  0.00000000000E+00  0.00000000000E+00  0.24090412670E+04  0.24090412670E+04  0.50400001928E-02 0. -1.
       -1   -1    0    0    0  501  0.00000000000E+00  0.00000000000E+00 -0.75170803835E+03  0.75170803837E+03  0.50400001928E-02 0.  1.
    10030    2    1    2    0    0  0.00000000000E+00  0.00000000000E+00  0.16573332286E+04  0.31607493054E+04  0.26913904846E+04 0.  0.
        1    1    3    3  502    0 -0.26449434841E+03  0.12160354048E+04  0.14300156705E+04  0.18956909516E+04  0.50400001928E-02 0.  1.
       -1    1    3    3    0  502  0.26449434841E+03 -0.12160354048E+04  0.22731755812E+03  0.12650583537E+04  0.50400001928E-02 0. -1.
</event>
<event>
 5   0  0.4824715E-06  0.2687981E+04  0.7818609E-02  0.8338915E-01
        1   -1    0    0  501    0  0.00000000000E+00  0.00000000000E+00  0.12365222740E+04  0.12365222740E+04  0.50400001928E-02 0.  1.
       -1   -1    0    0    0  501  0.00000000000E+00  0.00000000000E+00 -0.14607985336E+04  0.14607985336E+04  0.50400001928E-02 0. -1.
    10030    2    1    2    0    0  0.00000000000E+00  0.00000000000E+00 -0.22427625960E+03  0.26973208076E+04  0.26879805986E+04 0.  0.
        5    1    3    3  502    0  0.54402246261E+03 -0.82468721447E+03 -0.10264674533E+04  0.14246848649E+04  0.46999998093E+01 0.  1.
       -5    1    3    3    0  502 -0.54402246261E+03  0.82468721447E+03  0.80219119368E+03  0.12726359427E+04  0.46999998093E+01 0. -1.
</event>
<event>
 5   0  0.5152288E-06  0.2742482E+04  0.7818609E-02  0.8321351E-01
       -1   -1    0    0    0  501  0.00000000000E+00  0.00000000000E+00  0.90049577035E+03  0.90049577037E+03  0.50400001928E-02 0.  1.
        1   -1    0    0  501    0  0.00000000000E+00  0.00000000000E+00 -0.20880735514E+04  0.20880735514E+04  0.50400001928E-02 0. -1.
    10030    2    1    2    0    0  0.00000000000E+00  0.00000000000E+00 -0.11875777811E+04  0.29885693218E+04  0.27424816508E+04 0.  0.
        3    1    3    3  502    0 -0.86848023950E+03 -0.78399629118E+03  0.18549753624E+03  0.11846170086E+04  0.10100000352E+00 0. -1.
       -3    1    3    3    0  502  0.86848023950E+03  0.78399629118E+03 -0.13730753173E+04  0.18039523132E+04  0.10100000352E+00 0.  1.
</event>
<event>
 5   0  0.1220908E-05  0.2863207E+04  0.7818609E-02  0.8283909E-01
       -2   -1    0    0    0  501  0.00000000000E+00  0.00000000000E+00  0.12290024229E+04  0.12290024229E+04  0.25500000920E-02 0. -1.
        2   -1    0    0  501    0  0.00000000000E+00  0.00000000000E+00 -0.16676036684E+04  0.16676036684E+04  0.25500000920E-02 0.  1.
    10030    2    1    2    0    0  0.00000000000E+00  0.00000000000E+00 -0.43860124555E+03  0.28966060913E+04  0.28632072569E+04 0.  0.
        2    1    3    3  502    0 -0.45738396318E+03  0.12519475426E+04 -0.74780832282E+03  0.15283291618E+04  0.25500000920E-02 0. -1.
       -2    1    3    3    0  502  0.45738396318E+03 -0.12519475426E+04  0.30920707727E+03  0.13682769295E+04  0.25500000920E-02 0.  1.
</event>
<event>
 5   0  0.4756800E-06  0.2683681E+04  0.7818609E-02  0.8340319E-01
        1   -1    0    0  501    0  0.00000000000E+00  0.00000000000E+00  0.23998959851E+04  0.23998959851E+04  0.50400001928E-02 0.  1.
       -1   -1    0    0    0  501  0.00000000000E+00  0.00000000000E+00 -0.75025577286E+03  0.75025577288E+03  0.50400001928E-02 0. -1.
    10030    2    1    2    0    0  0.00000000000E+00  0.00000000000E+00  0.16496402122E+04  0.31501517580E+04  0.26836809178E+04 0.  0.
        4    1    3    3  502    0  0.32989534066E+03 -0.39436453167E+03  0.22796815521E+04  0.23369432838E+04  0.12699999809E+01 0.  1.
       -4    1    3    3    0  502 -0.32989534066E+03  0.39436453167E+03 -0.63004133989E+03  0.81320847419E+03  0.12699999809E+01 0. -1.
</event>
<event>
 5   0  0.1261364E-05  0.2708773E+04  0.7818609E-02  0.8332164E-01
        2   -1    0    0  501    0  0.00000000000E+00  0.00000000000E+00  0.11863449698E+04  0.11863449698E+04  0.25500000920E-02 0.  1.
       -2   -1    0    0    0  501  0.00000000000E+00  0.00000000000E+00 -0.15462302019E+04  0.15462302019E+04  0.25500000920E-02 0. -1.
    10030    2    1    2    0    0  0.00000000000E+00  0.00000000000E+00 -0.35988523209E+03  0.27325751716E+04  0.27087727273E+04 0.  0.
        5    1    3    3  502    0  0.12885364858E+04 -0.39982094488E+03 -0.29997247315E+03  0.13820957412E+04  0.46999998093E+01 0. -1.
       -5    1    3    3    0  502 -0.12885364858E+04  0.39982094488E+03 -0.59912758946E+02  0.13504794304E+04  0.46999998093E+01 0.  1.
</event>
<event>
 5   0  0.1286641E-05  0.2683671E+04  0.7818609E-02  0.8340323E-01
        2   -1    0    0  501    0  0.00000000000E+00  0.00000000000E+00  0.17208865181E+04  0.17208865181E+04  0.25500000920E-02 0. -1.
       -2   -1    0    0    0  501  0.00000000000E+00  0.00000000000E+00 -0.10462759831E+04  0.10462759831E+04  0.25500000920E-02 0.  1.
    10030    2    1    2    0    0  0.00000000000E+00  0.00000000000E+00  0.67461053498E+03  0.27671625012E+04  0.26836707946E+04 0.  0.
        4    1    3    3  502    0 -0.73558955400E+02 -0.10212679408E+04  0.12315356549E+04  0.16015869657E+04  0.12699999809E+01 0. -1.
       -4    1    3    3    0  502  0.73558955400E+02  0.10212679408E+04 -0.55692511987E+03  0.11655755354E+04  0.12699999809E+01 0.  1.
</event>
<event>
 5   0  0.4826140E-06  0.2694012E+04  0.7818609E-02  0.8336950E-01
        1   -1    0    0  501    0  0.00000000000E+00  0.00000000000E+00  0.13641209780E+04  0.13641209780E+04  0.50400001928E-02 0. -1.
       -1   -1    0    0    0  501  0.00000000000E+00  0.00000000000E+00 -0.13301062059E+04  0.13301062059E+04  0.50400001928E-02 0.  1.
    10030    2    1    2    0    0  0.00000000000E+00  0.00000000000E+00  0.34014772100E+02  0.26942271839E+04  0.26940124561E+04 0.  0.
        1    1    3    3  502    0 -0.10180260432E+04 -0.38092424811E+03 -0.77863472785E+03  0.13370685648E+04  0.50400001928E-02 0.  1.
       -1    1    3    3    0  502  0.10180260432E+04  0.38092424811E+03  0.81264949995E+03  0.13571586191E+04  0.50400001928E-02 0. -1.
</event>
<event>
 5   0  0.1261364E-05  0.2733769E+04  0.7818609E-02  0.8324131E-01
        2   -1    0    0  501    0  0.00000000000E+00  0.00000000000E+00  0.15429724771E+04  0.15429724771E+04  0.25500000920E-02 0. -1.
       -2   -1    0    0    0  501  0.00000000000E+00  0.00000000000E+00 -0.12108920620E+04  0.12108920620E+04  0.25500000920E-02 0.  1.
    10030    2    1    2    0    0  0.00000000000E+00  0.00000000000E+00  0.33208041512E+03  0.27538645391E+04  0.27337689181E+04 0.  0.
        5    1    3    3  502    0 -0.62312888598E+03 -0.65850623031E+03 -0.86443148175E+03  0.12526707231E+04  0.46999998093E+01 0.  1.
       -5    1    3    3    0  502  0.62312888598E+03  0.65850623031E+03  0.11965118969E+04  0.15011938160E+04  0.46999998093E+01 0. -1.
</event>
<event>
 5   0  0.1276517E-05  0.2704732E+04  0.7818609E-02  0.8333471E-01
       -2   -1    0    0    0  501  0.00000000000E+00  0.00000000000E+00  0.11988565669E+04  0.11988565669E+04  0.25500000920E-02 0. -1.
        2   -1    0    0  501    0  0.00000000000E+00  0.00000000000E+00 -0.15255315074E+04  0.15255315074E+04  0.25500000920E-02 0.  1.
    10030    2    1    2    0    0  0.00000000000E+00  0.00000000000E+00 -0.32667494045E+03  0.27243880743E+04  0.27047317543E+04 0.  0.
        1    1    3    3  502    0 -0.43046218941E+03 -0.11812439658E+04  0.33853896127E+03  0.13020152194E+04  0.50400001928E-02 0. -1.
       -1    1    3    3    0  502  0.43046218941E+03  0.11812439658E+04 -0.66521390172E+03  0.14223728549E+04  0.50400001928E-02 0.  1.
</event>
<event>
 5   0  0.1232559E-05  0.2660278E+04  0.7818609E-02  0.8348010E-01
        2   -1    0    0  501    0  0.00000000000E+00  0.00000000000E+00  0.18291169576E+04  0.18291169576E+04  0.25500000920E-02 0.  1.
       -2   -1    0    0    0  501  0.00000000000E+00  0.00000000000E+00 -0.96728056228E+03  0.96728056228E+03  0.25500000920E-02 0. -1.
    10030    2    1    2    0    0  0.00000000000E+00  0.00000000000E+00  0.86183639534E+03  0.27963975199E+04  0.26602776391E+04 0.  0.
        3    1    3    3  502    0  0.87428965320E+03  0.10012979464E+04  0.48121295413E+03  0.14136993643E+04  0.10100000352E+00 0. -1.
       -3    1    3    3    0  502 -0.87428965320E+03 -0.10012979464E+04  0.38062344120E+03  0.13826981556E+04  0.10100000352E+00 0.  1.
</event>
<event>
 5   0  0.4826140E-06  0.2692722E+04  0.7818609E-02  0.8337370E-01
       -1   -1    0    0    0  501  0.00000000000E+00  0.00000000000E+00  0.15810190326E+04  0.15810190326E+04  0.50400001928E-02 0. -1.
        1   -1    0    0  501    0  0.00000000000E+00  0.00000000000E+00 -0.11465316412E+04  0.11465316412E+04  0.50400001928E-02 0.  1.
    10030    2    1    2    0    0  0.00000000000E+00  0.00000000000E+00  0.43448739148E+03  0.27275506738E+04  0.26927223000E+04 0.  0.
        1    1    3    3  502    0  0.91228866128E+03  0.88421632517E+03  0.66862979182E+03  0.14356792503E+04  0.50400001928E-02 0. -1.
       -1    1    3    3    0  502 -0.91228866128E+03 -0.88421632517E+03 -0.23414240034E+03  0.12918714235E+04  0.50400001928E-02 0.  1.
</event>
<event>
 5   0  0.4846214E-06  0.2688073E+04  0.7818609E-02  0.8338885E-01
       -1   -1    0    0    0  501  0.00000000000E+00  0.00000000000E+00  0.12856095139E+04  0.12856095139E+04  0.50400001928E-02 0.  1.
        1   -1    0    0  501    0  0.00000000000E+00  0.00000000000E+00 -0.14051191553E+04  0.14051191553E+04  0.50400001928E-02 0. -1.
    10030    2    1    2    0    0  0.00000000000E+00  0.00000000000E+00 -0.11950964139E+03  0.26907286692E+04  0.26880733280E+04 0.  0.
        2    1    3    3  502    0 -0.53993214621E+03 -0.29629879267E+03  0.11360443782E+04  0.12922525010E+04  0.25500000920E-02 0.  1.
       -2    1    3    3    0  502  0.53993214621E+03  0.29629879267E+03 -0.12555540196E+04  0.13984761682E+04  0.25500000920E-02 0. -1.
</event>
<event>
 5   0  0.1276517E-05  0.2785873E+04  0.7818609E-02  0.8307668E-01
        2   -1    0    0  501    0  0.00000000000E+00  0.00000000000E+00  0.13163195201E+04  0.13163195201E+04  0.25500000920E-02 0. -1.
       -2   -1    0    0    0  501  0.00000000000E+00  0.00000000000E+00 -0.14740130579E+04  0.14740130580E+04  0.25500000920E-02 0.  1.
    10030    2    1    2    0    0  0.00000000000E+00  0.00000000000E+00 -0.15769353786E+03  0.27903325780E+04  0.27858730488E+04 0.  0.
        1    1    3    3  502    0  0.91255943219E+03 -0.52405642949E+03 -0.99292603410E+03  0.14468247882E+04  0.50400001928E-02 0.  1.
       -1    1    3    3    0  502 -0.91255943219E+03  0.52405642949E+03  0.83523249624E+03  0.13435077898E+04  0.50400001928E-02 0. -1.
</event>
<event>
 5   0  0.1232559E-05  0.2722733E+04  0.7818609E-02  0.8327666E-01
        2   -1    0    0  501    0  0.00000000000E+00  0.00000000000E+00  0.15292363400E+04  0.15292363400E+04  0.25500000920E-02 0.  1.
       -2   -1    0    0    0  501  0.00000000000E+00  0.00000000000E+00 -0.12119243389E+04  0.12119243389E+04  0.25500000920E-02 0. -1.
    10030    2    1    2    0    0  0.00000000000E+00  0.00000000000E+00  0.31731200112E+03  0.27411606789E+04  0.27227329949E+04 0.  0.
        3    1    3    3  502    0 -0.90337030727E+03 -0.90664566904E+03  0.62572961093E+03  0.14246479697E+04  0.10100000352E+00 0.  1.
       -3    1    3    3    0  502  0.90337030727E+03  0.90664566904E+03 -0.30841760982E+03  0.13165127092E+04  0.10100000352E+00 0. -1.
</event>
<event>
 5   0  0.4824715E-06  0.2645096E+04  0.7818609E-02  0.8353043E-01
       -1   -1    0    0    0  501  0.00000000000E+00  0.00000000000E+00  0.95724661833E+03  0.95724661835E+03  0.50400001928E-02 0. -1.
        1   -1    0    0  501    0  0.00000000000E+00  0.00000000000E+00 -0.18272542610E+04  0.18272542610E+04  0.50400001928E-02 0.  1.
    10030    2    1    2    0    0  0.00000000000E+00  0.00000000000E+00 -0.87000764266E+03  0.27845008793E+04  0.26450958109E+04 0.  0.
        5    1    3    3  502    0  0.10231730126E+04  0.71288467957E+03 -0.89869932673E+03  0.15371304922E+04  0.46999998093E+01 0. -1.
       -5    1    3    3    0  502 -0.10231730126E+04 -0.71288467957E+03  0.28691684076E+02  0.12473703872E+04  0.46999998093E+01 0.  1.
</event>
<event>
 5   0  0.1232559E-05  0.2623485E+04  0.7818609E-02  0.8360267E-01
       -2   -1    0    0    0  501  0.00000000000E+00  0.00000000000E+00  0.10126960681E+04  0.10126960681E+04  0.25500000920E-02 0. -1.
        2   -1    0    0  501    0  0.00000000000E+00  0.00000000000E+00 -0.16990964398E+04  0.16990964398E+04  0.25500000920E-02 0.  1.
    10030    2    1    2    0    0  0.00000000000E+00  0.00000000000E+00 -0.68640037166E+03  0.27117925079E+04  0.26234849220E+04 0.  0.
        3    1    3    3  502    0  0.92051875845E+03 -0.83590553103E+03 -0.77508650498E+03  0.14652139577E+04  0.10100000352E+00 0.  1.
       -3    1    3    3    0  502 -0.92051875845E+03  0.83590553103E+03  0.88686133318E+02  0.12465785502E+04  0.10100000352E+00 0. -1.
</event>
<event>
 5   0  0.4756800E-06  0.2697246E+04  0.7818609E-02  0.8335899E-01
       -1   -1    0    0    0  501  0.00000000000E+00  0.00000000000E+00  0.66671014412E+03  0.66671014414E+03  0.50400001928E-02 0.  1.
        1   -1    0    0  501    0  0.00000000000E+00  0.00000000000E+00 -0.27279975198E+04  0.27279975198E+04  0.50400001928E-02 0. -1.
    10030    2    1    2    0    0  0.00000000000E+00  0.00000000000E+00 -0.20612873757E+04  0.33947076639E+04  0.26972457208E+04 0.  0.
        4    1    3    3  502    0 -0.40890112774E+03 -0.86990073094E+03 -0.22212223748E+04  0.24202805344E+04  0.12699999809E+01 0. -1.
       -4    1    3    3    0  502  0.40890112774E+03  0.86990073094E+03  0.15993499912E+03  0.97442712955E+03  0.12699999809E+01 0.  1.
</event>
<event>
 5   0  0.4756800E-06  0.2668057E+04  0.7818609E-02  0.8345444E-01
       -1   -1    0    0    0  501  0.00000000000E+00  0.00000000000E+00  0.91651394828E+03  0.91651394829E+03  0.50400001928E-02 0. -1.
        1   -1    0    0  501    0  0.00000000000E+00  0.00000000000E+00 -0.19417399772E+04  0.19417399772E+04  0.50400001928E-02 0.  1.
    10030    2    1    2    0    0  0.00000000000E+00  0.00000000000E+00 -0.10252260290E+04  0.28582539255E+04  0.26680568008E+04 0.  0.
        4    1    3    3  502    0 -0.16479841896E+01  0.83579565064E+03 -0.16264798233E+04  0.18286594308E+04  0.12699999809E+01 0.  1.
       -4    1    3    3    0  502  0.16479841896E+01 -0.83579565064E+03  0.60125379432E+03  0.10295944947E+04  0.12699999809E+01 0. -1.
</event>
<event>
 5   0  0.1232559E-05  0.2677534E+04  0.7818609E-02  0.8342332E-01
        2   -1    0    0  501    0  0.00000000000E+00  0.00000000000E+00  0.27464524898E+04  0.27464524898E+04  0.25500000920E-02 0. -1.
       -2   -1    0    0    0  501  0.00000000000E+00  0.00000000000E+00 -0.65258603578E+03  0.65258603578E+03  0.25500000920E-02 0.  1.
    10030    2    1    2    0    0  0.00000000000E+00  0.00000000000E+00  0.20938664540E+04  0.33990385256E+04  0.26775335985E+04 0.  0.
        3    1    3    3  502    0 -0.60143192711E+03 -0.70847916719E+03 -0.17639590187E+03  0.94592738500E+03  0.10100000352E+00 0.  1.
       -3    1    3    3    0  502  0.60143192711E+03  0.70847916719E+03  0.22702623559E+04  0.24531111406E+04  0.10100000352E+00 0. -1.
</event>
<event>
 5   0  0.4824715E-06  0.2769874E+04  0.7818609E-02  0.8312683E-01
       -1   -1    0    0    0  501  0.00000000000E+00  0.00000000000E+00  0.15209257452E+04  0.15209257452E+04  0.50400001928E-02 0.  1.
        1   -1    0    0  501    0  0.00000000000E+00  0.00000000000E+00 -0.12611070584E+04  0.12611070584E+04  0.50400001928E-02 0. -1.
    10030    2    1    2    0    0  0.00000000000E+00  0.00000000000E+00  0.25981868685E+03  0.27820328036E+04  0.27698737824E+04 0.  0.
        5    1    3    3  502    0 -0.67338276646E+03  0.19542902483E+03 -0.10696496188E+04  0.12789875882E+04  0.46999998093E+01 0. -1.
       -5    1    3    3    0  502  0.67338276646E+03 -0.19542902483E+03  0.13294683056E+04  0.15030452154E+04  0.46999998093E+01 0.  1.
</event>
<event>
 5   0  0.4826140E-06  0.2632247E+04  0.7818609E-02  0.8357329E-01
       -1   -1    0    0    0  501  0.00000000000E+00  0.00000000000E+00  0.88966694512E+03  0.88966694514E+03  0.50400001928E-02 0. -1.
        1   -1    0    0  501    0  0.00000000000E+00  0.00000000000E+00 -0.19469992887E+04  0.19469992887E+04  0.50400001928E-02 0.  1.
    10030    2    1    2    0    0  0.00000000000E+00  0.00000000000E+00 -0.10573323436E+04  0.28366662338E+04  0.26322468800E+04 0.  0.
        1    1    3    3  502    0 -0.59591885311E+03 -0.85207143128E+03 -0.13981952104E+04  0.17424393389E+04  0.50400001928E-02 0.  1.
       -1    1    3    3    0  502  0.59591885311E+03  0.85207143128E+03  0.34086286683E+03  0.10942268949E+04  0.50400001928E-02 0. -1.
</event>
<event>
 5   0  0.4756800E-06  0.2722302E+04  0.7818609E-02  0.8327805E-01
       -1   -1    0    0    0  501  0.00000000000E+00  0.00000000000E+00  0.13982378996E+04  0.13982378997E+04  0.50400001928E-02 0.  1.
        1   -1    0    0  501    0  0.00000000000E+00  0.00000000000E+00 -0.13250482763E+04  0.13250482763E+04  0.50400001928E-02 0. -1.
    10030    2    1    2    0    0  0.00000000000E+00  0.00000000000E+00  0.73189623319E+02  0.27232861760E+04  0.27223024952E+04 0.  0.
        4    1    3    3  502    0 -0.18962673841E+03  0.13443643595E+04  0.13387847351E+03  0.13642576331E+04  0.12699999809E+01 0.  1.
       -4    1    3    3    0  502  0.18962673841E+03 -0.13443643595E+04 -0.60688850193E+02  0.13590285429E+04  0.12699999809E+01 0. -1.
</event>
<event>
 5   0  0.1220908E-05  0.2718030E+04  0.7818609E-02  0.8329178E-01
        2   -1    0    0  501    0  0.00000000000E+00  0.00000000000E+00  0.17040427606E+04  0.17040427607E+04  0.25500000920E-02 0.  1.
       -2   -1    0    0    0  501  0.00000000000E+00  0.00000000000E+00 -0.10838473532E+04  0.10838473532E+04  0.25500000920E-02 0. -1.
    10030    2    1    2    0    0  0.00000000000E+00  0.00000000000E+00  0.62019540749E+03  0.27878901138E+04  0.27180303426E+04 0.  0.
        2    1    3    3  502    0 -0.89127164153E+03 -0.61065311321E+03 -0.53550656345E+03  0.12058315152E+04  0.25500000920E-02 0. -1.
       -2    1    3    3    0  502  0.89127164153E+03  0.61065311321E+03  0.11557019709E+04  0.15820585986E+04  0.25500000920E-02 0.  1.
</event>
<event>
 5   0  0.1220908E-05  0.2675900E+04  0.7818609E-02  0.8342867E-01
        2   -1    0    0  501    0  0.00000000000E+00  0.00000000000E+00  0.13262052994E+04  0.13262052994E+04  0.25500000920E-02 0.  1.
       -2   -1    0    0    0  501  0.00000000000E+00  0.00000000000E+00 -0.13497984907E+04  0.13497984907E+04  0.25500000920E-02 0. -1.
    10030    2    1    2    0    0  0.00000000000E+00  0.00000000000E+00 -0.23593191282E+02  0.26760037900E+04  0.26758997824E+04 0.  0.
        2    1    3    3  502    0 -0.78654928966E+03 -0.10585760780E+04 -0.23734208469E+03  0.13399904340E+04  0.25500000920E-02 0. -1.
       -2    1    3    3    0  502  0.78654928966E+03  0.10585760780E+04  0.21374889340E+03  0.13360133560E+04  0.25500000920E-02 0.  1.
</event>
<event>
 5   0  0.1220908E-05  0.2760666E+04  0.7818609E-02  0.8315585E-01
        2   -1    0    0  501    0  0.00000000000E+00  0.00000000000E+00  0.20939202354E+04  0.20939202354E+04  0.25500000920E-02 0. -1.
       -2   -1    0    0    0  501  0.00000000000E+00  0.00000000000E+00 -0.90992897272E+03  0.90992897272E+03  0.25500000920E-02 0.  1.
    10030    2    1    2    0    0  0.00000000000E+00  0.00000000000E+00  0.11839912626E+04  0.30038492081E+04  0.27606656362E+04 0.  0.
        2    1    3    3  502    0 -0.42651294117E+02 -0.90009732728E+03 -0.54573337332E+03  0.10534795899E+04  0.25500000920E-02 0.  1.
       -2    1    3    3    0  502  0.42651294117E+02  0.90009732728E+03  0.17297246360E+04  0.19503696182E+04  0.25500000920E-02 0. -1.
</event>
<event>
 5   0  0.4846214E-06  0.2667988E+04  0.7818609E-02  0.8345467E-01
        1   -1    0    0  501    0  0.00000000000E+00  0.00000000000E+00  0.14097771456E+04  0.14097771456E+04  0.50400001928E-02 0. -1.
       -1   -1    0    0    0  501  0.00000000000E+00  0.00000000000E+00 -0.12622843842E+04  0.12622843843E+04  0.50400001928E-02 0.  1.
    10030    2    1    2    0    0  0.00000000000E+00  0.00000000000E+00  0.14749276132E+03  0.26720615298E+04  0.26679877632E+04 0.  0.
        2    1    3    3  502    0  0.68289163982E+03  0.84679263073E+03 -0.69953417461E+03  0.12933471354E+04  0.25500000920E-02 0.  1.
       -2    1    3    3    0  502 -0.68289163982E+03 -0.84679263073E+03  0.84702693593E+03  0.13787143944E+04  0.25500000920E-02 0. -1.
</event>
<event>
 5   0  0.4756800E-06  0.2566619E+04  0.7818609E-02  0.8379629E-01
       -1   -1    0    0    0  501  0.00000000000E+00  0.00000000000E+00  0.15485710991E+04  0.15485710991E+04  0.50400001928E-02 0. -1.
        1   -1    0    0  501    0  0.00000000000E+00  0.00000000000E+00 -0.10634854478E+04  0.10634854478E+04  0.50400001928E-02 0.  1.
    10030    2    1    2    0    0  0.00000000000E+00  0.00000000000E+00  0.48508565134E+03  0.26120565470E+04  0.25666186541E+04 0.  0.
        4    1    3    3  502    0 -0.15689566694E+03 -0.21278598583E+03 -0.10354702497E+04  0.10686881570E+04  0.12699999809E+01 0.  1.
       -4    1    3    3    0  502  0.15689566694E+03  0.21278598583E+03  0.15205559010E+04  0.15433683899E+04  0.12699999809E+01 0. -1.
</event>
<event>
 5   0  0.5152288E-06  0.2702586E+04  0.7818609E-02  0.8334166E-01
        1   -1    0    0  501    0  0.00000000000E+00  0.00000000000E+00  0.26145686461E+04  0.26145686461E+04  0.50400001928E-02 0.  1.
       -1   -1    0    0    0  501  0.00000000000E+00  0.00000000000E+00 -0.69839170843E+03  0.69839170844E+03  0.50400001928E-02 0. -1.
    10030    2    1    2    0    0  0.00000000000E+00  0.00000000000E+00  0.19161769377E+04  0.33129603546E+04  0.27025862159E+04 0.  0.
        3    1    3    3  502    0  0.38298091498E+03 -0.10151952147E+04 -0.29231095014E+02  0.10854262630E+04  0.10100000352E+00 0. -1.
       -3    1    3    3    0  502 -0.38298091498E+03  0.10151952147E+04  0.19454080327E+04  0.22275340916E+04  0.10100000352E+00 0.  1.
</event>
<event>
 5   0  0.1261364E-05  0.2691702E+04  0.7818609E-02  0.8337702E-01
       -2   -1    0    0    0  501  0.00000000000E+00  0.00000000000E+00  0.86512376313E+03  0.86512376313E+03  0.25500000920E-02 0. -1.
        2   -1    0    0  501    0  0.00000000000E+00  0.00000000000E+00 -0.20937061748E+04  0.20937061748E+04  0.25500000920E-02 0.  1.
    10030    2    1    2    0    0  0.00000000000E+00  0.00000000000E+00 -0.12285824117E+04  0.29588299379E+04  0.26917020376E+04 0.  0.
        5    1    3    3  502    0  0.47578554717E+03 -0.45516528854E+03  0.67596967213E+03  0.94366541445E+03  0.46999998093E+01 0. -1.
       -5    1    3    3    0  502 -0.47578554717E+03  0.45516528854E+03 -0.19045520838E+04  0.20151645235E+04  0.46999998093E+01 0.  1.
</event>
<event>
 5   0  0.4756800E-06  0.2653614E+04  0.7818609E-02  0.8350215E-01
        1   -1    0    0  501    0  0.00000000000E+00  0.00000000000E+00  0.18575772631E+04  0.18575772631E+04  0.50400001928E-02 0.  1.
       -1   -1    0    0    0  501  0.00000000000E+00  0.00000000000E+00 -0.94769485830E+03  0.94769485831E+03  0.50400001928E-02 0. -1.
    10030    2    1    2    0    0  0.00000000000E+00  0.00000000000E+00  0.90988240477E+03  0.28052721214E+04  0.26536137030E+04 0.  0.
        4    1    3    3  502    0 -0.13670858946E+03  0.31665262544E+03 -0.89947458705E+03  0.96333497252E+03  0.12699999809E+01 0. -1.
       -4    1    3    3    0  502  0.13670858946E+03 -0.31665262544E+03  0.18093569918E+04  0.18419371489E+04  0.12699999809E+01 0.  1.
</event>
<event>
 5   0  0.1261364E-05  0.2710076E+04  0.7818609E-02  0.8331743E-01
       -2   -1    0    0    0  501  0.00000000000E+00  0.00000000000E+00  0.12277695830E+04  0.12277695830E+04  0.25500000920E-02 0.  1.
        2   -1    0    0  501    0  0.00000000000E+00  0.00000000000E+00 -0.14954989136E+04  0.14954989136E+04  0.25500000920E-02 0. -1.
    10030    2    1    2    0    0  0.00000000000E+00  0.00000000000E+00 -0.26772933055E+03  0.27232684966E+04  0.27100760709E+04 0.  0.
        5    1    3    3  502    0 -0.15910270966E+03  0.29470725100E+03 -0.14532451247E+04  0.14913448690E+04  0.46999998093E+01 0. -1.
       -5    1    3    3    0  502  0.15910270966E+03 -0.29470725100E+03  0.11855157941E+04  0.12319236276E+04  0.46999998093E+01 0.  1.
</event>
<event>
 5   0  0.4756800E-06  0.2660390E+04  0.7818609E-02  0.8347973E-01
       -1   -1    0    0    0  501  0.00000000000E+00  0.00000000000E+00  0.16889735321E+04  0.16889735321E+04  0.50400001928E-02 0.  1.
        1   -1    0    0  501    0  0.00000000000E+00  0.00000000000E+00 -0.10476295272E+04  0.10476295272E+04  0.50400001928E-02 0. -1.
    10030    2    1    2    0    0  0.00000000000E+00  0.00000000000E+00  0.64134400490E+03  0.27366030594E+04  0.26603898534E+04 0.  0.
        4    1    3    3  502    0  0.21713533813E+03 -0.12318867775E+04 -0.14475444251E+03  0.12592252575E+04  0.12699999809E+01 0. -1.
       -4    1    3    3    0  502 -0.21713533813E+03  0.12318867775E+04  0.78609844741E+03  0.14773778019E+04  0.12699999809E+01 0.  1.
</event>
<event>
 5   0  0.4824715E-06  0.2712783E+04  0.7818609E-02  0.8330869E-01
       -1   -1    0    0    0  501  0.00000000000E+00  0.00000000000E+00  0.88145496180E+03  0.88145496182E+03  0.50400001928E-02 0.  1.
        1   -1    0    0  501    0  0.00000000000E+00  0.00000000000E+00 -0.20872292251E+04  0.20872292251E+04  0.50400001928E-02 0. -1.
    10030    2    1    2    0    0  0.00000000000E+00  0.00000000000E+00 -0.12057742633E+04  0.29686841869E+04  0.27127834834E+04 0.  0.
        5    1    3    3  502    0  0.10828591290E+04  0.57796119311E+03  0.28754887107E+02  0.12277915000E+04  0.46999998093E+01 0.  1.
       -5    1    3    3    0  502 -0.10828591290E+04 -0.57796119311E+03 -0.12345291504E+04  0.17408926869E+04  0.46999998093E+01 0. -1.
</event>
<event>
 5   0  0.5152288E-06  0.2689113E+04  0.7818609E-02  0.8338546E-01
       -1   -1    0    0    0  501  0.00000000000E+00  0.00000000000E+00  0.80739831096E+03  0.80739831097E+03  0.50400001928E-02 0.  1.
        1   -1    0    0  501    0  0.00000000000E+00  0.00000000000E+00 -0.22390830448E+04  0.22390830448E+04  0.50400001928E-02 0. -1.
    10030    2    1    2    0    0  0.00000000000E+00  0.00000000000E+00 -0.14316847339E+04  0.30464813558E+04  0.26891127671E+04 0.  0.
        3    1    3    3  502    0  0.46379035875E+02 -0.13281038149E+04 -0.48416306463E+03  0.14143636879E+04  0.10100000352E+00 0.  1.
       -3    1    3    3    0  502 -0.46379035875E+02  0.13281038149E+04 -0.94752166924E+03  0.16321176680E+04  0.10100000352E+00 0. -1.
</event>
<event>
 5   0  0.5152288E-06  0.2667025E+04  0.7818609E-02  0.8345784E-01
        1   -1    0    0  501    0  0.00000000000E+00  0.00000000000E+00  0.15787994498E+04  0.15787994498E+04  0.50400001928E-02 0. -1.
       -1   -1    0    0    0  501  0.00000000000E+00  0.00000000000E+00 -0.11263336677E+04  0.11263336677E+04  0.50400001928E-02 0.  1.
    10030    2    1    2    0    0  0.00000000000E+00  0.00000000000E+00  0.45246578209E+03  0.27051331176E+04  0.26670245405E+04 0.  0.
        3    1    3    3  502    0 -0.10330185985E+04  0.78947974814E+03  0.52686177260E+03  0.14028503253E+04  0.10100000352E+00 0.  1.
       -3    1    3    3    0  502  0.10330185985E+04 -0.78947974814E+03 -0.74395990506E+02  0.13022827923E+04  0.10100000352E+00 0. -1.
</event>
<event>
 5   0  0.1286641E-05  0.2694947E+04  0.7818609E-02  0.8336646E-01
       -2   -1    0    0    0  501  0.00000000000E+00  0.00000000000E+00  0.94537150679E+03  0.94537150679E+03  0.25500000920E-02 0.  1.
        2   -1    0    0  501    0  0.00000000000E+00  0.00000000000E+00 -0.19206051895E+04  0.19206051895E+04  0.25500000920E-02 0. -1.
    10030    2    1    2    0    0  0.00000000000E+00  0.00000000000E+00 -0.97523368267E+03  0.28659766963E+04  0.26949474369E+04 0.  0.
        4    1    3    3  502    0 -0.54294041451E+02  0.10341310949E+04 -0.14044852436E+04  0.17449800505E+04  0.12699999809E+01 0. -1.
       -4    1    3    3    0  502  0.54294041451E+02 -0.10341310949E+04  0.42925156090E+03  0.11209966457E+04  0.12699999809E+01 0.  1.
</event>
<event>
 5   0  0.1220908E-05  0.2288269E+04  0.7818609E-02  0.8482561E-01
        2   -1    0    0  501    0  0.00000000000E+00  0.00000000000E+00  0.21284382015E+04  0.21284382015E+04  0.25500000920E-02 0.  1.
       -2   -1    0    0    0  501  0.00000000000E+00  0.00000000000E+00 -0.61502548227E+03  0.61502548228E+03  0.25500000920E-02 0. -1.
    10030    2    1    2    0    0  0.00000000000E+00  0.00000000000E+00  0.15134127192E+04  0.27434636837E+04  0.22882689801E+04 0.  0.
        2    1    3    3  502    0 -0.90856271939E+03 -0.69100337539E+03  0.85012912358E+03  0.14232678619E+04  0.25500000920E-02 0. -1.
       -2    1    3    3    0  502  0.90856271939E+03  0.69100337539E+03  0.66328359561E+03  0.13201958219E+04  0.25500000920E-02 0.  1.
</event>
<event>
 5   0  0.5152288E-06  0.2695691E+04  0.7818609E-02  0.8336404E-01
       -1   -1    0    0    0  501  0.00000000000E+00  0.00000000000E+00  0.11577802847E+04  0.11577802847E+04  0.50400001928E-02 0. -1.
        1   -1    0    0  501    0  0.00000000000E+00  0.00000000000E+00 -0.15691124896E+04  0.15691124897E+04  0.50400001928E-02 0.  1.
    10030    2    1    2    0    0  0.00000000000E+00  0.00000000000E+00 -0.41133220491E+03  0.27268927744E+04  0.26956910098E+04 0.  0.
        3    1    3    3  502    0 -0.54748794478E+03  0.81970832365E+03  0.72422510464E+03  0.12231789722E+04  0.10100000352E+00 0. -1.
       -3    1    3    3    0  502  0.54748794478E+03 -0.81970832365E+03 -0.11355573096E+04  0.15037138022E+04  0.10100000352E+00 0.  1.
</event>
<event>
 5   0  0.1232559E-05  0.2708783E+04  0.7818609E-02  0.8332161E-01
       -2   -1    0    0    0  501  0.00000000000E+00  0.00000000000E+00  0.69981548411E+03  0.69981548412E+03  0.25500000920E-02 0. -1.
        2   -1    0    0  501    0  0.00000000000E+00  0.00000000000E+00 -0.26212293809E+04  0.26212293809E+04  0.25500000920E-02 0.  1.
    10030    2    1    2    0    0  0.00000000000E+00  0.00000000000E+00 -0.19214138967E+04  0.33210448650E+04  0.27087834230E+04 0.  0.
        3    1    3    3  502    0 -0.12919762879E+04 -0.12696851336E+03 -0.48736928515E+03  0.13866695937E+04  0.10100000352E+00 0. -1.
       -3    1    3    3    0  502  0.12919762879E+04  0.12696851336E+03 -0.14340446116E+04  0.19343752713E+04  0.10100000352E+00 0.  1.
</event>
<event>
 5   0  0.4826140E-06  0.2700737E+04  0.7818609E-02  0.8334766E-01
       -1   -1    0    0    0  501  0.00000000000E+00  0.00000000000E+00  0.15051745240E+04  0.15051745240E+04  0.50400001928E-02 0. -1.
        1   -1    0    0  501    0  0.00000000000E+00  0.00000000000E+00 -0.12114839306E+04  0.12114839306E+04  0.50400001928E-02 0.  1.
    10030    2    1    2    0    0  0.00000000000E+00  0.00000000000E+00  0.29369059346E+03  0.27166584546E+04  0.27007367503E+04 0.  0.
        1    1    3    3  502    0 -0.11039019050E+04  0.76501658534E+03  0.58585378774E+01  0.13430875303E+04  0.50400001928E-02 0.  1.
       -1    1    3    3    0  502  0.11039019050E+04 -0.76501658534E+03  0.28783205558E+03  0.13735709242E+04  0.50400001928E-02 0. -1.
</event>
<event>
 5   0  0.4756800E-06  0.2711642E+04  0.7818609E-02  0.8331237E-01
       -1   -1    0    0    0  501  0.00000000000E+00  0.00000000000E+00  0.13639024751E+04  0.13639024751E+04  0.50400001928E-02 0.  1.
        1   -1    0    0  501    0  0.00000000000E+00  0.00000000000E+00 -0.13477875563E+04  0.13477875563E+04  0.50400001928E-02 0. -1.
    10030    2    1    2    0    0  0.00000000000E+00  0.00000000000E+00  0.16114918716E+02  0.27116900314E+04  0.27116421475E+04 0.  0.
        4    1    3    3  502    0  0.29603249156E+03  0.35665777287E+03  0.12822107088E+04  0.13634170006E+04  0.12699999809E+01 0.  1.
       -4    1    3    3    0  502 -0.29603249156E+03 -0.35665777287E+03 -0.12660957901E+04  0.13482730308E+04  0.12699999809E+01 0. -1.
</event>
<event>
 5   0  0.4824715E-06  0.2699630E+04  0.7818609E-02  0.8335125E-01
       -1   -1    0    0    0  501  0.00000000000E+00  0.00000000000E+00  0.23860517409E+04  0.23860517409E+04  0.50400001928E-02 0. -1.
        1   -1    0    0  501    0  0.00000000000E+00  0.00000000000E+00 -0.76360455164E+03  0.76360455166E+03  0.50400001928E-02 0.  1.
    10030    2    1    2    0    0  0.00000000000E+00  0.00000000000E+00  0.16224471893E+04  0.31496562926E+04  0.26996295819E+04 0.  0.
        5    1    3    3  502    0  0.12722713918E+04  0.10004179031E+03  0.29828033865E+03  0.13106014286E+04  0.46999998093E+01 0. -1.
       -5    1    3    3    0  502 -0.12722713918E+04 -0.10004179031E+03  0.13241668506E+04  0.18390548639E+04  0.46999998093E+01 0.  1.
</event>
<event>
 5   0  0.1232559E-05  0.2709042E+04  0.7818609E-02  0.8332077E-01
        2   -1    0    0  501    0  0.00000000000E+00  0.00000000000E+00  0.22657578993E+04  0.22657578993E+04  0.25500000920E-02 0. -1.
       -2   -1    0    0    0  501  0.00000000000E+00  0.00000000000E+00 -0.80976284930E+03  0.80976284930E+03  0.25500000920E-02 0.  1.
    10030    2    1    2    0    0  0.00000000000E+00  0.00000000000E+00  0.14559950500E+04  0.30755207487E+04  0.27090415814E+04 0.  0.
        3    1    3    3  502    0  0.10202807426E+04 -0.12354413420E+03  0.17296790897E+04  0.20119706038E+04  0.10100000352E+00 0. -1.
       -3    1    3    3    0  502 -0.10202807426E+04  0.12354413420E+03 -0.27368403969E+03  0.10635501449E+04  0.10100000352E+00 0.  1.
</event>
<event>
 5   0  0.4826140E-06  0.2636804E+04  0.7818609E-02  0.8355806E-01
        1   -1    0    0  501    0  0.00000000000E+00  0.00000000000E+00  0.13030929409E+04  0.13030929409E+04  0.50400001928E-02 0. -1.
       -1   -1    0    0    0  501  0.00000000000E+00  0.00000000000E+00 -0.13338913743E+04  0.13338913743E+04  0.50400001928E-02 0.  1.
    10030    2    1    2    0    0  0.00000000000E+00  0.00000000000E+00 -0.30798433382E+02  0.26369843152E+04  0.26368044552E+04 0.  0.
        1    1    3    3  502    0 -0.26514264899E+03  0.71658303162E+03 -0.10898991278E+04  0.13310416877E+04  0.50400001928E-02 0.  1.
       -1    1    3    3    0  502  0.26514264899E+03 -0.71658303162E+03  0.10591006944E+04  0.13059426275E+04  0.50400001928E-02 0. -1.
</event>
<event>
 5   0  0.1276517E-05  0.2716382E+04  0.7818609E-02  0.8329709E-01
       -2   -1    0    0    0  501  0.00000000000E+00  0.00000000000E+00  0.12858925983E+04  0.12858925983E+04  0.25500000920E-02 0.  1.
        2   -1    0    0  501    0  0.00000000000E+00  0.00000000000E+00 -0.14345546627E+04  0.14345546627E+04  0.25500000920E-02 0. -1.
    10030    2    1    2    0    0  0.00000000000E+00  0.00000000000E+00 -0.14866206441E+03  0.27204472610E+04  0.27163823167E+04 0.  0.
        1    1    3    3  502    0  0.71105968316E+03 -0.11262141601E+04 -0.34065945560E+03  0.13747774628E+04  0.50400001928E-02 0. -1.
       -1    1    3    3    0  502 -0.71105968316E+03  0.11262141601E+04  0.19199739118E+03  0.13456697982E+04  0.50400001928E-02 0.  1.
</event>
<event>
 5   0  0.4756800E-06  0.2553591E+04  0.7818609E-02  0.8384138E-01
       -1   -1    0    0    0  501  0.00000000000E+00  0.00000000000E+00  0.93991013447E+03  0.93991013448E+03  0.50400001928E-02 0.  1.
        1   -1    0    0  501    0  0.00000000000E+00  0.00000000000E+00 -0.17344279413E+04  0.17344279414E+04  0.50400001928E-02 0. -1.
    10030    2    1    2    0    0  0.00000000000E+00  0.00000000000E+00 -0.79451780688E+03  0.26743380758E+04  0.25535907265E+04 0.  0.
        4    1    3    3  502    0  0.49795516030E+03 -0.49556553180E+03  0.71929668913E+03  0.10054520764E+04  0.12699999809E+01 0.  1.
       -4    1    3    3    0  502 -0.49795516030E+03  0.49556553180E+03 -0.15138144960E+04  0.16688859995E+04  0.12699999809E+01 0. -1.
</event>
<event>
 5   0  0.4824715E-06  0.2708683E+04  0.7818609E-02  0.8332193E-01
        1   -1    0    0  501    0  0.00000000000E+00  0.00000000000E+00  0.19359661077E+04  0.19359661077E+04  0.50400001928E-02 0. -1.
       -1   -1    0    0    0  501  0.00000000000E+00  0.00000000000E+00 -0.94745538813E+03  0.94745538815E+03  0.50400001928E-02 0.  1.
    10030    2    1    2    0    0  0.00000000000E+00  0.00000000000E+00  0.98851071953E+03  0.28834214958E+04  0.27086834588E+04 0.  0.
        5    1    3    3  502    0 -0.58039418232E+03 -0.53057235737E+03 -0.67953562093E+03  0.10393051445E+04  0.46999998093E+01 0. -1.
       -5    1    3    3    0  502  0.58039418232E+03  0.53057235737E+03  0.16680463405E+04  0.18441163513E+04  0.46999998093E+01 0.  1.
</event>
<event>
 5   0  0.4846214E-06  0.2702086E+04  0.7818609E-02  0.8334328E-01
        1   -1    0    0  501    0  0.00000000000E+00  0.00000000000E+00  0.82506302165E+03  0.82506302167E+03  0.50400001928E-02 0. -1.
       -1   -1    0    0    0  501  0.00000000000E+00  0.00000000000E+00 -0.22123374619E+04  0.22123374619E+04  0.50400001928E-02 0.  1.
    10030    2    1    2    0    0  0.00000000000E+00  0.00000000000E+00 -0.13872744402E+04  0.30374004836E+04  0.27020864762E+04 0.  0.
        2    1    3    3  502    0 -0.97670868192E+02  0.95868911924E+03  0.37081164141E+03  0.10325336310E+04  0.25500000920E-02 0. -1.
       -2    1    3    3    0  502  0.97670868192E+02 -0.95868911924E+03 -0.17580860816E+04  0.20048668525E+04  0.25500000920E-02 0.  1.
</event>
<event>
 5   0  0.4756800E-06  0.2689088E+04  0.7818609E-02  0.8338554E-01
        1   -1    0    0  501    0  0.00000000000E+00  0.00000000000E+00  0.19040270842E+04  0.19040270842E+04  0.50400001928E-02 0.  1.
       -1   -1    0    0    0  501  0.00000000000E+00  0.00000000000E+00 -0.94946053500E+03  0.94946053501E+03  0.50400001928E-02 0. -1.
    10030    2    1    2    0    0  0.00000000000E+00  0.00000000000E+00  0.95456654924E+03  0.28534876193E+04  0.26890880046E+04 0.  0.
        4    1    3    3  502    0  0.95666021461E+03 -0.13510644911E+03 -0.51494649765E+03  0.10948168921E+04  0.12699999809E+01 0. -1.
       -4    1    3    3    0  502 -0.95666021461E+03  0.13510644911E+03  0.14695130469E+04  0.17586707272E+04  0.12699999809E+01 0.  1.
</event>
<event>
 5   0  0.4824715E-06  0.2687061E+04  0.7818609E-02  0.8339216E-01
        1   -1    0    0  501    0  0.00000000000E+00  0.00000000000E+00  0.13820946656E+04  0.13820946657E+04  0.50400001928E-02 0.  1.
       -1   -1    0    0    0  501  0.00000000000E+00  0.00000000000E+00 -0.13060421769E+04  0.13060421769E+04  0.50400001928E-02 0. -1.
    10030    2    1    2    0    0  0.00000000000E+00  0.00000000000E+00  0.76052488723E+02  0.26881368426E+04  0.26870607927E+04 0.  0.
        5    1    3    3  502    0  0.21979154032E+02  0.20340013731E+03 -0.12903598387E+04  0.13064858600E+04  0.46999998093E+01 0. -1.
       -5    1    3    3    0  502 -0.21979154032E+02 -0.20340013731E+03  0.13664123274E+04  0.13816509826E+04  0.46999998093E+01 0.  1.
</event>
<event>
 5   0  0.1220908E-05  0.2697265E+04  0.7818609E-02  0.8335893E-01
       -2   -1    0    0    0  501  0.00000000000E+00  0.00000000000E+00  0.20676148558E+04  0.20676148558E+04  0.25500000920E-02 0.  1.
        2   -1    0    0  501    0  0.00000000000E+00  0.00000000000E+00 -0.87966536892E+03  0.87966536892E+03  0.25500000920E-02 0. -1.
    10030    2    1    2    0    0  0.00000000000E+00  0.00000000000E+00  0.11879494869E+04  0.29472802247E+04  0.26972646773E+04 0.  0.
        2    1    3    3  502    0 -0.83952212292E+03  0.91032990908E+03  0.11776312224E+04  0.17088923998E+04  0.25500000920E-02 0.  1.
       -2    1    3    3    0  502  0.83952212292E+03 -0.91032990908E+03  0.10318264486E+02  0.12383878249E+04  0.25500000920E-02 0. -1.
</event>
<event>
 5   0  0.4826140E-06  0.2565663E+04  0.7818609E-02  0.8379959E-01
        1   -1    0    0  501    0  0.00000000000E+00  0.00000000000E+00  0.12343570114E+04  0.12343570114E+04  0.50400001928E-02 0.  1.
       -1   -1    0    0    0  501  0.00000000000E+00  0.00000000000E+00 -0.13332098152E+04  0.13332098152E+04  0.50400001928E-02 0. -1.
    10030    2    1    2    0    0  0.00000000000E+00  0.00000000000E+00 -0.98852803747E+02  0.25675668266E+04  0.25656631759E+04 0.  0.
        1    1    3    3  502    0  0.10404124635E+03  0.94901112084E+03 -0.90692283095E+03  0.13167975204E+04  0.50400001928E-02 0. -1.
       -1    1    3    3    0  502 -0.10404124635E+03 -0.94901112084E+03  0.80807002720E+03  0.12507693062E+04  0.50400001928E-02 0.  1.
</event>
<event>
 5   0  0.4826140E-06  0.2705459E+04  0.7818609E-02  0.8333236E-01
        1   -1    0    0  501    0  0.00000000000E+00  0.00000000000E+00  0.17821608805E+04  0.17821608805E+04  0.50400001928E-02 0. -1.
       -1   -1    0    0    0  501  0.00000000000E+00  0.00000000000E+00 -0.10267746514E+04  0.10267746514E+04  0.50400001928E-02 0.  1.
    10030    2    1    2    0    0  0.00000000000E+00  0.00000000000E+00  0.75538622915E+03  0.28089355319E+04  0.27054593819E+04 0.  0.
        1    1    3    3  502    0  0.12380833595E+04  0.52834841951E+03  0.23888152932E+03  0.13671381944E+04  0.50400001928E-02 0.  1.
       -1    1    3    3    0  502 -0.12380833595E+04 -0.52834841951E+03  0.51650469983E+03  0.14417973375E+04  0.50400001928E-02 0. -1.
</event>
<event>
 5   0  0.4826140E-06  0.2693687E+04  0.7818609E-02  0.8337056E-01
        1   -1    0    0  501    0  0.00000000000E+00  0.00000000000E+00  0.10639922683E+04  0.10639922683E+04  0.50400001928E-02 0. -1.
       -1   -1    0    0    0  501  0.00000000000E+00  0.00000000000E+00 -0.17048881604E+04  0.17048881604E+04  0.50400001928E-02 0.  1.
    10030    2    1    2    0    0  0.00000000000E+00  0.00000000000E+00 -0.64089589203E+03  0.27688804287E+04  0.26936873026E+04 0.  0.
        1    1    3    3  502    0 -0.15781456686E+03 -0.10311695269E+04 -0.11961514034E+04  0.15871339611E+04  0.50400001928E-02 0.  1.
       -1    1    3    3    0  502  0.15781456686E+03  0.10311695269E+04  0.55525551139E+03  0.11817464676E+04  0.50400001928E-02 0. -1.
</event>
<event>
 5   0  0.1286641E-05  0.2657450E+04  0.7818609E-02  0.8348944E-01
        2   -1    0    0  501    0  0.00000000000E+00  0.00000000000E+00  0.25165635510E+04  0.25165635510E+04  0.25500000920E-02 0. -1.
       -2   -1    0    0    0  501  0.00000000000E+00  0.00000000000E+00 -0.70155592440E+03  0.70155592440E+03  0.25500000920E-02 0.  1.
    10030    2    1    2    0    0  0.00000000000E+00  0.00000000000E+00  0.18150076266E+04  0.32181194754E+04  0.26574499569E+04 0.  0.
        4    1    3    3  502    0  0.14533140386E+03 -0.11388897742E+04  0.17174290398E+04  0.20658546064E+04  0.12699999809E+01 0. -1.
       -4    1    3    3    0  502 -0.14533140386E+03  0.11388897742E+04  0.97578586715E+02  0.11522648690E+04  0.12699999809E+01 0.  1.
</event>
<event>
 5   0  0.5152288E-06  0.2678070E+04  0.7818609E-02  0.8342156E-01
        1   -1    0    0  501    0  0.00000000000E+00  0.00000000000E+00  0.19514266219E+04  0.19514266219E+04  0.50400001928E-02 0.  1.
       -1   -1    0    0    0  501  0.00000000000E+00  0.00000000000E+00 -0.91882269495E+03  0.91882269496E+03  0.50400001928E-02 0. -1.
    10030    2    1    2    0    0  0.00000000000E+00  0.00000000000E+00  0.10326039270E+04  0.28702493169E+04  0.26780702513E+04 0.  0.
        3    1    3    3  502    0 -0.63351420038E+03 -0.47059969916E+03  0.16756923543E+04  0.18522281705E+04  0.10100000352E+00 0.  1.
       -3    1    3    3    0  502  0.63351420038E+03  0.47059969916E+03 -0.64308842736E+03  0.10180211464E+04  0.10100000352E+00 0. -1.
</event>
<event>
 5   0  0.1286641E-05  0.2702552E+04  0.7818609E-02  0.8334177E-01
        2   -1    0    0  501    0  0.00000000000E+00  0.00000000000E+00  0.99480612979E+03  0.99480612979E+03  0.25500000920E-02 0.  1.
       -2   -1    0    0    0  501  0.00000000000E+00  0.00000000000E+00 -0.18354798066E+04  0.18354798066E+04  0.25500000920E-02 0. -1.
    10030    2    1    2    0    0  0.00000000000E+00  0.00000000000E+00 -0.84067367680E+03  0.28302859364E+04  0.27025518035E+04 0.  0.
        4    1    3    3  502    0 -0.45607257029E+03  0.12300544289E+04 -0.75954193948E+03  0.15158963217E+04  0.12699999809E+01 0.  1.
       -4    1    3    3    0  502  0.45607257029E+03 -0.12300544289E+04 -0.81131737320E+02  0.13143896147E+04  0.12699999809E+01 0. -1.
</event>
<event>
 5   0  0.1232559E-05  0.2693640E+04  0.7818609E-02  0.8337072E-01
       -2   -1    0    0    0  501  0.00000000000E+00  0.00000000000E+00  0.11436697627E+04  0.11436697627E+04  0.25500000920E-02 0. -1.
        2   -1    0    0  501    0  0.00000000000E+00  0.00000000000E+00 -0.15860556120E+04  0.15860556120E+04  0.25500000920E-02 0.  1.
    10030    2    1    2    0    0  0.00000000000E+00  0.00000000000E+00 -0.44238584939E+03  0.27297253747E+04  0.26936398018E+04 0.  0.
        3    1    3    3  502    0  0.73126227739E+03 -0.87861645688E+03 -0.94292230312E+03  0.14818278836E+04  0.10100000352E+00 0.  1.
       -3    1    3    3    0  502 -0.73126227739E+03  0.87861645688E+03  0.50053645374E+03  0.12478974911E+04  0.10100000352E+00 0. -1.
</event>
<event>
 5   0  0.1276517E-05  0.2702582E+04  0.7818609E-02  0.8334168E-01
        2   -1    0    0  501    0  0.00000000000E+00  0.00000000000E+00  0.11114133635E+04  0.11114133635E+04  0.25500000920E-02 0. -1.
       -2   -1    0    0    0  501  0.00000000000E+00  0.00000000000E+00 -0.16429417353E+04  0.16429417353E+04  0.25500000920E-02 0.  1.
    10030    2    1    2    0    0  0.00000000000E+00  0.00000000000E+00 -0.53152837177E+03  0.27543550988E+04  0.27025820247E+04 0.  0.
        1    1    3    3  502    0 -0.74485845639E+03  0.59527035433E+03  0.71008930806E+03  0.11888598489E+04  0.50400001928E-02 0. -1.
       -1    1    3    3    0  502  0.74485845639E+03 -0.59527035433E+03 -0.12416176798E+04  0.15654952500E+04  0.50400001928E-02 0.  1.
</event>
<event>
 5   0  0.1286641E-05  0.2686481E+04  0.7818609E-02  0.8339405E-01
        2   -1    0    0  501    0  0.00000000000E+00  0.00000000000E+00  0.20574360513E+04  0.20574360513E+04  0.25500000920E-02 0. -1.
       -2   -1    0    0    0  501  0.00000000000E+00  0.00000000000E+00 -0.87696266869E+03  0.87696266869E+03  0.25500000920E-02 0.  1.
    10030    2    1    2    0    0  0.00000000000E+00  0.00000000000E+00  0.11804733826E+04  0.29343987200E+04  0.26864806794E+04 0.  0.
        4    1    3    3  502    0 -0.49201823007E+03  0.11696620046E+04  0.10714639774E+04  0.16607913209E+04  0.12699999809E+01 0.  1.
       -4    1    3    3    0  502  0.49201823007E+03 -0.11696620046E+04  0.10900940519E+03  0.12736073991E+04  0.12699999809E+01 0. -1.
</event>
<event>
 5   0  0.5152288E-06  0.2684882E+04  0.7818609E-02  0.8339927E-01
       -1   -1    0    0    0  501  0.00000000000E+00  0.00000000000E+00  0.14233640067E+04  0.14233640067E+04  0.50400001928E-02 0. -1.
        1   -1    0    0  501    0  0.00000000000E+00  0.00000000000E+00 -0.12661189022E+04  0.12661189022E+04  0.50400001928E-02 0.  1.
    10030    2    1    2    0    0  0.00000000000E+00  0.00000000000E+00  0.15724510450E+03  0.26894829089E+04  0.26848821752E+04 0.  0.
        3    1    3    3  502    0 -0.10173769171E+04 -0.77925931336E+03  0.47911660040E+03  0.13681570070E+04  0.10100000352E+00 0.  1.
       -3    1    3    3    0  502  0.10173769171E+04  0.77925931336E+03 -0.32187149590E+03  0.13213259019E+04  0.10100000352E+00 0. -1.
</event>
<event>
 5   0  0.1232559E-05  0.2684318E+04  0.7818609E-02  0.8340111E-01
       -2   -1    0    0    0  501  0.00000000000E+00  0.00000000000E+00  0.98927024811E+03  0.98927024811E+03  0.25500000920E-02 0. -1.
        2   -1    0    0  501    0  0.00000000000E+00  0.00000000000E+00 -0.18209294043E+04  0.18209294043E+04  0.25500000920E-02 0.  1.
    10030    2    1    2    0    0  0.00000000000E+00  0.00000000000E+00 -0.83165915615E+03  0.28101996524E+04  0.26843183742E+04 0.  0.
        3    1    3    3  502    0  0.40245616284E+03  0.60433177000E+03  0.76591205233E+03  0.10553715618E+04  0.10100000352E+00 0. -1.
       -3    1    3    3    0  502 -0.40245616284E+03 -0.60433177000E+03 -0.15975712085E+04  0.17548280906E+04  0.10100000352E+00 0.  1.
</event>
<event>
 5   0  0.5152288E-06  0.2640624E+04  0.7818609E-02  0.8354532E-01
        1   -1    0    0  501    0  0.00000000000E+00  0.00000000000E+00  0.15622368240E+04  0.15622368240E+04  0.50400001928E-02 0.  1.
       -1   -1    0    0    0  501  0.00000000000E+00  0.00000000000E+00 -0.11158512086E+04  0.11158512086E+04  0.50400001928E-02 0. -1.
    10030    2    1    2    0    0  0.00000000000E+00  0.00000000000E+00  0.44638561543E+03  0.26780880326E+04  0.26406240536E+04 0.  0.
        3    1    3    3  502    0 -0.84733251272E+03  0.87501059894E+03  0.73993893203E+03  0.14251756273E+04  0.10100000352E+00 0.  1.
       -3    1    3    3    0  502  0.84733251272E+03 -0.87501059894E+03 -0.29355331660E+03  0.12529124053E+04  0.10100000352E+00 0. -1.
</event>
<event>
 5   0  0.1286641E-05  0.2513764E+04  0.7818609E-02  0.8398099E-01
        2   -1    0    0  501    0  0.00000000000E+00  0.00000000000E+00  0.92872768952E+03  0.92872768952E+03  0.25500000920E-02 0. -1.
       -2   -1    0    0    0  501  0.00000000000E+00  0.00000000000E+00 -0.17009849660E+04  0.17009849660E+04  0.25500000920E-02 0.  1.
    10030    2    1    2    0    0  0.00000000000E+00  0.00000000000E+00 -0.77225727651E+03  0.26297126556E+04  0.25137635827E+04 0.  0.
        4    1    3    3  502    0 -0.63756718103E+03  0.37151932817E+03  0.67826592571E+03  0.10022798015E+04  0.12699999809E+01 0. -1.
       -4    1    3    3    0  502  0.63756718103E+03 -0.37151932817E+03 -0.14505232022E+04  0.16274328541E+04  0.12699999809E+01 0.  1.
</event>
<event>
 5   0  0.1220908E-05  0.2463264E+04  0.7818609E-02  0.8416191E-01
       -2   -1    0    0    0  501  0.00000000000E+00  0.00000000000E+00  0.10880946072E+04  0.10880946072E+04  0.25500000920E-02 0.  1.
        2   -1    0    0  501    0  0.00000000000E+00  0.00000000000E+00 -0.13941039302E+04  0.13941039302E+04  0.25500000920E-02 0. -1.
    10030    2    1    2    0    0  0.00000000000E+00  0.00000000000E+00 -0.30600932302E+03  0.24821985375E+04  0.24632636630E+04 0.  0.
        2    1    3    3  502    0 -0.19734102298E+03 -0.11152817666E+04 -0.64058360034E+03  0.13012087639E+04  0.25500000920E-02 0. -1.
       -2    1    3    3    0  502  0.19734102298E+03  0.11152817666E+04  0.33457427732E+03  0.11809897736E+04  0.25500000920E-02 0.  1.
</event>
<event>
 5   0  0.1276517E-05  0.2691154E+04  0.7818609E-02  0.8337881E-01
        2   -1    0    0  501    0  0.00000000000E+00  0.00000000000E+00  0.23013388422E+04  0.23013388422E+04  0.25500000920E-02 0. -1.
       -2   -1    0    0    0  501  0.00000000000E+00  0.00000000000E+00 -0.78674967852E+03  0.78674967852E+03  0.25500000920E-02 0.  1.
    10030    2    1    2    0    0  0.00000000000E+00  0.00000000000E+00  0.15145891637E+04  0.30880885207E+04  0.26911540976E+04 0.  0.
        1    1    3    3  502    0 -0.10726285992E+03 -0.10996415798E+03 -0.77665483796E+03  0.79170081124E+03  0.50400001928E-02 0.  1.
       -1    1    3    3    0  502  0.10726285992E+03  0.10996415798E+03  0.22912440016E+04  0.22963877095E+04  0.50400001928E-02 0. -1.
</event>
<event>
 5   0  0.1232559E-05  0.2606393E+04  0.7818609E-02  0.8366033E-01
       -2   -1    0    0    0  501  0.00000000000E+00  0.00000000000E+00  0.11006325802E+04  0.11006325802E+04  0.25500000920E-02 0.  1.
        2   -1    0    0  501    0  0.00000000000E+00  0.00000000000E+00 -0.15430408400E+04  0.15430408400E+04  0.25500000920E-02 0. -1.
    10030    2    1    2    0    0  0.00000000000E+00  0.00000000000E+00 -0.44240825985E+03  0.26436734202E+04  0.26063929259E+04 0.  0.
        3    1    3    3  502    0 -0.30361094951E+03  0.12064976616E+04  0.17229437298E+03  0.12559862966E+04  0.10100000352E+00 0.  1.
       -3    1    3    3    0  502  0.30361094951E+03 -0.12064976616E+04 -0.61470263283E+03  0.13876871236E+04  0.10100000352E+00 0. -1.
</event>
<event>
 5   0  0.1220908E-05  0.2405378E+04  0.7818609E-02  0.8437493E-01
       -2   -1    0    0    0  501  0.00000000000E+00  0.00000000000E+00  0.98191018402E+03  0.98191018402E+03  0.25500000920E-02 0. -1.
        2   -1    0    0  501    0  0.00000000000E+00  0.00000000000E+00 -0.14731094036E+04  0.14731094036E+04  0.25500000920E-02 0.  1.
    10030    2    1    2    0    0  0.00000000000E+00  0.00000000000E+00 -0.49119921957E+03  0.24550195876E+04  0.24053782452E+04 0.  0.
        2    1    3    3  502    0 -0.46932049309E+03  0.66672682072E+03  0.65677033862E+03  0.10469640187E+04  0.25500000920E-02 0. -1.
       -2    1    3    3    0  502  0.46932049309E+03 -0.66672682072E+03 -0.11479695582E+04  0.14080555689E+04  0.25500000920E-02 0.  1.
</event>
<event>
 5   0  0.4846214E-06  0.2696803E+04  0.7818609E-02  0.8336043E-01
       -1   -1    0    0    0  501  0.00000000000E+00  0.00000000000E+00  0.20675064384E+04  0.20675064384E+04  0.50400001928E-02 0. -1.
        1   -1    0    0  501    0  0.00000000000E+00  0.00000000000E+00 -0.87941016444E+03  0.87941016445E+03  0.50400001928E-02 0.  1.
    10030    2    1    2    0    0  0.00000000000E+00  0.00000000000E+00  0.11880962739E+04  0.29469166028E+04  0.26968026824E+04 0.  0.
        2    1    3    3  502    0  0.69150179111E+03  0.59626737200E+03 -0.49018178534E+03  0.10363337728E+04  0.25500000920E-02 0.  1.
       -2    1    3    3    0  502 -0.69150179111E+03 -0.59626737200E+03  0.16782780593E+04  0.19105828300E+04  0.25500000920E-02 0. -1.
</event>
<event>
 5   0  0.4846214E-06  0.2788214E+04  0.7818609E-02  0.8306937E-01
       -1   -1    0    0    0  501  0.00000000000E+00  0.00000000000E+00  0.12428830528E+04  0.12428830528E+04  0.50400001928E-02 0. -1.
        1   -1    0    0  501    0  0.00000000000E+00  0.00000000000E+00 -0.15637307131E+04  0.15637307132E+04  0.50400001928E-02 0.  1.
    10030    2    1    2    0    0  0.00000000000E+00  0.00000000000E+00 -0.32084766034E+03  0.28066137660E+04  0.27882140539E+04 0.  0.
        2    1    3    3  502    0  0.71437643330E+02 -0.39214973923E+03 -0.15051474226E+04  0.15570335638E+04  0.25500000920E-02 0.  1.
       -2    1    3    3    0  502 -0.71437643330E+02  0.39214973923E+03  0.11842997623E+04  0.12495802022E+04  0.25500000920E-02 0. -1.
</event>
<event>
 5   0  0.4756800E-06  0.2734765E+04  0.7818609E-02  0.8323812E-01
        1   -1    0    0  501    0  0.00000000000E+00  0.00000000000E+00  0.12052482180E+04  0.12052482180E+04  0.50400001928E-02 0.  1.
       -1   -1    0    0    0  501  0.00000000000E+00  0.00000000000E+00 -0.15513275328E+04  0.15513275328E+04  0.50400001928E-02 0. -1.
    10030    2    1    2    0    0  0.00000000000E+00  0.00000000000E+00 -0.34607931479E+03  0.27565757508E+04  0.27347648852E+04 0.  0.
        4    1    3    3  502    0 -0.36287670004E+03  0.12403070207E+04  0.27739355701E+03  0.13217374185E+04  0.12699999809E+01 0.  1.
       -4    1    3    3    0  502  0.36287670004E+03 -0.12403070207E+04 -0.62347287180E+03  0.14348383323E+04  0.12699999809E+01 0. -1.
</event>
<event>
 5   0  0.4824715E-06  0.2672586E+04  0.7818609E-02  0.8343955E-01
        1   -1    0    0  501    0  0.00000000000E+00  0.00000000000E+00  0.13740036931E+04  0.13740036931E+04  0.50400001928E-02 0.  1.
       -1   -1    0    0    0  501  0.00000000000E+00  0.00000000000E+00 -0.12996170627E+04  0.12996170627E+04  0.50400001928E-02 0. -1.
    10030    2    1    2    0    0  0.00000000000E+00  0.00000000000E+00  0.74386630404E+02  0.26736207558E+04  0.26725857470E+04 0.  0.
        5    1    3    3  502    0  0.90611950686E+03  0.82191654399E+03  0.57504191534E+03  0.13517746337E+04  0.46999998093E+01 0.  1.
       -5    1    3    3    0  502 -0.90611950686E+03 -0.82191654399E+03 -0.50065528494E+03  0.13218461220E+04  0.46999998093E+01 0. -1.
</event>
<event>
 5   0  0.4824715E-06  0.2692879E+04  0.7818609E-02  0.8337319E-01
        1   -1    0    0  501    0  0.00000000000E+00  0.00000000000E+00  0.11845383017E+04  0.11845383017E+04  0.50400001928E-02 0. -1.
       -1   -1    0    0    0  501  0.00000000000E+00  0.00000000000E+00 -0.15304692260E+04  0.15304692260E+04  0.50400001928E-02 0.  1.
    10030    2    1    2    0    0  0.00000000000E+00  0.00000000000E+00 -0.34593092428E+03  0.27150075276E+04  0.26928790672E+04 0.  0.
        5    1    3    3  502    0 -0.20720283828E+03 -0.62142723120E+03  0.10130395835E+04  0.12063896997E+04  0.46999998093E+01 0. -1.
       -5    1    3    3    0  502  0.20720283828E+03  0.62142723120E+03 -0.13589705077E+04  0.15086178279E+04  0.46999998093E+01 0.  1.
</event>
<event>
 5   0  0.1232559E-05  0.2704231E+04  0.7818609E-02  0.8333634E-01
       -2   -1    0    0    0  501  0.00000000000E+00  0.00000000000E+00  0.11954528649E+04  0.11954528649E+04  0.25500000920E-02 0.  1.
        2   -1    0    0  501    0  0.00000000000E+00  0.00000000000E+00 -0.15293083535E+04  0.15293083535E+04  0.25500000920E-02 0. -1.
    10030    2    1    2    0    0  0.00000000000E+00  0.00000000000E+00 -0.33385548857E+03  0.27247612184E+04  0.27042307983E+04 0.  0.
        3    1    3    3  502    0 -0.74530634096E+03 -0.80532230139E+03 -0.96298310080E+03  0.14599184955E+04  0.10100000352E+00 0. -1.
       -3    1    3    3    0  502  0.74530634096E+03  0.80532230139E+03  0.62912761223E+03  0.12648427229E+04  0.10100000352E+00 0.  1.
</event>
<event>
 5   0  0.1232559E-05  0.2694774E+04  0.7818609E-02  0.8336703E-01
       -2   -1    0    0    0  501  0.00000000000E+00  0.00000000000E+00  0.10101713153E+04  0.10101713153E+04  0.25500000920E-02 0. -1.
        2   -1    0    0  501    0  0.00000000000E+00  0.00000000000E+00 -0.17971725120E+04  0.17971725120E+04  0.25500000920E-02 0.  1.
    10030    2    1    2    0    0  0.00000000000E+00  0.00000000000E+00 -0.78700119666E+03  0.28073438273E+04  0.26947742913E+04 0.  0.
        3    1    3    3  502    0 -0.54465318520E+03  0.19515992459E+03  0.87417850902E+03  0.10482950749E+04  0.10100000352E+00 0. -1.
       -3    1    3    3    0  502  0.54465318520E+03 -0.19515992459E+03 -0.16611797057E+04  0.17590487523E+04  0.10100000352E+00 0.  1.
</event>
<event>
 5   0  0.4824715E-06  0.2342487E+04  0.7818609E-02  0.8461355E-01
        1   -1    0    0  501    0  0.00000000000E+00  0.00000000000E+00  0.88860870409E+03  0.88860870410E+03  0.50400001928E-02 0.  1.
       -1   -1    0    0    0  501  0.00000000000E+00  0.00000000000E+00 -0.15437743114E+04  0.15437743114E+04  0.50400001928E-02 0. -1.
    10030    2    1    2    0    0  0.00000000000E+00  0.00000000000E+00 -0.65516560730E+03  0.24323830155E+04  0.23424869607E+04 0.  0.
        5    1    3    3  502    0 -0.10829177206E+04 -0.13232849771E+03  0.11487711179E+03  0.10970143398E+04  0.46999998093E+01 0.  1.
       -5    1    3    3    0  502  0.10829177206E+04  0.13232849771E+03 -0.77004271909E+03  0.13353686757E+04  0.46999998093E+01 0. -1.
</event>
<event>
 5   0  0.1276517E-05  0.2848834E+04  0.7818609E-02  0.8288266E-01
        2   -1    0    0  501    0  0.00000000000E+00  0.00000000000E+00  0.17238281598E+04  0.17238281598E+04  0.25500000920E-02 0.  1.
       -2   -1    0    0    0  501  0.00000000000E+00  0.00000000000E+00 -0.11770106697E+04  0.11770106697E+04  0.25500000920E-02 0. -1.
    10030    2    1    2    0    0  0.00000000000E+00  0.00000000000E+00  0.54681749008E+03  0.29008388295E+04  0.28488342436E+04 0.  0.
        1    1    3    3  502    0  0.62872371667E+03  0.50061764813E+03  0.14709094205E+04  0.16761521604E+04  0.50400001928E-02 0.  1.
       -1    1    3    3    0  502 -0.62872371667E+03 -0.50061764813E+03 -0.92409193043E+03  0.12246866691E+04  0.50400001928E-02 0. -1.
</event>
<event>
 5   0  0.4846214E-06  0.2405069E+04  0.7818609E-02  0.8437608E-01
        1   -1    0    0  501    0  0.00000000000E+00  0.00000000000E+00  0.12683685546E+04  0.12683685546E+04  0.50400001928E-02 0. -1.
       -1   -1    0    0    0  501  0.00000000000E+00  0.00000000000E+00 -0.11401175491E+04  0.11401175491E+04  0.50400001928E-02 0.  1.
    10030    2    1    2    0    0  0.00000000000E+00  0.00000000000E+00  0.12825100549E+03  0.24084861038E+04  0.24050690201E+04 0.  0.
        2    1    3    3  502    0  0.95838878581E+03 -0.24945913342E+03 -0.61900961410E+03  0.11678663564E+04  0.25500000920E-02 0.  1.
       -2    1    3    3    0  502 -0.95838878581E+03  0.24945913342E+03  0.74726061958E+03  0.12406197474E+04  0.25500000920E-02 0. -1.
</event>
<event>
 5   0  0.1232559E-05  0.2691046E+04  0.7818609E-02  0.8337916E-01
        2   -1    0    0  501    0  0.00000000000E+00  0.00000000000E+00  0.22265769900E+04  0.22265769900E+04  0.25500000920E-02 0. -1.
       -2   -1    0    0    0  501  0.00000000000E+00  0.00000000000E+00 -0.81310080244E+03  0.81310080245E+03  0.25500000920E-02 0.  1.
    10030    2    1    2    0    0  0.00000000000E+00  0.00000000000E+00  0.14134761876E+04  0.30396777925E+04  0.26910455495E+04 0.  0.
        3    1    3    3  502    0  0.49164165636E+02  0.43091115330E+03  0.21454574946E+04  0.21888557304E+04  0.10100000352E+00 0. -1.
       -3    1    3    3    0  502 -0.49164165636E+02 -0.43091115330E+03 -0.73198130703E+03  0.85082206205E+03  0.10100000352E+00 0.  1.
</event>
<event>
 5   0  0.1286641E-05  0.2696027E+04  0.7818609E-02  0.8336295E-01
        2   -1    0    0  501    0  0.00000000000E+00  0.00000000000E+00  0.13821013164E+04  0.13821013164E+04  0.25500000920E-02 0. -1.
       -2   -1    0    0    0  501  0.00000000000E+00  0.00000000000E+00 -0.13147668085E+04  0.13147668085E+04  0.25500000920E-02 0.  1.
    10030    2    1    2    0    0  0.00000000000E+00  0.00000000000E+00  0.67334507896E+02  0.26968681249E+04  0.26960274011E+04 0.  0.
        4    1    3    3  502    0  0.10473424702E+04  0.62170832364E+03  0.61150804717E+03  0.13628613995E+04  0.12699999809E+01 0. -1.
       -4    1    3    3    0  502 -0.10473424702E+04 -0.62170832364E+03 -0.54417353927E+03  0.13340067254E+04  0.12699999809E+01 0.  1.
</event>
<event>
 5   0  0.1261364E-05  0.2738162E+04  0.7818609E-02  0.8322728E-01
        2   -1    0    0  501    0  0.00000000000E+00  0.00000000000E+00  0.17317051371E+04  0.17317051371E+04  0.25500000920E-02 0.  1.
       -2   -1    0    0    0  501  0.00000000000E+00  0.00000000000E+00 -0.10823915498E+04  0.10823915498E+04  0.25500000920E-02 0. -1.
    10030    2    1    2    0    0  0.00000000000E+00  0.00000000000E+00  0.64931358728E+03  0.28140966868E+04  0.27381621625E+04 0.  0.
        5    1    3    3  502    0 -0.12328628287E+04  0.22523098195E+03  0.89101184739E+03  0.15377268782E+04  0.46999998093E+01 0.  1.
       -5    1    3    3    0  502  0.12328628287E+04 -0.22523098195E+03 -0.24169826010E+03  0.12763698087E+04  0.46999998093E+01 0. -1.
</event>
<event>
 5   0  0.4826140E-06  0.2626677E+04  0.7818609E-02  0.8359196E-01
        1   -1    0    0  501    0  0.00000000000E+00  0.00000000000E+00  0.23702221167E+04  0.23702221167E+04  0.50400001928E-02 0. -1.
       -1   -1    0    0    0  501  0.00000000000E+00  0.00000000000E+00 -0.72772002680E+03  0.72772002682E+03  0.50400001928E-02 0.  1.
    10030    2    1    2    0    0  0.00000000000E+00  0.00000000000E+00  0.16425020899E+04  0.30979421435E+04  0.26266770660E+04 0.  0.
        1    1    3    3  502    0 -0.87670288569E+03  0.84108621400E+03  0.23293205030E+03  0.12370494369E+04  0.50400001928E-02 0.  1.
       -1    1    3    3    0  502  0.87670288569E+03 -0.84108621400E+03  0.14095700396E+04  0.18608927066E+04  0.50400001928E-02 0. -1.
</event>
<event>
 5   0  0.5152288E-06  0.2666765E+04  0.7818609E-02  0.8345870E-01
        1   -1    0    0  501    0  0.00000000000E+00  0.00000000000E+00  0.20023126080E+04  0.20023126080E+04  0.50400001928E-02 0.  1.
       -1   -1    0    0    0  501  0.00000000000E+00  0.00000000000E+00 -0.88792797493E+03  0.88792797494E+03  0.50400001928E-02 0. -1.
    10030    2    1    2    0    0  0.00000000000E+00  0.00000000000E+00  0.11143846331E+04  0.28902405830E+04  0.26667653660E+04 0.  0.
        3    1    3    3  502    0  0.81898246940E+02 -0.56092833902E+03 -0.75082530142E+03  0.94079039526E+03  0.10100000352E+00 0. -1.
       -3    1    3    3    0  502 -0.81898246940E+02  0.56092833902E+03  0.18652099345E+04  0.19494501877E+04  0.10100000352E+00 0.  1.
</event>
<event>
 5   0  0.4756800E-06  0.2725963E+04  0.7818609E-02  0.8326630E-01
       -1   -1    0    0    0  501  0.00000000000E+00  0.00000000000E+00  0.16323224605E+04  0.16323224605E+04  0.50400001928E-02 0.  1.
        1   -1    0    0  501    0  0.00000000000E+00  0.00000000000E+00 -0.11380832440E+04  0.11380832440E+04  0.50400001928E-02 0. -1.
    10030    2    1    2    0    0  0.00000000000E+00  0.00000000000E+00  0.49423921650E+03  0.27704057046E+04  0.27259631995E+04 0.  0.
        4    1    3    3  502    0 -0.34350634768E+03  0.10809296167E+04  0.10152942635E+04  0.15222448888E+04  0.12699999809E+01 0.  1.
       -4    1    3    3    0  502  0.34350634768E+03 -0.10809296167E+04 -0.52105504699E+03  0.12481608158E+04  0.12699999809E+01 0. -1.
</event>
<event>
 5   0  0.4824715E-06  0.2693473E+04  0.7818609E-02  0.8337126E-01
       -1   -1    0    0    0  501  0.00000000000E+00  0.00000000000E+00  0.11545077397E+04  0.11545077397E+04  0.50400001928E-02 0. -1.
        1   -1    0    0  501    0  0.00000000000E+00  0.00000000000E+00 -0.15709715729E+04  0.15709715729E+04  0.50400001928E-02 0.  1.
    10030    2    1    2    0    0  0.00000000000E+00  0.00000000000E+00 -0.41646383323E+03  0.27254793126E+04  0.26934727322E+04 0.  0.
        5    1    3    3  502    0 -0.10422779620E+04  0.12617890934E+03  0.64524344089E+03  0.12323253041E+04  0.46999998093E+01 0. -1.
       -5    1    3    3    0  502  0.10422779620E+04 -0.12617890934E+03 -0.10617072741E+04  0.14931540085E+04  0.46999998093E+01 0.  1.
</event>
<event>
 5   0  0.1232559E-05  0.2635814E+04  0.7818609E-02  0.8356137E-01
       -2   -1    0    0    0  501  0.00000000000E+00  0.00000000000E+00  0.80494776948E+03  0.80494776949E+03  0.25500000920E-02 0.  1.
        2   -1    0    0  501    0  0.00000000000E+00  0.00000000000E+00 -0.21577536229E+04  0.21577536229E+04  0.25500000920E-02 0. -1.
    10030    2    1    2    0    0  0.00000000000E+00  0.00000000000E+00 -0.13528058534E+04  0.29627013924E+04  0.26358140798E+04 0.  0.
        3    1    3    3  502    0 -0.83490243687E+03  0.80810219576E+03  0.22649013589E+02  0.11621549922E+04  0.10100000352E+00 0.  1.
       -3    1    3    3    0  502  0.83490243687E+03 -0.80810219576E+03 -0.13754548670E+04  0.18005464002E+04  0.10100000352E+00 0. -1.
</event>
<event>
 5   0  0.4846214E-06  0.2720180E+04  0.7818609E-02  0.8328487E-01
       -1   -1    0    0    0  501  0.00000000000E+00  0.00000000000E+00  0.14478782902E+04  0.14478782902E+04  0.50400001928E-02 0. -1.
        1   -1    0    0  501    0  0.00000000000E+00  0.00000000000E+00 -0.12776240625E+04  0.12776240625E+04  0.50400001928E-02 0.  1.
    10030    2    1    2    0    0  0.00000000000E+00  0.00000000000E+00  0.17025422764E+03  0.27255023527E+04  0.27201795111E+04 0.  0.
        2    1    3    3  502    0 -0.11999764155E+04  0.46483361379E+03  0.52625042205E+03  0.13903068701E+04  0.25500000920E-02 0. -1.
       -2    1    3    3    0  502  0.11999764155E+04 -0.46483361379E+03 -0.35599619441E+03  0.13351954826E+04  0.25500000920E-02 0.  1.
</event>
<event>
 5   0  0.4756800E-06  0.2716732E+04  0.7818609E-02  0.8329596E-01
       -1   -1    0    0    0  501  0.00000000000E+00  0.00000000000E+00  0.71954097958E+03  0.71954097960E+03  0.50400001928E-02 0. -1.
        1   -1    0    0  501    0  0.00000000000E+00  0.00000000000E+00 -0.25643541286E+04  0.25643541286E+04  0.50400001928E-02 0.  1.
    10030    2    1    2    0    0  0.00000000000E+00  0.00000000000E+00 -0.18448131491E+04  0.32838951082E+04  0.27167317731E+04 0.  0.
        4    1    3    3  502    0 -0.66401687398E+03 -0.60698270546E+03 -0.21526258691E+04  0.23330551127E+04  0.12699999809E+01 0.  1.
       -4    1    3    3    0  502  0.66401687398E+03  0.60698270546E+03  0.30781272002E+03  0.95083999557E+03  0.12699999809E+01 0. -1.
</event>
<event>
 5   0  0.5152288E-06  0.2689439E+04  0.7818609E-02  0.8338440E-01
       -1   -1    0    0    0  501  0.00000000000E+00  0.00000000000E+00  0.18705858133E+04  0.18705858133E+04  0.50400001928E-02 0.  1.
        1   -1    0    0  501    0  0.00000000000E+00  0.00000000000E+00 -0.96668668336E+03  0.96668668337E+03  0.50400001928E-02 0. -1.
    10030    2    1    2    0    0  0.00000000000E+00  0.00000000000E+00  0.90389912992E+03  0.28372724967E+04  0.26894388975E+04 0.  0.
        3    1    3    3  502    0 -0.19946108049E+03 -0.90204780106E+03 -0.57889819533E+03  0.10902284571E+04  0.10100000352E+00 0. -1.
       -3    1    3    3    0  502  0.19946108049E+03  0.90204780106E+03  0.14827973252E+04  0.17470440395E+04  0.10100000352E+00 0.  1.
</event>
<event>
 5   0  0.4756800E-06  0.2444079E+04  0.7818609E-02  0.8423183E-01
        1   -1    0    0  501    0  0.00000000000E+00  0.00000000000E+00  0.26666233899E+04  0.26666233899E+04  0.50400001928E-02 0. -1.
       -1   -1    0    0    0  501  0.00000000000E+00  0.00000000000E+00 -0.56002668458E+03  0.56002668460E+03  0.50400001928E-02 0.  1.
    10030    2    1    2    0    0  0.00000000000E+00  0.00000000000E+00  0.21065967053E+04  0.32266500745E+04  0.24440787680E+04 0.  0.
        4    1    3    3  502    0  0.85798302087E+03 -0.23518432185E+03 -0.52775758005E+02  0.89119774623E+03  0.12699999809E+01 0.  1.
       -4    1    3    3    0  502 -0.85798302087E+03  0.23518432185E+03  0.21593724633E+04  0.23354523283E+04  0.12699999809E+01 0. -1.
</event>
<event>
 5   0  0.1220908E-05  0.2660889E+04  0.7818609E-02  0.8347808E-01
       -2   -1    0    0    0  501  0.00000000000E+00  0.00000000000E+00  0.11444852571E+04  0.11444852571E+04  0.25500000920E-02 0.  1.
        2   -1    0    0  501    0  0.00000000000E+00  0.00000000000E+00 -0.15466188024E+04  0.15466188024E+04  0.25500000920E-02 0. -1.
    10030    2    1    2    0    0  0.00000000000E+00  0.00000000000E+00 -0.40213354535E+03  0.26911040595E+04  0.26608888874E+04 0.  0.
        2    1    3    3  502    0  0.44199987231E+03  0.41299376904E+03 -0.13994927852E+04  0.15246336597E+04  0.25500000920E-02 0. -1.
       -2    1    3    3    0  502 -0.44199987231E+03 -0.41299376904E+03  0.99735923985E+03  0.11664703998E+04  0.25500000920E-02 0.  1.
</event>
<event>
 5   0  0.1261364E-05  0.2741279E+04  0.7818609E-02  0.8321734E-01
        2   -1    0    0  501    0  0.00000000000E+00  0.00000000000E+00  0.15412700420E+04  0.15412700420E+04  0.25500000920E-02 0. -1.
       -2   -1    0    0    0  501  0.00000000000E+00  0.00000000000E+00 -0.12188991139E+04  0.12188991139E+04  0.25500000920E-02 0.  1.
    10030    2    1    2    0    0  0.00000000000E+00  0.00000000000E+00  0.32237092803E+03  0.27601691559E+04  0.27412790361E+04 0.  0.
        5    1    3    3  502    0 -0.29087857274E+03 -0.34498052615E+02  0.15093783334E+04  0.15375452848E+04  0.46999998093E+01 0. -1.
       -5    1    3    3    0  502  0.29087857274E+03  0.34498052615E+02 -0.11870074053E+04  0.12226238710E+04  0.46999998093E+01 0.  1.
</event>
<event>
 5   0  0.1232559E-05  0.2692794E+04  0.7818609E-02  0.8337347E-01
        2   -1    0    0  501    0  0.00000000000E+00  0.00000000000E+00  0.26554641655E+04  0.26554641655E+04  0.25500000920E-02 0.  1.
       -2   -1    0    0    0  501  0.00000000000E+00  0.00000000000E+00 -0.68266193823E+03  0.68266193823E+03  0.25500000920E-02 0. -1.
    10030    2    1    2    0    0  0.00000000000E+00  0.00000000000E+00  0.19728022273E+04  0.33381261037E+04  0.26927935785E+04 0.  0.
        3    1    3    3  502    0  0.12940364016E+04  0.27346726188E+03  0.67409313722E+03  0.14844918726E+04  0.10100000352E+00 0.  1.
       -3    1    3    3    0  502 -0.12940364016E+04 -0.27346726188E+03  0.12987090900E+04  0.18536342311E+04  0.10100000352E+00 0. -1.
</event>
<event>
 5   0  0.1261364E-05  0.2619257E+04  0.7818609E-02  0.8361689E-01
        2   -1    0    0  501    0  0.00000000000E+00  0.00000000000E+00  0.28843416838E+04  0.28843416838E+04  0.25500000920E-02 0.  1.
       -2   -1    0    0    0  501  0.00000000000E+00  0.00000000000E+00 -0.59463384443E+03  0.59463384444E+03  0.25500000920E-02 0. -1.
    10030    2    1    2    0    0  0.00000000000E+00  0.00000000000E+00  0.22897078393E+04  0.34789755282E+04  0.26192572872E+04 0.  0.
        5    1    3    3  502    0  0.17834550473E+03 -0.12847242631E+04  0.90436896722E+03  0.15812112035E+04  0.46999998093E+01 0.  1.
       -5    1    3    3    0  502 -0.17834550473E+03  0.12847242631E+04  0.13853388721E+04  0.18977643247E+04  0.46999998093E+01 0. -1.
</event>
<event>
 5   0  0.4756800E-06  0.2439993E+04  0.7818609E-02  0.8424681E-01
       -1   -1    0    0    0  501  0.00000000000E+00  0.00000000000E+00  0.11334645897E+04  0.11334645897E+04  0.50400001928E-02 0.  1.
        1   -1    0    0  501    0  0.00000000000E+00  0.00000000000E+00 -0.13131349472E+04  0.13131349472E+04  0.50400001928E-02 0. -1.
    10030    2    1    2    0    0  0.00000000000E+00  0.00000000000E+00 -0.17967035755E+03  0.24465995369E+04  0.24399934132E+04 0.  0.
        4    1    3    3  502    0 -0.11917701091E+04 -0.80691634729E+02 -0.33862630921E+03  0.12415701845E+04  0.12699999809E+01 0.  1.
       -4    1    3    3    0  502  0.11917701091E+04  0.80691634729E+02  0.15895595166E+03  0.12050293524E+04  0.12699999809E+01 0. -1.
</event>
<event>
 5   0  0.4824715E-06  0.2842981E+04  0.7818609E-02  0.8290047E-01
        1   -1    0    0  501    0  0.00000000000E+00  0.00000000000E+00  0.15259966799E+04  0.15259966799E+04  0.50400001928E-02 0.  1.
       -1   -1    0    0    0  501  0.00000000000E+00  0.00000000000E+00 -0.13241409355E+04  0.13241409355E+04  0.50400001928E-02 0. -1.
    10030    2    1    2    0    0  0.00000000000E+00  0.00000000000E+00  0.20185574447E+03  0.28501376154E+04  0.28429805988E+04 0.  0.
        5    1    3    3  502    0  0.43926890998E+03 -0.98701561720E+02 -0.12507665768E+04  0.13293375392E+04  0.46999998093E+01 0. -1.
       -5    1    3    3    0  502 -0.43926890998E+03  0.98701561720E+02  0.14526223213E+04  0.15208000762E+04  0.46999998093E+01 0.  1.
</event>
<event>
 5   0  0.5152288E-06  0.2720111E+04  0.7818609E-02  0.8328509E-01
       -1   -1    0    0    0  501  0.00000000000E+00  0.00000000000E+00  0.12139772473E+04  0.12139772473E+04  0.50400001928E-02 0.  1.
        1   -1    0    0  501    0  0.00000000000E+00  0.00000000000E+00 -0.15237109685E+04  0.15237109685E+04  0.50400001928E-02 0. -1.
    10030    2    1    2    0    0  0.00000000000E+00  0.00000000000E+00 -0.30973372121E+03  0.27376882158E+04  0.27201106207E+04 0.  0.
        3    1    3    3  502    0 -0.13455696520E+04  0.17576424751E+03 -0.24655814185E+03  0.13792177807E+04  0.10100000352E+00 0. -1.
       -3    1    3    3    0  502  0.13455696520E+04 -0.17576424751E+03 -0.63175579362E+02  0.13584704351E+04  0.10100000352E+00 0.  1.
</event>
<event>
 5   0  0.4824715E-06  0.2828840E+04  0.7818609E-02  0.8294370E-01
       -1   -1    0    0    0  501  0.00000000000E+00  0.00000000000E+00  0.12906410129E+04  0.12906410129E+04  0.50400001928E-02 0.  1.
        1   -1    0    0  501    0  0.00000000000E+00  0.00000000000E+00 -0.15500700274E+04  0.15500700274E+04  0.50400001928E-02 0. -1.
    10030    2    1    2    0    0  0.00000000000E+00  0.00000000000E+00 -0.25942901447E+03  0.28407110404E+04  0.28288400098E+04 0.  0.
        5    1    3    3  502    0  0.48194318393E+03  0.94075054899E+03 -0.10734887609E+04  0.15065460623E+04  0.46999998093E+01 0. -1.
       -5    1    3    3    0  502 -0.48194318393E+03 -0.94075054899E+03  0.81405974645E+03  0.13341649781E+04  0.46999998093E+01 0.  1.
</event>
<event>
 5   0  0.1220908E-05  0.2698785E+04  0.7818609E-02  0.8335399E-01
        2   -1    0    0  501    0  0.00000000000E+00  0.00000000000E+00  0.20453319881E+04  0.20453319881E+04  0.25500000920E-02 0. -1.
       -2   -1    0    0    0  501  0.00000000000E+00  0.00000000000E+00 -0.89025144359E+03  0.89025144359E+03  0.25500000920E-02 0.  1.
    10030    2    1    2    0    0  0.00000000000E+00  0.00000000000E+00  0.11550805445E+04  0.29355834317E+04  0.26987847302E+04 0.  0.
        2    1    3    3  502    0 -0.55863543971E+03  0.10805322778E+04  0.12129498113E+04  0.17178098855E+04  0.25500000920E-02 0.  1.
       -2    1    3    3    0  502  0.55863543971E+03 -0.10805322778E+04 -0.57869266813E+02  0.12177735462E+04  0.25500000920E-02 0. -1.
</event>
<event>
 5   0  0.1232559E-05  0.2672452E+04  0.7818609E-02  0.8343999E-01
       -2   -1    0    0    0  501  0.00000000000E+00  0.00000000000E+00  0.13403598082E+04  0.13403598082E+04  0.25500000920E-02 0. -1.
        2   -1    0    0  501    0  0.00000000000E+00  0.00000000000E+00 -0.13321046317E+04  0.13321046317E+04  0.25500000920E-02 0.  1.
    10030    2    1    2    0    0  0.00000000000E+00  0.00000000000E+00  0.82551765657E+01  0.26724644399E+04  0.26724516898E+04 0.  0.
        3    1    3    3  502    0 -0.43703181631E+03 -0.91032640772E+02 -0.12553289944E+04  0.13323417897E+04  0.10100000352E+00 0.  1.
       -3    1    3    3    0  502  0.43703181631E+03  0.91032640772E+02  0.12635841710E+04  0.13401226502E+04  0.10100000352E+00 0. -1.
</event>
<event>
 5   0  0.1232559E-05  0.2707465E+04  0.7818609E-02  0.8332587E-01
       -2   -1    0    0    0  501  0.00000000000E+00  0.00000000000E+00  0.89430907385E+03  0.89430907385E+03  0.25500000920E-02 0. -1.
        2   -1    0    0  501    0  0.00000000000E+00  0.00000000000E+00 -0.20491707393E+04  0.20491707393E+04  0.25500000920E-02 0.  1.
    10030    2    1    2    0    0  0.00000000000E+00  0.00000000000E+00 -0.11548616654E+04  0.29434798131E+04  0.27074652249E+04 0.  0.
        3    1    3    3  502    0 -0.63241404644E+02  0.13517118056E+04 -0.53578072616E+03  0.14553986661E+04  0.10100000352E+00 0.  1.
       -3    1    3    3    0  502  0.63241404644E+02 -0.13517118056E+04 -0.61908093924E+03  0.14880811470E+04  0.10100000352E+00 0. -1.
</event>
<event>
 5   0  0.4846214E-06  0.2683229E+04  0.7818609E-02  0.8340467E-01
       -1   -1    0    0    0  501  0.00000000000E+00  0.00000000000E+00  0.95988992730E+03  0.95988992731E+03  0.50400001928E-02 0.  1.
        1   -1    0    0  501    0  0.00000000000E+00  0.00000000000E+00 -0.18751409117E+04  0.18751409117E+04  0.50400001928E-02 0. -1.
    10030    2    1    2    0    0  0.00000000000E+00  0.00000000000E+00 -0.91525098442E+03  0.28350308390E+04  0.26832285579E+04 0.  0.
        2    1    3    3  502    0  0.85698108787E+02 -0.52596163425E+03  0.84327004834E+03  0.99753906239E+03  0.25500000920E-02 0.  1.
       -2    1    3    3    0  502 -0.85698108787E+02  0.52596163425E+03 -0.17585210328E+04  0.18374917766E+04  0.25500000920E-02 0. -1.
</event>
<event>
 5   0  0.1286641E-05  0.2651254E+04  0.7818609E-02  0.8350997E-01
       -2   -1    0    0    0  501  0.00000000000E+00  0.00000000000E+00  0.13673483295E+04  0.13673483295E+04  0.25500000920E-02 0.  1.
        2   -1    0    0  501    0  0.00000000000E+00  0.00000000000E+00 -0.12851787593E+04  0.12851787593E+04  0.25500000920E-02 0. -1.
    10030    2    1    2    0    0  0.00000000000E+00  0.00000000000E+00  0.82169570210E+02  0.26525270887E+04  0.26512540652E+04 0.  0.
        4    1    3    3  502    0 -0.93020582819E+03 -0.66171703842E+03  0.71530234036E+03  0.13471493506E+04  0.12699999809E+01 0.  1.
       -4    1    3    3    0  502  0.93020582819E+03  0.66171703842E+03 -0.63313277015E+03  0.13053777382E+04  0.12699999809E+01 0. -1.
</event>
<event>
 5   0  0.1232559E-05  0.2701472E+04  0.7818609E-02  0.8334528E-01
       -2   -1    0    0    0  501  0.00000000000E+00  0.00000000000E+00  0.93805347863E+03  0.93805347863E+03  0.25500000920E-02 0. -1.
        2   -1    0    0  501    0  0.00000000000E+00  0.00000000000E+00 -0.19449716995E+04  0.19449716995E+04  0.25500000920E-02 0.  1.
    10030    2    1    2    0    0  0.00000000000E+00  0.00000000000E+00 -0.10069182209E+04  0.28830251782E+04  0.27014717978E+04 0.  0.
        3    1    3    3  502    0 -0.23821939360E+03 -0.78770770100E+03  0.63962472163E+03  0.10422819659E+04  0.10100000352E+00 0. -1.
       -3    1    3    3    0  502  0.23821939360E+03  0.78770770100E+03 -0.16465429425E+04  0.18407432123E+04  0.10100000352E+00 0.  1.
</event>
<event>
 5   0  0.1232559E-05  0.2701488E+04  0.7818609E-02  0.8334522E-01
        2   -1    0    0  501    0  0.00000000000E+00  0.00000000000E+00  0.20081286189E+04  0.20081286189E+04  0.25500000920E-02 0.  1.
       -2   -1    0    0    0  501  0.00000000000E+00  0.00000000000E+00 -0.90856195104E+03  0.90856195105E+03  0.25500000920E-02 0. -1.
    10030    2    1    2    0    0  0.00000000000E+00  0.00000000000E+00  0.10995666679E+04  0.29166905700E+04  0.27014879278E+04 0.  0.
        3    1    3    3  502    0 -0.22354885156E+03  0.92776197427E+03 -0.48229155214E+03  0.10692621388E+04  0.10100000352E+00 0. -1.
       -3    1    3    3    0  502  0.22354885156E+03 -0.92776197427E+03  0.15818582200E+04  0.18474284312E+04  0.10100000352E+00 0.  1.
</event>
<event>
 5   0  0.1232559E-05  0.2719181E+04  0.7818609E-02  0.8328808E-01
       -2   -1    0    0    0  501  0.00000000000E+00  0.00000000000E+00  0.14048370025E+04  0.14048370025E+04  0.25500000920E-02 0.  1.
        2   -1    0    0  501    0  0.00000000000E+00  0.00000000000E+00 -0.13158013765E+04  0.13158013765E+04  0.25500000920E-02 0. -1.
    10030    2    1    2    0    0  0.00000000000E+00  0.00000000000E+00  0.89035626008E+02  0.27206383790E+04  0.27191810986E+04 0.  0.
        3    1    3    3  502    0  0.32944666396E+03 -0.10561044576E+04  0.83525441553E+03  0.13861968398E+04  0.10100000352E+00 0.  1.
       -3    1    3    3    0  502 -0.32944666396E+03  0.10561044576E+04 -0.74621878952E+03  0.13344415393E+04  0.10100000352E+00 0. -1.
</event>
<event>
 5   0  0.1261364E-05  0.2647020E+04  0.7818609E-02  0.8352403E-01
        2   -1    0    0  501    0  0.00000000000E+00  0.00000000000E+00  0.16480351658E+04  0.16480351658E+04  0.25500000920E-02 0.  1.
       -2   -1    0    0    0  501  0.00000000000E+00  0.00000000000E+00 -0.10628889679E+04  0.10628889679E+04  0.25500000920E-02 0. -1.
    10030    2    1    2    0    0  0.00000000000E+00  0.00000000000E+00  0.58514619792E+03  0.27109241337E+04  0.26470197554E+04 0.  0.
        5    1    3    3  502    0  0.10193281980E+04  0.46163519579E+03 -0.43125644888E+03  0.11992252682E+04  0.46999998093E+01 0. -1.
       -5    1    3    3    0  502 -0.10193281980E+04 -0.46163519579E+03  0.10164026468E+04  0.15116988654E+04  0.46999998093E+01 0.  1.
</event>
<event>
 5   0  0.5152288E-06  0.2674965E+04  0.7818609E-02  0.8343174E-01
       -1   -1    0    0    0  501  0.00000000000E+00  0.00000000000E+00  0.10441850620E+04  0.10441850620E+04  0.50400001928E-02 0.  1.
        1   -1    0    0  501    0  0.00000000000E+00  0.00000000000E+00 -0.17131635167E+04  0.17131635168E+04  0.50400001928E-02 0. -1.
    10030    2    1    2    0    0  0.00000000000E+00  0.00000000000E+00 -0.66897845478E+03  0.27573485787E+04  0.26749652356E+04 0.  0.
        3    1    3    3  502    0 -0.37312109456E+03  0.12345534617E+04 -0.69968587375E+03  0.14672770471E+04  0.10100000352E+00 0. -1.
       -3    1    3    3    0  502  0.37312109456E+03 -0.12345534617E+04  0.30707418965E+02  0.12900715316E+04  0.10100000352E+00 0.  1.
</event>
<event>
 5   0  0.4846214E-06  0.2708117E+04  0.7818609E-02  0.8332376E-01
        1   -1    0    0  501    0  0.00000000000E+00  0.00000000000E+00  0.12032642546E+04  0.12032642546E+04  0.50400001928E-02 0.  1.
       -1   -1    0    0    0  501  0.00000000000E+00  0.00000000000E+00 -0.15237502268E+04  0.15237502268E+04  0.50400001928E-02 0. -1.
    10030    2    1    2    0    0  0.00000000000E+00  0.00000000000E+00 -0.32048597214E+03  0.27270144814E+04  0.27081168224E+04 0.  0.
        2    1    3    3  502    0  0.79563172099E+03  0.87823816619E+03 -0.81990366066E+03  0.14410323122E+04  0.25500000920E-02 0. -1.
       -2    1    3    3    0  502 -0.79563172099E+03 -0.87823816619E+03  0.49941768852E+03  0.12859821692E+04  0.25500000920E-02 0.  1.
</event>
<event>
 5   0  0.4756800E-06  0.2724143E+04  0.7818609E-02  0.8327214E-01
        1   -1    0    0  501    0  0.00000000000E+00  0.00000000000E+00  0.71602468978E+03  0.71602468980E+03  0.50400001928E-02 0. -1.
       -1   -1    0    0    0  501  0.00000000000E+00  0.00000000000E+00 -0.25910267432E+04  0.25910267432E+04  0.50400001928E-02 0.  1.
    10030    2    1    2    0    0  0.00000000000E+00  0.00000000000E+00 -0.18750020534E+04  0.33070514330E+04  0.27241432562E+04 0.  0.
        4    1    3    3  502    0  0.78848631327E+03 -0.57522876260E+03  0.21586720380E+03  0.99959944883E+03  0.12699999809E+01 0. -1.
       -4    1    3    3    0  502 -0.78848631327E+03  0.57522876260E+03 -0.20908692572E+04  0.23074519841E+04  0.12699999809E+01 0.  1.
</event>
<event>
 5   0  0.1232559E-05  0.2715194E+04  0.7818609E-02  0.8330092E-01
       -2   -1    0    0    0  501  0.00000000000E+00  0.00000000000E+00  0.10003322653E+04  0.10003322653E+04  0.25500000920E-02 0. -1.
        2   -1    0    0  501    0  0.00000000000E+00  0.00000000000E+00 -0.18424575728E+04  0.18424575728E+04  0.25500000920E-02 0.  1.
    10030    2    1    2    0    0  0.00000000000E+00  0.00000000000E+00 -0.84212530746E+03  0.28427898381E+04  0.27151941054E+04 0.  0.
        3    1    3    3  502    0  0.68946023913E+03 -0.68786277884E+03 -0.14113207387E+04  0.17147410479E+04  0.10100000352E+00 0.  1.
       -3    1    3    3    0  502 -0.68946023913E+03  0.68786277884E+03  0.56919543120E+03  0.11280487901E+04  0.10100000352E+00 0. -1.
</event>
<event>
 5   0  0.1232559E-05  0.2368111E+04  0.7818609E-02  0.8451540E-01
        2   -1    0    0  501    0  0.00000000000E+00  0.00000000000E+00  0.25930769975E+04  0.25930769975E+04  0.25500000920E-02 0.  1.
       -2   -1    0    0    0  501  0.00000000000E+00  0.00000000000E+00 -0.54066540147E+03  0.54066540148E+03  0.25500000920E-02 0. -1.
    10030    2    1    2    0    0  0.00000000000E+00  0.00000000000E+00  0.20524115960E+04  0.31337423989E+04  0.23681106527E+04 0.  0.
        3    1    3    3  502    0  0.10415835545E+04 -0.29689500387E+03  0.16593840557E+04  0.19815646340E+04  0.10100000352E+00 0.  1.
       -3    1    3    3    0  502 -0.10415835545E+04  0.29689500387E+03  0.39302754033E+03  0.11521777649E+04  0.10100000352E+00 0. -1.
</event>
<event>
 5   0  0.1276517E-05  0.2205074E+04  0.7818609E-02  0.8516319E-01
       -2   -1    0    0    0  501  0.00000000000E+00  0.00000000000E+00  0.11058790285E+04  0.11058790285E+04  0.25500000920E-02 0. -1.
        2   -1    0    0  501    0  0.00000000000E+00  0.00000000000E+00 -0.10992054249E+04  0.10992054249E+04  0.25500000920E-02 0.  1.
    10030    2    1    2    0    0  0.00000000000E+00  0.00000000000E+00  0.66736036052E+01  0.22050844535E+04  0.22050743548E+04 0.  0.
        1    1    3    3  502    0 -0.66341851738E+03 -0.25776762523E+03  0.84537388173E+03  0.11050906197E+04  0.50400001928E-02 0. -1.
       -1    1    3    3    0  502  0.66341851738E+03  0.25776762523E+03 -0.83870027813E+03  0.10999938338E+04  0.50400001928E-02 0.  1.
</event>
<event>
 5   0  0.4826140E-06  0.2741120E+04  0.7818609E-02  0.8321785E-01
        1   -1    0    0  501    0  0.00000000000E+00  0.00000000000E+00  0.15782059371E+04  0.15782059371E+04  0.50400001928E-02 0. -1.
       -1   -1    0    0    0  501  0.00000000000E+00  0.00000000000E+00 -0.11902341318E+04  0.11902341318E+04  0.50400001928E-02 0.  1.
    10030    2    1    2    0    0  0.00000000000E+00  0.00000000000E+00  0.38797180531E+03  0.27684400688E+04  0.27411198976E+04 0.  0.
        1    1    3    3  502    0  0.42763079694E+03 -0.11809312541E+03  0.15036836762E+04  0.15677623171E+04  0.50400001928E-02 0. -1.
       -1    1    3    3    0  502 -0.42763079694E+03  0.11809312541E+03 -0.11157118709E+04  0.12006777518E+04  0.50400001928E-02 0.  1.
</event>
<event>
 5   0  0.1220908E-05  0.2697989E+04  0.7818609E-02  0.8335658E-01
       -2   -1    0    0    0  501  0.00000000000E+00  0.00000000000E+00  0.13600540097E+04  0.13600540097E+04  0.25500000920E-02 0.  1.
        2   -1    0    0  501    0  0.00000000000E+00  0.00000000000E+00 -0.13380248000E+04  0.13380248000E+04  0.25500000920E-02 0. -1.
    10030    2    1    2    0    0  0.00000000000E+00  0.00000000000E+00  0.22029209678E+02  0.26980788097E+04  0.26979888764E+04 0.  0.
        2    1    3    3  502    0 -0.11751231253E+04 -0.63816731392E+03  0.18882411426E+03  0.13504911797E+04  0.25500000920E-02 0.  1.
       -2    1    3    3    0  502  0.11751231253E+04  0.63816731392E+03 -0.16679490458E+03  0.13475876300E+04  0.25500000920E-02 0. -1.
</event>
<event>
 5   0  0.1232559E-05  0.2452115E+04  0.7818609E-02  0.8420246E-01
       -2   -1    0    0    0  501  0.00000000000E+00  0.00000000000E+00  0.64936485029E+03  0.64936485029E+03  0.25500000920E-02 0.  1.
        2   -1    0    0  501    0  0.00000000000E+00  0.00000000000E+00 -0.23149030497E+04  0.23149030497E+04  0.25500000920E-02 0. -1.
    10030    2    1    2    0    0  0.00000000000E+00  0.00000000000E+00 -0.16655381994E+04  0.29642679000E+04  0.24521147382E+04 0.  0.
        3    1    3    3  502    0  0.86555580452E+03  0.71237525795E+03 -0.14330165372E+04  0.18193959890E+04  0.10100000352E+00 0. -1.
       -3    1    3    3    0  502 -0.86555580452E+03 -0.71237525795E+03 -0.23252166223E+03  0.11448719110E+04  0.10100000352E+00 0.  1.
</event>
<event>
 5   0  0.4826140E-06  0.2699656E+04  0.7818609E-02  0.8335116E-01
       -1   -1    0    0    0  501  0.00000000000E+00  0.00000000000E+00  0.10470571960E+04  0.10470571960E+04  0.50400001928E-02 0. -1.
        1   -1    0    0  501    0  0.00000000000E+00  0.00000000000E+00 -0.17401494873E+04  0.17401494874E+04  0.50400001928E-02 0.  1.
    10030    2    1    2    0    0  0.00000000000E+00  0.00000000000E+00 -0.69309229134E+03  0.27872066834E+04  0.26996563062E+04 0.  0.
        1    1    3    3  502    0  0.78912766509E+03  0.46393292516E+03  0.67763283475E+03  0.11389216345E+04  0.50400001928E-02 0. -1.
       -1    1    3    3    0  502 -0.78912766509E+03 -0.46393292516E+03 -0.13707251261E+04  0.16482850488E+04  0.50400001928E-02 0.  1.
</event>
<event>
 5   0  0.1286641E-05  0.2729443E+04  0.7818609E-02  0.8325515E-01
       -2   -1    0    0    0  501  0.00000000000E+00  0.00000000000E+00  0.97119017770E+03  0.97119017770E+03  0.25500000920E-02 0. -1.
        2   -1    0    0  501    0  0.00000000000E+00  0.00000000000E+00 -0.19177136705E+04  0.19177136705E+04  0.25500000920E-02 0.  1.
    10030    2    1    2    0    0  0.00000000000E+00  0.00000000000E+00 -0.94652349285E+03  0.28889038482E+04  0.27294429325E+04 0.  0.
        4    1    3    3  502    0  0.10609212460E+04 -0.63743594117E+03 -0.10818175059E+04  0.16438397727E+04  0.12699999809E+01 0.  1.
       -4    1    3    3    0  502 -0.10609212460E+04  0.63743594117E+03  0.13529401305E+03  0.12450640755E+04  0.12699999809E+01 0. -1.
</event>
<event>
 5   0  0.4188000E-06  0.2703257E+04  0.7818609E-02  0.8333949E-01
       -3   -1    0    0    0  501  0.00000000000E+00  0.00000000000E+00  0.23244193923E+04  0.23244193945E+04  0.10100000352E+00 0.  1.
        3   -1    0    0  501    0  0.00000000000E+00  0.00000000000E+00 -0.78595948343E+03  0.78595948992E+03  0.10100000352E+00 0. -1.
    10030    2    1    2    0    0  0.00000000000E+00  0.00000000000E+00  0.15384599088E+04  0.31103788844E+04  0.27032569085E+04 0.  0.
        2    1    3    3  502    0 -0.50051421042E+03 -0.12189120592E+04  0.42282660872E+03  0.13838509399E+04  0.25500000920E-02 0. -1.
       -2    1    3    3    0  502  0.50051421042E+03  0.12189120592E+04  0.11156333001E+04  0.17265279445E+04  0.25500000920E-02 0.  1.
</event>
<event>
 5   0  0.1261364E-05  0.2681605E+04  0.7818609E-02  0.8340998E-01
        2   -1    0    0  501    0  0.00000000000E+00  0.00000000000E+00  0.23352378232E+04  0.23352378232E+04  0.25500000920E-02 0.  1.
       -2   -1    0    0    0  501  0.00000000000E+00  0.00000000000E+00 -0.76983677032E+03  0.76983677033E+03  0.25500000920E-02 0. -1.
    10030    2    1    2    0    0  0.00000000000E+00  0.00000000000E+00  0.15654010529E+04  0.31050745936E+04  0.26816054473E+04 0.  0.
        5    1    3    3  502    0  0.85381295018E+03 -0.39407701280E+03  0.18893660109E+04  0.21104547517E+04  0.46999998093E+01 0.  1.
       -5    1    3    3    0  502 -0.85381295018E+03  0.39407701280E+03 -0.32396495794E+03  0.99461984189E+03  0.46999998093E+01 0. -1.
</event>
<event>
 5   0  0.1286641E-05  0.2657509E+04  0.7818609E-02  0.8348925E-01
        2   -1    0    0  501    0  0.00000000000E+00  0.00000000000E+00  0.11263592972E+04  0.11263592972E+04  0.25500000920E-02 0. -1.
       -2   -1    0    0    0  501  0.00000000000E+00  0.00000000000E+00 -0.15675179608E+04  0.15675179608E+04  0.25500000920E-02 0.  1.
    10030    2    1    2    0    0  0.00000000000E+00  0.00000000000E+00 -0.44115866361E+03  0.26938772580E+04  0.26575089303E+04 0.  0.
        4    1    3    3  502    0  0.12013565297E+03  0.89884977096E+03 -0.12050671313E+04  0.15081617585E+04  0.12699999809E+01 0.  1.
       -4    1    3    3    0  502 -0.12013565297E+03 -0.89884977096E+03  0.76390846767E+03  0.11857154995E+04  0.12699999809E+01 0. -1.
</event>
<event>
 5   0  0.1232559E-05  0.2589980E+04  0.7818609E-02  0.8371613E-01
        2   -1    0    0  501    0  0.00000000000E+00  0.00000000000E+00  0.14540709108E+04  0.14540709108E+04  0.25500000920E-02 0.  1.
       -2   -1    0    0    0  501  0.00000000000E+00  0.00000000000E+00 -0.11533131973E+04  0.11533131973E+04  0.25500000920E-02 0. -1.
    10030    2    1    2    0    0  0.00000000000E+00  0.00000000000E+00  0.30075771352E+03  0.26073841081E+04  0.25899800550E+04 0.  0.
        3    1    3    3  502    0 -0.71160753180E+03 -0.86370192929E+03  0.80639630942E+03  0.13793626499E+04  0.10100000352E+00 0.  1.
       -3    1    3    3    0  502  0.71160753180E+03  0.86370192929E+03 -0.50563859590E+03  0.12280214582E+04  0.10100000352E+00 0. -1.
</event>
<event>
 5   0  0.1232559E-05  0.2720401E+04  0.7818609E-02  0.8328416E-01
       -2   -1    0    0    0  501  0.00000000000E+00  0.00000000000E+00  0.12207851105E+04  0.12207851105E+04  0.25500000920E-02 0.  1.
        2   -1    0    0  501    0  0.00000000000E+00  0.00000000000E+00 -0.15155369018E+04  0.15155369018E+04  0.25500000920E-02 0. -1.
    10030    2    1    2    0    0  0.00000000000E+00  0.00000000000E+00 -0.29475179136E+03  0.27363220123E+04  0.27204006206E+04 0.  0.
        3    1    3    3  502    0  0.12392230120E+04 -0.48020253571E+03  0.14393388870E+03  0.13367816289E+04  0.10100000352E+00 0.  1.
       -3    1    3    3    0  502 -0.12392230120E+04  0.48020253571E+03 -0.43868568006E+03  0.13995403834E+04  0.10100000352E+00 0. -1.
</event>
<event>
 5   0  0.1286641E-05  0.2708837E+04  0.7818609E-02  0.8332143E-01
       -2   -1    0    0    0  501  0.00000000000E+00  0.00000000000E+00  0.10640895015E+04  0.10640895015E+04  0.25500000920E-02 0.  1.
        2   -1    0    0  501    0  0.00000000000E+00  0.00000000000E+00 -0.17239615825E+04  0.17239615825E+04  0.25500000920E-02 0. -1.
    10030    2    1    2    0    0  0.00000000000E+00  0.00000000000E+00 -0.65987208098E+03  0.27880510840E+04  0.27088369615E+04 0.  0.
        4    1    3    3  502    0  0.21879599032E+03  0.34825651858E+03 -0.16581353687E+04  0.17083819251E+04  0.12699999809E+01 0. -1.
       -4    1    3    3    0  502 -0.21879599032E+03 -0.34825651858E+03  0.99826328776E+03  0.10796691589E+04  0.12699999809E+01 0.  1.
</event>
<event>
 5   0  0.1232559E-05  0.2690785E+04  0.7818609E-02  0.8338001E-01
        2   -1    0    0  501    0  0.00000000000E+00  0.00000000000E+00  0.14592745283E+04  0.14592745283E+04  0.25500000920E-02 0.  1.
       -2   -1    0    0    0  501  0.00000000000E+00  0.00000000000E+00 -0.12403974649E+04  0.12403974649E+04  0.25500000920E-02 0. -1.
    10030    2    1    2    0    0  0.00000000000E+00  0.00000000000E+00  0.21887706337E+03  0.26996719932E+04  0.26907845886E+04 0.  0.
        3    1    3    3  502    0  0.71199497524E+03  0.10522384690E+04  0.55354914842E+03  0.13858424551E+04  0.10100000352E+00 0.  1.
       -3    1    3    3    0  502 -0.71199497524E+03 -0.10522384690E+04 -0.33467208505E+03  0.13138295381E+04  0.10100000352E+00 0. -1.
</event>
<event>
 5   0  0.4824715E-06  0.2632927E+04  0.7818609E-02  0.8357102E-01
        1   -1    0    0  501    0  0.00000000000E+00  0.00000000000E+00  0.24739905273E+04  0.24739905273E+04  0.50400001928E-02 0. -1.
       -1   -1    0    0    0  501  0.00000000000E+00  0.00000000000E+00 -0.70051862802E+03  0.70051862804E+03  0.50400001928E-02 0.  1.
    10030    2    1    2    0    0  0.00000000000E+00  0.00000000000E+00  0.17734718992E+04  0.31745091553E+04  0.26329272302E+04 0.  0.
        5    1    3    3  502    0  0.88668145535E+03  0.37294485669E+03 -0.19689043024E+03  0.98187565451E+03  0.46999998093E+01 0.  1.
       -5    1    3    3    0  502 -0.88668145535E+03 -0.37294485669E+03  0.19703623295E+04  0.21926335008E+04  0.46999998093E+01 0. -1.
</event>
<event>
 5   0  0.1276517E-05  0.2763590E+04  0.7818609E-02  0.8314662E-01
        2   -1    0    0  501    0  0.00000000000E+00  0.00000000000E+00  0.17400946214E+04  0.17400946214E+04  0.25500000920E-02 0.  1.
       -2   -1    0    0    0  501  0.00000000000E+00  0.00000000000E+00 -0.10972722357E+04  0.10972722357E+04  0.25500000920E-02 0. -1.
    10030    2    1    2    0    0  0.00000000000E+00  0.00000000000E+00  0.64282238566E+03  0.28373668571E+04  0.27635900677E+04 0.  0.
        1    1    3    3  502    0  0.62752270282E+03 -0.56456093449E+03 -0.80179785132E+03  0.11642137199E+04  0.50400001928E-02 0. -1.
       -1    1    3    3    0  502 -0.62752270282E+03  0.56456093449E+03  0.14446202370E+04  0.16731531372E+04  0.50400001928E-02 0.  1.
</event>
<event>
 5   0  0.5152288E-06  0.2678388E+04  0.7818609E-02  0.8342051E-01
        1   -1    0    0  501    0  0.00000000000E+00  0.00000000000E+00  0.12473584699E+04  0.12473584699E+04  0.50400001928E-02 0. -1.
       -1   -1    0    0    0  501  0.00000000000E+00  0.00000000000E+00 -0.14377910222E+04  0.14377910222E+04  0.50400001928E-02 0.  1.
    10030    2    1    2    0    0  0.00000000000E+00  0.00000000000E+00 -0.19043255231E+03  0.26851494921E+04  0.26783881791E+04 0.  0.
        3    1    3    3  502    0 -0.31808270390E+03  0.12064333010E+04 -0.58304807053E+03  0.13771720949E+04  0.10100000352E+00 0.  1.
       -3    1    3    3    0  502  0.31808270390E+03 -0.12064333010E+04  0.39261551821E+03  0.13079773972E+04  0.10100000352E+00 0. -1.
</event>
<event>
 5   0  0.1286641E-05  0.2681594E+04  0.7818609E-02  0.8341002E-01
       -2   -1    0    0    0  501  0.00000000000E+00  0.00000000000E+00  0.12816121792E+04  0.12816121792E+04  0.25500000920E-02 0.  1.
        2   -1    0    0  501    0  0.00000000000E+00  0.00000000000E+00 -0.14027145895E+04  0.14027145895E+04  0.25500000920E-02 0. -1.
    10030    2    1    2    0    0  0.00000000000E+00  0.00000000000E+00 -0.12110241032E+03  0.26843267687E+04  0.26815936320E+04 0.  0.
        4    1    3    3  502    0  0.43890981290E+03 -0.31826639272E+03  0.11669935549E+04  0.12867831561E+04  0.12699999809E+01 0.  1.
       -4    1    3    3    0  502 -0.43890981290E+03  0.31826639272E+03 -0.12880959652E+04  0.13975436126E+04  0.12699999809E+01 0. -1.
</event>
<event>
 5   0  0.1286641E-05  0.2784637E+04  0.7818609E-02  0.8308054E-01
        2   -1    0    0  501    0  0.00000000000E+00  0.00000000000E+00  0.22901911930E+04  0.22901911930E+04  0.25500000920E-02 0. -1.
       -2   -1    0    0    0  501  0.00000000000E+00  0.00000000000E+00 -0.84645823225E+03  0.84645823225E+03  0.25500000920E-02 0.  1.
    10030    2    1    2    0    0  0.00000000000E+00  0.00000000000E+00  0.14437329607E+04  0.31366494252E+04  0.27846372753E+04 0.  0.
        4    1    3    3  502    0 -0.75273539893E+03 -0.56959223594E+03  0.18747226493E+04  0.20989598664E+04  0.12699999809E+01 0. -1.
       -4    1    3    3    0  502  0.75273539893E+03  0.56959223594E+03 -0.43098968853E+03  0.10376895589E+04  0.12699999809E+01 0.  1.
</event>
<event>
 5   0  0.4188000E-06  0.2688314E+04  0.7818609E-02  0.8338807E-01
        3   -1    0    0  501    0  0.00000000000E+00  0.00000000000E+00  0.22748765645E+04  0.22748765668E+04  0.10100000352E+00 0. -1.
       -3   -1    0    0    0  501  0.00000000000E+00  0.00000000000E+00 -0.79422216271E+03  0.79422216914E+03  0.10100000352E+00 0.  1.
    10030    2    1    2    0    0  0.00000000000E+00  0.00000000000E+00  0.14806544018E+04  0.30690987359E+04  0.26883135221E+04 0.  0.
        5    1    3    3  502    0  0.23775998502E+03  0.59355577561E+03 -0.60947004069E+03  0.88335388703E+03  0.46999998093E+01 0.  1.
       -5    1    3    3    0  502 -0.23775998502E+03 -0.59355577561E+03  0.20901244425E+04  0.21857448489E+04  0.46999998093E+01 0. -1.
</event>
<event>
 5   0  0.1286641E-05  0.2713916E+04  0.7818609E-02  0.8330504E-01
        2   -1    0    0  501    0  0.00000000000E+00  0.00000000000E+00  0.23382342840E+04  0.23382342840E+04  0.25500000920E-02 0. -1.
       -2   -1    0    0    0  501  0.00000000000E+00  0.00000000000E+00 -0.78748973010E+03  0.78748973010E+03  0.25500000920E-02 0.  1.
    10030    2    1    2    0    0  0.00000000000E+00  0.00000000000E+00  0.15507445539E+04  0.31257240141E+04  0.27139163474E+04 0.  0.
        4    1    3    3  502    0  0.10113238797E+04  0.38674373610E+02  0.18164465763E+04  0.20793632377E+04  0.12699999809E+01 0. -1.
       -4    1    3    3    0  502 -0.10113238797E+04 -0.38674373610E+02 -0.26570202236E+03  0.10463607764E+04  0.12699999809E+01 0.  1.
</event>
<event>
 5   0  0.1276517E-05  0.2712607E+04  0.7818609E-02  0.8330926E-01
       -2   -1    0    0    0  501  0.00000000000E+00  0.00000000000E+00  0.97552211080E+03  0.97552211080E+03  0.25500000920E-02 0.  1.
        2   -1    0    0  501    0  0.00000000000E+00  0.00000000000E+00 -0.18857179405E+04  0.18857179405E+04  0.25500000920E-02 0. -1.
    10030    2    1    2    0    0  0.00000000000E+00  0.00000000000E+00 -0.91019582970E+03  0.28612400513E+04  0.27126072666E+04 0.  0.
        1    1    3    3  502    0 -0.77574405919E+03 -0.10791075689E+04 -0.16950873950E+03  0.13397705786E+04  0.50400001928E-02 0.  1.
       -1    1    3    3    0  502  0.77574405919E+03  0.10791075689E+04 -0.74068709020E+03  0.15214694727E+04  0.50400001928E-02 0. -1.
</event>
<event>
 5   0  0.4756800E-06  0.2710639E+04  0.7818609E-02  0.8331561E-01
        1   -1    0    0  501    0  0.00000000000E+00  0.00000000000E+00  0.20945753078E+04  0.20945753078E+04  0.50400001928E-02 0.  1.
       -1   -1    0    0    0  501  0.00000000000E+00  0.00000000000E+00 -0.87697537277E+03  0.87697537278E+03  0.50400001928E-02 0. -1.
    10030    2    1    2    0    0  0.00000000000E+00  0.00000000000E+00  0.12175999350E+04  0.29715506806E+04  0.27106390105E+04 0.  0.
        4    1    3    3  502    0  0.12104811591E+04 -0.44367723070E+03  0.15049834522E+03  0.12979851642E+04  0.12699999809E+01 0. -1.
       -4    1    3    3    0  502 -0.12104811591E+04  0.44367723070E+03  0.10671015898E+04  0.16735655163E+04  0.12699999809E+01 0.  1.
</event>
<event>
 5   0  0.4824715E-06  0.2683713E+04  0.7818609E-02  0.8340309E-01
        1   -1    0    0  501    0  0.00000000000E+00  0.00000000000E+00  0.10328244578E+04  0.10328244578E+04  0.50400001928E-02 0.  1.
       -1   -1    0    0    0  501  0.00000000000E+00  0.00000000000E+00 -0.17433545073E+04  0.17433545073E+04  0.50400001928E-02 0. -1.
    10030    2    1    2    0    0  0.00000000000E+00  0.00000000000E+00 -0.71053004945E+03  0.27761789651E+04  0.26837132289E+04 0.  0.
        5    1    3    3  502    0  0.74685356518E+03  0.74317098068E+03  0.50430603906E+03  0.11680924730E+04  0.46999998093E+01 0.  1.
       -5    1    3    3    0  502 -0.74685356518E+03 -0.74317098068E+03 -0.12148360885E+04  0.16080864922E+04  0.46999998093E+01 0. -1.
</event>
<event>
 5   0  0.1286641E-05  0.2840862E+04  0.7818609E-02  0.8290693E-01
        2   -1    0    0  501    0  0.00000000000E+00  0.00000000000E+00  0.23402062224E+04  0.23402062224E+04  0.25500000920E-02 0. -1.
       -2   -1    0    0    0  501  0.00000000000E+00  0.00000000000E+00 -0.86215658957E+03  0.86215658957E+03  0.25500000920E-02 0.  1.
    10030    2    1    2    0    0  0.00000000000E+00  0.00000000000E+00  0.14780496329E+04  0.32023628120E+04  0.28408619929E+04 0.  0.
        4    1    3    3  502    0 -0.11222406718E+04 -0.87072790193E+03  0.73270837647E+03  0.15982660550E+04  0.12699999809E+01 0.  1.
       -4    1    3    3    0  502  0.11222406718E+04  0.87072790193E+03  0.74534125639E+03  0.16040967570E+04  0.12699999809E+01 0. -1.
</event>
<event>
 5   0  0.1276517E-05  0.2716483E+04  0.7818609E-02  0.8329677E-01
        2   -1    0    0  501    0  0.00000000000E+00  0.00000000000E+00  0.16984527338E+04  0.16984527339E+04  0.25500000920E-02 0. -1.
       -2   -1    0    0    0  501  0.00000000000E+00  0.00000000000E+00 -0.10861768720E+04  0.10861768720E+04  0.25500000920E-02 0.  1.
    10030    2    1    2    0    0  0.00000000000E+00  0.00000000000E+00  0.61227586180E+03  0.27846296059E+04  0.27164830776E+04 0.  0.
        1    1    3    3  502    0 -0.67845011068E+02  0.13497667993E+04  0.16728992497E+03  0.13617853270E+04  0.50400001928E-02 0. -1.
       -1    1    3    3    0  502  0.67845011068E+02 -0.13497667993E+04  0.44498593683E+03  0.14228442789E+04  0.50400001928E-02 0.  1.
</event>
<event>
 5   0  0.1220908E-05  0.2702603E+04  0.7818609E-02  0.8334161E-01
       -2   -1    0    0    0  501  0.00000000000E+00  0.00000000000E+00  0.21443900887E+04  0.21443900887E+04  0.25500000920E-02 0. -1.
        2   -1    0    0  501    0  0.00000000000E+00  0.00000000000E+00 -0.85153140998E+03  0.85153140998E+03  0.25500000920E-02 0.  1.
    10030    2    1    2    0    0  0.00000000000E+00  0.00000000000E+00  0.12928586787E+04  0.29959214987E+04  0.27026028312E+04 0.  0.
        2    1    3    3  502    0 -0.70720626380E+03  0.87055100649E+03 -0.18903591967E+03  0.11374244297E+04  0.25500000920E-02 0.  1.
       -2    1    3    3    0  502  0.70720626380E+03 -0.87055100649E+03  0.14818945984E+04  0.18584970689E+04  0.25500000920E-02 0. -1.
</event>
<event>
 5   0  0.1261364E-05  0.2689598E+04  0.7818609E-02  0.8338388E-01
       -2   -1    0    0    0  501  0.00000000000E+00  0.00000000000E+00  0.13744814446E+04  0.13744814446E+04  0.25500000920E-02 0.  1.
        2   -1    0    0  501    0  0.00000000000E+00  0.00000000000E+00 -0.13157575171E+04  0.13157575171E+04  0.25500000920E-02 0. -1.
    10030    2    1    2    0    0  0.00000000000E+00  0.00000000000E+00  0.58723927458E+02  0.26902389618E+04  0.26895979573E+04 0.  0.
        5    1    3    3  502    0 -0.43902523224E+02 -0.24782854358E+03 -0.12919811790E+04  0.13162765194E+04  0.46999998093E+01 0. -1.
       -5    1    3    3    0  502  0.43902523224E+02  0.24782854358E+03  0.13507051064E+04  0.13739624424E+04  0.46999998093E+01 0.  1.
</event>
<event>
 5   0  0.1220908E-05  0.2700732E+04  0.7818609E-02  0.8334768E-01
        2   -1    0    0  501    0  0.00000000000E+00  0.00000000000E+00  0.79829823736E+03  0.79829823736E+03  0.25500000920E-02 0. -1.
       -2   -1    0    0    0  501  0.00000000000E+00  0.00000000000E+00 -0.22842189342E+04  0.22842189342E+04  0.25500000920E-02 0.  1.
    10030    2    1    2    0    0  0.00000000000E+00  0.00000000000E+00 -0.14859206969E+04  0.30825171716E+04  0.27007317149E+04 0.  0.
        2    1    3    3  502    0 -0.84863105675E+03  0.69833610411E+03 -0.16385054491E+04  0.19729541534E+04  0.25500000920E-02 0.  1.
       -2    1    3    3    0  502  0.84863105675E+03 -0.69833610411E+03  0.15258475217E+03  0.11095630182E+04  0.25500000920E-02 0. -1.
</event>
<event>
 5   0  0.5152288E-06  0.2626440E+04  0.7818609E-02  0.8359275E-01
        1   -1    0    0  501    0  0.00000000000E+00  0.00000000000E+00  0.23058968721E+04  0.23058968721E+04  0.50400001928E-02 0.  1.
       -1   -1    0    0    0  501  0.00000000000E+00  0.00000000000E+00 -0.74788526386E+03  0.74788526388E+03  0.50400001928E-02 0. -1.
    10030    2    1    2    0    0  0.00000000000E+00  0.00000000000E+00  0.15580116082E+04  0.30537821360E+04  0.26264396362E+04 0.  0.
        3    1    3    3  502    0 -0.12010895802E+04  0.47970223009E+03  0.10436741659E+04  0.16619224362E+04  0.10100000352E+00 0.  1.
       -3    1    3    3    0  502  0.12010895802E+04 -0.47970223009E+03  0.51433744238E+03  0.13918596998E+04  0.10100000352E+00 0. -1.
</event>
<event>
 5   0  0.1276517E-05  0.2720929E+04  0.7818609E-02  0.8328246E-01
       -2   -1    0    0    0  501  0.00000000000E+00  0.00000000000E+00  0.10107421494E+04  0.10107421494E+04  0.25500000920E-02 0. -1.
        2   -1    0    0  501    0  0.00000000000E+00  0.00000000000E+00 -0.18311930191E+04  0.18311930191E+04  0.25500000920E-02 0.  1.
    10030    2    1    2    0    0  0.00000000000E+00  0.00000000000E+00 -0.82045086971E+03  0.28419351685E+04  0.27209292295E+04 0.  0.
        1    1    3    3  502    0  0.80880533618E+03 -0.10370394177E+04 -0.46534332630E+02  0.13159719867E+04  0.50400001928E-02 0.  1.
       -1    1    3    3    0  502 -0.80880533618E+03  0.10370394177E+04 -0.77391653708E+03  0.15259631818E+04  0.50400001928E-02 0. -1.
</event>
<event>
 5   0  0.4846214E-06  0.2727678E+04  0.7818609E-02  0.8326080E-01
       -1   -1    0    0    0  501  0.00000000000E+00  0.00000000000E+00  0.89010374242E+03  0.89010374243E+03  0.50400001928E-02 0.  1.
        1   -1    0    0  501    0  0.00000000000E+00  0.00000000000E+00 -0.20897082720E+04  0.20897082720E+04  0.50400001928E-02 0. -1.
    10030    2    1    2    0    0  0.00000000000E+00  0.00000000000E+00 -0.11996045295E+04  0.29798120144E+04  0.27276782460E+04 0.  0.
        2    1    3    3  502    0  0.10952649060E+04 -0.77517655559E+03 -0.33320944465E+03  0.13825818025E+04  0.25500000920E-02 0.  1.
       -2    1    3    3    0  502 -0.10952649060E+04  0.77517655559E+03 -0.86639508489E+03  0.15972302119E+04  0.25500000920E-02 0. -1.
</event>
<event>
 5   0  0.4756800E-06  0.2656938E+04  0.7818609E-02  0.8349114E-01
        1   -1    0    0  501    0  0.00000000000E+00  0.00000000000E+00  0.19946516970E+04  0.19946516970E+04  0.50400001928E-02 0. -1.
       -1   -1    0    0    0  501  0.00000000000E+00  0.00000000000E+00 -0.88478124978E+03  0.88478124979E+03  0.50400001928E-02 0.  1.
    10030    2    1    2    0    0  0.00000000000E+00  0.00000000000E+00  0.11098704473E+04  0.28794329468E+04  0.26569384046E+04 0.  0.
        4    1    3    3  502    0  0.11122475170E+04 -0.26736897647E+03 -0.17708995231E+03  0.11575591444E+04  0.12699999809E+01 0.  1.
       -4    1    3    3    0  502 -0.11122475170E+04  0.26736897647E+03  0.12869603996E+04  0.17218738025E+04  0.12699999809E+01 0. -1.
</event>
<event>
 5   0  0.1232559E-05  0.2711675E+04  0.7818609E-02  0.8331227E-01
       -2   -1    0    0    0  501  0.00000000000E+00  0.00000000000E+00  0.74385717022E+03  0.74385717023E+03  0.25500000920E-02 0.  1.
        2   -1    0    0  501    0  0.00000000000E+00  0.00000000000E+00 -0.24713020156E+04  0.24713020156E+04  0.25500000920E-02 0. -1.
    10030    2    1    2    0    0  0.00000000000E+00  0.00000000000E+00 -0.17274448453E+04  0.32151591858E+04  0.27116752933E+04 0.  0.
        3    1    3    3  502    0 -0.71055690220E+03  0.11215796384E+04 -0.11894345231E+04  0.17825786074E+04  0.10100000352E+00 0. -1.
       -3    1    3    3    0  502  0.71055690220E+03 -0.11215796384E+04 -0.53801032221E+03  0.14325805784E+04  0.10100000352E+00 0.  1.
</event>
<event>
 5   0  0.1261364E-05  0.2704109E+04  0.7818609E-02  0.8333673E-01
        2   -1    0    0  501    0  0.00000000000E+00  0.00000000000E+00  0.25012500601E+04  0.25012500601E+04  0.25500000920E-02 0. -1.
       -2   -1    0    0    0  501  0.00000000000E+00  0.00000000000E+00 -0.73085510068E+03  0.73085510069E+03  0.25500000920E-02 0.  1.
    10030    2    1    2    0    0  0.00000000000E+00  0.00000000000E+00  0.17703949594E+04  0.32321051608E+04  0.27041089952E+04 0.  0.
        5    1    3    3  502    0  0.93743547226E+03 -0.26949561567E+03 -0.23389510197E+03  0.10030663788E+04  0.46999998093E+01 0.  1.
       -5    1    3    3    0  502 -0.93743547226E+03  0.26949561567E+03  0.20042900614E+04  0.22290387820E+04  0.46999998093E+01 0. -1.
</event>
<event>
 5   0  0.1261364E-05  0.2707186E+04  0.7818609E-02  0.8332677E-01
        2   -1    0    0  501    0  0.00000000000E+00  0.00000000000E+00  0.12243021877E+04  0.12243021877E+04  0.25500000920E-02 0.  1.
       -2   -1    0    0    0  501  0.00000000000E+00  0.00000000000E+00 -0.14965371257E+04  0.14965371257E+04  0.25500000920E-02 0. -1.
    10030    2    1    2    0    0  0.00000000000E+00  0.00000000000E+00 -0.27223493795E+03  0.27208393134E+04  0.27071857542E+04 0.  0.
        5    1    3    3  502    0 -0.70002405837E+03  0.49323939265E+03  0.91744077822E+03  0.12550053595E+04  0.46999998093E+01 0.  1.
       -5    1    3    3    0  502  0.70002405837E+03 -0.49323939265E+03 -0.11896757162E+04  0.14658339539E+04  0.46999998093E+01 0. -1.
</event>
<event>
 5   0  0.1276517E-05  0.2711875E+04  0.7818609E-02  0.8331162E-01
       -2   -1    0    0    0  501  0.00000000000E+00  0.00000000000E+00  0.10109822216E+04  0.10109822216E+04  0.25500000920E-02 0. -1.
        2   -1    0    0  501    0  0.00000000000E+00  0.00000000000E+00 -0.18185937112E+04  0.18185937112E+04  0.25500000920E-02 0.  1.
    10030    2    1    2    0    0  0.00000000000E+00  0.00000000000E+00 -0.80761148957E+03  0.28295759329E+04  0.27118745623E+04 0.  0.
        1    1    3    3  502    0 -0.45921690102E+03  0.85133727999E+02  0.92440798298E+03  0.10356920550E+04  0.50400001928E-02 0. -1.
       -1    1    3    3    0  502  0.45921690102E+03 -0.85133727999E+02 -0.17320194725E+04  0.17938838778E+04  0.50400001928E-02 0.  1.
</event>
<event>
 5   0  0.4756800E-06  0.2731956E+04  0.7818609E-02  0.8324710E-01
        1   -1    0    0  501    0  0.00000000000E+00  0.00000000000E+00  0.26318419335E+04  0.26318419335E+04  0.50400001928E-02 0.  1.
       -1   -1    0    0    0  501  0.00000000000E+00  0.00000000000E+00 -0.70896984332E+03  0.70896984334E+03  0.50400001928E-02 0. -1.
    10030    2    1    2    0    0  0.00000000000E+00  0.00000000000E+00  0.19228720902E+04  0.33408117768E+04  0.27319564881E+04 0.  0.
        4    1    3    3  502    0  0.63936822631E+03 -0.14633817914E+03  0.24266745379E+04  0.25137536708E+04  0.12699999809E+01 0.  1.
       -4    1    3    3    0  502 -0.63936822631E+03  0.14633817914E+03 -0.50380244776E+03  0.82705810604E+03  0.12699999809E+01 0. -1.
</event>
<event>
 5   0  0.4188000E-06  0.2700812E+04  0.7818609E-02  0.8334741E-01
        3   -1    0    0  501    0  0.00000000000E+00  0.00000000000E+00  0.15474532022E+04  0.15474532055E+04  0.10100000352E+00 0. -1.
       -3   -1    0    0    0  501  0.00000000000E+00  0.00000000000E+00 -0.11784504573E+04  0.11784504616E+04  0.10100000352E+00 0.  1.
    10030    2    1    2    0    0  0.00000000000E+00  0.00000000000E+00  0.36900274498E+03  0.27259036671E+04  0.27008124290E+04 0.  0.
        2    1    3    3  502    0 -0.18265378904E+03  0.12463928888E+04  0.67558026063E+03  0.14294286720E+04  0.25500000920E-02 0.  1.
       -2    1    3    3    0  502  0.18265378904E+03 -0.12463928888E+04 -0.30657751565E+03  0.12964749951E+04  0.25500000920E-02 0. -1.
</event>
<event>
 5   0  0.1261364E-05  0.2691563E+04  0.7818609E-02  0.8337748E-01
       -2   -1    0    0    0  501  0.00000000000E+00  0.00000000000E+00  0.77036680955E+03  0.77036680956E+03  0.25500000920E-02 0. -1.
        2   -1    0    0  501    0  0.00000000000E+00  0.00000000000E+00 -0.23509946031E+04  0.23509946031E+04  0.25500000920E-02 0.  1.
    10030    2    1    2    0    0  0.00000000000E+00  0.00000000000E+00 -0.15806277936E+04  0.31213614127E+04  0.26915632719E+04 0.  0.
        5    1    3    3  502    0 -0.32939635660E+03 -0.50758710944E+03  0.60370062936E+03  0.85476498133E+03  0.46999998093E+01 0. -1.
       -5    1    3    3    0  502  0.32939635660E+03  0.50758710944E+03 -0.21843284229E+04  0.22665964314E+04  0.46999998093E+01 0.  1.
</event>
<event>
 5   0  0.1220908E-05  0.2701572E+04  0.7818609E-02  0.8334495E-01
        2   -1    0    0  501    0  0.00000000000E+00  0.00000000000E+00  0.15959594244E+04  0.15959594244E+04  0.25500000920E-02 0. -1.
       -2   -1    0    0    0  501  0.00000000000E+00  0.00000000000E+00 -0.11432764702E+04  0.11432764702E+04  0.25500000920E-02 0.  1.
    10030    2    1    2    0    0  0.00000000000E+00  0.00000000000E+00  0.45268295426E+03  0.27392358946E+04  0.27015720292E+04 0.  0.
        2    1    3    3  502    0  0.91123855283E+03  0.80500959321E+03 -0.37027214960E+03  0.12710222697E+04  0.25500000920E-02 0.  1.
       -2    1    3    3    0  502 -0.91123855283E+03 -0.80500959321E+03  0.82295510386E+03  0.14682136249E+04  0.25500000920E-02 0. -1.
</event>
<event>
 5   0  0.1232559E-05  0.2684997E+04  0.7818609E-02  0.8339890E-01
       -2   -1    0    0    0  501  0.00000000000E+00  0.00000000000E+00  0.16413453389E+04  0.16413453389E+04  0.25500000920E-02 0.  1.
        2   -1    0    0  501    0  0.00000000000E+00  0.00000000000E+00 -0.10980635889E+04  0.10980635889E+04  0.25500000920E-02 0. -1.
    10030    2    1    2    0    0  0.00000000000E+00  0.00000000000E+00  0.54328175003E+03  0.27394089278E+04  0.26849965016E+04 0.  0.
        3    1    3    3  502    0  0.13263323974E+04  0.15978062010E+03  0.13623329380E+03  0.13428503251E+04  0.10100000352E+00 0.  1.
       -3    1    3    3    0  502 -0.13263323974E+04 -0.15978062010E+03  0.40704845623E+03  0.13965586027E+04  0.10100000352E+00 0. -1.
</event>
<event>
 5   0  0.4826140E-06  0.2700534E+04  0.7818609E-02  0.8334832E-01
       -1   -1    0    0    0  501  0.00000000000E+00  0.00000000000E+00  0.69632851498E+03  0.69632851500E+03  0.50400001928E-02 0.  1.
        1   -1    0    0  501    0  0.00000000000E+00  0.00000000000E+00 -0.26183337316E+04  0.26183337316E+04  0.50400001928E-02 0. -1.
    10030    2    1    2    0    0  0.00000000000E+00  0.00000000000E+00 -0.19220052166E+04  0.33146622466E+04  0.27005336059E+04 0.  0.
        1    1    3    3  502    0  0.69375905732E+03  0.49081286347E+02 -0.23815726425E+04  0.24810479346E+04  0.50400001928E-02 0. -1.
       -1    1    3    3    0  502 -0.69375905732E+03 -0.49081286347E+02  0.45956742586E+03  0.83361431203E+03  0.50400001928E-02 0.  1.
</event>
<event>
 5   0  0.1232559E-05  0.2716649E+04  0.7818609E-02  0.8329623E-01
        2   -1    0    0  501    0  0.00000000000E+00  0.00000000000E+00  0.16755623711E+04  0.16755623711E+04  0.25500000920E-02 0. -1.
       -2   -1    0    0    0  501  0.00000000000E+00  0.00000000000E+00 -0.11011501603E+04  0.11011501603E+04  0.25500000920E-02 0.  1.
    10030    2    1    2    0    0  0.00000000000E+00  0.00000000000E+00  0.57441221084E+03  0.27767125314E+04  0.27166492402E+04 0.  0.
        3    1    3    3  502    0  0.46968397223E+03 -0.58059840892E+03  0.14469053387E+04  0.16282606105E+04  0.10100000352E+00 0. -1.
       -3    1    3    3    0  502 -0.46968397223E+03  0.58059840892E+03 -0.87249312791E+03  0.11484519209E+04  0.10100000352E+00 0.  1.
</event>
<event>
 5   0  0.1261364E-05  0.2732990E+04  0.7818609E-02  0.8324380E-01
       -2   -1    0    0    0  501  0.00000000000E+00  0.00000000000E+00  0.70856818091E+03  0.70856818091E+03  0.25500000920E-02 0.  1.
        2   -1    0    0  501    0  0.00000000000E+00  0.00000000000E+00 -0.26353269915E+04  0.26353269915E+04  0.25500000920E-02 0. -1.
    10030    2    1    2    0    0  0.00000000000E+00  0.00000000000E+00 -0.19267588106E+04  0.33438951724E+04  0.27329901957E+04 0.  0.
        5    1    3    3  502    0  0.41682963609E+03 -0.12851189706E+04 -0.12141554230E+04  0.18164452085E+04  0.46999998093E+01 0. -1.
       -5    1    3    3    0  502 -0.41682963609E+03  0.12851189706E+04 -0.71260338756E+03  0.15274499639E+04  0.46999998093E+01 0.  1.
</event>
<event>
 5   0  0.4826140E-06  0.2679706E+04  0.7818609E-02  0.8341620E-01
       -1   -1    0    0    0  501  0.00000000000E+00  0.00000000000E+00  0.95548697074E+03  0.95548697075E+03  0.50400001928E-02 0. -1.
        1   -1    0    0  501    0  0.00000000000E+00  0.00000000000E+00 -0.18788386335E+04  0.18788386335E+04  0.50400001928E-02 0.  1.
    10030    2    1    2    0    0  0.00000000000E+00  0.00000000000E+00 -0.92335166273E+03  0.28343256042E+04  0.26797058304E+04 0.  0.
        1    1    3    3  502    0 -0.20569130357E+03 -0.72327702641E+03  0.71125953979E+03  0.10350500965E+04  0.50400001928E-02 0. -1.
       -1    1    3    3    0  502  0.20569130357E+03  0.72327702641E+03 -0.16346112025E+04  0.17992755077E+04  0.50400001928E-02 0.  1.
</event>
<event>
 5   0  0.4846214E-06  0.2695114E+04  0.7818609E-02  0.8336592E-01
       -1   -1    0    0    0  501  0.00000000000E+00  0.00000000000E+00  0.11592023590E+04  0.11592023590E+04  0.50400001928E-02 0.  1.
        1   -1    0    0  501    0  0.00000000000E+00  0.00000000000E+00 -0.15665167007E+04  0.15665167008E+04  0.50400001928E-02 0. -1.
    10030    2    1    2    0    0  0.00000000000E+00  0.00000000000E+00 -0.40731434177E+03  0.27257190597E+04  0.26951139901E+04 0.  0.
        2    1    3    3  502    0  0.12786097203E+04  0.24660888707E+03  0.14705308974E+03  0.13104515906E+04  0.25500000920E-02 0. -1.
       -2    1    3    3    0  502 -0.12786097203E+04 -0.24660888707E+03 -0.55436743151E+03  0.14152674691E+04  0.25500000920E-02 0.  1.
</event>
<event>
 5   0  0.1286641E-05  0.2675533E+04  0.7818609E-02  0.8342988E-01
       -2   -1    0    0    0  501  0.00000000000E+00  0.00000000000E+00  0.21124301270E+04  0.21124301270E+04  0.25500000920E-02 0. -1.
        2   -1    0    0  501    0  0.00000000000E+00  0.00000000000E+00 -0.84718504620E+03  0.84718504620E+03  0.25500000920E-02 0.  1.
    10030    2    1    2    0    0  0.00000000000E+00  0.00000000000E+00  0.12652450808E+04  0.29596151732E+04  0.26755330047E+04 0.  0.
        4    1    3    3  502    0 -0.44384095477E+03  0.15552403091E+03  0.20179683863E+04  0.20720474267E+04  0.12699999809E+01 0. -1.
       -4    1    3    3    0  502  0.44384095477E+03 -0.15552403091E+03 -0.75272330545E+03  0.88756774659E+03  0.12699999809E+01 0.  1.
</event>
<event>
 5   0  0.1286641E-05  0.2685654E+04  0.7818609E-02  0.8339675E-01
        2   -1    0    0  501    0  0.00000000000E+00  0.00000000000E+00  0.18581386984E+04  0.18581386984E+04  0.25500000920E-02 0. -1.
       -2   -1    0    0    0  501  0.00000000000E+00  0.00000000000E+00 -0.97042491733E+03  0.97042491733E+03  0.25500000920E-02 0.  1.
    10030    2    1    2    0    0  0.00000000000E+00  0.00000000000E+00  0.88771378111E+03  0.28285636158E+04  0.26856538070E+04 0.  0.
        4    1    3    3  502    0 -0.83278556563E+03  0.10474460321E+04  0.32606889591E+03  0.13773153329E+04  0.12699999809E+01 0.  1.
       -4    1    3    3    0  502  0.83278556563E+03 -0.10474460321E+04  0.56164488521E+03  0.14512482829E+04  0.12699999809E+01 0. -1.
</event>
<event>
 5   0  0.1220908E-05  0.2735677E+04  0.7818609E-02  0.8323521E-01
        2   -1    0    0  501    0  0.00000000000E+00  0.00000000000E+00  0.16099463280E+04  0.16099463280E+04  0.25500000920E-02 0. -1.
       -2   -1    0    0    0  501  0.00000000000E+00  0.00000000000E+00 -0.11621392663E+04  0.11621392663E+04  0.25500000920E-02 0.  1.
    10030    2    1    2    0    0  0.00000000000E+00  0.00000000000E+00  0.44780706170E+03  0.27720855942E+04  0.27356767677E+04 0.  0.
        2    1    3    3  502    0  0.13638367923E+02 -0.13430048662E+04 -0.38646677356E+02  0.13436300240E+04  0.25500000920E-02 0.  1.
       -2    1    3    3    0  502 -0.13638367923E+02  0.13430048662E+04  0.48645373905E+03  0.14284555702E+04  0.25500000920E-02 0. -1.
</event>
<event>
 5   0  0.1276517E-05  0.2701408E+04  0.7818609E-02  0.8334548E-01
        2   -1    0    0  501    0  0.00000000000E+00  0.00000000000E+00  0.76868507472E+03  0.76868507472E+03  0.25500000920E-02 0.  1.
       -2   -1    0    0    0  501  0.00000000000E+00  0.00000000000E+00 -0.23734061231E+04  0.23734061231E+04  0.25500000920E-02 0. -1.
    10030    2    1    2    0    0  0.00000000000E+00  0.00000000000E+00 -0.16047210484E+04  0.31420911978E+04  0.27014084201E+04 0.  0.
        1    1    3    3  502    0 -0.26339866969E+03 -0.86812952668E+03 -0.19662901441E+04  0.21654848568E+04  0.50400001928E-02 0. -1.
       -1    1    3    3    0  502  0.26339866969E+03  0.86812952668E+03  0.36156909571E+03  0.97660634101E+03  0.50400001928E-02 0.  1.
</event>
<event>
 5   0  0.1286641E-05  0.2612970E+04  0.7818609E-02  0.8363809E-01
       -2   -1    0    0    0  501  0.00000000000E+00  0.00000000000E+00  0.57527040383E+03  0.57527040384E+03  0.25500000920E-02 0. -1.
        2   -1    0    0  501    0  0.00000000000E+00  0.00000000000E+00 -0.29671309923E+04  0.29671309923E+04  0.25500000920E-02 0.  1.
    10030    2    1    2    0    0  0.00000000000E+00  0.00000000000E+00 -0.23918605884E+04  0.35424013961E+04  0.26129696854E+04 0.  0.
        4    1    3    3  502    0 -0.80068812013E+03  0.51856297416E+03 -0.24061469749E+04  0.25883496482E+04  0.12699999809E+01 0.  1.
       -4    1    3    3    0  502  0.80068812013E+03 -0.51856297416E+03  0.14286386441E+02  0.95405174788E+03  0.12699999809E+01 0. -1.
</event>
<event>
 5   0  0.1232559E-05  0.2675113E+04  0.7818609E-02  0.8343125E-01
        2   -1    0    0  501    0  0.00000000000E+00  0.00000000000E+00  0.93859880161E+03  0.93859880161E+03  0.25500000920E-02 0.  1.
       -2   -1    0    0    0  501  0.00000000000E+00  0.00000000000E+00 -0.19060941985E+04  0.19060941985E+04  0.25500000920E-02 0. -1.
    10030    2    1    2    0    0  0.00000000000E+00  0.00000000000E+00 -0.96749539685E+03  0.28446930001E+04  0.26751132540E+04 0.  0.
        3    1    3    3  502    0  0.12644764808E+03 -0.75556956567E+03  0.68219869746E+03  0.10258018567E+04  0.10100000352E+00 0.  1.
       -3    1    3    3    0  502 -0.12644764808E+03  0.75556956567E+03 -0.16496940943E+04  0.18188911433E+04  0.10100000352E+00 0. -1.
</event>
<event>
 5   0  0.5152288E-06  0.2639664E+04  0.7818609E-02  0.8354852E-01
        1   -1    0    0  501    0  0.00000000000E+00  0.00000000000E+00  0.14572913008E+04  0.14572913008E+04  0.50400001928E-02 0.  1.
       -1   -1    0    0    0  501  0.00000000000E+00  0.00000000000E+00 -0.11953382769E+04  0.11953382769E+04  0.50400001928E-02 0. -1.
    10030    2    1    2    0    0  0.00000000000E+00  0.00000000000E+00  0.26195302387E+03  0.26526295777E+04  0.26396636698E+04 0.  0.
        3    1    3    3  502    0 -0.33283662498E+03 -0.11927470392E+04 -0.32791776578E+03  0.12809979664E+04  0.10100000352E+00 0. -1.
       -3    1    3    3    0  502  0.33283662498E+03  0.11927470392E+04  0.58987078965E+03  0.13716316113E+04  0.10100000352E+00 0.  1.
</event>
<event>
 5   0  0.5152288E-06  0.2415441E+04  0.7818609E-02  0.8433745E-01
        1   -1    0    0  501    0  0.00000000000E+00  0.00000000000E+00  0.19449227207E+04  0.19449227208E+04  0.50400001928E-02 0.  1.
       -1   -1    0    0    0  501  0.00000000000E+00  0.00000000000E+00 -0.74994670649E+03  0.74994670651E+03  0.50400001928E-02 0. -1.
    10030    2    1    2    0    0  0.00000000000E+00  0.00000000000E+00  0.11949760143E+04  0.26948694273E+04  0.24154406545E+04 0.  0.
        3    1    3    3  502    0 -0.48993603069E+03 -0.12365815584E+03 -0.62634185490E+03  0.80475635013E+03  0.10100000352E+00 0. -1.
       -3    1    3    3    0  502  0.48993603069E+03  0.12365815584E+03  0.18213178691E+04  0.18901130771E+04  0.10100000352E+00 0.  1.
</event>
<event>
 5   0  0.4756800E-06  0.2708589E+04  0.7818609E-02  0.8332223E-01
        1   -1    0    0  501    0  0.00000000000E+00  0.00000000000E+00  0.14015450317E+04  0.14015450317E+04  0.50400001928E-02 0. -1.
       -1   -1    0    0    0  501  0.00000000000E+00  0.00000000000E+00 -0.13086370811E+04  0.13086370811E+04  0.50400001928E-02 0.  1.
    10030    2    1    2    0    0  0.00000000000E+00  0.00000000000E+00  0.92907950668E+02  0.27101821128E+04  0.27085891525E+04 0.  0.
        4    1    3    3  502    0  0.18488667534E+03 -0.51219188679E+03 -0.11942706769E+04  0.13125576841E+04  0.12699999809E+01 0.  1.
       -4    1    3    3    0  502 -0.18488667534E+03  0.51219188679E+03  0.12871786275E+04  0.13976244287E+04  0.12699999809E+01 0. -1.
</event>
<event>
 5   0  0.4826140E-06  0.2704506E+04  0.7818609E-02  0.8333545E-01
       -1   -1    0    0    0  501  0.00000000000E+00  0.00000000000E+00  0.99055186102E+03  0.99055186104E+03  0.50400001928E-02 0.  1.
        1   -1    0    0  501    0  0.00000000000E+00  0.00000000000E+00 -0.18460290773E+04  0.18460290773E+04  0.50400001928E-02 0. -1.
    10030    2    1    2    0    0  0.00000000000E+00  0.00000000000E+00 -0.85547721627E+03  0.28365809383E+04  0.27045055282E+04 0.  0.
        1    1    3    3  502    0  0.66267229066E+03  0.94482694986E+03 -0.11669666511E+04  0.16412323708E+04  0.50400001928E-02 0. -1.
       -1    1    3    3    0  502 -0.66267229066E+03 -0.94482694986E+03  0.31148943484E+03  0.11953485676E+04  0.50400001928E-02 0.  1.
</event>
<event>
 5   0  0.1276517E-05  0.2698554E+04  0.7818609E-02  0.8335474E-01
       -2   -1    0    0    0  501  0.00000000000E+00  0.00000000000E+00  0.12439653453E+04  0.12439653453E+04  0.25500000920E-02 0. -1.
        2   -1    0    0  501    0  0.00000000000E+00  0.00000000000E+00 -0.14635038555E+04  0.14635038555E+04  0.25500000920E-02 0.  1.
    10030    2    1    2    0    0  0.00000000000E+00  0.00000000000E+00 -0.21953851017E+03  0.27074692009E+04  0.26985537453E+04 0.  0.
        1    1    3    3  502    0 -0.35469162370E+03  0.25998653019E+03  0.11700425331E+04  0.12499594686E+04  0.50400001928E-02 0. -1.
       -1    1    3    3    0  502  0.35469162370E+03 -0.25998653019E+03 -0.13895810433E+04  0.14575097323E+04  0.50400001928E-02 0.  1.
</event>
<event>
 5   0  0.1286641E-05  0.2736340E+04  0.7818609E-02  0.8323309E-01
        2   -1    0    0  501    0  0.00000000000E+00  0.00000000000E+00  0.16010821808E+04  0.16010821808E+04  0.25500000920E-02 0. -1.
       -2   -1    0    0    0  501  0.00000000000E+00  0.00000000000E+00 -0.11691401248E+04  0.11691401249E+04  0.25500000920E-02 0.  1.
    10030    2    1    2    0    0  0.00000000000E+00  0.00000000000E+00  0.43194205600E+03  0.27702223057E+04  0.27363401987E+04 0.  0.
        4    1    3    3  502    0  0.86967645457E+03 -0.87033963978E+03  0.82176114306E+03  0.14795679144E+04  0.12699999809E+01 0.  1.
       -4    1    3    3    0  502 -0.86967645457E+03  0.87033963978E+03 -0.38981908706E+03  0.12906543913E+04  0.12699999809E+01 0. -1.
</event>
<event>
 5   0  0.1220908E-05  0.2528831E+04  0.7818609E-02  0.8392786E-01
       -2   -1    0    0    0  501  0.00000000000E+00  0.00000000000E+00  0.81618977934E+03  0.81618977935E+03  0.25500000920E-02 0.  1.
        2   -1    0    0  501    0  0.00000000000E+00  0.00000000000E+00 -0.19587930019E+04  0.19587930019E+04  0.25500000920E-02 0. -1.
    10030    2    1    2    0    0  0.00000000000E+00  0.00000000000E+00 -0.11426032226E+04  0.27749827813E+04  0.25288312146E+04 0.  0.
        2    1    3    3  502    0 -0.12025933955E+04  0.38702599244E+03 -0.51399960621E+03  0.13638972062E+04  0.25500000920E-02 0.  1.
       -2    1    3    3    0  502  0.12025933955E+04 -0.38702599244E+03 -0.62860361639E+03  0.14110855751E+04  0.25500000920E-02 0. -1.
</event>
<event>
 5   0  0.4824715E-06  0.2641478E+04  0.7818609E-02  0.8354247E-01
       -1   -1    0    0    0  501  0.00000000000E+00  0.00000000000E+00  0.12040226380E+04  0.12040226380E+04  0.50400001928E-02 0.  1.
        1   -1    0    0  501    0  0.00000000000E+00  0.00000000000E+00 -0.14487699150E+04  0.14487699150E+04  0.50400001928E-02 0. -1.
    10030    2    1    2    0    0  0.00000000000E+00  0.00000000000E+00 -0.24474727700E+03  0.26527925529E+04  0.26414782034E+04 0.  0.
        5    1    3    3  502    0 -0.82405188524E+03  0.14158042483E+03 -0.11491143204E+04  0.14211236180E+04  0.46999998093E+01 0. -1.
       -5    1    3    3    0  502  0.82405188524E+03 -0.14158042483E+03  0.90436704336E+03  0.12316689350E+04  0.46999998093E+01 0.  1.
</event>
<event>
 5   0  0.5152288E-06  0.2495827E+04  0.7818609E-02  0.8404474E-01
       -1   -1    0    0    0  501  0.00000000000E+00  0.00000000000E+00  0.90376724063E+03  0.90376724064E+03  0.50400001928E-02 0.  1.
        1   -1    0    0  501    0  0.00000000000E+00  0.00000000000E+00 -0.17231077794E+04  0.17231077794E+04  0.50400001928E-02 0. -1.
    10030    2    1    2    0    0  0.00000000000E+00  0.00000000000E+00 -0.81934053879E+03  0.26268750201E+04  0.24958272081E+04 0.  0.
        3    1    3    3  502    0 -0.17846650291E+03 -0.74663408781E+03  0.62584641498E+03  0.99045267383E+03  0.10100000352E+00 0.  1.
       -3    1    3    3    0  502  0.17846650291E+03  0.74663408781E+03 -0.14451869538E+04  0.16364223462E+04  0.10100000352E+00 0. -1.
</event>
<event>
 5   0  0.1276517E-05  0.2697765E+04  0.7818609E-02  0.8335731E-01
        2   -1    0    0  501    0  0.00000000000E+00  0.00000000000E+00  0.17312995469E+04  0.17312995469E+04  0.25500000920E-02 0.  1.
       -2   -1    0    0    0  501  0.00000000000E+00  0.00000000000E+00 -0.10509352378E+04  0.10509352378E+04  0.25500000920E-02 0. -1.
    10030    2    1    2    0    0  0.00000000000E+00  0.00000000000E+00  0.68036430910E+03  0.27822347847E+04  0.26977647793E+04 0.  0.
        1    1    3    3  502    0  0.10322451346E+04 -0.38096723449E+03  0.11448808785E+04  0.15878974392E+04  0.50400001928E-02 0.  1.
       -1    1    3    3    0  502 -0.10322451346E+04  0.38096723449E+03 -0.46451656937E+03  0.11943373455E+04  0.50400001928E-02 0. -1.
</event>
<event>
 5   0  0.4756800E-06  0.2763875E+04  0.7818609E-02  0.8314572E-01
       -1   -1    0    0    0  501  0.00000000000E+00  0.00000000000E+00  0.11594863334E+04  0.11594863334E+04  0.50400001928E-02 0. -1.
        1   -1    0    0  501    0  0.00000000000E+00  0.00000000000E+00 -0.16470663514E+04  0.16470663515E+04  0.50400001928E-02 0.  1.
    10030    2    1    2    0    0  0.00000000000E+00  0.00000000000E+00 -0.48758001806E+03  0.28065526849E+04  0.27638747618E+04 0.  0.
        4    1    3    3  502    0  0.12010017219E+04 -0.24448097881E+03  0.40448258652E+03  0.12906524941E+04  0.12699999809E+01 0. -1.
       -4    1    3    3    0  502 -0.12010017219E+04  0.24448097881E+03 -0.89206260458E+03  0.15159001907E+04  0.12699999809E+01 0.  1.
</event>
<event>
 5   0  0.5152288E-06  0.2740089E+04  0.7818609E-02  0.8322113E-01
       -1   -1    0    0    0  501  0.00000000000E+00  0.00000000000E+00  0.12498559742E+04  0.12498559742E+04  0.50400001928E-02 0.  1.
        1   -1    0    0  501    0  0.00000000000E+00  0.00000000000E+00 -0.15017909396E+04  0.15017909396E+04  0.50400001928E-02 0. -1.
    10030    2    1    2    0    0  0.00000000000E+00  0.00000000000E+00 -0.25193496541E+03  0.27516469138E+04  0.27400893254E+04 0.  0.
        3    1    3    3  502    0  0.12594310539E+04  0.30574924003E+03 -0.57210840947E+03  0.14166711755E+04  0.10100000352E+00 0. -1.
       -3    1    3    3    0  502 -0.12594310539E+04 -0.30574924003E+03  0.32017344406E+03  0.13349757382E+04  0.10100000352E+00 0.  1.
</event>
<event>
 5   0  0.4826140E-06  0.2689425E+04  0.7818609E-02  0.8338444E-01
       -1   -1    0    0    0  501  0.00000000000E+00  0.00000000000E+00  0.80513728824E+03  0.80513728826E+03  0.50400001928E-02 0. -1.
        1   -1    0    0  501    0  0.00000000000E+00  0.00000000000E+00 -0.22458918844E+04  0.22458918844E+04  0.50400001928E-02 0.  1.
    10030    2    1    2    0    0  0.00000000000E+00  0.00000000000E+00 -0.14407545961E+04  0.30510291726E+04  0.26894246980E+04 0.  0.
        1    1    3    3  502    0 -0.27896358947E+03 -0.19138423621E+03  0.75607146615E+03  0.82830711217E+03  0.50400001928E-02 0. -1.
       -1    1    3    3    0  502  0.27896358947E+03  0.19138423621E+03 -0.21968260623E+04  0.22227220604E+04  0.50400001928E-02 0.  1.
</event>
<event>
 5   0  0.4824715E-06  0.2722615E+04  0.7818609E-02  0.8327704E-01
        1   -1    0    0  501    0  0.00000000000E+00  0.00000000000E+00  0.19939133004E+04  0.19939133004E+04  0.50400001928E-02 0.  1.
       -1   -1    0    0    0  501  0.00000000000E+00  0.00000000000E+00 -0.92940785125E+03  0.92940785126E+03  0.50400001928E-02 0. -1.
    10030    2    1    2    0    0  0.00000000000E+00  0.00000000000E+00  0.10645054491E+04  0.29233211517E+04  0.27226154162E+04 0.  0.
        5    1    3    3  502    0 -0.76825698901E+03 -0.11185195074E+04  0.64904588524E+03  0.15041899284E+04  0.46999998093E+01 0.  1.
       -5    1    3    3    0  502  0.76825698901E+03  0.11185195074E+04  0.41545956391E+03  0.14191312233E+04  0.46999998093E+01 0. -1.
</event>
<event>
 5   0  0.5152288E-06  0.2693040E+04  0.7818609E-02  0.8337267E-01
        1   -1    0    0  501    0  0.00000000000E+00  0.00000000000E+00  0.19106946904E+04  0.19106946904E+04  0.50400001928E-02 0. -1.
       -1   -1    0    0    0  501  0.00000000000E+00  0.00000000000E+00 -0.94893044572E+03  0.94893044574E+03  0.50400001928E-02 0.  1.
    10030    2    1    2    0    0  0.00000000000E+00  0.00000000000E+00  0.96176424468E+03  0.28596251362E+04  0.26930401885E+04 0.  0.
        3    1    3    3  502    0  0.55818011871E+03  0.46895220364E+03  0.16830039267E+04  0.18341165290E+04  0.10100000352E+00 0. -1.
       -3    1    3    3    0  502 -0.55818011871E+03 -0.46895220364E+03 -0.72123968206E+03  0.10255086072E+04  0.10100000352E+00 0.  1.
</event>
<event>
 5   0  0.1286641E-05  0.2713278E+04  0.7818609E-02  0.8330710E-01
       -2   -1    0    0    0  501  0.00000000000E+00  0.00000000000E+00  0.10562097533E+04  0.10562097533E+04  0.25500000920E-02 0. -1.
        2   -1    0    0  501    0  0.00000000000E+00  0.00000000000E+00 -0.17425221620E+04  0.17425221620E+04  0.25500000920E-02 0.  1.
    10030    2    1    2    0    0  0.00000000000E+00  0.00000000000E+00 -0.68631240867E+03  0.27987319153E+04  0.27132776510E+04 0.  0.
        4    1    3    3  502    0  0.11752528674E+04 -0.34407253173E+03 -0.94537791468E+03  0.15470443510E+04  0.12699999809E+01 0.  1.
       -4    1    3    3    0  502 -0.11752528674E+04  0.34407253173E+03  0.25906550600E+03  0.12516875643E+04  0.12699999809E+01 0. -1.
</event>
<event>
 5   0  0.1276517E-05  0.2709032E+04  0.7818609E-02  0.8332080E-01
       -2   -1    0    0    0  501  0.00000000000E+00  0.00000000000E+00  0.80540825574E+03  0.80540825574E+03  0.25500000920E-02 0.  1.
        2   -1    0    0  501    0  0.00000000000E+00  0.00000000000E+00 -0.22779919920E+04  0.22779919920E+04  0.25500000920E-02 0. -1.
    10030    2    1    2    0    0  0.00000000000E+00  0.00000000000E+00 -0.14725837363E+04  0.30834002478E+04  0.27090319724E+04 0.  0.
        1    1    3    3  502    0  0.66548997469E+03  0.53254940248E+03 -0.19344945557E+04  0.21139429885E+04  0.50400001928E-02 0. -1.
       -1    1    3    3    0  502 -0.66548997469E+03 -0.53254940248E+03  0.46191081940E+03  0.96945725929E+03  0.50400001928E-02 0.  1.
</event>
<event>
 5   0  0.4756800E-06  0.2708982E+04  0.7818609E-02  0.8332096E-01
        1   -1    0    0  501    0  0.00000000000E+00  0.00000000000E+00  0.14794508904E+04  0.14794508904E+04  0.50400001928E-02 0.  1.
       -1   -1    0    0    0  501  0.00000000000E+00  0.00000000000E+00 -0.12400859922E+04  0.12400859922E+04  0.50400001928E-02 0. -1.
    10030    2    1    2    0    0  0.00000000000E+00  0.00000000000E+00  0.23936489817E+03  0.27195368826E+04  0.27089823369E+04 0.  0.
        4    1    3    3  502    0 -0.10428513562E+04  0.46414510627E+03  0.85168388500E+03  0.14241968557E+04  0.12699999809E+01 0. -1.
       -4    1    3    3    0  502  0.10428513562E+04 -0.46414510627E+03 -0.61231898682E+03  0.12953400269E+04  0.12699999809E+01 0.  1.
</event>
<event>
 5   0  0.1261364E-05  0.2664720E+04  0.7818609E-02  0.8346544E-01
        2   -1    0    0  501    0  0.00000000000E+00  0.00000000000E+00  0.86142934130E+03  0.86142934130E+03  0.25500000920E-02 0.  1.
       -2   -1    0    0    0  501  0.00000000000E+00  0.00000000000E+00 -0.20607417028E+04  0.20607417028E+04  0.25500000920E-02 0. -1.
    10030    2    1    2    0    0  0.00000000000E+00  0.00000000000E+00 -0.11993123615E+04  0.29221710441E+04  0.26647201486E+04 0.  0.
        5    1    3    3  502    0 -0.39366133808E+03  0.22928161207E+02 -0.19952749581E+04  0.20338729552E+04  0.46999998093E+01 0. -1.
       -5    1    3    3    0  502  0.39366133808E+03 -0.22928161207E+02  0.79596259654E+03  0.88829808891E+03  0.46999998093E+01 0.  1.
</event>
<event>
 5   0  0.4756800E-06  0.2694021E+04  0.7818609E-02  0.8336948E-01
       -1   -1    0    0    0  501  0.00000000000E+00  0.00000000000E+00  0.84702128813E+03  0.84702128814E+03  0.50400001928E-02 0. -1.
        1   -1    0    0  501    0  0.00000000000E+00  0.00000000000E+00 -0.21421387090E+04  0.21421387090E+04  0.50400001928E-02 0.  1.
    10030    2    1    2    0    0  0.00000000000E+00  0.00000000000E+00 -0.12951174209E+04  0.29891599971E+04  0.26940208527E+04 0.  0.
        4    1    3    3  502    0  0.38343110041E+03  0.25347955660E+03 -0.20524321737E+04  0.21032714363E+04  0.12699999809E+01 0.  1.
       -4    1    3    3    0  502 -0.38343110041E+03 -0.25347955660E+03  0.75731475284E+03  0.88588856080E+03  0.12699999809E+01 0. -1.
</event>
<event>
 5   0  0.4826140E-06  0.2699824E+04  0.7818609E-02  0.8335062E-01
       -1   -1    0    0    0  501  0.00000000000E+00  0.00000000000E+00  0.11323924370E+04  0.11323924370E+04  0.50400001928E-02 0.  1.
        1   -1    0    0  501    0  0.00000000000E+00  0.00000000000E+00 -0.16092143493E+04  0.16092143493E+04  0.50400001928E-02 0. -1.
    10030    2    1    2    0    0  0.00000000000E+00  0.00000000000E+00 -0.47682191231E+03  0.27416067862E+04  0.26998238154E+04 0.  0.
        1    1    3    3  502    0  0.41544587440E+03 -0.13964581065E+03 -0.15349501468E+04  0.15962982742E+04  0.50400001928E-02 0. -1.
       -1    1    3    3    0  502 -0.41544587440E+03  0.13964581065E+03  0.10581282345E+04  0.11453085120E+04  0.50400001928E-02 0.  1.
</event>
<event>
 5   0  0.4826140E-06  0.2677076E+04  0.7818609E-02  0.8342482E-01
        1   -1    0    0  501    0  0.00000000000E+00  0.00000000000E+00  0.15327231663E+04  0.15327231663E+04  0.50400001928E-02 0.  1.
       -1   -1    0    0    0  501  0.00000000000E+00  0.00000000000E+00 -0.11689544122E+04  0.11689544122E+04  0.50400001928E-02 0. -1.
    10030    2    1    2    0    0  0.00000000000E+00  0.00000000000E+00  0.36376875412E+03  0.27016775786E+04  0.26770756493E+04 0.  0.
        1    1    3    3  502    0  0.71286728059E+03  0.10991559569E+04 -0.95156032146E+02  0.13135365422E+04  0.50400001928E-02 0. -1.
       -1    1    3    3    0  502 -0.71286728059E+03 -0.10991559569E+04  0.45892478627E+03  0.13881410363E+04  0.50400001928E-02 0.  1.
</event>
<event>
 5   0  0.5152288E-06  0.2699419E+04  0.7818609E-02  0.8335194E-01
       -1   -1    0    0    0  501  0.00000000000E+00  0.00000000000E+00  0.13184631740E+04  0.13184631740E+04  0.50400001928E-02 0. -1.
        1   -1    0    0  501    0  0.00000000000E+00  0.00000000000E+00 -0.13816959745E+04  0.13816959745E+04  0.50400001928E-02 0.  1.
    10030    2    1    2    0    0  0.00000000000E+00  0.00000000000E+00 -0.63232800533E+02  0.27001591485E+04  0.26994186486E+04 0.  0.
        3    1    3    3  502    0 -0.11189969584E+03  0.38125161597E+02  0.13132747137E+04  0.13185846783E+04  0.10100000352E+00 0. -1.
       -3    1    3    3    0  502  0.11189969584E+03 -0.38125161597E+02 -0.13765075143E+04  0.13815744703E+04  0.10100000352E+00 0.  1.
</event>
<event>
 5   0  0.1261364E-05  0.2779744E+04  0.7818609E-02  0.8309585E-01
       -2   -1    0    0    0  501  0.00000000000E+00  0.00000000000E+00  0.21632678743E+04  0.21632678743E+04  0.25500000920E-02 0.  1.
        2   -1    0    0  501    0  0.00000000000E+00  0.00000000000E+00 -0.89297516433E+03  0.89297516433E+03  0.25500000920E-02 0. -1.
    10030    2    1    2    0    0  0.00000000000E+00  0.00000000000E+00  0.12702927100E+04  0.30562430386E+04  0.27797442225E+04 0.  0.
        5    1    3    3  502    0  0.10055082325E+04 -0.93257756536E+03  0.38691291737E+03  0.14249461101E+04  0.46999998093E+01 0. -1.
       -5    1    3    3    0  502 -0.10055082325E+04  0.93257756536E+03  0.88337979262E+03  0.16312969285E+04  0.46999998093E+01 0.  1.
</event>
<event>
 5   0  0.1276517E-05  0.2711995E+04  0.7818609E-02  0.8331124E-01
        2   -1    0    0  501    0  0.00000000000E+00  0.00000000000E+00  0.20900110937E+04  0.20900110937E+04  0.25500000920E-02 0.  1.
       -2   -1    0    0    0  501  0.00000000000E+00  0.00000000000E+00 -0.87976997179E+03  0.87976997179E+03  0.25500000920E-02 0. -1.
    10030    2    1    2    0    0  0.00000000000E+00  0.00000000000E+00  0.12102411219E+04  0.29697810655E+04  0.27119948384E+04 0.  0.
        1    1    3    3  502    0 -0.27078330998E+03 -0.99256093804E+03  0.15723876081E+04  0.18790698781E+04  0.50400001928E-02 0.  1.
       -1    1    3    3    0  502  0.27078330998E+03  0.99256093804E+03 -0.36214648623E+03  0.10907111873E+04  0.50400001928E-02 0. -1.
</event>
<event>
 5   0  0.4756800E-06  0.2693033E+04  0.7818609E-02  0.8337269E-01
        1   -1    0    0  501    0  0.00000000000E+00  0.00000000000E+00  0.16663898758E+04  0.16663898758E+04  0.50400001928E-02 0.  1.
       -1   -1    0    0    0  501  0.00000000000E+00  0.00000000000E+00 -0.10880445474E+04  0.10880445474E+04  0.50400001928E-02 0. -1.
    10030    2    1    2    0    0  0.00000000000E+00  0.00000000000E+00  0.57834532840E+03  0.27544344232E+04  0.26930328020E+04 0.  0.
        4    1    3    3  502    0  0.30452899790E+03  0.83947950263E+03 -0.74159531535E+03  0.11607880817E+04  0.12699999809E+01 0. -1.
       -4    1    3    3    0  502 -0.30452899790E+03 -0.83947950263E+03  0.13199406438E+04  0.15936463415E+04  0.12699999809E+01 0.  1.
</event>
<event>
 5   0  0.5152288E-06  0.2756934E+04  0.7818609E-02  0.8316765E-01
       -1   -1    0    0    0  501  0.00000000000E+00  0.00000000000E+00  0.93274122235E+03  0.93274122236E+03  0.50400001928E-02 0. -1.
        1   -1    0    0  501    0  0.00000000000E+00  0.00000000000E+00 -0.20371902276E+04  0.20371902276E+04  0.50400001928E-02 0.  1.
    10030    2    1    2    0    0  0.00000000000E+00  0.00000000000E+00 -0.11044490052E+04  0.29699314500E+04  0.27569340239E+04 0.  0.
        3    1    3    3  502    0  0.62226698882E+03  0.84980082615E+03 -0.15101939031E+04  0.18412124496E+04  0.10100000352E+00 0.  1.
       -3    1    3    3    0  502 -0.62226698882E+03 -0.84980082615E+03  0.40574489781E+03  0.11287190004E+04  0.10100000352E+00 0. -1.
</event>
<event>
 5   0  0.1261364E-05  0.2706704E+04  0.7818609E-02  0.8332833E-01
       -2   -1    0    0    0  501  0.00000000000E+00  0.00000000000E+00  0.10807091587E+04  0.10807091587E+04  0.25500000920E-02 0.  1.
        2   -1    0    0  501    0  0.00000000000E+00  0.00000000000E+00 -0.16947774727E+04  0.16947774727E+04  0.25500000920E-02 0. -1.
    10030    2    1    2    0    0  0.00000000000E+00  0.00000000000E+00 -0.61406831404E+03  0.27754866314E+04  0.27067039267E+04 0.  0.
        5    1    3    3  502    0  0.67803564971E+03  0.88935430063E+03  0.47447242274E+03  0.12148372666E+04  0.46999998093E+01 0.  1.
       -5    1    3    3    0  502 -0.67803564971E+03 -0.88935430063E+03 -0.10885407368E+04  0.15606493648E+04  0.46999998093E+01 0. -1.
</event>
<event>
 5   0  0.5152288E-06  0.2703278E+04  0.7818609E-02  0.8333942E-01
       -1   -1    0    0    0  501  0.00000000000E+00  0.00000000000E+00  0.26620366425E+04  0.26620366425E+04  0.50400001928E-02 0.  1.
        1   -1    0    0  501    0  0.00000000000E+00  0.00000000000E+00 -0.68628938950E+03  0.68628938952E+03  0.50400001928E-02 0. -1.
    10030    2    1    2    0    0  0.00000000000E+00  0.00000000000E+00  0.19757472530E+04  0.33483260320E+04  0.27032776419E+04 0.  0.
        3    1    3    3  502    0 -0.83819409534E+03 -0.78055706311E+03  0.18768252950E+04  0.21987068628E+04  0.10100000352E+00 0.  1.
       -3    1    3    3    0  502  0.83819409534E+03  0.78055706311E+03  0.98921957952E+02  0.11496191692E+04  0.10100000352E+00 0. -1.
</event>
<event>
 5   0  0.5152288E-06  0.2342856E+04  0.7818609E-02  0.8461213E-01
        1   -1    0    0  501    0  0.00000000000E+00  0.00000000000E+00  0.17639511398E+04  0.17639511398E+04  0.50400001928E-02 0.  1.
       -1   -1    0    0    0  501  0.00000000000E+00  0.00000000000E+00 -0.77793731243E+03  0.77793731245E+03  0.50400001928E-02 0. -1.
    10030    2    1    2    0    0  0.00000000000E+00  0.00000000000E+00  0.98601382733E+03  0.25418884522E+04  0.23428558718E+04 0.  0.
        3    1    3    3  502    0 -0.40984303516E+03  0.10191922324E+04  0.93440984027E+03  0.14421670776E+04  0.10100000352E+00 0. -1.
       -3    1    3    3    0  502  0.40984303516E+03 -0.10191922324E+04  0.51603987061E+02  0.10997213746E+04  0.10100000352E+00 0.  1.
</event>
<event>
 5   0  0.1286641E-05  0.2600369E+04  0.7818609E-02  0.8368076E-01
        2   -1    0    0  501    0  0.00000000000E+00  0.00000000000E+00  0.15118657001E+04  0.15118657001E+04  0.25500000920E-02 0.  1.
       -2   -1    0    0    0  501  0.00000000000E+00  0.00000000000E+00 -0.11181413267E+04  0.11181413267E+04  0.25500000920E-02 0. -1.
    10030    2    1    2    0    0  0.00000000000E+00  0.00000000000E+00  0.39372437341E+03  0.26300070269E+04  0.26003688352E+04 0.  0.
        4    1    3    3  502    0 -0.76371700831E+02  0.12787786556E+04 -0.27864872405E+02  0.12813608198E+04  0.12699999809E+01 0. -1.
       -4    1    3    3    0  502  0.76371700831E+02 -0.12787786556E+04  0.42158924582E+03  0.13486462070E+04  0.12699999809E+01 0.  1.
</event>
<event>
 5   0  0.1220908E-05  0.2662608E+04  0.7818609E-02  0.8347240E-01
        2   -1    0    0  501    0  0.00000000000E+00  0.00000000000E+00  0.24890842607E+04  0.24890842607E+04  0.25500000920E-02 0. -1.
       -2   -1    0    0    0  501  0.00000000000E+00  0.00000000000E+00 -0.71205726546E+03  0.71205726546E+03  0.25500000920E-02 0.  1.
    10030    2    1    2    0    0  0.00000000000E+00  0.00000000000E+00  0.17770269953E+04  0.32011415262E+04  0.26626081441E+04 0.  0.
        2    1    3    3  502    0 -0.39569232114E+03  0.12334862095E+04  0.51930113138E+03  0.13956125204E+04  0.25500000920E-02 0.  1.
       -2    1    3    3    0  502  0.39569232114E+03 -0.12334862095E+04  0.12577258639E+04  0.18055290058E+04  0.25500000920E-02 0. -1.
</event>
<event>
 5   0  0.4846214E-06  0.2699862E+04  0.7818609E-02  0.8335050E-01
        1   -1    0    0  501    0  0.00000000000E+00  0.00000000000E+00  0.10678028136E+04  0.10678028136E+04  0.50400001928E-02 0. -1.
       -1   -1    0    0    0  501  0.00000000000E+00  0.00000000000E+00 -0.17066017678E+04  0.17066017678E+04  0.50400001928E-02 0.  1.
    10030    2    1    2    0    0  0.00000000000E+00  0.00000000000E+00 -0.63879895412E+03  0.27744045814E+04  0.26998623442E+04 0.  0.
        2    1    3    3  502    0  0.11409050210E+04 -0.57361850962E+03 -0.76921992340E+03  0.14907721999E+04  0.25500000920E-02 0. -1.
       -2    1    3    3    0  502 -0.11409050210E+04  0.57361850962E+03  0.13042096928E+03  0.12836323815E+04  0.25500000920E-02 0.  1.
</event>
<event>
 5   0  0.1220908E-05  0.2725518E+04  0.7818609E-02  0.8326772E-01
       -2   -1    0    0    0  501  0.00000000000E+00  0.00000000000E+00  0.10832872502E+04  0.10832872502E+04  0.25500000920E-02 0.  1.
        2   -1    0    0  501    0  0.00000000000E+00  0.00000000000E+00 -0.17143307025E+04  0.17143307025E+04  0.25500000920E-02 0. -1.
    10030    2    1    2    0    0  0.00000000000E+00  0.00000000000E+00 -0.63104345225E+03  0.27976179527E+04  0.27255183674E+04 0.  0.
        2    1    3    3  502    0  0.10713598408E+04 -0.56717915343E+03  0.32352988619E+03  0.12546615830E+04  0.25500000920E-02 0. -1.
       -2    1    3    3    0  502 -0.10713598408E+04  0.56717915343E+03 -0.95457333844E+03  0.15429563698E+04  0.25500000920E-02 0.  1.
</event>
<event>
 5   0  0.4846214E-06  0.2699764E+04  0.7818609E-02  0.8335082E-01
        1   -1    0    0  501    0  0.00000000000E+00  0.00000000000E+00  0.10381979410E+04  0.10381979410E+04  0.50400001928E-02 0.  1.
       -1   -1    0    0    0  501  0.00000000000E+00  0.00000000000E+00 -0.17551385884E+04  0.17551385884E+04  0.50400001928E-02 0. -1.
    10030    2    1    2    0    0  0.00000000000E+00  0.00000000000E+00 -0.71694064744E+03  0.27933365294E+04  0.26997638924E+04 0.  0.
        2    1    3    3  502    0 -0.50243342567E+03 -0.58034909268E+03 -0.15073323982E+04  0.16915363949E+04  0.25500000920E-02 0. -1.
       -2    1    3    3    0  502  0.50243342567E+03  0.58034909268E+03  0.79039175081E+03  0.11018001345E+04  0.25500000920E-02 0.  1.
</event>
<event>
 5   0  0.4188000E-06  0.2663135E+04  0.7818609E-02  0.8347066E-01
        3   -1    0    0  501    0  0.00000000000E+00  0.00000000000E+00  0.22967571857E+04  0.22967571879E+04  0.10100000352E+00 0.  1.
       -3   -1    0    0    0  501  0.00000000000E+00  0.00000000000E+00 -0.77198920227E+03  0.77198920888E+03  0.10100000352E+00 0. -1.
    10030    2    1    2    0    0  0.00000000000E+00  0.00000000000E+00  0.15247679834E+04  0.30687463968E+04  0.26631348153E+04 0.  0.
        5    1    3    3  502    0 -0.40782969150E+03  0.12532299788E+04  0.54332689885E+03  0.14255303034E+04  0.46999998093E+01 0. -1.
       -5    1    3    3    0  502  0.40782969150E+03 -0.12532299788E+04  0.98144108458E+03  0.16432160934E+04  0.46999998093E+01 0.  1.
</event>
<event>
 5   0  0.4826140E-06  0.2684528E+04  0.7818609E-02  0.8340043E-01
        1   -1    0    0  501    0  0.00000000000E+00  0.00000000000E+00  0.92911893104E+03  0.92911893105E+03  0.50400001928E-02 0.  1.
       -1   -1    0    0    0  501  0.00000000000E+00  0.00000000000E+00 -0.19391193910E+04  0.19391193910E+04  0.50400001928E-02 0. -1.
    10030    2    1    2    0    0  0.00000000000E+00  0.00000000000E+00 -0.10100004599E+04  0.28682383220E+04  0.26845279181E+04 0.  0.
        1    1    3    3  502    0  0.63860323643E+03 -0.30196693115E+03 -0.17244537480E+04  0.18635286019E+04  0.50400001928E-02 0. -1.
       -1    1    3    3    0  502 -0.63860323643E+03  0.30196693115E+03  0.71445328801E+03  0.10047097202E+04  0.50400001928E-02 0.  1.
</event>
<event>
 5   0  0.1220908E-05  0.2661420E+04  0.7818609E-02  0.8347632E-01
       -2   -1    0    0    0  501  0.00000000000E+00  0.00000000000E+00  0.78165379216E+03  0.78165379216E+03  0.25500000920E-02 0. -1.
        2   -1    0    0  501    0  0.00000000000E+00  0.00000000000E+00 -0.22654397262E+04  0.22654397262E+04  0.25500000920E-02 0.  1.
    10030    2    1    2    0    0  0.00000000000E+00  0.00000000000E+00 -0.14837859340E+04  0.30470935183E+04  0.26614203372E+04 0.  0.
        2    1    3    3  502    0 -0.22718137609E+02 -0.20938331282E+03  0.76245069011E+03  0.79100476631E+03  0.25500000920E-02 0. -1.
       -2    1    3    3    0  502  0.22718137609E+02  0.20938331282E+03 -0.22462366241E+04  0.22560887520E+04  0.25500000920E-02 0.  1.
</event>
<event>
 5   0  0.1286641E-05  0.2704179E+04  0.7818609E-02  0.8333650E-01
        2   -1    0    0  501    0  0.00000000000E+00  0.00000000000E+00  0.16526295165E+04  0.16526295165E+04  0.25500000920E-02 0.  1.
       -2   -1    0    0    0  501  0.00000000000E+00  0.00000000000E+00 -0.11062039837E+04  0.11062039837E+04  0.25500000920E-02 0. -1.
    10030    2    1    2    0    0  0.00000000000E+00  0.00000000000E+00  0.54642553286E+03  0.27588335002E+04  0.27041785109E+04 0.  0.
        4    1    3    3  502    0  0.20779985832E+03  0.32962227086E+03 -0.10476800432E+04  0.11177954680E+04  0.12699999809E+01 0. -1.
       -4    1    3    3    0  502 -0.20779985832E+03 -0.32962227086E+03  0.15941055760E+04  0.16410380322E+04  0.12699999809E+01 0.  1.
</event>
<event>
 5   0  0.1276517E-05  0.2764612E+04  0.7818609E-02  0.8314340E-01
       -2   -1    0    0    0  501  0.00000000000E+00  0.00000000000E+00  0.74496571964E+03  0.74496571965E+03  0.25500000920E-02 0.  1.
        2   -1    0    0  501    0  0.00000000000E+00  0.00000000000E+00 -0.25649104401E+04  0.25649104401E+04  0.25500000920E-02 0. -1.
    10030    2    1    2    0    0  0.00000000000E+00  0.00000000000E+00 -0.18199447205E+04  0.33098761597E+04  0.27646123430E+04 0.  0.
        1    1    3    3  502    0 -0.40335913626E+03 -0.33365164222E+03  0.62170910413E+03  0.81273871653E+03  0.50400001928E-02 0.  1.
       -1    1    3    3    0  502  0.40335913626E+03  0.33365164222E+03 -0.24416538246E+04  0.24971374432E+04  0.50400001928E-02 0. -1.
</event>
<event>
 5   0  0.1276517E-05  0.2699089E+04  0.7818609E-02  0.8335300E-01
       -2   -1    0    0    0  501  0.00000000000E+00  0.00000000000E+00  0.10954725083E+04  0.10954725083E+04  0.25500000920E-02 0. -1.
        2   -1    0    0  501    0  0.00000000000E+00  0.00000000000E+00 -0.16625437948E+04  0.16625437948E+04  0.25500000920E-02 0.  1.
    10030    2    1    2    0    0  0.00000000000E+00  0.00000000000E+00 -0.56707128651E+03  0.27580163032E+04  0.26990894918E+04 0.  0.
        1    1    3    3  502    0  0.68340720681E+03  0.16438517089E+03 -0.14607301930E+04  0.16210492255E+04  0.50400001928E-02 0.  1.
       -1    1    3    3    0  502 -0.68340720681E+03 -0.16438517089E+03  0.89365890645E+03  0.11369670777E+04  0.50400001928E-02 0. -1.
</event>
<event>
 5   0  0.4846214E-06  0.2717287E+04  0.7818609E-02  0.8329418E-01
       -1   -1    0    0    0  501  0.00000000000E+00  0.00000000000E+00  0.12065161622E+04  0.12065161622E+04  0.50400001928E-02 0. -1.
        1   -1    0    0  501    0  0.00000000000E+00  0.00000000000E+00 -0.15299526189E+04  0.15299526189E+04  0.50400001928E-02 0.  1.
    10030    2    1    2    0    0  0.00000000000E+00  0.00000000000E+00 -0.32343645674E+03  0.27364687811E+04  0.27172872959E+04 0.  0.
        2    1    3    3  502    0  0.26078955277E+03  0.63530901221E+02  0.11795487914E+04  0.12097035660E+04  0.25500000920E-02 0. -1.
       -2    1    3    3    0  502 -0.26078955277E+03 -0.63530901221E+02 -0.15029852481E+04  0.15267652152E+04  0.25500000920E-02 0.  1.
</event>
<event>
 5   0  0.4846214E-06  0.2687316E+04  0.7818609E-02  0.8339132E-01
        1   -1    0    0  501    0  0.00000000000E+00  0.00000000000E+00  0.19652105414E+04  0.19652105414E+04  0.50400001928E-02 0.  1.
       -1   -1    0    0    0  501  0.00000000000E+00  0.00000000000E+00 -0.91868872921E+03  0.91868872922E+03  0.50400001928E-02 0. -1.
    10030    2    1    2    0    0  0.00000000000E+00  0.00000000000E+00  0.10465218122E+04  0.28838992706E+04  0.26873159658E+04 0.  0.
        2    1    3    3  502    0  0.46295060563E+03 -0.54052242677E+03 -0.69981684021E+03  0.99811390480E+03  0.25500000920E-02 0. -1.
       -2    1    3    3    0  502 -0.46295060563E+03  0.54052242677E+03  0.17463386524E+04  0.18857853659E+04  0.25500000920E-02 0.  1.
</event>
<event>
 5   0  0.1276517E-05  0.2701672E+04  0.7818609E-02  0.8334463E-01
        2   -1    0    0  501    0  0.00000000000E+00  0.00000000000E+00  0.17873070410E+04  0.17873070410E+04  0.25500000920E-02 0. -1.
       -2   -1    0    0    0  501  0.00000000000E+00  0.00000000000E+00 -0.10209537380E+04  0.10209537380E+04  0.25500000920E-02 0.  1.
    10030    2    1    2    0    0  0.00000000000E+00  0.00000000000E+00  0.76635330300E+03  0.28082607791E+04  0.27016719302E+04 0.  0.
        1    1    3    3  502    0  0.10974317248E+04  0.67332507994E+02 -0.43255733007E+03  0.11815227045E+04  0.50400001928E-02 0.  1.
       -1    1    3    3    0  502 -0.10974317248E+04 -0.67332507994E+02  0.11989106331E+04  0.16267380746E+04  0.50400001928E-02 0. -1.
</event>
<event>
 5   0  0.1261364E-05  0.2687849E+04  0.7818609E-02  0.8338958E-01
        2   -1    0    0  501    0  0.00000000000E+00  0.00000000000E+00  0.75735892663E+03  0.75735892664E+03  0.25500000920E-02 0. -1.
       -2   -1    0    0    0  501  0.00000000000E+00  0.00000000000E+00 -0.23847775048E+04  0.23847775048E+04  0.25500000920E-02 0.  1.
    10030    2    1    2    0    0  0.00000000000E+00  0.00000000000E+00 -0.16274185781E+04  0.31421364314E+04  0.26878486053E+04 0.  0.
        5    1    3    3  502    0 -0.71212074056E+02 -0.28797481233E+03 -0.23460159559E+04  0.23647015895E+04  0.46999998093E+01 0.  1.
       -5    1    3    3    0  502  0.71212074056E+02  0.28797481233E+03  0.71859737778E+03  0.77743484189E+03  0.46999998093E+01 0. -1.
</event>
<event>
 5   0  0.1286641E-05  0.2696004E+04  0.7818609E-02  0.8336303E-01
        2   -1    0    0  501    0  0.00000000000E+00  0.00000000000E+00  0.24946651392E+04  0.24946651392E+04  0.25500000920E-02 0. -1.
       -2   -1    0    0    0  501  0.00000000000E+00  0.00000000000E+00 -0.72839799466E+03  0.72839799466E+03  0.25500000920E-02 0.  1.
    10030    2    1    2    0    0  0.00000000000E+00  0.00000000000E+00  0.17662671446E+04  0.32230631339E+04  0.26960037721E+04 0.  0.
        4    1    3    3  502    0  0.11633643971E+04 -0.55687261342E+03  0.13516456604E+04  0.18682803409E+04  0.12699999809E+01 0. -1.
       -4    1    3    3    0  502 -0.11633643971E+04  0.55687261342E+03  0.41462148414E+03  0.13547827930E+04  0.12699999809E+01 0.  1.
</event>
<event>
 5   0  0.4826140E-06  0.2461848E+04  0.7818609E-02  0.8416705E-01
        1   -1    0    0  501    0  0.00000000000E+00  0.00000000000E+00  0.10710181796E+04  0.10710181796E+04  0.50400001928E-02 0.  1.
       -1   -1    0    0    0  501  0.00000000000E+00  0.00000000000E+00 -0.14147046980E+04  0.14147046981E+04  0.50400001928E-02 0. -1.
    10030    2    1    2    0    0  0.00000000000E+00  0.00000000000E+00 -0.34368651846E+03  0.24857228777E+04  0.24618484522E+04 0.  0.
        1    1    3    3  502    0 -0.17016661282E+03 -0.46945493477E+03 -0.13078451623E+04  0.13999298484E+04  0.50400001928E-02 0. -1.
       -1    1    3    3    0  502  0.17016661282E+03  0.46945493477E+03  0.96415864383E+03  0.10857930293E+04  0.50400001928E-02 0.  1.
</event>
<event>
 5   0  0.1232559E-05  0.2632435E+04  0.7818609E-02  0.8357266E-01
       -2   -1    0    0    0  501  0.00000000000E+00  0.00000000000E+00  0.97177224394E+03  0.97177224394E+03  0.25500000920E-02 0. -1.
        2   -1    0    0  501    0  0.00000000000E+00  0.00000000000E+00 -0.17827520949E+04  0.17827520949E+04  0.25500000920E-02 0.  1.
    10030    2    1    2    0    0  0.00000000000E+00  0.00000000000E+00 -0.81097985095E+03  0.27545243388E+04  0.26324353771E+04 0.  0.
        3    1    3    3  502    0 -0.36558788662E+03 -0.12557874466E+04 -0.25109186409E+03  0.13318046960E+04  0.10100000352E+00 0.  1.
       -3    1    3    3    0  502  0.36558788662E+03  0.12557874466E+04 -0.55988798686E+03  0.14227196428E+04  0.10100000352E+00 0. -1.
</event>
<event>
 5   0  0.1276517E-05  0.2706987E+04  0.7818609E-02  0.8332741E-01
       -2   -1    0    0    0  501  0.00000000000E+00  0.00000000000E+00  0.14843819057E+04  0.14843819057E+04  0.25500000920E-02 0.  1.
        2   -1    0    0  501    0  0.00000000000E+00  0.00000000000E+00 -0.12341464584E+04  0.12341464584E+04  0.25500000920E-02 0. -1.
    10030    2    1    2    0    0  0.00000000000E+00  0.00000000000E+00  0.25023544729E+03  0.27185283641E+04  0.27069870128E+04 0.  0.
        1    1    3    3  502    0 -0.71241645337E+02  0.11346131650E+04  0.86277118167E+03  0.14271638021E+04  0.50400001928E-02 0.  1.
       -1    1    3    3    0  502  0.71241645337E+02 -0.11346131650E+04 -0.61253573438E+03  0.12913645620E+04  0.50400001928E-02 0. -1.
</event>
<event>
 5   0  0.4756800E-06  0.2627718E+04  0.7818609E-02  0.8358846E-01
        1   -1    0    0  501    0  0.00000000000E+00  0.00000000000E+00  0.21877461139E+04  0.21877461139E+04  0.50400001928E-02 0. -1.
       -1   -1    0    0    0  501  0.00000000000E+00  0.00000000000E+00 -0.78904310026E+03  0.78904310027E+03  0.50400001928E-02 0.  1.
    10030    2    1    2    0    0  0.00000000000E+00  0.00000000000E+00  0.13987030137E+04  0.29767892142E+04  0.26277183839E+04 0.  0.
        4    1    3    3  502    0 -0.21911786403E+03  0.92561134340E+03 -0.32739030821E+03  0.10059597528E+04  0.12699999809E+01 0.  1.
       -4    1    3    3    0  502  0.21911786403E+03 -0.92561134340E+03  0.17260933219E+04  0.19708294614E+04  0.12699999809E+01 0. -1.
</event>
<event>
 5   0  0.1232559E-05  0.2716118E+04  0.7818609E-02  0.8329794E-01
       -2   -1    0    0    0  501  0.00000000000E+00  0.00000000000E+00  0.91627485603E+03  0.91627485603E+03  0.25500000920E-02 0. -1.
        2   -1    0    0  501    0  0.00000000000E+00  0.00000000000E+00 -0.20128498989E+04  0.20128498989E+04  0.25500000920E-02 0.  1.
    10030    2    1    2    0    0  0.00000000000E+00  0.00000000000E+00 -0.10965750429E+04  0.29291247549E+04  0.27161176347E+04 0.  0.
        3    1    3    3  502    0  0.79969147740E+03  0.10736469064E+04 -0.79444129541E+03  0.15567148489E+04  0.10100000352E+00 0.  1.
       -3    1    3    3    0  502 -0.79969147740E+03 -0.10736469064E+04 -0.30213374748E+03  0.13724099061E+04  0.10100000352E+00 0. -1.
</event>
<event>
 5   0  0.1276517E-05  0.2672740E+04  0.7818609E-02  0.8343904E-01
       -2   -1    0    0    0  501  0.00000000000E+00  0.00000000000E+00  0.69925446177E+03  0.69925446177E+03  0.25500000920E-02 0.  1.
        2   -1    0    0  501    0  0.00000000000E+00  0.00000000000E+00 -0.25539841606E+04  0.25539841606E+04  0.25500000920E-02 0. -1.
    10030    2    1    2    0    0  0.00000000000E+00  0.00000000000E+00 -0.18547296988E+04  0.32532386224E+04  0.26727400320E+04 0.  0.
        1    1    3    3  502    0 -0.78888917397E+03 -0.82672695084E+02 -0.22364572570E+04  0.23729563767E+04  0.50400001928E-02 0. -1.
       -1    1    3    3    0  502  0.78888917397E+03  0.82672695084E+02  0.38172755818E+03  0.88028224566E+03  0.50400001928E-02 0.  1.
</event>
<event>
 5   0  0.4846214E-06  0.2740508E+04  0.7818609E-02  0.8321980E-01
        1   -1    0    0  501    0  0.00000000000E+00  0.00000000000E+00  0.95018914049E+03  0.95018914050E+03  0.50400001928E-02 0.  1.
       -1   -1    0    0    0  501  0.00000000000E+00  0.00000000000E+00 -0.19760236185E+04  0.19760236185E+04  0.50400001928E-02 0. -1.
    10030    2    1    2    0    0  0.00000000000E+00  0.00000000000E+00 -0.10258344780E+04  0.29262127590E+04  0.27405081161E+04 0.  0.
        2    1    3    3  502    0 -0.19913459015E+03 -0.41087189549E+03 -0.18924097688E+04  0.19467113378E+04  0.25500000920E-02 0. -1.
       -2    1    3    3    0  502  0.19913459015E+03  0.41087189549E+03  0.86657529082E+03  0.97950142122E+03  0.25500000920E-02 0.  1.
</event>
<event>
 5   0  0.1261364E-05  0.2697285E+04  0.7818609E-02  0.8335886E-01
        2   -1    0    0  501    0  0.00000000000E+00  0.00000000000E+00  0.15396816556E+04  0.15396816556E+04  0.25500000920E-02 0.  1.
       -2   -1    0    0    0  501  0.00000000000E+00  0.00000000000E+00 -0.11813069894E+04  0.11813069894E+04  0.25500000920E-02 0. -1.
    10030    2    1    2    0    0  0.00000000000E+00  0.00000000000E+00  0.35837466620E+03  0.27209886451E+04  0.26972850805E+04 0.  0.
        5    1    3    3  502    0  0.84291872734E+03 -0.70434327305E+03 -0.61012278731E+03  0.12565362441E+04  0.46999998093E+01 0. -1.
       -5    1    3    3    0  502 -0.84291872734E+03  0.70434327305E+03  0.96849745351E+03  0.14644524010E+04  0.46999998093E+01 0.  1.
</event>
<event>
 5   0  0.4826140E-06  0.2586017E+04  0.7818609E-02  0.8372966E-01
        1   -1    0    0  501    0  0.00000000000E+00  0.00000000000E+00  0.16617308988E+04  0.16617308988E+04  0.50400001928E-02 0.  1.
       -1   -1    0    0    0  501  0.00000000000E+00  0.00000000000E+00 -0.10061022955E+04  0.10061022956E+04  0.50400001928E-02 0. -1.
    10030    2    1    2    0    0  0.00000000000E+00  0.00000000000E+00  0.65562860329E+03  0.26678331944E+04  0.25860172249E+04 0.  0.
        1    1    3    3  502    0  0.45327538100E+03  0.44892048965E+02 -0.92059424707E+03  0.10271161740E+04  0.50400001928E-02 0. -1.
       -1    1    3    3    0  502 -0.45327538100E+03 -0.44892048965E+02  0.15762228504E+04  0.16407170204E+04  0.50400001928E-02 0.  1.
</event>
<event>
 5   0  0.1276517E-05  0.2737578E+04  0.7818609E-02  0.8322914E-01
        2   -1    0    0  501    0  0.00000000000E+00  0.00000000000E+00  0.11291161396E+04  0.11291161396E+04  0.25500000920E-02 0. -1.
       -2   -1    0    0    0  501  0.00000000000E+00  0.00000000000E+00 -0.16593368251E+04  0.16593368251E+04  0.25500000920E-02 0.  1.
    10030    2    1    2    0    0  0.00000000000E+00  0.00000000000E+00 -0.53022068549E+03  0.27884529647E+04  0.27375784849E+04 0.  0.
        1    1    3    3  502    0  0.59143482839E+03  0.10147815974E+04  0.45080778417E+03  0.12580955865E+04  0.50400001928E-02 0. -1.
       -1    1    3    3    0  502 -0.59143482839E+03 -0.10147815974E+04 -0.98102846966E+03  0.15303573782E+04  0.50400001928E-02 0.  1.
</event>
<event>
 5   0  0.1220908E-05  0.2702202E+04  0.7818609E-02  0.8334291E-01
        2   -1    0    0  501    0  0.00000000000E+00  0.00000000000E+00  0.24039320764E+04  0.24039320764E+04  0.25500000920E-02 0.  1.
       -2   -1    0    0    0  501  0.00000000000E+00  0.00000000000E+00 -0.75937005914E+03  0.75937005915E+03  0.25500000920E-02 0. -1.
    10030    2    1    2    0    0  0.00000000000E+00  0.00000000000E+00  0.16445620172E+04  0.31633021355E+04  0.27022020968E+04 0.  0.
        2    1    3    3  502    0 -0.52207194045E+03  0.10158254519E+04  0.16672628398E+04  0.20209467674E+04  0.25500000920E-02 0.  1.
       -2    1    3    3    0  502  0.52207194045E+03 -0.10158254519E+04 -0.22700822554E+02  0.11423553681E+04  0.25500000920E-02 0. -1.
</event>
<event>
 5   0  0.4824715E-06  0.2718492E+04  0.7818609E-02  0.8329030E-01
        1   -1    0    0  501    0  0.00000000000E+00  0.00000000000E+00  0.92703218285E+03  0.92703218287E+03  0.50400001928E-02 0. -1.
       -1   -1    0    0    0  501  0.00000000000E+00  0.00000000000E+00 -0.19929721306E+04  0.19929721306E+04  0.50400001928E-02 0.  1.
    10030    2    1    2    0    0  0.00000000000E+00  0.00000000000E+00 -0.10659399477E+04  0.29200043134E+04  0.27184917176E+04 0.  0.
        5    1    3    3  502    0  0.92431256353E+03 -0.43103953048E+03  0.43217832187E+03  0.11076772923E+04  0.46999998093E+01 0. -1.
       -5    1    3    3    0  502 -0.92431256353E+03  0.43103953048E+03 -0.14981182696E+04  0.18123270212E+04  0.46999998093E+01 0.  1.
</event>
<event>
 5   0  0.5152288E-06  0.2715218E+04  0.7818609E-02  0.8330084E-01
       -1   -1    0    0    0  501  0.00000000000E+00  0.00000000000E+00  0.13807787238E+04  0.13807787239E+04  0.50400001928E-02 0.  1.
        1   -1    0    0  501    0  0.00000000000E+00  0.00000000000E+00 -0.13348279029E+04  0.13348279029E+04  0.50400001928E-02 0. -1.
    10030    2    1    2    0    0  0.00000000000E+00  0.00000000000E+00  0.45950820952E+02  0.27156066268E+04  0.27152178317E+04 0.  0.
        3    1    3    3  502    0  0.29506698042E+03  0.83582213193E+03  0.10514410892E+04  0.13752059967E+04  0.10100000352E+00 0.  1.
       -3    1    3    3    0  502 -0.29506698042E+03 -0.83582213193E+03 -0.10054902683E+04  0.13404006300E+04  0.10100000352E+00 0. -1.
</event>
<event>
 5   0  0.1232559E-05  0.2311023E+04  0.7818609E-02  0.8473587E-01
        2   -1    0    0  501    0  0.00000000000E+00  0.00000000000E+00  0.17952239395E+04  0.17952239395E+04  0.25500000920E-02 0. -1.
       -2   -1    0    0    0  501  0.00000000000E+00  0.00000000000E+00 -0.74375525214E+03  0.74375525215E+03  0.25500000920E-02 0.  1.
    10030    2    1    2    0    0  0.00000000000E+00  0.00000000000E+00  0.10514686873E+04  0.25389791916E+04  0.23110233523E+04 0.  0.
        3    1    3    3  502    0 -0.40335688639E+03 -0.31531652714E+02 -0.66339461905E+03  0.77703504021E+03  0.10100000352E+00 0.  1.
       -3    1    3    3    0  502  0.40335688639E+03  0.31531652714E+02  0.17148633064E+04  0.17619441514E+04  0.10100000352E+00 0. -1.
</event>
<event>
 5   0  0.1261364E-05  0.2838029E+04  0.7818609E-02  0.8291558E-01
       -2   -1    0    0    0  501  0.00000000000E+00  0.00000000000E+00  0.84020343175E+03  0.84020343176E+03  0.25500000920E-02 0.  1.
        2   -1    0    0  501    0  0.00000000000E+00  0.00000000000E+00 -0.23965641865E+04  0.23965641865E+04  0.25500000920E-02 0. -1.
    10030    2    1    2    0    0  0.00000000000E+00  0.00000000000E+00 -0.15563607547E+04  0.32367676182E+04  0.28380285086E+04 0.  0.
        5    1    3    3  502    0  0.10863827043E+04 -0.35794750813E+03  0.17958424389E+03  0.11578542177E+04  0.46999998093E+01 0.  1.
       -5    1    3    3    0  502 -0.10863827043E+04  0.35794750813E+03 -0.17359449986E+04  0.20789134005E+04  0.46999998093E+01 0. -1.
</event>
<event>
 5   0  0.4824715E-06  0.2699485E+04  0.7818609E-02  0.8335172E-01
        1   -1    0    0  501    0  0.00000000000E+00  0.00000000000E+00  0.20116396392E+04  0.20116396392E+04  0.50400001928E-02 0.  1.
       -1   -1    0    0    0  501  0.00000000000E+00  0.00000000000E+00 -0.90563192391E+03  0.90563192392E+03  0.50400001928E-02 0. -1.
    10030    2    1    2    0    0  0.00000000000E+00  0.00000000000E+00  0.11060077153E+04  0.29172715631E+04  0.26994851929E+04 0.  0.
        5    1    3    3  502    0  0.10769729530E+04 -0.40259224477E+03 -0.21102158290E+03  0.11689753870E+04  0.46999998093E+01 0.  1.
       -5    1    3    3    0  502 -0.10769729530E+04  0.40259224477E+03  0.13170292982E+04  0.17482961761E+04  0.46999998093E+01 0. -1.
</event>
<event>
 5   0  0.1276517E-05  0.2712319E+04  0.7818609E-02  0.8331019E-01
       -2   -1    0    0    0  501  0.00000000000E+00  0.00000000000E+00  0.70137411794E+03  0.70137411795E+03  0.25500000920E-02 0.  1.
        2   -1    0    0  501    0  0.00000000000E+00  0.00000000000E+00 -0.26222366417E+04  0.26222366417E+04  0.25500000920E-02 0. -1.
    10030    2    1    2    0    0  0.00000000000E+00  0.00000000000E+00 -0.19208625238E+04  0.33236107597E+04  0.27123192376E+04 0.  0.
        1    1    3    3  502    0  0.54127739640E+02  0.60039256650E+03 -0.24490325029E+04  0.25221342641E+04  0.50400001928E-02 0. -1.
       -1    1    3    3    0  502 -0.54127739640E+02 -0.60039256650E+03  0.52816997908E+03  0.80147649556E+03  0.50400001928E-02 0.  1.
</event>
<event>
 5   0  0.4826140E-06  0.2263802E+04  0.7818609E-02  0.8492332E-01
       -1   -1    0    0    0  501  0.00000000000E+00  0.00000000000E+00  0.10979426311E+04  0.10979426312E+04  0.50400001928E-02 0. -1.
        1   -1    0    0  501    0  0.00000000000E+00  0.00000000000E+00 -0.11669093383E+04  0.11669093383E+04  0.50400001928E-02 0.  1.
    10030    2    1    2    0    0  0.00000000000E+00  0.00000000000E+00 -0.68966707157E+02  0.22648519695E+04  0.22638016779E+04 0.  0.
        1    1    3    3  502    0  0.92595169850E+03  0.40770508455E+03  0.47328489892E+03  0.11169640010E+04  0.50400001928E-02 0. -1.
       -1    1    3    3    0  502 -0.92595169850E+03 -0.40770508455E+03 -0.54225160607E+03  0.11478879685E+04  0.50400001928E-02 0.  1.
</event>
<event>
 5   0  0.1232559E-05  0.2693416E+04  0.7818609E-02  0.8337144E-01
        2   -1    0    0  501    0  0.00000000000E+00  0.00000000000E+00  0.83750239228E+03  0.83750239229E+03  0.25500000920E-02 0. -1.
       -2   -1    0    0    0  501  0.00000000000E+00  0.00000000000E+00 -0.21655127163E+04  0.21655127163E+04  0.25500000920E-02 0.  1.
    10030    2    1    2    0    0  0.00000000000E+00  0.00000000000E+00 -0.13280103240E+04  0.30030151086E+04  0.26934157350E+04 0.  0.
        3    1    3    3  502    0  0.82766792360E+03 -0.55642717964E+03 -0.16730021968E+04  0.19477119291E+04  0.10100000352E+00 0.  1.
       -3    1    3    3    0  502 -0.82766792360E+03  0.55642717964E+03  0.34499187285E+03  0.10553031794E+04  0.10100000352E+00 0. -1.
</event>
<event>
 5   0  0.1286641E-05  0.2707273E+04  0.7818609E-02  0.8332649E-01
        2   -1    0    0  501    0  0.00000000000E+00  0.00000000000E+00  0.18168277890E+04  0.18168277890E+04  0.25500000920E-02 0.  1.
       -2   -1    0    0    0  501  0.00000000000E+00  0.00000000000E+00 -0.10085334659E+04  0.10085334659E+04  0.25500000920E-02 0. -1.
    10030    2    1    2    0    0  0.00000000000E+00  0.00000000000E+00  0.80829432308E+03  0.28253612548E+04  0.27072728912E+04 0.  0.
        4    1    3    3  502    0  0.11076095585E+04  0.40212145912E+03  0.10994115578E+04  0.16115855510E+04  0.12699999809E+01 0.  1.
       -4    1    3    3    0  502 -0.11076095585E+04 -0.40212145912E+03 -0.29111723476E+03  0.12137757038E+04  0.12699999809E+01 0. -1.
</event>
<event>
 5   0  0.1220908E-05  0.2701236E+04  0.7818609E-02  0.8334604E-01
        2   -1    0    0  501    0  0.00000000000E+00  0.00000000000E+00  0.13741629660E+04  0.13741629660E+04  0.25500000920E-02 0. -1.
       -2   -1    0    0    0  501  0.00000000000E+00  0.00000000000E+00 -0.13274761113E+04  0.13274761113E+04  0.25500000920E-02 0.  1.
    10030    2    1    2    0    0  0.00000000000E+00  0.00000000000E+00  0.46686854758E+02  0.27016390773E+04  0.27012356509E+04 0.  0.
        2    1    3    3  502    0  0.12829510775E+04 -0.40736731216E+03  0.13407091977E+03  0.13527330135E+04  0.25500000920E-02 0. -1.
       -2    1    3    3    0  502 -0.12829510775E+04  0.40736731216E+03 -0.87384065016E+02  0.13489060638E+04  0.25500000920E-02 0.  1.
</event>
<event>
 5   0  0.1220908E-05  0.2704276E+04  0.7818609E-02  0.8333619E-01
        2   -1    0    0  501    0  0.00000000000E+00  0.00000000000E+00  0.14747730468E+04  0.14747730468E+04  0.25500000920E-02 0.  1.
       -2   -1    0    0    0  501  0.00000000000E+00  0.00000000000E+00 -0.12397009737E+04  0.12397009737E+04  0.25500000920E-02 0. -1.
    10030    2    1    2    0    0  0.00000000000E+00  0.00000000000E+00  0.23507207309E+03  0.27144740205E+04  0.27042763040E+04 0.  0.
        2    1    3    3  502    0 -0.12293664802E+04  0.81618020471E+02 -0.44158703814E+03  0.13088172356E+04  0.25500000920E-02 0. -1.
       -2    1    3    3    0  502  0.12293664802E+04 -0.81618020471E+02  0.67665911123E+03  0.14056567848E+04  0.25500000920E-02 0.  1.
</event>
<event>
 5   0  0.1276517E-05  0.2708519E+04  0.7818609E-02  0.8332246E-01
       -2   -1    0    0    0  501  0.00000000000E+00  0.00000000000E+00  0.13090845278E+04  0.13090845278E+04  0.25500000920E-02 0. -1.
        2   -1    0    0  501    0  0.00000000000E+00  0.00000000000E+00 -0.14009939189E+04  0.14009939189E+04  0.25500000920E-02 0.  1.
    10030    2    1    2    0    0  0.00000000000E+00  0.00000000000E+00 -0.91909391075E+02  0.27100784467E+04  0.27085194943E+04 0.  0.
        1    1    3    3  502    0  0.80578891656E+02 -0.13126175617E+04 -0.36950073868E+03  0.13660119388E+04  0.50400001928E-02 0. -1.
       -1    1    3    3    0  502 -0.80578891656E+02  0.13126175617E+04  0.27759134761E+03  0.13440665078E+04  0.50400001928E-02 0.  1.
</event>
<event>
 5   0  0.4824715E-06  0.2695346E+04  0.7818609E-02  0.8336517E-01
       -1   -1    0    0    0  501  0.00000000000E+00  0.00000000000E+00  0.32741411783E+04  0.32741411783E+04  0.50400001928E-02 0.  1.
        1   -1    0    0  501    0  0.00000000000E+00  0.00000000000E+00 -0.55471725378E+03  0.55471725381E+03  0.50400001928E-02 0. -1.
    10030    2    1    2    0    0  0.00000000000E+00  0.00000000000E+00  0.27194239245E+04  0.38288584321E+04  0.26953460653E+04 0.  0.
        5    1    3    3  502    0 -0.93529280623E+03 -0.94007068221E+03  0.10185003254E+04  0.16720856807E+04  0.46999998093E+01 0. -1.
       -5    1    3    3    0  502  0.93529280623E+03  0.94007068221E+03  0.17009235991E+04  0.21567727513E+04  0.46999998093E+01 0.  1.
</event>
<event>
 5   0  0.4826140E-06  0.2690938E+04  0.7818609E-02  0.8337951E-01
       -1   -1    0    0    0  501  0.00000000000E+00  0.00000000000E+00  0.71427471450E+03  0.71427471452E+03  0.50400001928E-02 0.  1.
        1   -1    0    0  501    0  0.00000000000E+00  0.00000000000E+00 -0.25344414361E+04  0.25344414361E+04  0.50400001928E-02 0. -1.
    10030    2    1    2    0    0  0.00000000000E+00  0.00000000000E+00 -0.18201667216E+04  0.32487161506E+04  0.26909384484E+04 0.  0.
        1    1    3    3  502    0  0.97493621357E+03  0.83572081153E+02 -0.20249739280E+04  0.22490007386E+04  0.50400001928E-02 0. -1.
       -1    1    3    3    0  502 -0.97493621357E+03 -0.83572081153E+02  0.20480720635E+03  0.99971541204E+03  0.50400001928E-02 0.  1.
</event>
<event>
 5   0  0.1276517E-05  0.2816649E+04  0.7818609E-02  0.8298118E-01
        2   -1    0    0  501    0  0.00000000000E+00  0.00000000000E+00  0.20376631569E+04  0.20376631569E+04  0.25500000920E-02 0.  1.
       -2   -1    0    0    0  501  0.00000000000E+00  0.00000000000E+00 -0.97335902557E+03  0.97335902557E+03  0.25500000920E-02 0. -1.
    10030    2    1    2    0    0  0.00000000000E+00  0.00000000000E+00  0.10643041313E+04  0.30110221824E+04  0.28166489485E+04 0.  0.
        1    1    3    3  502    0  0.54196967902E+03  0.12985984174E+04  0.59345803330E+03  0.15271808733E+04  0.50400001928E-02 0.  1.
       -1    1    3    3    0  502 -0.54196967902E+03 -0.12985984174E+04  0.47084609799E+03  0.14838413091E+04  0.50400001928E-02 0. -1.
</event>
<event>
 5   0  0.4846214E-06  0.2691274E+04  0.7818609E-02  0.8337842E-01
       -1   -1    0    0    0  501  0.00000000000E+00  0.00000000000E+00  0.14957456847E+04  0.14957456847E+04  0.50400001928E-02 0.  1.
        1   -1    0    0  501    0  0.00000000000E+00  0.00000000000E+00 -0.12105924067E+04  0.12105924067E+04  0.50400001928E-02 0. -1.
    10030    2    1    2    0    0  0.00000000000E+00  0.00000000000E+00  0.28515327799E+03  0.27063380914E+04  0.26912735782E+04 0.  0.
        2    1    3    3  502    0 -0.13233318641E+04  0.21840604201E+03  0.25195101625E+03  0.13646932755E+04  0.25500000920E-02 0.  1.
       -2    1    3    3    0  502  0.13233318641E+04 -0.21840604201E+03  0.33202261735E+02  0.13416448158E+04  0.25500000920E-02 0. -1.
</event>
<event>
 5   0  0.5152288E-06  0.2666054E+04  0.7818609E-02  0.8346104E-01
        1   -1    0    0  501    0  0.00000000000E+00  0.00000000000E+00  0.19804115321E+04  0.19804115321E+04  0.50400001928E-02 0. -1.
       -1   -1    0    0    0  501  0.00000000000E+00  0.00000000000E+00 -0.89726836269E+03  0.89726836271E+03  0.50400001928E-02 0.  1.
    10030    2    1    2    0    0  0.00000000000E+00  0.00000000000E+00  0.10831431694E+04  0.28776798948E+04  0.26660537226E+04 0.  0.
        3    1    3    3  502    0 -0.11563738214E+04 -0.57994253993E+03  0.88870003565E+03  0.15694972214E+04  0.10100000352E+00 0. -1.
       -3    1    3    3    0  502  0.11563738214E+04  0.57994253993E+03  0.19444313376E+03  0.13081826734E+04  0.10100000352E+00 0.  1.
</event>
<event>
 5   0  0.4756800E-06  0.2724011E+04  0.7818609E-02  0.8327256E-01
       -1   -1    0    0    0  501  0.00000000000E+00  0.00000000000E+00  0.13839465452E+04  0.13839465452E+04  0.50400001928E-02 0.  1.
        1   -1    0    0  501    0  0.00000000000E+00  0.00000000000E+00 -0.13404122436E+04  0.13404122436E+04  0.50400001928E-02 0. -1.
    10030    2    1    2    0    0  0.00000000000E+00  0.00000000000E+00  0.43534301578E+02  0.27243587888E+04  0.27240109351E+04 0.  0.
        4    1    3    3  502    0  0.11003056644E+04  0.59604439608E+03 -0.51599641061E+03  0.13535861206E+04  0.12699999809E+01 0.  1.
       -4    1    3    3    0  502 -0.11003056644E+04 -0.59604439608E+03  0.55953071218E+03  0.13707726682E+04  0.12699999809E+01 0. -1.
</event>
<event>
 5   0  0.1276517E-05  0.2713034E+04  0.7818609E-02  0.8330788E-01
       -2   -1    0    0    0  501  0.00000000000E+00  0.00000000000E+00  0.62305498011E+03  0.62305498012E+03  0.25500000920E-02 0. -1.
        2   -1    0    0  501    0  0.00000000000E+00  0.00000000000E+00 -0.29534129526E+04  0.29534129526E+04  0.25500000920E-02 0.  1.
    10030    2    1    2    0    0  0.00000000000E+00  0.00000000000E+00 -0.23303579725E+04  0.35764679327E+04  0.27130342043E+04 0.  0.
        1    1    3    3  502    0  0.12155220421E+03  0.76844692395E+03  0.29971670998E+03  0.83373600111E+03  0.50400001928E-02 0. -1.
       -1    1    3    3    0  502 -0.12155220421E+03 -0.76844692395E+03 -0.26300746825E+04  0.27427319316E+04  0.50400001928E-02 0.  1.
</event>
<event>
 5   0  0.4846214E-06  0.2708260E+04  0.7818609E-02  0.8332330E-01
       -1   -1    0    0    0  501  0.00000000000E+00  0.00000000000E+00  0.12585268354E+04  0.12585268354E+04  0.50400001928E-02 0.  1.
        1   -1    0    0  501    0  0.00000000000E+00  0.00000000000E+00 -0.14569953915E+04  0.14569953915E+04  0.50400001928E-02 0. -1.
    10030    2    1    2    0    0  0.00000000000E+00  0.00000000000E+00 -0.19846855613E+03  0.27155222269E+04  0.27082598098E+04 0.  0.
        2    1    3    3  502    0  0.54900857453E+03 -0.96479196987E+03 -0.87683555817E+03  0.14145934243E+04  0.25500000920E-02 0. -1.
       -2    1    3    3    0  502 -0.54900857453E+03  0.96479196987E+03  0.67836700204E+03  0.13009288026E+04  0.25500000920E-02 0.  1.
</event>
<event>
 5   0  0.4824715E-06  0.2703401E+04  0.7818609E-02  0.8333902E-01
        1   -1    0    0  501    0  0.00000000000E+00  0.00000000000E+00  0.21617148142E+04  0.21617148142E+04  0.50400001928E-02 0.  1.
       -1   -1    0    0    0  501  0.00000000000E+00  0.00000000000E+00 -0.84520571924E+03  0.84520571926E+03  0.50400001928E-02 0. -1.
    10030    2    1    2    0    0  0.00000000000E+00  0.00000000000E+00  0.13165090950E+04  0.30069205335E+04  0.27034006173E+04 0.  0.
        5    1    3    3  502    0 -0.74962665181E+03 -0.62061775219E+02  0.19074122536E+04  0.20503744478E+04  0.46999998093E+01 0.  1.
       -5    1    3    3    0  502  0.74962665181E+03  0.62061775219E+02 -0.59090315866E+03  0.95654608564E+03  0.46999998093E+01 0. -1.
</event>
<event>
 5   0  0.4824715E-06  0.2428932E+04  0.7818609E-02  0.8428751E-01
       -1   -1    0    0    0  501  0.00000000000E+00  0.00000000000E+00  0.62277606936E+03  0.62277606938E+03  0.50400001928E-02 0. -1.
        1   -1    0    0  501    0  0.00000000000E+00  0.00000000000E+00 -0.23683119392E+04  0.23683119392E+04  0.50400001928E-02 0.  1.
    10030    2    1    2    0    0  0.00000000000E+00  0.00000000000E+00 -0.17455358698E+04  0.29910880086E+04  0.24289322762E+04 0.  0.
        5    1    3    3  502    0 -0.86870117882E+03  0.11450227053E+03  0.16278094556E+03  0.89121952081E+03  0.46999998093E+01 0. -1.
       -5    1    3    3    0  502  0.86870117882E+03 -0.11450227053E+03 -0.19083168154E+04  0.20998684878E+04  0.46999998093E+01 0.  1.
</event>
<event>
 5   0  0.1276517E-05  0.2660956E+04  0.7818609E-02  0.8347786E-01
        2   -1    0    0  501    0  0.00000000000E+00  0.00000000000E+00  0.14882749865E+04  0.14882749865E+04  0.25500000920E-02 0. -1.
       -2   -1    0    0    0  501  0.00000000000E+00  0.00000000000E+00 -0.11894120552E+04  0.11894120553E+04  0.25500000920E-02 0.  1.
    10030    2    1    2    0    0  0.00000000000E+00  0.00000000000E+00  0.29886293130E+03  0.26776870418E+04  0.26609563773E+04 0.  0.
        1    1    3    3  502    0 -0.48592399418E+03 -0.12385677493E+04  0.14954476319E+03  0.13388561663E+04  0.50400001928E-02 0. -1.
       -1    1    3    3    0  502  0.48592399418E+03  0.12385677493E+04  0.14931816811E+03  0.13388308755E+04  0.50400001928E-02 0.  1.
</event>
<event>
 5   0  0.4824715E-06  0.2674013E+04  0.7818609E-02  0.8343486E-01
        1   -1    0    0  501    0  0.00000000000E+00  0.00000000000E+00  0.12565952771E+04  0.12565952772E+04  0.50400001928E-02 0.  1.
       -1   -1    0    0    0  501  0.00000000000E+00  0.00000000000E+00 -0.14225633088E+04  0.14225633088E+04  0.50400001928E-02 0. -1.
    10030    2    1    2    0    0  0.00000000000E+00  0.00000000000E+00 -0.16596803162E+03  0.26791585859E+04  0.26740129658E+04 0.  0.
        5    1    3    3  502    0  0.71110521660E+03 -0.60223784922E+03  0.87761176287E+03  0.12800724794E+04  0.46999998093E+01 0.  1.
       -5    1    3    3    0  502 -0.71110521660E+03  0.60223784922E+03 -0.10435797945E+04  0.13990861066E+04  0.46999998093E+01 0. -1.
</event>
<event>
 5   0  0.1220908E-05  0.2663710E+04  0.7818609E-02  0.8346877E-01
        2   -1    0    0  501    0  0.00000000000E+00  0.00000000000E+00  0.10914031344E+04  0.10914031344E+04  0.25500000920E-02 0.  1.
       -2   -1    0    0    0  501  0.00000000000E+00  0.00000000000E+00 -0.16252824378E+04  0.16252824378E+04  0.25500000920E-02 0. -1.
    10030    2    1    2    0    0  0.00000000000E+00  0.00000000000E+00 -0.53387930337E+03  0.27166855722E+04  0.26637104549E+04 0.  0.
        2    1    3    3  502    0  0.18865659430E+03  0.12924688545E+04 -0.53244621311E+03  0.14105197695E+04  0.25500000920E-02 0. -1.
       -2    1    3    3    0  502 -0.18865659430E+03 -0.12924688545E+04 -0.14330902556E+01  0.13061658027E+04  0.25500000920E-02 0.  1.
</event>
<event>
 5   0  0.4846214E-06  0.2699899E+04  0.7818609E-02  0.8335038E-01
       -1   -1    0    0    0  501  0.00000000000E+00  0.00000000000E+00  0.14492656009E+04  0.14492656010E+04  0.50400001928E-02 0. -1.
        1   -1    0    0  501    0  0.00000000000E+00  0.00000000000E+00 -0.12574390211E+04  0.12574390211E+04  0.50400001928E-02 0.  1.
    10030    2    1    2    0    0  0.00000000000E+00  0.00000000000E+00  0.19182657988E+03  0.27067046220E+04  0.26998986044E+04 0.  0.
        2    1    3    3  502    0 -0.50680733372E+03 -0.46594594684E+03 -0.10682218457E+04  0.12708490117E+04  0.25500000920E-02 0.  1.
       -2    1    3    3    0  502  0.50680733372E+03  0.46594594684E+03  0.12600484256E+04  0.14358556103E+04  0.25500000920E-02 0. -1.
</event>
<event>
 5   0  0.1261364E-05  0.2705719E+04  0.7818609E-02  0.8333152E-01
        2   -1    0    0  501    0  0.00000000000E+00  0.00000000000E+00  0.92721813590E+03  0.92721813590E+03  0.25500000920E-02 0. -1.
       -2   -1    0    0    0  501  0.00000000000E+00  0.00000000000E+00 -0.19738918030E+04  0.19738918030E+04  0.25500000920E-02 0.  1.
    10030    2    1    2    0    0  0.00000000000E+00  0.00000000000E+00 -0.10466736672E+04  0.29011099390E+04  0.27057185945E+04 0.  0.
        5    1    3    3  502    0  0.49738692898E+03 -0.12570086892E+04 -0.46719552591E+03  0.14303000913E+04  0.46999998093E+01 0. -1.
       -5    1    3    3    0  502 -0.49738692898E+03  0.12570086892E+04 -0.57947814124E+03  0.14708098476E+04  0.46999998093E+01 0.  1.
</event>
<event>
 5   0  0.1286641E-05  0.2693671E+04  0.7818609E-02  0.8337061E-01
        2   -1    0    0  501    0  0.00000000000E+00  0.00000000000E+00  0.19094786404E+04  0.19094786404E+04  0.25500000920E-02 0.  1.
       -2   -1    0    0    0  501  0.00000000000E+00  0.00000000000E+00 -0.94997963769E+03  0.94997963769E+03  0.25500000920E-02 0. -1.
    10030    2    1    2    0    0  0.00000000000E+00  0.00000000000E+00  0.95949900267E+03  0.28594582781E+04  0.26936709724E+04 0.  0.
        4    1    3    3  502    0 -0.11016942562E+04  0.76136007710E+03  0.32751902755E+03  0.13786477895E+04  0.12699999809E+01 0.  1.
       -4    1    3    3    0  502  0.11016942562E+04 -0.76136007710E+03  0.63197997512E+03  0.14808104886E+04  0.12699999809E+01 0. -1.
</event>
<event>
 5   0  0.1286641E-05  0.2721153E+04  0.7818609E-02  0.8328174E-01
        2   -1    0    0  501    0  0.00000000000E+00  0.00000000000E+00  0.16938570264E+04  0.16938570264E+04  0.25500000920E-02 0.  1.
       -2   -1    0    0    0  501  0.00000000000E+00  0.00000000000E+00 -0.10928718841E+04  0.10928718841E+04  0.25500000920E-02 0. -1.
    10030    2    1    2    0    0  0.00000000000E+00  0.00000000000E+00  0.60098514232E+03  0.27867289105E+04  0.27211532260E+04 0.  0.
        4    1    3    3  502    0 -0.60450061445E+03  0.24414209550E+03  0.15234826130E+04  0.16571141302E+04  0.12699999809E+01 0.  1.
       -4    1    3    3    0  502  0.60450061445E+03 -0.24414209550E+03 -0.92249747063E+03  0.11296147803E+04  0.12699999809E+01 0. -1.
</event>
<event>
 5   0  0.4824715E-06  0.2744161E+04  0.7818609E-02  0.8320817E-01
       -1   -1    0    0    0  501  0.00000000000E+00  0.00000000000E+00  0.12749897639E+04  0.12749897639E+04  0.50400001928E-02 0.  1.
        1   -1    0    0  501    0  0.00000000000E+00  0.00000000000E+00 -0.14765651243E+04  0.14765651243E+04  0.50400001928E-02 0. -1.
    10030    2    1    2    0    0  0.00000000000E+00  0.00000000000E+00 -0.20157536044E+03  0.27515548882E+04  0.27441613795E+04 0.  0.
        5    1    3    3  502    0  0.69384097117E+03  0.94975808980E+03 -0.80918078999E+03  0.14276734092E+04  0.46999998093E+01 0. -1.
       -5    1    3    3    0  502 -0.69384097117E+03 -0.94975808980E+03  0.60760542955E+03  0.13238814790E+04  0.46999998093E+01 0.  1.
</event>
<event>
 5   0  0.4188000E-06  0.2683929E+04  0.7818609E-02  0.8340238E-01
        3   -1    0    0  501    0  0.00000000000E+00  0.00000000000E+00  0.28352327491E+04  0.28352327509E+04  0.10100000352E+00 0.  1.
       -3   -1    0    0    0  501  0.00000000000E+00  0.00000000000E+00 -0.63517510247E+03  0.63517511050E+03  0.10100000352E+00 0. -1.
    10030    2    1    2    0    0  0.00000000000E+00  0.00000000000E+00  0.22000576466E+04  0.34704078614E+04  0.26839294096E+04 0.  0.
        4    1    3    3  502    0  0.89591825802E+03 -0.99362704481E+03  0.12350465951E+04  0.18207981586E+04  0.12699999809E+01 0.  1.
       -4    1    3    3    0  502 -0.89591825802E+03  0.99362704481E+03  0.96501105151E+03  0.16496097028E+04  0.12699999809E+01 0. -1.
</event>
<event>
 5   0  0.4824715E-06  0.2754264E+04  0.7818609E-02  0.8317610E-01
        1   -1    0    0  501    0  0.00000000000E+00  0.00000000000E+00  0.20324146145E+04  0.20324146145E+04  0.50400001928E-02 0. -1.
       -1   -1    0    0    0  501  0.00000000000E+00  0.00000000000E+00 -0.93312274382E+03  0.93312274383E+03  0.50400001928E-02 0.  1.
    10030    2    1    2    0    0  0.00000000000E+00  0.00000000000E+00  0.10992918707E+04  0.29655373583E+04  0.27542638230E+04 0.  0.
        5    1    3    3  502    0  0.48480172765E+03 -0.69626272954E+03 -0.61829952957E+03  0.10498242243E+04  0.46999998093E+01 0.  1.
       -5    1    3    3    0  502 -0.48480172765E+03  0.69626272954E+03  0.17175914002E+04  0.19157131340E+04  0.46999998093E+01 0. -1.
</event>
<event>
 5   0  0.1286641E-05  0.2697659E+04  0.7818609E-02  0.8335765E-01
       -2   -1    0    0    0  501  0.00000000000E+00  0.00000000000E+00  0.89840134455E+03  0.89840134456E+03  0.25500000920E-02 0. -1.
        2   -1    0    0  501    0  0.00000000000E+00  0.00000000000E+00 -0.20250870825E+04  0.20250870825E+04  0.25500000920E-02 0.  1.
    10030    2    1    2    0    0  0.00000000000E+00  0.00000000000E+00 -0.11266857380E+04  0.29234884271E+04  0.26976589538E+04 0.  0.
        4    1    3    3  502    0  0.12000363343E+04 -0.31773061228E+03 -0.11350458667E+04  0.16820733272E+04  0.12699999809E+01 0.  1.
       -4    1    3    3    0  502 -0.12000363343E+04  0.31773061228E+03  0.83601287158E+01  0.12414150999E+04  0.12699999809E+01 0. -1.
</event>
<event>
 5   0  0.1261364E-05  0.2454444E+04  0.7818609E-02  0.8419397E-01
       -2   -1    0    0    0  501  0.00000000000E+00  0.00000000000E+00  0.10973750117E+04  0.10973750117E+04  0.25500000920E-02 0.  1.
        2   -1    0    0  501    0  0.00000000000E+00  0.00000000000E+00 -0.13724335873E+04  0.13724335873E+04  0.25500000920E-02 0. -1.
    10030    2    1    2    0    0  0.00000000000E+00  0.00000000000E+00 -0.27505857557E+03  0.24698085990E+04  0.24544443966E+04 0.  0.
        5    1    3    3  502    0 -0.17673861510E+03 -0.24002603003E+03 -0.13354447280E+04  0.13683141981E+04  0.46999998093E+01 0. -1.
       -5    1    3    3    0  502  0.17673861510E+03  0.24002603003E+03  0.10603861524E+04  0.11014944010E+04  0.46999998093E+01 0.  1.
</event>
<event>
 5   0  0.5152288E-06  0.2663144E+04  0.7818609E-02  0.8347063E-01
        1   -1    0    0  501    0  0.00000000000E+00  0.00000000000E+00  0.21096044809E+04  0.21096044809E+04  0.50400001928E-02 0.  1.
       -1   -1    0    0    0  501  0.00000000000E+00  0.00000000000E+00 -0.84048190989E+03  0.84048190990E+03  0.50400001928E-02 0. -1.
    10030    2    1    2    0    0  0.00000000000E+00  0.00000000000E+00  0.12691225710E+04  0.29500863908E+04  0.26631443094E+04 0.  0.
        3    1    3    3  502    0 -0.19421800983E+03  0.10634111009E+03  0.20890676733E+04  0.21007695782E+04  0.10100000352E+00 0.  1.
       -3    1    3    3    0  502  0.19421800983E+03 -0.10634111009E+03 -0.81994510232E+03  0.84931681254E+03  0.10100000352E+00 0. -1.
</event>
<event>
 5   0  0.1286641E-05  0.2711106E+04  0.7818609E-02  0.8331411E-01
       -2   -1    0    0    0  501  0.00000000000E+00  0.00000000000E+00  0.13931560102E+04  0.13931560102E+04  0.25500000920E-02 0.  1.
        2   -1    0    0  501    0  0.00000000000E+00  0.00000000000E+00 -0.13189647304E+04  0.13189647304E+04  0.25500000920E-02 0. -1.
    10030    2    1    2    0    0  0.00000000000E+00  0.00000000000E+00  0.74191279809E+02  0.27121207406E+04  0.27111057828E+04 0.  0.
        4    1    3    3  502    0 -0.41700023476E+03 -0.12855641782E+04 -0.67621991753E+02  0.13531957725E+04  0.12699999809E+01 0. -1.
       -4    1    3    3    0  502  0.41700023476E+03  0.12855641782E+04  0.14181327156E+03  0.13589249681E+04  0.12699999809E+01 0.  1.
</event>
<event>
 5   0  0.1276517E-05  0.2699389E+04  0.7818609E-02  0.8335203E-01
        2   -1    0    0  501    0  0.00000000000E+00  0.00000000000E+00  0.18172868159E+04  0.18172868159E+04  0.25500000920E-02 0.  1.
       -2   -1    0    0    0  501  0.00000000000E+00  0.00000000000E+00 -0.10024148976E+04  0.10024148976E+04  0.25500000920E-02 0. -1.
    10030    2    1    2    0    0  0.00000000000E+00  0.00000000000E+00  0.81487191828E+03  0.28197017135E+04  0.26993890994E+04 0.  0.
        1    1    3    3  502    0 -0.49706361691E+03 -0.48145747618E+03 -0.80300508574E+03  0.10600427861E+04  0.50400001928E-02 0. -1.
       -1    1    3    3    0  502  0.49706361691E+03  0.48145747618E+03  0.16178770040E+04  0.17596589274E+04  0.50400001928E-02 0.  1.
</event>
<event>
 5   0  0.5152288E-06  0.2686365E+04  0.7818609E-02  0.8339443E-01
        1   -1    0    0  501    0  0.00000000000E+00  0.00000000000E+00  0.10768219634E+04  0.10768219634E+04  0.50400001928E-02 0. -1.
       -1   -1    0    0    0  501  0.00000000000E+00  0.00000000000E+00 -0.16754292898E+04  0.16754292898E+04  0.50400001928E-02 0.  1.
    10030    2    1    2    0    0  0.00000000000E+00  0.00000000000E+00 -0.59860732644E+03  0.27522512532E+04  0.26863648727E+04 0.  0.
        3    1    3    3  502    0 -0.12322691800E+04  0.32912594593E+03  0.13212751228E+03  0.12822904936E+04  0.10100000352E+00 0. -1.
       -3    1    3    3    0  502  0.12322691800E+04 -0.32912594593E+03 -0.73073483871E+03  0.14699607596E+04  0.10100000352E+00 0.  1.
</event>
<event>
 5   0  0.1232559E-05  0.2538480E+04  0.7818609E-02  0.8389404E-01
        2   -1    0    0  501    0  0.00000000000E+00  0.00000000000E+00  0.25541155971E+04  0.25541155971E+04  0.25500000920E-02 0.  1.
       -2   -1    0    0    0  501  0.00000000000E+00  0.00000000000E+00 -0.63073479279E+03  0.63073479279E+03  0.25500000920E-02 0. -1.
    10030    2    1    2    0    0  0.00000000000E+00  0.00000000000E+00  0.19233808044E+04  0.31848503899E+04  0.25384795228E+04 0.  0.
        3    1    3    3  502    0 -0.16959926443E+03  0.44046302876E+03  0.24399172108E+04  0.24851494112E+04  0.10100000352E+00 0.  1.
       -3    1    3    3    0  502  0.16959926443E+03 -0.44046302876E+03 -0.51653640647E+03  0.69970097872E+03  0.10100000352E+00 0. -1.
</event>
<event>
 5   0  0.5152288E-06  0.2664183E+04  0.7818609E-02  0.8346721E-01
       -1   -1    0    0    0  501  0.00000000000E+00  0.00000000000E+00  0.11504748366E+04  0.11504748366E+04  0.50400001928E-02 0. -1.
        1   -1    0    0  501    0  0.00000000000E+00  0.00000000000E+00 -0.15423781717E+04  0.15423781717E+04  0.50400001928E-02 0.  1.
    10030    2    1    2    0    0  0.00000000000E+00  0.00000000000E+00 -0.39190333509E+03  0.26928530083E+04  0.26641826326E+04 0.  0.
        3    1    3    3  502    0  0.43952120542E+03 -0.29952970765E+02 -0.14666163394E+04  0.15313522023E+04  0.10100000352E+00 0.  1.
       -3    1    3    3    0  502 -0.43952120542E+03  0.29952970765E+02  0.10747130043E+04  0.11615008059E+04  0.10100000352E+00 0. -1.
</event>
<event>
 5   0  0.4824715E-06  0.2400774E+04  0.7818609E-02  0.8439214E-01
       -1   -1    0    0    0  501  0.00000000000E+00  0.00000000000E+00  0.88914200624E+03  0.88914200625E+03  0.50400001928E-02 0.  1.
        1   -1    0    0  501    0  0.00000000000E+00  0.00000000000E+00 -0.16205831450E+04  0.16205831450E+04  0.50400001928E-02 0. -1.
    10030    2    1    2    0    0  0.00000000000E+00  0.00000000000E+00 -0.73144113879E+03  0.25097251513E+04  0.24007736660E+04 0.  0.
        5    1    3    3  502    0  0.21963515907E+03  0.56772109352E+03 -0.14472536354E+04  0.15700675203E+04  0.46999998093E+01 0. -1.
       -5    1    3    3    0  502 -0.21963515907E+03 -0.56772109352E+03  0.71581249662E+03  0.93965763097E+03  0.46999998093E+01 0.  1.
</event>
<event>
 5   0  0.4826140E-06  0.2697512E+04  0.7818609E-02  0.8335813E-01
       -1   -1    0    0    0  501  0.00000000000E+00  0.00000000000E+00  0.14122333320E+04  0.14122333321E+04  0.50400001928E-02 0.  1.
        1   -1    0    0  501    0  0.00000000000E+00  0.00000000000E+00 -0.12881320495E+04  0.12881320496E+04  0.50400001928E-02 0. -1.
    10030    2    1    2    0    0  0.00000000000E+00  0.00000000000E+00  0.12410128250E+03  0.27003653816E+04  0.26975121994E+04 0.  0.
        1    1    3    3  502    0  0.52350262261E+02  0.12430477417E+04 -0.45930226845E+03  0.13262227611E+04  0.50400001928E-02 0. -1.
       -1    1    3    3    0  502 -0.52350262261E+02 -0.12430477417E+04  0.58340355095E+03  0.13741426205E+04  0.50400001928E-02 0.  1.
</event>
<event>
 5   0  0.4826140E-06  0.2617623E+04  0.7818609E-02  0.8362240E-01
        1   -1    0    0  501    0  0.00000000000E+00  0.00000000000E+00  0.18945242521E+04  0.18945242521E+04  0.50400001928E-02 0.  1.
       -1   -1    0    0    0  501  0.00000000000E+00  0.00000000000E+00 -0.90417823652E+03  0.90417823654E+03  0.50400001928E-02 0. -1.
    10030    2    1    2    0    0  0.00000000000E+00  0.00000000000E+00  0.99034601559E+03  0.27987024887E+04  0.26176230419E+04 0.  0.
        1    1    3    3  502    0  0.12675375186E+04 -0.26596225663E+03  0.29344019432E+03  0.13279662762E+04  0.50400001928E-02 0.  1.
       -1    1    3    3    0  502 -0.12675375186E+04  0.26596225663E+03  0.69690582127E+03  0.14707362125E+04  0.50400001928E-02 0. -1.
</event>
<event>
 5   0  0.1232559E-05  0.2683561E+04  0.7818609E-02  0.8340359E-01
        2   -1    0    0  501    0  0.00000000000E+00  0.00000000000E+00  0.13001882367E+04  0.13001882367E+04  0.25500000920E-02 0.  1.
       -2   -1    0    0    0  501  0.00000000000E+00  0.00000000000E+00 -0.13847034429E+04  0.13847034429E+04  0.25500000920E-02 0. -1.
    10030    2    1    2    0    0  0.00000000000E+00  0.00000000000E+00 -0.84515206146E+02  0.26848916796E+04  0.26835611622E+04 0.  0.
        3    1    3    3  502    0  0.10354485259E+04  0.26420831376E+03 -0.85408793337E+03  0.13680006911E+04  0.10100000352E+00 0. -1.
       -3    1    3    3    0  502 -0.10354485259E+04 -0.26420831376E+03  0.76957272723E+03  0.13168909885E+04  0.10100000352E+00 0.  1.
</event>
<event>
 5   0  0.4826140E-06  0.2610460E+04  0.7818609E-02  0.8364657E-01
       -1   -1    0    0    0  501  0.00000000000E+00  0.00000000000E+00  0.94492698906E+03  0.94492698907E+03  0.50400001928E-02 0.  1.
        1   -1    0    0  501    0  0.00000000000E+00  0.00000000000E+00 -0.18029179161E+04  0.18029179161E+04  0.50400001928E-02 0. -1.
    10030    2    1    2    0    0  0.00000000000E+00  0.00000000000E+00 -0.85799092705E+03  0.27478449052E+04  0.26104603410E+04 0.  0.
        1    1    3    3  502    0 -0.32840232102E+03 -0.56192357823E+03 -0.16199177640E+04  0.17457776933E+04  0.50400001928E-02 0. -1.
       -1    1    3    3    0  502  0.32840232102E+03  0.56192357823E+03  0.76192683697E+03  0.10020672119E+04  0.50400001928E-02 0.  1.
</event>
<event>
 5   0  0.4846214E-06  0.2702638E+04  0.7818609E-02  0.8334150E-01
       -1   -1    0    0    0  501  0.00000000000E+00  0.00000000000E+00  0.96337536581E+03  0.96337536583E+03  0.50400001928E-02 0.  1.
        1   -1    0    0  501    0  0.00000000000E+00  0.00000000000E+00 -0.18954845026E+04  0.18954845027E+04  0.50400001928E-02 0. -1.
    10030    2    1    2    0    0  0.00000000000E+00  0.00000000000E+00 -0.93210913683E+03  0.28588598685E+04  0.27026380269E+04 0.  0.
        2    1    3    3  502    0  0.13084415810E+04  0.30348028974E+03 -0.30935884864E+03  0.13783405074E+04  0.25500000920E-02 0.  1.
       -2    1    3    3    0  502 -0.13084415810E+04 -0.30348028974E+03 -0.62275028819E+03  0.14805193611E+04  0.25500000920E-02 0. -1.
</event>
<event>
 5   0  0.4824715E-06  0.2739696E+04  0.7818609E-02  0.8322239E-01
        1   -1    0    0  501    0  0.00000000000E+00  0.00000000000E+00  0.15205257962E+04  0.15205257962E+04  0.50400001928E-02 0. -1.
       -1   -1    0    0    0  501  0.00000000000E+00  0.00000000000E+00 -0.12341019248E+04  0.12341019248E+04  0.50400001928E-02 0.  1.
    10030    2    1    2    0    0  0.00000000000E+00  0.00000000000E+00  0.28642387141E+03  0.27546277210E+04  0.27396961961E+04 0.  0.
        5    1    3    3  502    0  0.27251655744E+03 -0.99599801117E+03  0.10482199972E+04  0.14714158368E+04  0.46999998093E+01 0. -1.
       -5    1    3    3    0  502 -0.27251655744E+03  0.99599801117E+03 -0.76179612580E+03  0.12832118841E+04  0.46999998093E+01 0.  1.
</event>
<event>
 5   0  0.1276517E-05  0.2716806E+04  0.7818609E-02  0.8329572E-01
       -2   -1    0    0    0  501  0.00000000000E+00  0.00000000000E+00  0.15081132821E+04  0.15081132821E+04  0.25500000920E-02 0.  1.
        2   -1    0    0  501    0  0.00000000000E+00  0.00000000000E+00 -0.12235547631E+04  0.12235547632E+04  0.25500000920E-02 0. -1.
    10030    2    1    2    0    0  0.00000000000E+00  0.00000000000E+00  0.28455851891E+03  0.27316680452E+04  0.27168063528E+04 0.  0.
        1    1    3    3  502    0 -0.10875151511E+04  0.31415007013E+02 -0.67554772118E+03  0.12806407888E+04  0.50400001928E-02 0. -1.
       -1    1    3    3    0  502  0.10875151511E+04 -0.31415007013E+02  0.96010624009E+03  0.14510272564E+04  0.50400001928E-02 0.  1.
</event>
<event>
 5   0  0.1232559E-05  0.2681602E+04  0.7818609E-02  0.8340999E-01
        2   -1    0    0  501    0  0.00000000000E+00  0.00000000000E+00  0.21187942047E+04  0.21187942047E+04  0.25500000920E-02 0.  1.
       -2   -1    0    0    0  501  0.00000000000E+00  0.00000000000E+00 -0.84847639982E+03  0.84847639983E+03  0.25500000920E-02 0. -1.
    10030    2    1    2    0    0  0.00000000000E+00  0.00000000000E+00  0.12703178049E+04  0.29672706046E+04  0.26816016697E+04 0.  0.
        3    1    3    3  502    0  0.54815143274E+03 -0.38268032242E+03 -0.65090829380E+03  0.93305725415E+03  0.10100000352E+00 0. -1.
       -3    1    3    3    0  502 -0.54815143274E+03  0.38268032242E+03  0.19212260987E+04  0.20342133504E+04  0.10100000352E+00 0.  1.
</event>
<event>
 5   0  0.4756800E-06  0.2677576E+04  0.7818609E-02  0.8342318E-01
        1   -1    0    0  501    0  0.00000000000E+00  0.00000000000E+00  0.21808063610E+04  0.21808063610E+04  0.50400001928E-02 0.  1.
       -1   -1    0    0    0  501  0.00000000000E+00  0.00000000000E+00 -0.82187613880E+03  0.82187613882E+03  0.50400001928E-02 0. -1.
    10030    2    1    2    0    0  0.00000000000E+00  0.00000000000E+00  0.13589302222E+04  0.30026824998E+04  0.26775755537E+04 0.  0.
        4    1    3    3  502    0  0.62286763250E+03  0.89719224772E+03 -0.18877137463E+03  0.11084016699E+04  0.12699999809E+01 0. -1.
       -4    1    3    3    0  502 -0.62286763250E+03 -0.89719224772E+03  0.15477015968E+04  0.18942808299E+04  0.12699999809E+01 0.  1.
</event>
<event>
 5   0  0.4846214E-06  0.2769908E+04  0.7818609E-02  0.8312672E-01
       -1   -1    0    0    0  501  0.00000000000E+00  0.00000000000E+00  0.13336493253E+04  0.13336493253E+04  0.50400001928E-02 0.  1.
        1   -1    0    0  501    0  0.00000000000E+00  0.00000000000E+00 -0.14382324881E+04  0.14382324881E+04  0.50400001928E-02 0. -1.
    10030    2    1    2    0    0  0.00000000000E+00  0.00000000000E+00 -0.10458316281E+03  0.27718818134E+04  0.27699081482E+04 0.  0.
        2    1    3    3  502    0  0.10979580916E+04 -0.58898922468E+03  0.55285204916E+03  0.13631088240E+04  0.25500000920E-02 0.  1.
       -2    1    3    3    0  502 -0.10979580916E+04  0.58898922468E+03 -0.65743521197E+03  0.14087729894E+04  0.25500000920E-02 0. -1.
</event>
<event>
 5   0  0.4756800E-06  0.2625703E+04  0.7818609E-02  0.8359522E-01
       -1   -1    0    0    0  501  0.00000000000E+00  0.00000000000E+00  0.83965452515E+03  0.83965452517E+03  0.50400001928E-02 0.  1.
        1   -1    0    0  501    0  0.00000000000E+00  0.00000000000E+00 -0.20527243810E+04  0.20527243810E+04  0.50400001928E-02 0. -1.
    10030    2    1    2    0    0  0.00000000000E+00  0.00000000000E+00 -0.12130698558E+04  0.28923789062E+04  0.26257031937E+04 0.  0.
        4    1    3    3  502    0  0.20329307173E+03  0.16873411190E+03  0.81006825952E+03  0.85206306781E+03  0.12699999809E+01 0.  1.
       -4    1    3    3    0  502 -0.20329307173E+03 -0.16873411190E+03 -0.20231381154E+04  0.20403158384E+04  0.12699999809E+01 0. -1.
</event>
<event>
 5   0  0.4826140E-06  0.2697292E+04  0.7818609E-02  0.8335884E-01
        1   -1    0    0  501    0  0.00000000000E+00  0.00000000000E+00  0.20473015626E+04  0.20473015626E+04  0.50400001928E-02 0.  1.
       -1   -1    0    0    0  501  0.00000000000E+00  0.00000000000E+00 -0.88841163797E+03  0.88841163798E+03  0.50400001928E-02 0. -1.
    10030    2    1    2    0    0  0.00000000000E+00  0.00000000000E+00  0.11588899246E+04  0.29357132006E+04  0.26972923717E+04 0.  0.
        1    1    3    3  502    0  0.85420300370E+03  0.88900269206E+03  0.11744464168E+04  0.17027368981E+04  0.50400001928E-02 0. -1.
       -1    1    3    3    0  502 -0.85420300370E+03 -0.88900269206E+03 -0.15556492233E+02  0.12329763025E+04  0.50400001928E-02 0.  1.
</event>
<event>
 5   0  0.4826140E-06  0.2690504E+04  0.7818609E-02  0.8338093E-01
        1   -1    0    0  501    0  0.00000000000E+00  0.00000000000E+00  0.24831361181E+04  0.24831361181E+04  0.50400001928E-02 0. -1.
       -1   -1    0    0    0  501  0.00000000000E+00  0.00000000000E+00 -0.72879722975E+03  0.72879722977E+03  0.50400001928E-02 0.  1.
    10030    2    1    2    0    0  0.00000000000E+00  0.00000000000E+00  0.17543388884E+04  0.32119333479E+04  0.26905038368E+04 0.  0.
        1    1    3    3  502    0 -0.20424961194E+03  0.50440975668E+03 -0.59152719437E+03  0.80377330654E+03  0.50400001928E-02 0.  1.
       -1    1    3    3    0  502  0.20424961194E+03 -0.50440975668E+03  0.23458660827E+04  0.24081600414E+04  0.50400001928E-02 0. -1.
</event>
<event>
 5   0  0.1286641E-05  0.2697988E+04  0.7818609E-02  0.8335658E-01
        2   -1    0    0  501    0  0.00000000000E+00  0.00000000000E+00  0.14977514349E+04  0.14977514349E+04  0.25500000920E-02 0.  1.
       -2   -1    0    0    0  501  0.00000000000E+00  0.00000000000E+00 -0.12150108831E+04  0.12150108831E+04  0.25500000920E-02 0. -1.
    10030    2    1    2    0    0  0.00000000000E+00  0.00000000000E+00  0.28274055178E+03  0.27127623180E+04  0.26979876156E+04 0.  0.
        4    1    3    3  502    0 -0.11608516174E+04 -0.68671667964E+03  0.16653541670E+03  0.13590040227E+04  0.12699999809E+01 0. -1.
       -4    1    3    3    0  502  0.11608516174E+04  0.68671667964E+03  0.11620513508E+03  0.13537582953E+04  0.12699999809E+01 0.  1.
</event>
<event>
 5   0  0.1286641E-05  0.2691895E+04  0.7818609E-02  0.8337639E-01
        2   -1    0    0  501    0  0.00000000000E+00  0.00000000000E+00  0.13147432909E+04  0.13147432909E+04  0.25500000920E-02 0. -1.
       -2   -1    0    0    0  501  0.00000000000E+00  0.00000000000E+00 -0.13778926972E+04  0.13778926972E+04  0.25500000920E-02 0.  1.
    10030    2    1    2    0    0  0.00000000000E+00  0.00000000000E+00 -0.63149406292E+02  0.26926359882E+04  0.26918953763E+04 0.  0.
        4    1    3    3  502    0 -0.55936244069E+02 -0.34331942771E+03  0.12690047240E+04  0.13158159808E+04  0.12699999809E+01 0. -1.
       -4    1    3    3    0  502  0.55936244069E+02  0.34331942771E+03 -0.13321541303E+04  0.13768200074E+04  0.12699999809E+01 0.  1.
</event>
<event>
 5   0  0.4826140E-06  0.2645687E+04  0.7818609E-02  0.8352846E-01
        1   -1    0    0  501    0  0.00000000000E+00  0.00000000000E+00  0.10956965821E+04  0.10956965821E+04  0.50400001928E-02 0. -1.
       -1   -1    0    0    0  501  0.00000000000E+00  0.00000000000E+00 -0.15970799570E+04  0.15970799570E+04  0.50400001928E-02 0.  1.
    10030    2    1    2    0    0  0.00000000000E+00  0.00000000000E+00 -0.50138337497E+03  0.26927765391E+04  0.26456870943E+04 0.  0.
        1    1    3    3  502    0  0.34161998743E+03  0.11298225813E+04 -0.85857546732E+03  0.14595736070E+04  0.50400001928E-02 0.  1.
       -1    1    3    3    0  502 -0.34161998743E+03 -0.11298225813E+04  0.35719209235E+03  0.12332029322E+04  0.50400001928E-02 0. -1.
</event>
<event>
 5   0  0.4756800E-06  0.2760770E+04  0.7818609E-02  0.8315552E-01
       -1   -1    0    0    0  501  0.00000000000E+00  0.00000000000E+00  0.96430571119E+03  0.96430571120E+03  0.50400001928E-02 0. -1.
        1   -1    0    0  501    0  0.00000000000E+00  0.00000000000E+00 -0.19759939850E+04  0.19759939851E+04  0.50400001928E-02 0.  1.
    10030    2    1    2    0    0  0.00000000000E+00  0.00000000000E+00 -0.10116882739E+04  0.29402996963E+04  0.27607696645E+04 0.  0.
        4    1    3    3  502    0 -0.90764972909E+03 -0.75217808596E+03  0.25909639794E+03  0.12069517223E+04  0.12699999809E+01 0. -1.
       -4    1    3    3    0  502  0.90764972909E+03  0.75217808596E+03 -0.12707846718E+04  0.17333479739E+04  0.12699999809E+01 0.  1.
</event>
<event>
 5   0  0.1286641E-05  0.2922317E+04  0.7818609E-02  0.8266268E-01
        2   -1    0    0  501    0  0.00000000000E+00  0.00000000000E+00  0.21445436703E+04  0.21445436703E+04  0.25500000920E-02 0.  1.
       -2   -1    0    0    0  501  0.00000000000E+00  0.00000000000E+00 -0.99554211347E+03  0.99554211347E+03  0.25500000920E-02 0. -1.
    10030    2    1    2    0    0  0.00000000000E+00  0.00000000000E+00  0.11490015568E+04  0.31400857838E+04  0.29223165728E+04 0.  0.
        4    1    3    3  502    0 -0.57034379433E+03 -0.74132248512E+03 -0.63170686012E+03  0.11286745504E+04  0.12699999809E+01 0. -1.
       -4    1    3    3    0  502  0.57034379433E+03  0.74132248512E+03  0.17807084170E+04  0.20114112334E+04  0.12699999809E+01 0.  1.
</event>
<event>
 5   0  0.1286641E-05  0.2631717E+04  0.7818609E-02  0.8357507E-01
        2   -1    0    0  501    0  0.00000000000E+00  0.00000000000E+00  0.14745190134E+04  0.14745190134E+04  0.25500000920E-02 0.  1.
       -2   -1    0    0    0  501  0.00000000000E+00  0.00000000000E+00 -0.11742703759E+04  0.11742703759E+04  0.25500000920E-02 0. -1.
    10030    2    1    2    0    0  0.00000000000E+00  0.00000000000E+00  0.30024863744E+03  0.26487893893E+04  0.26317173071E+04 0.  0.
        4    1    3    3  502    0 -0.79724507495E+03  0.31417950022E+03  0.11551881538E+04  0.14383218526E+04  0.12699999809E+01 0.  1.
       -4    1    3    3    0  502  0.79724507495E+03 -0.31417950022E+03 -0.85493951641E+03  0.12104675367E+04  0.12699999809E+01 0. -1.
</event>
<event>
 5   0  0.1261364E-05  0.2710315E+04  0.7818609E-02  0.8331666E-01
        2   -1    0    0  501    0  0.00000000000E+00  0.00000000000E+00  0.22734057680E+04  0.22734057680E+04  0.25500000920E-02 0.  1.
       -2   -1    0    0    0  501  0.00000000000E+00  0.00000000000E+00 -0.80779754764E+03  0.80779754765E+03  0.25500000920E-02 0. -1.
    10030    2    1    2    0    0  0.00000000000E+00  0.00000000000E+00  0.14656082203E+04  0.30812033156E+04  0.27103148187E+04 0.  0.
        5    1    3    3  502    0 -0.76197289132E+03  0.21829248323E+03 -0.51678024357E+03  0.94622312669E+03  0.46999998093E+01 0. -1.
       -5    1    3    3    0  502  0.76197289132E+03 -0.21829248323E+03  0.19823884639E+04  0.21349801889E+04  0.46999998093E+01 0.  1.
</event>
<event>
 5   0  0.1276517E-05  0.2695777E+04  0.7818609E-02  0.8336376E-01
        2   -1    0    0  501    0  0.00000000000E+00  0.00000000000E+00  0.16288023181E+04  0.16288023181E+04  0.25500000920E-02 0. -1.
       -2   -1    0    0    0  501  0.00000000000E+00  0.00000000000E+00 -0.11154231941E+04  0.11154231941E+04  0.25500000920E-02 0.  1.
    10030    2    1    2    0    0  0.00000000000E+00  0.00000000000E+00  0.51337912401E+03  0.27442255122E+04  0.26957773530E+04 0.  0.
        1    1    3    3  502    0 -0.13918631507E+03 -0.61207409615E+03  0.14709368689E+04  0.15992694588E+04  0.50400001928E-02 0. -1.
       -1    1    3    3    0  502  0.13918631507E+03  0.61207409615E+03 -0.95755774489E+03  0.11449560534E+04  0.50400001928E-02 0.  1.
</event>
<event>
 5   0  0.4824715E-06  0.2666506E+04  0.7818609E-02  0.8345955E-01
       -1   -1    0    0    0  501  0.00000000000E+00  0.00000000000E+00  0.91704810887E+03  0.91704810889E+03  0.50400001928E-02 0. -1.
        1   -1    0    0  501    0  0.00000000000E+00  0.00000000000E+00 -0.19383534277E+04  0.19383534277E+04  0.50400001928E-02 0.  1.
    10030    2    1    2    0    0  0.00000000000E+00  0.00000000000E+00 -0.10213053188E+04  0.28554015366E+04  0.26665058374E+04 0.  0.
        5    1    3    3  502    0  0.96697403478E+03 -0.26532033607E+03 -0.14515961910E+04  0.17642526056E+04  0.46999998093E+01 0.  1.
       -5    1    3    3    0  502 -0.96697403478E+03  0.26532033607E+03  0.43029087227E+03  0.10911489309E+04  0.46999998093E+01 0. -1.
</event>
<event>
 5   0  0.1261364E-05  0.2727316E+04  0.7818609E-02  0.8326196E-01
       -2   -1    0    0    0  501  0.00000000000E+00  0.00000000000E+00  0.11167359584E+04  0.11167359584E+04  0.25500000920E-02 0. -1.
        2   -1    0    0  501    0  0.00000000000E+00  0.00000000000E+00 -0.16651776565E+04  0.16651776565E+04  0.25500000920E-02 0.  1.
    10030    2    1    2    0    0  0.00000000000E+00  0.00000000000E+00 -0.54844169806E+03  0.27819136149E+04  0.27273164585E+04 0.  0.
        5    1    3    3  502    0  0.42549018583E+03 -0.24737837267E+03  0.10229700685E+04  0.11352214799E+04  0.46999998093E+01 0. -1.
       -5    1    3    3    0  502 -0.42549018583E+03  0.24737837267E+03 -0.15714117665E+04  0.16466921350E+04  0.46999998093E+01 0.  1.
</event>
<event>
 5   0  0.4846214E-06  0.2667645E+04  0.7818609E-02  0.8345580E-01
       -1   -1    0    0    0  501  0.00000000000E+00  0.00000000000E+00  0.87045307528E+03  0.87045307530E+03  0.50400001928E-02 0.  1.
        1   -1    0    0  501    0  0.00000000000E+00  0.00000000000E+00 -0.20438575187E+04  0.20438575187E+04  0.50400001928E-02 0. -1.
    10030    2    1    2    0    0  0.00000000000E+00  0.00000000000E+00 -0.11734044435E+04  0.29143105940E+04  0.26676447010E+04 0.  0.
        2    1    3    3  502    0 -0.11936775639E+04 -0.33997126835E+03 -0.11203753672E+04  0.16720309666E+04  0.25500000920E-02 0.  1.
       -2    1    3    3    0  502  0.11936775639E+04  0.33997126835E+03 -0.53029076242E+02  0.12422796274E+04  0.25500000920E-02 0. -1.
</event>
<event>
 5   0  0.1261364E-05  0.2728480E+04  0.7818609E-02  0.8325823E-01
        2   -1    0    0  501    0  0.00000000000E+00  0.00000000000E+00  0.75585581404E+03  0.75585581404E+03  0.25500000920E-02 0. -1.
       -2   -1    0    0    0  501  0.00000000000E+00  0.00000000000E+00 -0.24623095724E+04  0.24623095724E+04  0.25500000920E-02 0.  1.
    10030    2    1    2    0    0  0.00000000000E+00  0.00000000000E+00 -0.17064537584E+04  0.32181653865E+04  0.27284801676E+04 0.  0.
        5    1    3    3  502    0 -0.31325607504E+03 -0.97392352450E+03 -0.19176781259E+04  0.21735150988E+04  0.46999998093E+01 0.  1.
       -5    1    3    3    0  502  0.31325607504E+03  0.97392352450E+03  0.21122436751E+03  0.10446502877E+04  0.46999998093E+01 0. -1.
</event>
<event>
 5   0  0.5152288E-06  0.2729087E+04  0.7818609E-02  0.8325629E-01
        1   -1    0    0  501    0  0.00000000000E+00  0.00000000000E+00  0.11319354645E+04  0.11319354646E+04  0.50400001928E-02 0. -1.
       -1   -1    0    0    0  501  0.00000000000E+00  0.00000000000E+00 -0.16449515054E+04  0.16449515054E+04  0.50400001928E-02 0.  1.
    10030    2    1    2    0    0  0.00000000000E+00  0.00000000000E+00 -0.51301604086E+03  0.27768869700E+04  0.27290869876E+04 0.  0.
        3    1    3    3  502    0 -0.13022958153E+04 -0.10911277951E+03  0.14292196037E+03  0.13146507849E+04  0.10100000352E+00 0. -1.
       -3    1    3    3    0  502  0.13022958153E+04  0.10911277951E+03 -0.65593800124E+03  0.14622361851E+04  0.10100000352E+00 0.  1.
</event>
<event>
 5   0  0.4756800E-06  0.2471144E+04  0.7818609E-02  0.8413338E-01
       -1   -1    0    0    0  501  0.00000000000E+00  0.00000000000E+00  0.11403486964E+04  0.11403486964E+04  0.50400001928E-02 0. -1.
        1   -1    0    0  501    0  0.00000000000E+00  0.00000000000E+00 -0.13387470991E+04  0.13387470991E+04  0.50400001928E-02 0.  1.
    10030    2    1    2    0    0  0.00000000000E+00  0.00000000000E+00 -0.19839840269E+03  0.24790957956E+04  0.24711442769E+04 0.  0.
        4    1    3    3  502    0 -0.54141040430E+03  0.96193839325E+03 -0.65613072308E+03  0.12841183111E+04  0.12699999809E+01 0. -1.
       -4    1    3    3    0  502  0.54141040430E+03 -0.96193839325E+03  0.45773232040E+03  0.11949774844E+04  0.12699999809E+01 0.  1.
</event>
<event>
 5   0  0.5152288E-06  0.2723508E+04  0.7818609E-02  0.8327418E-01
       -1   -1    0    0    0  501  0.00000000000E+00  0.00000000000E+00  0.14601911975E+04  0.14601911975E+04  0.50400001928E-02 0. -1.
        1   -1    0    0  501    0  0.00000000000E+00  0.00000000000E+00 -0.12699523955E+04  0.12699523955E+04  0.50400001928E-02 0.  1.
    10030    2    1    2    0    0  0.00000000000E+00  0.00000000000E+00  0.19023880204E+03  0.27301435930E+04  0.27235075246E+04 0.  0.
        3    1    3    3  502    0  0.58592579502E+03  0.76938589181E+03  0.10561574089E+04  0.14320377685E+04  0.10100000352E+00 0. -1.
       -3    1    3    3    0  502 -0.58592579502E+03 -0.76938589181E+03 -0.86591860687E+03  0.12981058245E+04  0.10100000352E+00 0.  1.
</event>
<event>
 5   0  0.5152288E-06  0.2669750E+04  0.7818609E-02  0.8344887E-01
       -1   -1    0    0    0  501  0.00000000000E+00  0.00000000000E+00  0.81988832813E+03  0.81988832814E+03  0.50400001928E-02 0. -1.
        1   -1    0    0  501    0  0.00000000000E+00  0.00000000000E+00 -0.21733340155E+04  0.21733340155E+04  0.50400001928E-02 0.  1.
    10030    2    1    2    0    0  0.00000000000E+00  0.00000000000E+00 -0.13534456874E+04  0.29932223437E+04  0.26697499452E+04 0.  0.
        3    1    3    3  502    0  0.29726715073E+03  0.32079386169E+03 -0.20907276675E+04  0.21359818937E+04  0.10100000352E+00 0.  1.
       -3    1    3    3    0  502 -0.29726715073E+03 -0.32079386169E+03  0.73728198010E+03  0.85724044992E+03  0.10100000352E+00 0. -1.
</event>
<event>
 5   0  0.1220908E-05  0.2962494E+04  0.7818609E-02  0.8254523E-01
       -2   -1    0    0    0  501  0.00000000000E+00  0.00000000000E+00  0.21998248797E+04  0.21998248797E+04  0.25500000920E-02 0. -1.
        2   -1    0    0  501    0  0.00000000000E+00  0.00000000000E+00 -0.99739416773E+03  0.99739416774E+03  0.25500000920E-02 0.  1.
    10030    2    1    2    0    0  0.00000000000E+00  0.00000000000E+00  0.12024307119E+04  0.31972190474E+04  0.29624938852E+04 0.  0.
        2    1    3    3  502    0 -0.82475632529E+03  0.10567293168E+04 -0.78951611010E+02  0.13428079542E+04  0.25500000920E-02 0.  1.
       -2    1    3    3    0  502  0.82475632529E+03 -0.10567293168E+04  0.12813823230E+04  0.18544110932E+04  0.25500000920E-02 0. -1.
</event>
<event>
 5   0  0.4824715E-06  0.2573272E+04  0.7818609E-02  0.8377337E-01
       -1   -1    0    0    0  501  0.00000000000E+00  0.00000000000E+00  0.12827535117E+04  0.12827535117E+04  0.50400001928E-02 0. -1.
        1   -1    0    0  501    0  0.00000000000E+00  0.00000000000E+00 -0.12905306787E+04  0.12905306787E+04  0.50400001928E-02 0.  1.
    10030    2    1    2    0    0  0.00000000000E+00  0.00000000000E+00 -0.77771669778E+01  0.25732841904E+04  0.25732724380E+04 0.  0.
        5    1    3    3  502    0 -0.10937149243E+04  0.65670534984E+03  0.16325408929E+03  0.12861369444E+04  0.46999998093E+01 0.  1.
       -5    1    3    3    0  502  0.10937149243E+04 -0.65670534984E+03 -0.17103125627E+03  0.12871472460E+04  0.46999998093E+01 0. -1.
</event>
<event>
 5   0  0.4846214E-06  0.2701824E+04  0.7818609E-02  0.8334413E-01
        1   -1    0    0  501    0  0.00000000000E+00  0.00000000000E+00  0.15749906357E+04  0.15749906357E+04  0.50400001928E-02 0.  1.
       -1   -1    0    0    0  501  0.00000000000E+00  0.00000000000E+00 -0.11587140147E+04  0.11587140148E+04  0.50400001928E-02 0. -1.
    10030    2    1    2    0    0  0.00000000000E+00  0.00000000000E+00  0.41627662092E+03  0.27337046504E+04  0.27018243634E+04 0.  0.
        2    1    3    3  502    0  0.75430688478E+03  0.10888402868E+04 -0.60344706306E+02  0.13259689024E+04  0.25500000920E-02 0. -1.
       -2    1    3    3    0  502 -0.75430688478E+03 -0.10888402868E+04  0.47662132723E+03  0.14077357480E+04  0.25500000920E-02 0.  1.
</event>
<event>
 5   0  0.5152288E-06  0.2847255E+04  0.7818609E-02  0.8288746E-01
       -1   -1    0    0    0  501  0.00000000000E+00  0.00000000000E+00  0.14816212308E+04  0.14816212308E+04  0.50400001928E-02 0. -1.
        1   -1    0    0  501    0  0.00000000000E+00  0.00000000000E+00 -0.13679036806E+04  0.13679036806E+04  0.50400001928E-02 0.  1.
    10030    2    1    2    0    0  0.00000000000E+00  0.00000000000E+00  0.11371755018E+03  0.28495249114E+04  0.28472549130E+04 0.  0.
        3    1    3    3  502    0  0.94668842017E+03 -0.80617591669E+03 -0.63693020159E+03  0.13970750393E+04  0.10100000352E+00 0.  1.
       -3    1    3    3    0  502 -0.94668842017E+03  0.80617591669E+03  0.75064775176E+03  0.14524498721E+04  0.10100000352E+00 0. -1.
</event>
<event>
 5   0  0.1276517E-05  0.2739538E+04  0.7818609E-02  0.8322289E-01
       -2   -1    0    0    0  501  0.00000000000E+00  0.00000000000E+00  0.11054672983E+04  0.11054672983E+04  0.25500000920E-02 0.  1.
        2   -1    0    0  501    0  0.00000000000E+00  0.00000000000E+00 -0.16972615024E+04  0.16972615024E+04  0.25500000920E-02 0. -1.
    10030    2    1    2    0    0  0.00000000000E+00  0.00000000000E+00 -0.59179420411E+03  0.28027288007E+04  0.27395379812E+04 0.  0.
        1    1    3    3  502    0  0.11081742699E+04  0.68172596497E+03  0.14231285106E+03  0.13088366787E+04  0.50400001928E-02 0.  1.
       -1    1    3    3    0  502 -0.11081742699E+04 -0.68172596497E+03 -0.73410705517E+03  0.14938921220E+04  0.50400001928E-02 0. -1.
</event>
<event>
 5   0  0.1220908E-05  0.2699190E+04  0.7818609E-02  0.8335268E-01
       -2   -1    0    0    0  501  0.00000000000E+00  0.00000000000E+00  0.11171863090E+04  0.11171863090E+04  0.25500000920E-02 0.  1.
        2   -1    0    0  501    0  0.00000000000E+00  0.00000000000E+00 -0.16303512775E+04  0.16303512775E+04  0.25500000920E-02 0. -1.
    10030    2    1    2    0    0  0.00000000000E+00  0.00000000000E+00 -0.51316496848E+03  0.27475375865E+04  0.26991896014E+04 0.  0.
        2    1    3    3  502    0  0.17028269800E+03  0.97863844879E+03 -0.11865534704E+04  0.15474619700E+04  0.25500000920E-02 0. -1.
       -2    1    3    3    0  502 -0.17028269800E+03 -0.97863844879E+03  0.67338850187E+03  0.12000756164E+04  0.25500000920E-02 0.  1.
</event>
<event>
 5   0  0.5152288E-06  0.2658608E+04  0.7818609E-02  0.8348562E-01
       -1   -1    0    0    0  501  0.00000000000E+00  0.00000000000E+00  0.55235906346E+03  0.55235906348E+03  0.50400001928E-02 0. -1.
        1   -1    0    0  501    0  0.00000000000E+00  0.00000000000E+00 -0.31990943775E+04  0.31990943775E+04  0.50400001928E-02 0.  1.
    10030    2    1    2    0    0  0.00000000000E+00  0.00000000000E+00 -0.26467353141E+04  0.37514534410E+04  0.26586077366E+04 0.  0.
        3    1    3    3  502    0  0.84277733797E+03 -0.22723073896E+03 -0.27380497576E+04  0.28738169628E+04  0.10100000352E+00 0.  1.
       -3    1    3    3    0  502 -0.84277733797E+03  0.22723073896E+03  0.91314443558E+02  0.87763647823E+03  0.10100000352E+00 0. -1.
</event>
<event>
 5   0  0.1276517E-05  0.2715039E+04  0.7818609E-02  0.8330142E-01
        2   -1    0    0  501    0  0.00000000000E+00  0.00000000000E+00  0.11994311165E+04  0.11994311165E+04  0.25500000920E-02 0. -1.
       -2   -1    0    0    0  501  0.00000000000E+00  0.00000000000E+00 -0.15364444866E+04  0.15364444866E+04  0.25500000920E-02 0.  1.
    10030    2    1    2    0    0  0.00000000000E+00  0.00000000000E+00 -0.33701337004E+03  0.27358756031E+04  0.27150390981E+04 0.  0.
        1    1    3    3  502    0  0.40709815236E+02 -0.44232645634E+03  0.11241277269E+04  0.12087072141E+04  0.50400001928E-02 0. -1.
       -1    1    3    3    0  502 -0.40709815236E+02  0.44232645634E+03 -0.14611410970E+04  0.15271683890E+04  0.50400001928E-02 0.  1.
</event>
<event>
 5   0  0.4826140E-06  0.2688638E+04  0.7818609E-02  0.8338701E-01
        1   -1    0    0  501    0  0.00000000000E+00  0.00000000000E+00  0.15400136686E+04  0.15400136686E+04  0.50400001928E-02 0.  1.
       -1   -1    0    0    0  501  0.00000000000E+00  0.00000000000E+00 -0.11734919488E+04  0.11734919488E+04  0.50400001928E-02 0. -1.
    10030    2    1    2    0    0  0.00000000000E+00  0.00000000000E+00  0.36652171981E+03  0.27135056173E+04  0.26886380501E+04 0.  0.
        1    1    3    3  502    0 -0.50462279512E+03  0.12232999725E+04 -0.55755785055E+02  0.13244680803E+04  0.50400001928E-02 0. -1.
       -1    1    3    3    0  502  0.50462279512E+03 -0.12232999725E+04  0.42227750486E+03  0.13890375370E+04  0.50400001928E-02 0.  1.
</event>
<event>
 5   0  0.5152288E-06  0.2754387E+04  0.7818609E-02  0.8317571E-01
       -1   -1    0    0    0  501  0.00000000000E+00  0.00000000000E+00  0.99594780430E+03  0.99594780431E+03  0.50400001928E-02 0.  1.
        1   -1    0    0  501    0  0.00000000000E+00  0.00000000000E+00 -0.19043782839E+04  0.19043782839E+04  0.50400001928E-02 0. -1.
    10030    2    1    2    0    0  0.00000000000E+00  0.00000000000E+00 -0.90843047960E+03  0.29003260882E+04  0.27543865890E+04 0.  0.
        3    1    3    3  502    0  0.43319265084E+03  0.54948068193E+03 -0.17032680012E+04  0.18413871908E+04  0.10100000352E+00 0. -1.
       -3    1    3    3    0  502 -0.43319265084E+03 -0.54948068193E+03  0.79483752156E+03  0.10589388974E+04  0.10100000352E+00 0.  1.
</event>
<event>
 5   0  0.1286641E-05  0.2439386E+04  0.7818609E-02  0.8424903E-01
       -2   -1    0    0    0  501  0.00000000000E+00  0.00000000000E+00  0.65304283752E+03  0.65304283752E+03  0.25500000920E-02 0.  1.
        2   -1    0    0  501    0  0.00000000000E+00  0.00000000000E+00 -0.22780299825E+04  0.22780299825E+04  0.25500000920E-02 0. -1.
    10030    2    1    2    0    0  0.00000000000E+00  0.00000000000E+00 -0.16249871450E+04  0.29310728200E+04  0.24393861226E+04 0.  0.
        4    1    3    3  502    0 -0.11790629387E+04 -0.31218378262E+03 -0.81106006567E+03  0.14647416737E+04  0.12699999809E+01 0.  1.
       -4    1    3    3    0  502  0.11790629387E+04  0.31218378262E+03 -0.81392707933E+03  0.14663311464E+04  0.12699999809E+01 0. -1.
</event>
<event>
 5   0  0.4188000E-06  0.2659236E+04  0.7818609E-02  0.8348354E-01
       -4   -1    0    0    0  501  0.00000000000E+00  0.00000000000E+00  0.12309136072E+04  0.12309142624E+04  0.12699999809E+01 0.  1.
        4   -1    0    0  501    0  0.00000000000E+00  0.00000000000E+00 -0.14362359787E+04  0.14362365402E+04  0.12699999809E+01 0. -1.
    10030    2    1    2    0    0  0.00000000000E+00  0.00000000000E+00 -0.20532237150E+03  0.26671508026E+04  0.26592360045E+04 0.  0.
        3    1    3    3  502    0 -0.56587060828E+03 -0.78176382091E+03  0.81467558698E+03  0.12629570615E+04  0.10100000352E+00 0.  1.
       -3    1    3    3    0  502  0.56587060828E+03  0.78176382091E+03 -0.10199979585E+04  0.14041937411E+04  0.10100000352E+00 0. -1.
</event>
<event>
 5   0  0.1276517E-05  0.2751129E+04  0.7818609E-02  0.8318603E-01
       -2   -1    0    0    0  501  0.00000000000E+00  0.00000000000E+00  0.84950337522E+03  0.84950337522E+03  0.25500000920E-02 0. -1.
        2   -1    0    0  501    0  0.00000000000E+00  0.00000000000E+00 -0.22273928447E+04  0.22273928447E+04  0.25500000920E-02 0.  1.
    10030    2    1    2    0    0  0.00000000000E+00  0.00000000000E+00 -0.13778894695E+04  0.30768962199E+04  0.27511290333E+04 0.  0.
        1    1    3    3  502    0 -0.46231457581E+03  0.12393438799E+04 -0.11110912155E+04  0.17274928969E+04  0.50400001928E-02 0.  1.
       -1    1    3    3    0  502  0.46231457581E+03 -0.12393438799E+04 -0.26679825400E+03  0.13494033230E+04  0.50400001928E-02 0. -1.
</event>
<event>
 5   0  0.1261364E-05  0.2655988E+04  0.7818609E-02  0.8349428E-01
       -2   -1    0    0    0  501  0.00000000000E+00  0.00000000000E+00  0.10689471895E+04  0.10689471895E+04  0.25500000920E-02 0.  1.
        2   -1    0    0  501    0  0.00000000000E+00  0.00000000000E+00 -0.16498179377E+04  0.16498179377E+04  0.25500000920E-02 0. -1.
    10030    2    1    2    0    0  0.00000000000E+00  0.00000000000E+00 -0.58087074826E+03  0.27187651272E+04  0.26559881383E+04 0.  0.
        5    1    3    3  502    0  0.42535412311E+03  0.37791972701E+03 -0.15187118879E+04  0.16218068129E+04  0.46999998093E+01 0. -1.
       -5    1    3    3    0  502 -0.42535412311E+03 -0.37791972701E+03  0.93784113959E+03  0.10969583143E+04  0.46999998093E+01 0.  1.
</event>
<event>
 5   0  0.1286641E-05  0.2701065E+04  0.7818609E-02  0.8334659E-01
        2   -1    0    0  501    0  0.00000000000E+00  0.00000000000E+00  0.12820181400E+04  0.12820181400E+04  0.25500000920E-02 0. -1.
       -2   -1    0    0    0  501  0.00000000000E+00  0.00000000000E+00 -0.14227088322E+04  0.14227088322E+04  0.25500000920E-02 0.  1.
    10030    2    1    2    0    0  0.00000000000E+00  0.00000000000E+00 -0.14069069221E+03  0.27047269722E+04  0.27010653682E+04 0.  0.
        4    1    3    3  502    0  0.89801149100E+03 -0.82153344910E+03 -0.65645502479E+03  0.13828509169E+04  0.12699999809E+01 0.  1.
       -4    1    3    3    0  502 -0.89801149100E+03  0.82153344910E+03  0.51576433258E+03  0.13218760553E+04  0.12699999809E+01 0. -1.
</event>
<event>
 5   0  0.5152288E-06  0.2701590E+04  0.7818609E-02  0.8334489E-01
        1   -1    0    0  501    0  0.00000000000E+00  0.00000000000E+00  0.13358010429E+04  0.13358010429E+04  0.50400001928E-02 0.  1.
       -1   -1    0    0    0  501  0.00000000000E+00  0.00000000000E+00 -0.13659576903E+04  0.13659576903E+04  0.50400001928E-02 0. -1.
    10030    2    1    2    0    0  0.00000000000E+00  0.00000000000E+00 -0.30156647410E+02  0.27017587333E+04  0.27015904259E+04 0.  0.
        3    1    3    3  502    0  0.80313929151E+03  0.17516295697E+03  0.10568713366E+04  0.13389144167E+04  0.10100000352E+00 0.  1.
       -3    1    3    3    0  502 -0.80313929151E+03 -0.17516295697E+03 -0.10870279840E+04  0.13628443166E+04  0.10100000352E+00 0. -1.
</event>
<event>
 5   0  0.5152288E-06  0.2734712E+04  0.7818609E-02  0.8323829E-01
        1   -1    0    0  501    0  0.00000000000E+00  0.00000000000E+00  0.77603104920E+03  0.77603104922E+03  0.50400001928E-02 0.  1.
       -1   -1    0    0    0  501  0.00000000000E+00  0.00000000000E+00 -0.24092628422E+04  0.24092628422E+04  0.50400001928E-02 0. -1.
    10030    2    1    2    0    0  0.00000000000E+00  0.00000000000E+00 -0.16332317930E+04  0.31852938914E+04  0.27347122490E+04 0.  0.
        3    1    3    3  502    0 -0.66542277540E+02 -0.34985589515E+02 -0.24068537830E+04  0.24080276180E+04  0.10100000352E+00 0. -1.
       -3    1    3    3    0  502  0.66542277540E+02  0.34985589515E+02  0.77362199000E+03  0.77726627341E+03  0.10100000352E+00 0.  1.
</event>
<event>
 5   0  0.1232559E-05  0.2695476E+04  0.7818609E-02  0.8336474E-01
        2   -1    0    0  501    0  0.00000000000E+00  0.00000000000E+00  0.15727308179E+04  0.15727308179E+04  0.25500000920E-02 0.  1.
       -2   -1    0    0    0  501  0.00000000000E+00  0.00000000000E+00 -0.11549321359E+04  0.11549321359E+04  0.25500000920E-02 0. -1.
    10030    2    1    2    0    0  0.00000000000E+00  0.00000000000E+00  0.41779868199E+03  0.27276629537E+04  0.26954757373E+04 0.  0.
        3    1    3    3  502    0  0.11783688534E+04 -0.58137545402E+03 -0.94424491693E+02  0.13173710821E+04  0.10100000352E+00 0. -1.
       -3    1    3    3    0  502 -0.11783688534E+04  0.58137545402E+03  0.51222317368E+03  0.14102918716E+04  0.10100000352E+00 0.  1.
</event>
<event>
 5   0  0.1286641E-05  0.2566405E+04  0.7818609E-02  0.8379703E-01
        2   -1    0    0  501    0  0.00000000000E+00  0.00000000000E+00  0.16616390397E+04  0.16616390397E+04  0.25500000920E-02 0.  1.
       -2   -1    0    0    0  501  0.00000000000E+00  0.00000000000E+00 -0.99095426411E+03  0.99095426411E+03  0.25500000920E-02 0. -1.
    10030    2    1    2    0    0  0.00000000000E+00  0.00000000000E+00  0.67068477564E+03  0.26525933039E+04  0.25664047162E+04 0.  0.
        4    1    3    3  502    0  0.78260147153E+03 -0.77564359456E+02 -0.71267518684E+03  0.10613146696E+04  0.12699999809E+01 0. -1.
       -4    1    3    3    0  502 -0.78260147153E+03  0.77564359456E+02  0.13833599625E+04  0.15912786342E+04  0.12699999809E+01 0.  1.
</event>
<event>
 5   0  0.4846214E-06  0.2392218E+04  0.7818609E-02  0.8442423E-01
        1   -1    0    0  501    0  0.00000000000E+00  0.00000000000E+00  0.22027799890E+04  0.22027799890E+04  0.50400001928E-02 0.  1.
       -1   -1    0    0    0  501  0.00000000000E+00  0.00000000000E+00 -0.64948691070E+03  0.64948691072E+03  0.50400001928E-02 0. -1.
    10030    2    1    2    0    0  0.00000000000E+00  0.00000000000E+00  0.15532930783E+04  0.28522668997E+04  0.23922180252E+04 0.  0.
        2    1    3    3  502    0 -0.24936490759E+03  0.34202502050E+03  0.21104967174E+04  0.21525241847E+04  0.25500000920E-02 0.  1.
       -2    1    3    3    0  502  0.24936490759E+03 -0.34202502050E+03 -0.55720363908E+03  0.69974271500E+03  0.25500000920E-02 0. -1.
</event>
<event>
 5   0  0.4826140E-06  0.2694204E+04  0.7818609E-02  0.8336888E-01
       -1   -1    0    0    0  501  0.00000000000E+00  0.00000000000E+00  0.10912527603E+04  0.10912527603E+04  0.50400001928E-02 0. -1.
        1   -1    0    0  501    0  0.00000000000E+00  0.00000000000E+00 -0.16629359687E+04  0.16629359688E+04  0.50400001928E-02 0.  1.
    10030    2    1    2    0    0  0.00000000000E+00  0.00000000000E+00 -0.57168320842E+03  0.27541887291E+04  0.26942037534E+04 0.  0.
        1    1    3    3  502    0  0.11197956449E+03 -0.22881527612E+03 -0.16380882994E+04  0.16577783718E+04  0.50400001928E-02 0.  1.
       -1    1    3    3    0  502 -0.11197956449E+03  0.22881527612E+03  0.10664050910E+04  0.10964103573E+04  0.50400001928E-02 0. -1.
</event>
<event>
 5   0  0.4846214E-06  0.2700251E+04  0.7818609E-02  0.8334924E-01
        1   -1    0    0  501    0  0.00000000000E+00  0.00000000000E+00  0.14832009320E+04  0.14832009320E+04  0.50400001928E-02 0.  1.
       -1   -1    0    0    0  501  0.00000000000E+00  0.00000000000E+00 -0.12289899174E+04  0.12289899174E+04  0.50400001928E-02 0. -1.
    10030    2    1    2    0    0  0.00000000000E+00  0.00000000000E+00  0.25421101455E+03  0.27121908494E+04  0.27002510927E+04 0.  0.
        2    1    3    3  502    0 -0.34115265938E+03  0.87995010965E+03  0.10968494033E+04  0.14469885784E+04  0.25500000920E-02 0. -1.
       -2    1    3    3    0  502  0.34115265938E+03 -0.87995010965E+03 -0.84263838872E+03  0.12652022710E+04  0.25500000920E-02 0.  1.
</event>
<event>
 5   0  0.1286641E-05  0.2660191E+04  0.7818609E-02  0.8348038E-01
       -2   -1    0    0    0  501  0.00000000000E+00  0.00000000000E+00  0.12963736218E+04  0.12963736218E+04  0.25500000920E-02 0.  1.
        2   -1    0    0  501    0  0.00000000000E+00  0.00000000000E+00 -0.13646944921E+04  0.13646944921E+04  0.25500000920E-02 0. -1.
    10030    2    1    2    0    0  0.00000000000E+00  0.00000000000E+00 -0.68320870319E+02  0.26610681138E+04  0.26601909265E+04 0.  0.
        4    1    3    3  502    0 -0.74326084604E+03  0.99625774178E+03 -0.50779956831E+03  0.13426943762E+04  0.12699999809E+01 0. -1.
       -4    1    3    3    0  502  0.74326084604E+03 -0.99625774178E+03  0.43947869799E+03  0.13183737377E+04  0.12699999809E+01 0.  1.
</event>
<event>
 5   0  0.1286641E-05  0.2678282E+04  0.7818609E-02  0.8342086E-01
       -2   -1    0    0    0  501  0.00000000000E+00  0.00000000000E+00  0.59944445919E+03  0.59944445919E+03  0.25500000920E-02 0.  1.
        2   -1    0    0  501    0  0.00000000000E+00  0.00000000000E+00 -0.29916019585E+04  0.29916019585E+04  0.25500000920E-02 0. -1.
    10030    2    1    2    0    0  0.00000000000E+00  0.00000000000E+00 -0.23921574993E+04  0.35910464177E+04  0.26782824482E+04 0.  0.
        4    1    3    3  502    0 -0.22393906047E+03 -0.66694266935E+03  0.33169223090E+03  0.77780625862E+03  0.12699999809E+01 0.  1.
       -4    1    3    3    0  502  0.22393906047E+03  0.66694266935E+03 -0.27238497302E+04  0.28132401591E+04  0.12699999809E+01 0. -1.
</event>
<event>
 5   0  0.1261364E-05  0.2694845E+04  0.7818609E-02  0.8336679E-01
        2   -1    0    0  501    0  0.00000000000E+00  0.00000000000E+00  0.22182352238E+04  0.22182352238E+04  0.25500000920E-02 0.  1.
       -2   -1    0    0    0  501  0.00000000000E+00  0.00000000000E+00 -0.81846500970E+03  0.81846500970E+03  0.25500000920E-02 0. -1.
    10030    2    1    2    0    0  0.00000000000E+00  0.00000000000E+00  0.13997702141E+04  0.30367002335E+04  0.26948453863E+04 0.  0.
        5    1    3    3  502    0  0.49458944742E+03  0.10452836712E+04 -0.79430428540E+02  0.11591237888E+04  0.46999998093E+01 0. -1.
       -5    1    3    3    0  502 -0.49458944742E+03 -0.10452836712E+04  0.14792006427E+04  0.18775764448E+04  0.46999998093E+01 0.  1.
</event>
<event>
 5   0  0.5152288E-06  0.2712077E+04  0.7818609E-02  0.8331097E-01
        1   -1    0    0  501    0  0.00000000000E+00  0.00000000000E+00  0.14940241654E+04  0.14940241654E+04  0.50400001928E-02 0.  1.
       -1   -1    0    0    0  501  0.00000000000E+00  0.00000000000E+00 -0.12307970253E+04  0.12307970253E+04  0.50400001928E-02 0. -1.
    10030    2    1    2    0    0  0.00000000000E+00  0.00000000000E+00  0.26322714009E+03  0.27248211906E+04  0.27120770626E+04 0.  0.
        3    1    3    3  502    0  0.90824502298E+03 -0.89689354695E+02 -0.87603859389E+03  0.12650679153E+04  0.10100000352E+00 0. -1.
       -3    1    3    3    0  502 -0.90824502298E+03  0.89689354695E+02  0.11392657340E+04  0.14597532754E+04  0.10100000352E+00 0.  1.
</event>
<event>
 5   0  0.4846214E-06  0.2693358E+04  0.7818609E-02  0.8337163E-01
       -1   -1    0    0    0  501  0.00000000000E+00  0.00000000000E+00  0.19058792711E+04  0.19058792711E+04  0.50400001928E-02 0. -1.
        1   -1    0    0  501    0  0.00000000000E+00  0.00000000000E+00 -0.95155222249E+03  0.95155222251E+03  0.50400001928E-02 0.  1.
    10030    2    1    2    0    0  0.00000000000E+00  0.00000000000E+00  0.95432704864E+03  0.28574314936E+04  0.26933575004E+04 0.  0.
        2    1    3    3  502    0 -0.13387506160E+04  0.11725490270E+03  0.38503006468E+03  0.13979449470E+04  0.25500000920E-02 0. -1.
       -2    1    3    3    0  502  0.13387506160E+04 -0.11725490270E+03  0.56929698396E+03  0.14594865467E+04  0.25500000920E-02 0.  1.
</event>
<event>
 5   0  0.1276517E-05  0.2699966E+04  0.7818609E-02  0.8335016E-01
        2   -1    0    0  501    0  0.00000000000E+00  0.00000000000E+00  0.16204831520E+04  0.16204831520E+04  0.25500000920E-02 0. -1.
       -2   -1    0    0    0  501  0.00000000000E+00  0.00000000000E+00 -0.11246361777E+04  0.11246361777E+04  0.25500000920E-02 0.  1.
    10030    2    1    2    0    0  0.00000000000E+00  0.00000000000E+00  0.49584697426E+03  0.27451193297E+04  0.26999659095E+04 0.  0.
        1    1    3    3  502    0  0.40697587868E+03  0.86716438170E+03  0.12150680039E+04  0.15472535942E+04  0.50400001928E-02 0. -1.
       -1    1    3    3    0  502 -0.40697587868E+03 -0.86716438170E+03 -0.71922102966E+03  0.11978657355E+04  0.50400001928E-02 0.  1.
</event>
<event>
 5   0  0.4756800E-06  0.2691185E+04  0.7818609E-02  0.8337871E-01
       -1   -1    0    0    0  501  0.00000000000E+00  0.00000000000E+00  0.82142519653E+03  0.82142519655E+03  0.50400001928E-02 0. -1.
        1   -1    0    0  501    0  0.00000000000E+00  0.00000000000E+00 -0.22042416943E+04  0.22042416943E+04  0.50400001928E-02 0.  1.
    10030    2    1    2    0    0  0.00000000000E+00  0.00000000000E+00 -0.13828164978E+04  0.30256668909E+04  0.26911853649E+04 0.  0.
        4    1    3    3  502    0  0.15379320312E+03 -0.30078557175E+03  0.77297122194E+03  0.84357005183E+03  0.12699999809E+01 0. -1.
       -4    1    3    3    0  502 -0.15379320312E+03  0.30078557175E+03 -0.21557877198E+04  0.21820968391E+04  0.12699999809E+01 0.  1.
</event>
<event>
 5   0  0.1286641E-05  0.2684754E+04  0.7818609E-02  0.8339969E-01
       -2   -1    0    0    0  501  0.00000000000E+00  0.00000000000E+00  0.77841839239E+03  0.77841839239E+03  0.25500000920E-02 0.  1.
        2   -1    0    0  501    0  0.00000000000E+00  0.00000000000E+00 -0.23149202701E+04  0.23149202701E+04  0.25500000920E-02 0. -1.
    10030    2    1    2    0    0  0.00000000000E+00  0.00000000000E+00 -0.15365018777E+04  0.30933386625E+04  0.26847543762E+04 0.  0.
        4    1    3    3  502    0 -0.86590873111E+03 -0.78651599254E+03 -0.15269198802E+04  0.19235101431E+04  0.12699999809E+01 0. -1.
       -4    1    3    3    0  502  0.86590873111E+03  0.78651599254E+03 -0.95819974636E+01  0.11698285194E+04  0.12699999809E+01 0.  1.
</event>
<event>
 5   0  0.1220908E-05  0.2685902E+04  0.7818609E-02  0.8339594E-01
       -2   -1    0    0    0  501  0.00000000000E+00  0.00000000000E+00  0.87428875883E+03  0.87428875883E+03  0.25500000920E-02 0.  1.
        2   -1    0    0  501    0  0.00000000000E+00  0.00000000000E+00 -0.20628397704E+04  0.20628397704E+04  0.25500000920E-02 0. -1.
    10030    2    1    2    0    0  0.00000000000E+00  0.00000000000E+00 -0.11885510115E+04  0.29371285292E+04  0.26859021743E+04 0.  0.
        2    1    3    3  502    0 -0.85312964497E+03 -0.10099677042E+04 -0.85224939708E+03  0.15729570845E+04  0.25500000920E-02 0.  1.
       -2    1    3    3    0  502  0.85312964497E+03  0.10099677042E+04 -0.33630161446E+03  0.13641714447E+04  0.25500000920E-02 0. -1.
</event>
<event>
 5   0  0.4756800E-06  0.2709077E+04  0.7818609E-02  0.8332066E-01
        1   -1    0    0  501    0  0.00000000000E+00  0.00000000000E+00  0.19081510300E+04  0.19081510300E+04  0.50400001928E-02 0.  1.
       -1   -1    0    0    0  501  0.00000000000E+00  0.00000000000E+00 -0.96154562583E+03  0.96154562584E+03  0.50400001928E-02 0. -1.
    10030    2    1    2    0    0  0.00000000000E+00  0.00000000000E+00  0.94660540421E+03  0.28696966559E+04  0.27090767995E+04 0.  0.
        4    1    3    3  502    0  0.10333010460E+03  0.69556207205E+03  0.16996511741E+04  0.18393747397E+04  0.12699999809E+01 0.  1.
       -4    1    3    3    0  502 -0.10333010460E+03 -0.69556207205E+03 -0.75304576986E+03  0.10303219162E+04  0.12699999809E+01 0. -1.
</event>
<event>
 5   0  0.1286641E-05  0.2713240E+04  0.7818609E-02  0.8330722E-01
        2   -1    0    0  501    0  0.00000000000E+00  0.00000000000E+00  0.18951404420E+04  0.18951404420E+04  0.25500000920E-02 0. -1.
       -2   -1    0    0    0  501  0.00000000000E+00  0.00000000000E+00 -0.97112446156E+03  0.97112446156E+03  0.25500000920E-02 0.  1.
    10030    2    1    2    0    0  0.00000000000E+00  0.00000000000E+00  0.92401598042E+03  0.28662649035E+04  0.27132395702E+04 0.  0.
        4    1    3    3  502    0  0.10755895959E+04 -0.82646705848E+03  0.43898791124E+03  0.14257113230E+04  0.12699999809E+01 0. -1.
       -4    1    3    3    0  502 -0.10755895959E+04  0.82646705848E+03  0.48502806918E+03  0.14405535805E+04  0.12699999809E+01 0.  1.
</event>
<event>
 5   0  0.5152288E-06  0.2693891E+04  0.7818609E-02  0.8336990E-01
       -1   -1    0    0    0  501  0.00000000000E+00  0.00000000000E+00  0.12454128643E+04  0.12454128643E+04  0.50400001928E-02 0.  1.
        1   -1    0    0  501    0  0.00000000000E+00  0.00000000000E+00 -0.14567554417E+04  0.14567554418E+04  0.50400001928E-02 0. -1.
    10030    2    1    2    0    0  0.00000000000E+00  0.00000000000E+00 -0.21134257745E+03  0.27021683061E+04  0.26938908421E+04 0.  0.
        3    1    3    3  502    0  0.41249015352E+03 -0.12686946117E+04 -0.29205885365E+03  0.13656619379E+04  0.10100000352E+00 0. -1.
       -3    1    3    3    0  502 -0.41249015352E+03  0.12686946117E+04  0.80716276201E+02  0.13365063681E+04  0.10100000352E+00 0.  1.
</event>
<event>
 5   0  0.1261364E-05  0.2675593E+04  0.7818609E-02  0.8342968E-01
       -2   -1    0    0    0  501  0.00000000000E+00  0.00000000000E+00  0.14178132135E+04  0.14178132135E+04  0.25500000920E-02 0.  1.
        2   -1    0    0  501    0  0.00000000000E+00  0.00000000000E+00 -0.12622955421E+04  0.12622955421E+04  0.25500000920E-02 0. -1.
    10030    2    1    2    0    0  0.00000000000E+00  0.00000000000E+00  0.15551767142E+03  0.26801087556E+04  0.26755928680E+04 0.  0.
        5    1    3    3  502    0 -0.10264938330E+04 -0.22068480245E+03  0.90818511716E+03  0.13882412140E+04  0.46999998093E+01 0.  1.
       -5    1    3    3    0  502  0.10264938330E+04  0.22068480245E+03 -0.75266744573E+03  0.12918675416E+04  0.46999998093E+01 0. -1.
</event>
<event>
 5   0  0.1261364E-05  0.2671174E+04  0.7818609E-02  0.8344419E-01
        2   -1    0    0  501    0  0.00000000000E+00  0.00000000000E+00  0.13045230554E+04  0.13045230554E+04  0.25500000920E-02 0.  1.
       -2   -1    0    0    0  501  0.00000000000E+00  0.00000000000E+00 -0.13673905061E+04  0.13673905061E+04  0.25500000920E-02 0. -1.
    10030    2    1    2    0    0  0.00000000000E+00  0.00000000000E+00 -0.62867450672E+02  0.26719135616E+04  0.26711738551E+04 0.  0.
        5    1    3    3  502    0  0.21692737504E+03 -0.77195440062E+03  0.10369441013E+04  0.13108189203E+04  0.46999998093E+01 0.  1.
       -5    1    3    3    0  502 -0.21692737504E+03  0.77195440062E+03 -0.10998115519E+04  0.13610946413E+04  0.46999998093E+01 0. -1.
</event>
<event>
 5   0  0.1276517E-05  0.2740826E+04  0.7818609E-02  0.8321879E-01
       -2   -1    0    0    0  501  0.00000000000E+00  0.00000000000E+00  0.78455341840E+03  0.78455341841E+03  0.25500000920E-02 0. -1.
        2   -1    0    0  501    0  0.00000000000E+00  0.00000000000E+00 -0.23937590259E+04  0.23937590259E+04  0.25500000920E-02 0.  1.
    10030    2    1    2    0    0  0.00000000000E+00  0.00000000000E+00 -0.16092056075E+04  0.31783124443E+04  0.27408260263E+04 0.  0.
        1    1    3    3  502    0  0.25576901142E+02  0.44391415839E+03  0.69857668679E+03  0.82808414141E+03  0.50400001928E-02 0. -1.
       -1    1    3    3    0  502 -0.25576901142E+02 -0.44391415839E+03 -0.23077822943E+04  0.23502283029E+04  0.50400001928E-02 0.  1.
</event>
<event>
 5   0  0.4756800E-06  0.2714277E+04  0.7818609E-02  0.8330387E-01
        1   -1    0    0  501    0  0.00000000000E+00  0.00000000000E+00  0.10804749084E+04  0.10804749084E+04  0.50400001928E-02 0. -1.
       -1   -1    0    0    0  501  0.00000000000E+00  0.00000000000E+00 -0.17046443808E+04  0.17046443808E+04  0.50400001928E-02 0.  1.
    10030    2    1    2    0    0  0.00000000000E+00  0.00000000000E+00 -0.62416947249E+03  0.27851192892E+04  0.27142774222E+04 0.  0.
        4    1    3    3  502    0 -0.11291843273E+04  0.60612054010E+03  0.14609436837E+03  0.12898777196E+04  0.12699999809E+01 0. -1.
       -4    1    3    3    0  502  0.11291843273E+04 -0.60612054010E+03 -0.77026384086E+03  0.14952415696E+04  0.12699999809E+01 0.  1.
</event>
<event>
 5   0  0.5152288E-06  0.2737751E+04  0.7818609E-02  0.8322859E-01
        1   -1    0    0  501    0  0.00000000000E+00  0.00000000000E+00  0.19201301015E+04  0.19201301015E+04  0.50400001928E-02 0. -1.
       -1   -1    0    0    0  501  0.00000000000E+00  0.00000000000E+00 -0.97588176723E+03  0.97588176724E+03  0.50400001928E-02 0.  1.
    10030    2    1    2    0    0  0.00000000000E+00  0.00000000000E+00  0.94424833423E+03  0.28960118687E+04  0.27377508702E+04 0.  0.
        3    1    3    3  502    0  0.85206786284E+03 -0.10132695567E+04  0.84021226983E+03  0.15680215260E+04  0.10100000352E+00 0. -1.
       -3    1    3    3    0  502 -0.85206786284E+03  0.10132695567E+04  0.10403606440E+03  0.13279903427E+04  0.10100000352E+00 0.  1.
</event>
<event>
 5   0  0.5152288E-06  0.2674346E+04  0.7818609E-02  0.8343377E-01
        1   -1    0    0  501    0  0.00000000000E+00  0.00000000000E+00  0.17229037902E+04  0.17229037902E+04  0.50400001928E-02 0.  1.
       -1   -1    0    0    0  501  0.00000000000E+00  0.00000000000E+00 -0.10378011757E+04  0.10378011757E+04  0.50400001928E-02 0. -1.
    10030    2    1    2    0    0  0.00000000000E+00  0.00000000000E+00  0.68510261449E+03  0.27607049659E+04  0.26743459605E+04 0.  0.
        3    1    3    3  502    0  0.19465512744E+03  0.49394815521E+03  0.16094369401E+04  0.16947456072E+04  0.10100000352E+00 0.  1.
       -3    1    3    3    0  502 -0.19465512744E+03 -0.49394815521E+03 -0.92433432563E+03  0.10659593587E+04  0.10100000352E+00 0. -1.
</event>
<event>
 5   0  0.1286641E-05  0.2303401E+04  0.7818609E-02  0.8476582E-01
       -2   -1    0    0    0  501  0.00000000000E+00  0.00000000000E+00  0.46923883082E+03  0.46923883083E+03  0.25500000920E-02 0. -1.
        2   -1    0    0  501    0  0.00000000000E+00  0.00000000000E+00 -0.28267344467E+04  0.28267344467E+04  0.25500000920E-02 0.  1.
    10030    2    1    2    0    0  0.00000000000E+00  0.00000000000E+00 -0.23574956159E+04  0.32959732775E+04  0.23034005877E+04 0.  0.
        4    1    3    3  502    0 -0.31036582160E+03 -0.10601784435E+04 -0.71264086857E+03  0.13145964764E+04  0.12699999809E+01 0. -1.
       -4    1    3    3    0  502  0.31036582160E+03  0.10601784435E+04 -0.16448547473E+04  0.19813768011E+04  0.12699999809E+01 0.  1.
</event>
<event>
 5   0  0.4824715E-06  0.2698604E+04  0.7818609E-02  0.8335458E-01
        1   -1    0    0  501    0  0.00000000000E+00  0.00000000000E+00  0.18548655443E+04  0.18548655443E+04  0.50400001928E-02 0. -1.
       -1   -1    0    0    0  501  0.00000000000E+00  0.00000000000E+00 -0.98153545432E+03  0.98153545433E+03  0.50400001928E-02 0.  1.
    10030    2    1    2    0    0  0.00000000000E+00  0.00000000000E+00  0.87333008994E+03  0.28364009986E+04  0.26986043020E+04 0.  0.
        5    1    3    3  502    0 -0.70338264034E+03 -0.10829132999E+04  0.25343897368E+02  0.12915543957E+04  0.46999998093E+01 0. -1.
       -5    1    3    3    0  502  0.70338264034E+03  0.10829132999E+04  0.84798619257E+03  0.15448466029E+04  0.46999998093E+01 0.  1.
</event>
<event>
 5   0  0.4756800E-06  0.2664388E+04  0.7818609E-02  0.8346653E-01
       -1   -1    0    0    0  501  0.00000000000E+00  0.00000000000E+00  0.16425218391E+04  0.16425218391E+04  0.50400001928E-02 0.  1.
        1   -1    0    0  501    0  0.00000000000E+00  0.00000000000E+00 -0.10804977087E+04  0.10804977088E+04  0.50400001928E-02 0. -1.
    10030    2    1    2    0    0  0.00000000000E+00  0.00000000000E+00  0.56202413034E+03  0.27230195479E+04  0.26643881727E+04 0.  0.
        4    1    3    3  502    0  0.29912065095E+03  0.12675300126E+04 -0.55761810536E+01  0.13023587076E+04  0.12699999809E+01 0. -1.
       -4    1    3    3    0  502 -0.29912065095E+03 -0.12675300126E+04  0.56760031140E+03  0.14206608402E+04  0.12699999809E+01 0.  1.
</event>
<event>
 5   0  0.4846214E-06  0.2660710E+04  0.7818609E-02  0.8347867E-01
       -1   -1    0    0    0  501  0.00000000000E+00  0.00000000000E+00  0.13444210784E+04  0.13444210784E+04  0.50400001928E-02 0.  1.
        1   -1    0    0  501    0  0.00000000000E+00  0.00000000000E+00 -0.13164364060E+04  0.13164364060E+04  0.50400001928E-02 0. -1.
    10030    2    1    2    0    0  0.00000000000E+00  0.00000000000E+00  0.27984672457E+02  0.26608574844E+04  0.26607103207E+04 0.  0.
        2    1    3    3  502    0  0.11504482856E+04  0.29720572739E+03 -0.58435701938E+03  0.13241358044E+04  0.25500000920E-02 0.  1.
       -2    1    3    3    0  502 -0.11504482856E+04 -0.29720572739E+03  0.61234169184E+03  0.13367216800E+04  0.25500000920E-02 0. -1.
</event>
<event>
 5   0  0.1232559E-05  0.2913015E+04  0.7818609E-02  0.8269016E-01
       -2   -1    0    0    0  501  0.00000000000E+00  0.00000000000E+00  0.13368378881E+04  0.13368378881E+04  0.25500000920E-02 0. -1.
        2   -1    0    0  501    0  0.00000000000E+00  0.00000000000E+00 -0.15868898815E+04  0.15868898815E+04  0.25500000920E-02 0.  1.
    10030    2    1    2    0    0  0.00000000000E+00  0.00000000000E+00 -0.25005199339E+03  0.29237277696E+04  0.29130152886E+04 0.  0.
        3    1    3    3  502    0 -0.32809628541E+03  0.65950032707E+03 -0.13861604588E+04  0.15697224856E+04  0.10100000352E+00 0.  1.
       -3    1    3    3    0  502  0.32809628541E+03 -0.65950032707E+03  0.11361084654E+04  0.13540052841E+04  0.10100000352E+00 0. -1.
</event>
<event>
 5   0  0.1286641E-05  0.2636274E+04  0.7818609E-02  0.8355983E-01
       -2   -1    0    0    0  501  0.00000000000E+00  0.00000000000E+00  0.11439607160E+04  0.11439607160E+04  0.25500000920E-02 0. -1.
        2   -1    0    0  501    0  0.00000000000E+00  0.00000000000E+00 -0.15188330893E+04  0.15188330893E+04  0.25500000920E-02 0.  1.
    10030    2    1    2    0    0  0.00000000000E+00  0.00000000000E+00 -0.37487237333E+03  0.26627938053E+04  0.26362741802E+04 0.  0.
        4    1    3    3  502    0 -0.60423218020E+03  0.24438442826E+03  0.96980442540E+03  0.11684787173E+04  0.12699999809E+01 0. -1.
       -4    1    3    3    0  502  0.60423218020E+03 -0.24438442826E+03 -0.13446767987E+04  0.14943150880E+04  0.12699999809E+01 0.  1.
</event>
<event>
 5   0  0.1276517E-05  0.2655416E+04  0.7818609E-02  0.8349617E-01
       -2   -1    0    0    0  501  0.00000000000E+00  0.00000000000E+00  0.10021219220E+04  0.10021219220E+04  0.25500000920E-02 0. -1.
        2   -1    0    0  501    0  0.00000000000E+00  0.00000000000E+00 -0.17590765291E+04  0.17590765291E+04  0.25500000920E-02 0.  1.
    10030    2    1    2    0    0  0.00000000000E+00  0.00000000000E+00 -0.75695460712E+03  0.27611984511E+04  0.26554164663E+04 0.  0.
        1    1    3    3  502    0  0.11540269977E+04  0.40459162781E+03 -0.91612039538E+03  0.15279886373E+04  0.50400001928E-02 0.  1.
       -1    1    3    3    0  502 -0.11540269977E+04 -0.40459162781E+03  0.15916578827E+03  0.12332098139E+04  0.50400001928E-02 0. -1.
</event>
<event>
 5   0  0.1232559E-05  0.2854445E+04  0.7818609E-02  0.8286562E-01
        2   -1    0    0  501    0  0.00000000000E+00  0.00000000000E+00  0.15551547239E+04  0.15551547239E+04  0.25500000920E-02 0.  1.
       -2   -1    0    0    0  501  0.00000000000E+00  0.00000000000E+00 -0.13098148409E+04  0.13098148409E+04  0.25500000920E-02 0. -1.
    10030    2    1    2    0    0  0.00000000000E+00  0.00000000000E+00  0.24533988304E+03  0.28649695648E+04  0.28544454714E+04 0.  0.
        3    1    3    3  502    0 -0.10052122339E+04  0.78024422429E+03 -0.52603492543E+03  0.13769333454E+04  0.10100000352E+00 0. -1.
       -3    1    3    3    0  502  0.10052122339E+04 -0.78024422429E+03  0.77137480847E+03  0.14880362194E+04  0.10100000352E+00 0.  1.
</event>
<event>
 5   0  0.4824715E-06  0.2680331E+04  0.7818609E-02  0.8341415E-01
        1   -1    0    0  501    0  0.00000000000E+00  0.00000000000E+00  0.12201385672E+04  0.12201385672E+04  0.50400001928E-02 0. -1.
       -1   -1    0    0    0  501  0.00000000000E+00  0.00000000000E+00 -0.14719999994E+04  0.14719999994E+04  0.50400001928E-02 0.  1.
    10030    2    1    2    0    0  0.00000000000E+00  0.00000000000E+00 -0.25186143228E+03  0.26921385666E+04  0.26803313006E+04 0.  0.
        5    1    3    3  502    0 -0.74191563168E+03  0.10923307484E+04  0.10398069867E+03  0.13245600568E+04  0.46999998093E+01 0.  1.
       -5    1    3    3    0  502  0.74191563168E+03 -0.10923307484E+04 -0.35584213094E+03  0.13675785098E+04  0.46999998093E+01 0. -1.
</event>
<event>
 5   0  0.4756800E-06  0.2672620E+04  0.7818609E-02  0.8343944E-01
       -1   -1    0    0    0  501  0.00000000000E+00  0.00000000000E+00  0.13895909568E+04  0.13895909568E+04  0.50400001928E-02 0. -1.
        1   -1    0    0  501    0  0.00000000000E+00  0.00000000000E+00 -0.12850723578E+04  0.12850723578E+04  0.50400001928E-02 0.  1.
    10030    2    1    2    0    0  0.00000000000E+00  0.00000000000E+00  0.10451859895E+03  0.26746633146E+04  0.26726203825E+04 0.  0.
        4    1    3    3  502    0  0.11668715089E+04  0.53223787231E+03  0.42785544684E+03  0.13520089376E+04  0.12699999809E+01 0. -1.
       -4    1    3    3    0  502 -0.11668715089E+04 -0.53223787231E+03 -0.32333684789E+03  0.13226543771E+04  0.12699999809E+01 0.  1.
</event>
<event>
 5   0  0.4824715E-06  0.2750542E+04  0.7818609E-02  0.8318790E-01
        1   -1    0    0  501    0  0.00000000000E+00  0.00000000000E+00  0.24448402044E+04  0.24448402044E+04  0.50400001928E-02 0. -1.
       -1   -1    0    0    0  501  0.00000000000E+00  0.00000000000E+00 -0.77361699008E+03  0.77361699010E+03  0.50400001928E-02 0.  1.
    10030    2    1    2    0    0  0.00000000000E+00  0.00000000000E+00  0.16712232143E+04  0.32184571945E+04  0.27505417068E+04 0.  0.
        5    1    3    3  502    0 -0.11496328010E+04 -0.10163199740E+03 -0.39526196354E+02  0.11548026023E+04  0.46999998093E+01 0.  1.
       -5    1    3    3    0  502  0.11496328010E+04  0.10163199740E+03  0.17107494107E+04  0.20636545923E+04  0.46999998093E+01 0. -1.
</event>
<event>
 5   0  0.4826140E-06  0.2634121E+04  0.7818609E-02  0.8356703E-01
       -1   -1    0    0    0  501  0.00000000000E+00  0.00000000000E+00  0.98520453042E+03  0.98520453043E+03  0.50400001928E-02 0.  1.
        1   -1    0    0  501    0  0.00000000000E+00  0.00000000000E+00 -0.17606982887E+04  0.17606982887E+04  0.50400001928E-02 0. -1.
    10030    2    1    2    0    0  0.00000000000E+00  0.00000000000E+00 -0.77549375826E+03  0.27459028191E+04  0.26341206736E+04 0.  0.
        1    1    3    3  502    0  0.73067356613E+03 -0.93867679116E+03 -0.97711524020E+03  0.15393999387E+04  0.50400001928E-02 0. -1.
       -1    1    3    3    0  502 -0.73067356613E+03  0.93867679116E+03  0.20162148194E+03  0.12065028804E+04  0.50400001928E-02 0.  1.
</event>
<event>
 5   0  0.1286641E-05  0.2657339E+04  0.7818609E-02  0.8348981E-01
        2   -1    0    0  501    0  0.00000000000E+00  0.00000000000E+00  0.27080981254E+04  0.27080981254E+04  0.25500000920E-02 0. -1.
       -2   -1    0    0    0  501  0.00000000000E+00  0.00000000000E+00 -0.65188304835E+03  0.65188304836E+03  0.25500000920E-02 0.  1.
    10030    2    1    2    0    0  0.00000000000E+00  0.00000000000E+00  0.20562150771E+04  0.33599811738E+04  0.26573394674E+04 0.  0.
        4    1    3    3  502    0  0.68962473160E+03  0.96915762714E+03  0.17766936953E+04  0.21381045055E+04  0.12699999809E+01 0. -1.
       -4    1    3    3    0  502 -0.68962473160E+03 -0.96915762714E+03  0.27952138176E+03  0.12218766683E+04  0.12699999809E+01 0.  1.
</event>
<event>
 5   0  0.1276517E-05  0.2721247E+04  0.7818609E-02  0.8328144E-01
        2   -1    0    0  501    0  0.00000000000E+00  0.00000000000E+00  0.22851841205E+04  0.22851841205E+04  0.25500000920E-02 0.  1.
       -2   -1    0    0    0  501  0.00000000000E+00  0.00000000000E+00 -0.81012982664E+03  0.81012982664E+03  0.25500000920E-02 0. -1.
    10030    2    1    2    0    0  0.00000000000E+00  0.00000000000E+00  0.14750542939E+04  0.30953139472E+04  0.27212466374E+04 0.  0.
        1    1    3    3  502    0  0.34394852200E+03 -0.27298344200E+03 -0.72731659223E+03  0.84959400348E+03  0.50400001928E-02 0. -1.
       -1    1    3    3    0  502 -0.34394852200E+03  0.27298344200E+03  0.22023708861E+04  0.22457199437E+04  0.50400001928E-02 0.  1.
</event>
<event>
 5   0  0.1220908E-05  0.2706898E+04  0.7818609E-02  0.8332770E-01
        2   -1    0    0  501    0  0.00000000000E+00  0.00000000000E+00  0.14555346538E+04  0.14555346538E+04  0.25500000920E-02 0.  1.
       -2   -1    0    0    0  501  0.00000000000E+00  0.00000000000E+00 -0.12585234296E+04  0.12585234296E+04  0.25500000920E-02 0. -1.
    10030    2    1    2    0    0  0.00000000000E+00  0.00000000000E+00  0.19701122423E+03  0.27140580835E+04  0.27068981987E+04 0.  0.
        2    1    3    3  502    0 -0.13050853533E+04 -0.16333020797E+03  0.41856764090E+03  0.13802620788E+04  0.25500000920E-02 0.  1.
       -2    1    3    3    0  502  0.13050853533E+04  0.16333020797E+03 -0.22155641667E+03  0.13337960046E+04  0.25500000920E-02 0. -1.
</event>
<event>
 5   0  0.5152288E-06  0.2692552E+04  0.7818609E-02  0.8337426E-01
       -1   -1    0    0    0  501  0.00000000000E+00  0.00000000000E+00  0.11578103564E+04  0.11578103564E+04  0.50400001928E-02 0. -1.
        1   -1    0    0  501    0  0.00000000000E+00  0.00000000000E+00 -0.15654196436E+04  0.15654196436E+04  0.50400001928E-02 0.  1.
    10030    2    1    2    0    0  0.00000000000E+00  0.00000000000E+00 -0.40760928716E+03  0.27232300000E+04  0.26925520054E+04 0.  0.
        3    1    3    3  502    0  0.44076820147E+03  0.10752716099E+04 -0.89123501881E+03  0.14645086246E+04  0.10100000352E+00 0.  1.
       -3    1    3    3    0  502 -0.44076820147E+03 -0.10752716099E+04  0.48362573165E+03  0.12587213754E+04  0.10100000352E+00 0. -1.
</event>
<event>
 5   0  0.1232559E-05  0.2697872E+04  0.7818609E-02  0.8335696E-01
       -2   -1    0    0    0  501  0.00000000000E+00  0.00000000000E+00  0.11145968428E+04  0.11145968428E+04  0.25500000920E-02 0. -1.
        2   -1    0    0  501    0  0.00000000000E+00  0.00000000000E+00 -0.16325441511E+04  0.16325441512E+04  0.25500000920E-02 0.  1.
    10030    2    1    2    0    0  0.00000000000E+00  0.00000000000E+00 -0.51794730835E+03  0.27471409939E+04  0.26978721664E+04 0.  0.
        3    1    3    3  502    0 -0.36108419865E+03  0.44984971314E+03  0.98267245408E+03  0.11394699317E+04  0.10100000352E+00 0. -1.
       -3    1    3    3    0  502  0.36108419865E+03 -0.44984971314E+03 -0.15006197624E+04  0.16076710623E+04  0.10100000352E+00 0.  1.
</event>
<event>
 5   0  0.1261364E-05  0.2682046E+04  0.7818609E-02  0.8340854E-01
       -2   -1    0    0    0  501  0.00000000000E+00  0.00000000000E+00  0.81123625520E+03  0.81123625521E+03  0.25500000920E-02 0.  1.
        2   -1    0    0  501    0  0.00000000000E+00  0.00000000000E+00 -0.22167934818E+04  0.22167934818E+04  0.25500000920E-02 0. -1.
    10030    2    1    2    0    0  0.00000000000E+00  0.00000000000E+00 -0.14055572266E+04  0.30280297370E+04  0.26820464148E+04 0.  0.
        5    1    3    3  502    0 -0.65890534939E+03 -0.58914724006E+03  0.43581661380E+03  0.98549933576E+03  0.46999998093E+01 0.  1.
       -5    1    3    3    0  502  0.65890534939E+03  0.58914724006E+03 -0.18413738404E+04  0.20425304013E+04  0.46999998093E+01 0. -1.
</event>
<event>
 5   0  0.1276517E-05  0.2705095E+04  0.7818609E-02  0.8333354E-01
        2   -1    0    0  501    0  0.00000000000E+00  0.00000000000E+00  0.17042653127E+04  0.17042653127E+04  0.25500000920E-02 0.  1.
       -2   -1    0    0    0  501  0.00000000000E+00  0.00000000000E+00 -0.10734155695E+04  0.10734155695E+04  0.25500000920E-02 0. -1.
    10030    2    1    2    0    0  0.00000000000E+00  0.00000000000E+00  0.63084974313E+03  0.27776808822E+04  0.27050951342E+04 0.  0.
        1    1    3    3  502    0  0.36291949875E+03  0.11909522150E+04  0.85810117347E+03  0.15120897344E+04  0.50400001928E-02 0.  1.
       -1    1    3    3    0  502 -0.36291949875E+03 -0.11909522150E+04 -0.22725143034E+03  0.12655911478E+04  0.50400001928E-02 0. -1.
</event>
<event>
 5   0  0.5152288E-06  0.2693106E+04  0.7818609E-02  0.8337245E-01
       -1   -1    0    0    0  501  0.00000000000E+00  0.00000000000E+00  0.12882549733E+04  0.12882549733E+04  0.50400001928E-02 0. -1.
        1   -1    0    0  501    0  0.00000000000E+00  0.00000000000E+00 -0.14074895767E+04  0.14074895767E+04  0.50400001928E-02 0.  1.
    10030    2    1    2    0    0  0.00000000000E+00  0.00000000000E+00 -0.11923460346E+03  0.26957445500E+04  0.26931063455E+04 0.  0.
        3    1    3    3  502    0 -0.48947561500E+03  0.23797902081E+03  0.11732487169E+04  0.12933417777E+04  0.10100000352E+00 0. -1.
       -3    1    3    3    0  502  0.48947561500E+03 -0.23797902081E+03 -0.12924833204E+04  0.14024027723E+04  0.10100000352E+00 0.  1.
</event>
<event>
 5   0  0.4756800E-06  0.2687720E+04  0.7818609E-02  0.8339000E-01
        1   -1    0    0  501    0  0.00000000000E+00  0.00000000000E+00  0.10791904815E+04  0.10791904815E+04  0.50400001928E-02 0. -1.
       -1   -1    0    0    0  501  0.00000000000E+00  0.00000000000E+00 -0.16734398494E+04  0.16734398494E+04  0.50400001928E-02 0.  1.
    10030    2    1    2    0    0  0.00000000000E+00  0.00000000000E+00 -0.59424936788E+03  0.27526303309E+04  0.26877204891E+04 0.  0.
        4    1    3    3  502    0 -0.90237308430E+03  0.77847394530E+03  0.33888835356E+03  0.12390100064E+04  0.12699999809E+01 0. -1.
       -4    1    3    3    0  502  0.90237308430E+03 -0.77847394530E+03 -0.93313772144E+03  0.15136203245E+04  0.12699999809E+01 0.  1.
</event>
<event>
 5   0  0.5152288E-06  0.2708234E+04  0.7818609E-02  0.8332338E-01
        1   -1    0    0  501    0  0.00000000000E+00  0.00000000000E+00  0.22628303602E+04  0.22628303602E+04  0.50400001928E-02 0. -1.
       -1   -1    0    0    0  501  0.00000000000E+00  0.00000000000E+00 -0.81032717389E+03  0.81032717391E+03  0.50400001928E-02 0.  1.
    10030    2    1    2    0    0  0.00000000000E+00  0.00000000000E+00  0.14525031863E+04  0.30731575341E+04  0.27082340599E+04 0.  0.
        3    1    3    3  502    0  0.13122722959E+03  0.13170717599E+04  0.10506665275E+04  0.16899108760E+04  0.10100000352E+00 0.  1.
       -3    1    3    3    0  502 -0.13122722959E+03 -0.13170717599E+04  0.40183665877E+03  0.13832466581E+04  0.10100000352E+00 0. -1.
</event>
<event>
 5   0  0.1286641E-05  0.2701532E+04  0.7818609E-02  0.8334508E-01
        2   -1    0    0  501    0  0.00000000000E+00  0.00000000000E+00  0.95664295507E+03  0.95664295507E+03  0.25500000920E-02 0. -1.
       -2   -1    0    0    0  501  0.00000000000E+00  0.00000000000E+00 -0.19072619600E+04  0.19072619600E+04  0.25500000920E-02 0.  1.
    10030    2    1    2    0    0  0.00000000000E+00  0.00000000000E+00 -0.95061900491E+03  0.28639049151E+04  0.27015319487E+04 0.  0.
        4    1    3    3  502    0 -0.12159112600E+04 -0.30427819823E+03 -0.10091028753E+04  0.16091350596E+04  0.12699999809E+01 0.  1.
       -4    1    3    3    0  502  0.12159112600E+04  0.30427819823E+03  0.58483870420E+02  0.12547698555E+04  0.12699999809E+01 0. -1.
</event>
<event>
 5   0  0.1261364E-05  0.2685609E+04  0.7818609E-02  0.8339689E-01
       -2   -1    0    0    0  501  0.00000000000E+00  0.00000000000E+00  0.67558824353E+03  0.67558824353E+03  0.25500000920E-02 0. -1.
        2   -1    0    0  501    0  0.00000000000E+00  0.00000000000E+00 -0.26689695900E+04  0.26689695900E+04  0.25500000920E-02 0.  1.
    10030    2    1    2    0    0  0.00000000000E+00  0.00000000000E+00 -0.19933813465E+04  0.33445578336E+04  0.26856094112E+04 0.  0.
        5    1    3    3  502    0  0.65833246607E+03 -0.82463075533E+03  0.37549037522E+02  0.10558643562E+04  0.46999998093E+01 0. -1.
       -5    1    3    3    0  502 -0.65833246607E+03  0.82463075533E+03 -0.20309303840E+04  0.22886934773E+04  0.46999998093E+01 0.  1.
</event>
<event>
 5   0  0.1220908E-05  0.2691590E+04  0.7818609E-02  0.8337739E-01
       -2   -1    0    0    0  501  0.00000000000E+00  0.00000000000E+00  0.77503971744E+03  0.77503971745E+03  0.25500000920E-02 0. -1.
        2   -1    0    0  501    0  0.00000000000E+00  0.00000000000E+00 -0.23368662440E+04  0.23368662440E+04  0.25500000920E-02 0.  1.
    10030    2    1    2    0    0  0.00000000000E+00  0.00000000000E+00 -0.15618265265E+04  0.31119059614E+04  0.26915899788E+04 0.  0.
        2    1    3    3  502    0  0.14115327015E+03  0.18090889257E+03  0.75225639278E+03  0.78647438201E+03  0.25500000920E-02 0. -1.
       -2    1    3    3    0  502 -0.14115327015E+03 -0.18090889257E+03 -0.23140829193E+04  0.23254315794E+04  0.25500000920E-02 0.  1.
</event>
<event>
 5   0  0.1232559E-05  0.2671980E+04  0.7818609E-02  0.8344154E-01
       -2   -1    0    0    0  501  0.00000000000E+00  0.00000000000E+00  0.82787281213E+03  0.82787281214E+03  0.25500000920E-02 0. -1.
        2   -1    0    0  501    0  0.00000000000E+00  0.00000000000E+00 -0.21559708449E+04  0.21559708449E+04  0.25500000920E-02 0.  1.
    10030    2    1    2    0    0  0.00000000000E+00  0.00000000000E+00 -0.13280980327E+04  0.29838436570E+04  0.26719802740E+04 0.  0.
        3    1    3    3  502    0 -0.57221614491E+03  0.10987587119E+04 -0.10550377220E+03  0.12433153580E+04  0.10100000352E+00 0. -1.
       -3    1    3    3    0  502  0.57221614491E+03 -0.10987587119E+04 -0.12225942605E+04  0.17405282989E+04  0.10100000352E+00 0.  1.
</event>
<event>
 5   0  0.1220908E-05  0.2702671E+04  0.7818609E-02  0.8334139E-01
        2   -1    0    0  501    0  0.00000000000E+00  0.00000000000E+00  0.21942932912E+04  0.21942932912E+04  0.25500000920E-02 0.  1.
       -2   -1    0    0    0  501  0.00000000000E+00  0.00000000000E+00 -0.83220794234E+03  0.83220794234E+03  0.25500000920E-02 0. -1.
    10030    2    1    2    0    0  0.00000000000E+00  0.00000000000E+00  0.13620853489E+04  0.30265012335E+04  0.27026714967E+04 0.  0.
        2    1    3    3  502    0  0.19190944173E+03 -0.12649763029E+04  0.11680208088E+04  0.17324164888E+04  0.25500000920E-02 0. -1.
       -2    1    3    3    0  502 -0.19190944173E+03  0.12649763029E+04  0.19406454002E+03  0.12940847447E+04  0.25500000920E-02 0.  1.
</event>
<event>
 5   0  0.1232559E-05  0.2660317E+04  0.7818609E-02  0.8347997E-01
       -2   -1    0    0    0  501  0.00000000000E+00  0.00000000000E+00  0.88849242210E+03  0.88849242210E+03  0.25500000920E-02 0. -1.
        2   -1    0    0  501    0  0.00000000000E+00  0.00000000000E+00 -0.19913745411E+04  0.19913745411E+04  0.25500000920E-02 0.  1.
    10030    2    1    2    0    0  0.00000000000E+00  0.00000000000E+00 -0.11028821190E+04  0.28798669632E+04  0.26603166648E+04 0.  0.
        3    1    3    3  502    0  0.71782299889E+03 -0.11196805175E+04 -0.53070676435E+03  0.14319930164E+04  0.10100000352E+00 0.  1.
       -3    1    3    3    0  502 -0.71782299889E+03  0.11196805175E+04 -0.57217535463E+03  0.14478739468E+04  0.10100000352E+00 0. -1.
</event>
<event>
 5   0  0.1232559E-05  0.2720239E+04  0.7818609E-02  0.8328468E-01
       -2   -1    0    0    0  501  0.00000000000E+00  0.00000000000E+00  0.64732776168E+03  0.64732776169E+03  0.25500000920E-02 0. -1.
        2   -1    0    0  501    0  0.00000000000E+00  0.00000000000E+00 -0.28577869086E+04  0.28577869086E+04  0.25500000920E-02 0.  1.
    10030    2    1    2    0    0  0.00000000000E+00  0.00000000000E+00 -0.22104591470E+04  0.35051146703E+04  0.27202388152E+04 0.  0.
        3    1    3    3  502    0 -0.63701757768E+03  0.11192699585E+04 -0.16689062121E+04  0.21080333464E+04  0.10100000352E+00 0.  1.
       -3    1    3    3    0  502  0.63701757768E+03 -0.11192699585E+04 -0.54155293485E+03  0.13970813240E+04  0.10100000352E+00 0. -1.
</event>
<event>
 5   0  0.1286641E-05  0.2586008E+04  0.7818609E-02  0.8372970E-01
        2   -1    0    0  501    0  0.00000000000E+00  0.00000000000E+00  0.11919506508E+04  0.11919506508E+04  0.25500000920E-02 0. -1.
       -2   -1    0    0    0  501  0.00000000000E+00  0.00000000000E+00 -0.14026247242E+04  0.14026247242E+04  0.25500000920E-02 0.  1.
    10030    2    1    2    0    0  0.00000000000E+00  0.00000000000E+00 -0.21067407340E+03  0.25945753750E+04  0.25860080841E+04 0.  0.
        4    1    3    3  502    0 -0.49337132541E+03  0.10839443142E+04 -0.61050016927E+03  0.13383058733E+04  0.12699999809E+01 0. -1.
       -4    1    3    3    0  502  0.49337132541E+03 -0.10839443142E+04  0.39982609586E+03  0.12562695017E+04  0.12699999809E+01 0.  1.
</event>
<event>
 5   0  0.4824715E-06  0.2927979E+04  0.7818609E-02  0.8264601E-01
        1   -1    0    0  501    0  0.00000000000E+00  0.00000000000E+00  0.17790706651E+04  0.17790706652E+04  0.50400001928E-02 0.  1.
       -1   -1    0    0    0  501  0.00000000000E+00  0.00000000000E+00 -0.12047107439E+04  0.12047107439E+04  0.50400001928E-02 0. -1.
    10030    2    1    2    0    0  0.00000000000E+00  0.00000000000E+00  0.57435992128E+03  0.29837814090E+04  0.29279791969E+04 0.  0.
        5    1    3    3  502    0 -0.28175872810E+03  0.35110233824E+03 -0.11324170817E+04  0.12186268377E+04  0.46999998093E+01 0. -1.
       -5    1    3    3    0  502  0.28175872810E+03 -0.35110233824E+03  0.17067770029E+04  0.17651545713E+04  0.46999998093E+01 0.  1.
</event>
<event>
 5   0  0.4846214E-06  0.2687728E+04  0.7818609E-02  0.8338998E-01
        1   -1    0    0  501    0  0.00000000000E+00  0.00000000000E+00  0.13621237761E+04  0.13621237761E+04  0.50400001928E-02 0.  1.
       -1   -1    0    0    0  501  0.00000000000E+00  0.00000000000E+00 -0.13258492161E+04  0.13258492161E+04  0.50400001928E-02 0. -1.
    10030    2    1    2    0    0  0.00000000000E+00  0.00000000000E+00  0.36274560012E+02  0.26879729922E+04  0.26877282160E+04 0.  0.
        2    1    3    3  502    0 -0.82192937143E+03  0.26340936395E+03  0.10482885420E+04  0.13578885271E+04  0.25500000920E-02 0.  1.
       -2    1    3    3    0  502  0.82192937143E+03 -0.26340936395E+03 -0.10120139820E+04  0.13300844652E+04  0.25500000920E-02 0. -1.
</event>
<event>
 5   0  0.4846214E-06  0.2698519E+04  0.7818609E-02  0.8335486E-01
       -1   -1    0    0    0  501  0.00000000000E+00  0.00000000000E+00  0.81770677140E+03  0.81770677142E+03  0.50400001928E-02 0. -1.
        1   -1    0    0  501    0  0.00000000000E+00  0.00000000000E+00 -0.22263499671E+04  0.22263499671E+04  0.50400001928E-02 0.  1.
    10030    2    1    2    0    0  0.00000000000E+00  0.00000000000E+00 -0.14086431957E+04  0.30440567385E+04  0.26985191818E+04 0.  0.
        2    1    3    3  502    0 -0.13917099888E+03  0.62816144713E+03  0.63351851941E+03  0.90294024444E+03  0.25500000920E-02 0. -1.
       -2    1    3    3    0  502  0.13917099888E+03 -0.62816144713E+03 -0.20421617151E+04  0.21411164941E+04  0.25500000920E-02 0.  1.
</event>
<event>
 5   0  0.5152288E-06  0.2690775E+04  0.7818609E-02  0.8338004E-01
       -1   -1    0    0    0  501  0.00000000000E+00  0.00000000000E+00  0.71092337271E+03  0.71092337273E+03  0.50400001928E-02 0.  1.
        1   -1    0    0  501    0  0.00000000000E+00  0.00000000000E+00 -0.25460799603E+04  0.25460799603E+04  0.50400001928E-02 0. -1.
    10030    2    1    2    0    0  0.00000000000E+00  0.00000000000E+00 -0.18351565876E+04  0.32570033330E+04  0.26907751691E+04 0.  0.
        3    1    3    3  502    0  0.10263014740E+04  0.83353538199E+03 -0.61620282861E+03  0.14586918402E+04  0.10100000352E+00 0. -1.
       -3    1    3    3    0  502 -0.10263014740E+04 -0.83353538199E+03 -0.12189537590E+04  0.17983114928E+04  0.10100000352E+00 0.  1.
</event>
<event>
 5   0  0.1276517E-05  0.2706328E+04  0.7818609E-02  0.8332955E-01
        2   -1    0    0  501    0  0.00000000000E+00  0.00000000000E+00  0.16651929218E+04  0.16651929218E+04  0.25500000920E-02 0.  1.
       -2   -1    0    0    0  501  0.00000000000E+00  0.00000000000E+00 -0.10996039583E+04  0.10996039583E+04  0.25500000920E-02 0. -1.
    10030    2    1    2    0    0  0.00000000000E+00  0.00000000000E+00  0.56558896357E+03  0.27647968801E+04  0.27063279389E+04 0.  0.
        1    1    3    3  502    0  0.12200004840E+04 -0.46551766405E+03  0.64534874764E+03  0.14565654405E+04  0.50400001928E-02 0.  1.
       -1    1    3    3    0  502 -0.12200004840E+04  0.46551766405E+03 -0.79759784061E+02  0.13082314396E+04  0.50400001928E-02 0. -1.
</event>
<event>
 5   0  0.5152288E-06  0.2626998E+04  0.7818609E-02  0.8359088E-01
        1   -1    0    0  501    0  0.00000000000E+00  0.00000000000E+00  0.99758941263E+03  0.99758941265E+03  0.50400001928E-02 0. -1.
       -1   -1    0    0    0  501  0.00000000000E+00  0.00000000000E+00 -0.17294483779E+04  0.17294483779E+04  0.50400001928E-02 0.  1.
    10030    2    1    2    0    0  0.00000000000E+00  0.00000000000E+00 -0.73185896527E+03  0.27270377906E+04  0.26269978238E+04 0.  0.
        3    1    3    3  502    0 -0.95140719852E+03  0.17669296261E+02 -0.13058327387E+04  0.16157620533E+04  0.10100000352E+00 0.  1.
       -3    1    3    3    0  502  0.95140719852E+03 -0.17669296261E+02  0.57397377339E+03  0.11112757372E+04  0.10100000352E+00 0. -1.
</event>
<event>
 5   0  0.1232559E-05  0.2679680E+04  0.7818609E-02  0.8341628E-01
        2   -1    0    0  501    0  0.00000000000E+00  0.00000000000E+00  0.23929626350E+04  0.23929626350E+04  0.25500000920E-02 0.  1.
       -2   -1    0    0    0  501  0.00000000000E+00  0.00000000000E+00 -0.75018758408E+03  0.75018758409E+03  0.25500000920E-02 0. -1.
    10030    2    1    2    0    0  0.00000000000E+00  0.00000000000E+00  0.16427750509E+04  0.31431502191E+04  0.26796797256E+04 0.  0.
        3    1    3    3  502    0 -0.11113760236E+03 -0.10363076759E+04 -0.16618807026E+03  0.10554163400E+04  0.10100000352E+00 0. -1.
       -3    1    3    3    0  502  0.11113760236E+03  0.10363076759E+04  0.18089631211E+04  0.20877338791E+04  0.10100000352E+00 0.  1.
</event>
<event>
 5   0  0.4826140E-06  0.2681629E+04  0.7818609E-02  0.8340990E-01
        1   -1    0    0  501    0  0.00000000000E+00  0.00000000000E+00  0.13006204538E+04  0.13006204538E+04  0.50400001928E-02 0. -1.
       -1   -1    0    0    0  501  0.00000000000E+00  0.00000000000E+00 -0.13822507604E+04  0.13822507604E+04  0.50400001928E-02 0.  1.
    10030    2    1    2    0    0  0.00000000000E+00  0.00000000000E+00 -0.81630306574E+02  0.26828712142E+04  0.26816290655E+04 0.  0.
        1    1    3    3  502    0 -0.94314260404E+03 -0.84604014498E+03  0.39811544682E+03  0.13280804974E+04  0.50400001928E-02 0. -1.
       -1    1    3    3    0  502  0.94314260404E+03  0.84604014498E+03 -0.47974575339E+03  0.13547907168E+04  0.50400001928E-02 0.  1.
</event>
<event>
 5   0  0.1286641E-05  0.2718748E+04  0.7818609E-02  0.8328948E-01
       -2   -1    0    0    0  501  0.00000000000E+00  0.00000000000E+00  0.10340232998E+04  0.10340232998E+04  0.25500000920E-02 0. -1.
        2   -1    0    0  501    0  0.00000000000E+00  0.00000000000E+00 -0.17870943311E+04  0.17870943311E+04  0.25500000920E-02 0.  1.
    10030    2    1    2    0    0  0.00000000000E+00  0.00000000000E+00 -0.75307103133E+03  0.28211176309E+04  0.27187476362E+04 0.  0.
        4    1    3    3  502    0 -0.13021848561E+04  0.20887168634E+03 -0.34608997319E+02  0.13192847215E+04  0.12699999809E+01 0. -1.
       -4    1    3    3    0  502  0.13021848561E+04 -0.20887168634E+03 -0.71846203401E+03  0.15018329094E+04  0.12699999809E+01 0.  1.
</event>
<event>
 5   0  0.1286641E-05  0.2702649E+04  0.7818609E-02  0.8334146E-01
       -2   -1    0    0    0  501  0.00000000000E+00  0.00000000000E+00  0.90448148761E+03  0.90448148762E+03  0.25500000920E-02 0.  1.
        2   -1    0    0  501    0  0.00000000000E+00  0.00000000000E+00 -0.20189218255E+04  0.20189218255E+04  0.25500000920E-02 0. -1.
    10030    2    1    2    0    0  0.00000000000E+00  0.00000000000E+00 -0.11144403379E+04  0.29234033131E+04  0.27026486387E+04 0.  0.
        4    1    3    3  502    0  0.44937202220E+03 -0.84890615162E+03 -0.15853855311E+04  0.18536520072E+04  0.12699999809E+01 0. -1.
       -4    1    3    3    0  502 -0.44937202220E+03  0.84890615162E+03  0.47094519324E+03  0.10697513059E+04  0.12699999809E+01 0.  1.
</event>
<event>
 5   0  0.4824715E-06  0.2687144E+04  0.7818609E-02  0.8339188E-01
        1   -1    0    0  501    0  0.00000000000E+00  0.00000000000E+00  0.94833182250E+03  0.94833182252E+03  0.50400001928E-02 0.  1.
       -1   -1    0    0    0  501  0.00000000000E+00  0.00000000000E+00 -0.19035375260E+04  0.19035375260E+04  0.50400001928E-02 0. -1.
    10030    2    1    2    0    0  0.00000000000E+00  0.00000000000E+00 -0.95520570350E+03  0.28518693485E+04  0.26871436220E+04 0.  0.
        5    1    3    3  502    0  0.18408713805E+01 -0.76302539565E+03  0.69606024201E+03  0.10328277173E+04  0.46999998093E+01 0.  1.
       -5    1    3    3    0  502 -0.18408713805E+01  0.76302539565E+03 -0.16512659455E+04  0.18190416312E+04  0.46999998093E+01 0. -1.
</event>
<event>
 5   0  0.5152288E-06  0.2730910E+04  0.7818609E-02  0.8325045E-01
       -1   -1    0    0    0  501  0.00000000000E+00  0.00000000000E+00  0.10631506249E+04  0.10631506249E+04  0.50400001928E-02 0. -1.
        1   -1    0    0  501    0  0.00000000000E+00  0.00000000000E+00 -0.17537192007E+04  0.17537192008E+04  0.50400001928E-02 0.  1.
    10030    2    1    2    0    0  0.00000000000E+00  0.00000000000E+00 -0.69056857583E+03  0.28168698257E+04  0.27309102250E+04 0.  0.
        3    1    3    3  502    0  0.13262423799E+04  0.31997622122E+03 -0.28726410681E+03  0.13942109990E+04  0.10100000352E+00 0.  1.
       -3    1    3    3    0  502 -0.13262423799E+04 -0.31997622122E+03 -0.40330446902E+03  0.14226588267E+04  0.10100000352E+00 0. -1.
</event>
<event>
 5   0  0.4846214E-06  0.2655727E+04  0.7818609E-02  0.8349515E-01
       -1   -1    0    0    0  501  0.00000000000E+00  0.00000000000E+00  0.17816665138E+04  0.17816665138E+04  0.50400001928E-02 0. -1.
        1   -1    0    0  501    0  0.00000000000E+00  0.00000000000E+00 -0.98964742266E+03  0.98964742267E+03  0.50400001928E-02 0.  1.
    10030    2    1    2    0    0  0.00000000000E+00  0.00000000000E+00  0.79201909111E+03  0.27713139365E+04  0.26557271497E+04 0.  0.
        2    1    3    3  502    0 -0.23487893078E+02 -0.75149821284E+02 -0.98720941499E+03  0.99034418553E+03  0.25500000920E-02 0.  1.
       -2    1    3    3    0  502  0.23487893078E+02  0.75149821284E+02  0.17792285061E+04  0.17809697509E+04  0.25500000920E-02 0. -1.
</event>
<event>
 5   0  0.1286641E-05  0.2707366E+04  0.7818609E-02  0.8332619E-01
        2   -1    0    0  501    0  0.00000000000E+00  0.00000000000E+00  0.27220500212E+04  0.27220500212E+04  0.25500000920E-02 0. -1.
       -2   -1    0    0    0  501  0.00000000000E+00  0.00000000000E+00 -0.67319022336E+03  0.67319022337E+03  0.25500000920E-02 0.  1.
    10030    2    1    2    0    0  0.00000000000E+00  0.00000000000E+00  0.20488597978E+04  0.33952402446E+04  0.27073658503E+04 0.  0.
        4    1    3    3  502    0 -0.22161749655E+03  0.11012238591E+04  0.77086266062E+02  0.11259450288E+04  0.12699999809E+01 0.  1.
       -4    1    3    3    0  502  0.22161749655E+03 -0.11012238591E+04  0.19717735318E+04  0.22692952157E+04  0.12699999809E+01 0. -1.
</event>
<event>
 5   0  0.5152288E-06  0.2782121E+04  0.7818609E-02  0.8308841E-01
        1   -1    0    0  501    0  0.00000000000E+00  0.00000000000E+00  0.14932473251E+04  0.14932473251E+04  0.50400001928E-02 0. -1.
       -1   -1    0    0    0  501  0.00000000000E+00  0.00000000000E+00 -0.12958662613E+04  0.12958662613E+04  0.50400001928E-02 0.  1.
    10030    2    1    2    0    0  0.00000000000E+00  0.00000000000E+00  0.19738106381E+03  0.27891135865E+04  0.27821206505E+04 0.  0.
        3    1    3    3  502    0  0.91233028181E+03 -0.92391892758E+03 -0.40163914254E+03  0.13591492703E+04  0.10100000352E+00 0.  1.
       -3    1    3    3    0  502 -0.91233028181E+03  0.92391892758E+03  0.59902020635E+03  0.14299643162E+04  0.10100000352E+00 0. -1.
</event>
<event>
 5   0  0.1220908E-05  0.2719061E+04  0.7818609E-02  0.8328847E-01
       -2   -1    0    0    0  501  0.00000000000E+00  0.00000000000E+00  0.10446698307E+04  0.10446698307E+04  0.25500000920E-02 0.  1.
        2   -1    0    0  501    0  0.00000000000E+00  0.00000000000E+00 -0.17692892933E+04  0.17692892933E+04  0.25500000920E-02 0. -1.
    10030    2    1    2    0    0  0.00000000000E+00  0.00000000000E+00 -0.72461946264E+03  0.28139591239E+04  0.27190609750E+04 0.  0.
        2    1    3    3  502    0  0.12650496867E+04  0.46391255736E+03 -0.54961703585E+03  0.14552128562E+04  0.25500000920E-02 0. -1.
       -2    1    3    3    0  502 -0.12650496867E+04 -0.46391255736E+03 -0.17500242679E+03  0.13587462678E+04  0.25500000920E-02 0.  1.
</event>
<event>
 5   0  0.1286641E-05  0.2647209E+04  0.7818609E-02  0.8352340E-01
        2   -1    0    0  501    0  0.00000000000E+00  0.00000000000E+00  0.15603728253E+04  0.15603728253E+04  0.25500000920E-02 0. -1.
       -2   -1    0    0    0  501  0.00000000000E+00  0.00000000000E+00 -0.11227628838E+04  0.11227628838E+04  0.25500000920E-02 0.  1.
    10030    2    1    2    0    0  0.00000000000E+00  0.00000000000E+00  0.43760994145E+03  0.26831357091E+04  0.26472088646E+04 0.  0.
        4    1    3    3  502    0  0.73956583690E+03  0.33192617263E+03 -0.84171958337E+03  0.11686000518E+04  0.12699999809E+01 0.  1.
       -4    1    3    3    0  502 -0.73956583690E+03 -0.33192617263E+03  0.12793295248E+04  0.15145356573E+04  0.12699999809E+01 0. -1.
</event>
<event>
 5   0  0.4824715E-06  0.2884602E+04  0.7818609E-02  0.8277474E-01
       -1   -1    0    0    0  501  0.00000000000E+00  0.00000000000E+00  0.16843604731E+04  0.16843604731E+04  0.50400001928E-02 0. -1.
        1   -1    0    0  501    0  0.00000000000E+00  0.00000000000E+00 -0.12350280082E+04  0.12350280082E+04  0.50400001928E-02 0.  1.
    10030    2    1    2    0    0  0.00000000000E+00  0.00000000000E+00  0.44933246492E+03  0.29193884812E+04  0.28846021286E+04 0.  0.
        5    1    3    3  502    0  0.18472640540E+03 -0.62456450101E+03  0.15270436951E+04  0.16601473421E+04  0.46999998093E+01 0. -1.
       -5    1    3    3    0  502 -0.18472640540E+03  0.62456450101E+03 -0.10777112302E+04  0.12592411391E+04  0.46999998093E+01 0.  1.
</event>
<event>
 5   0  0.4846214E-06  0.2747715E+04  0.7818609E-02  0.8319687E-01
       -1   -1    0    0    0  501  0.00000000000E+00  0.00000000000E+00  0.10044651234E+04  0.10044651234E+04  0.50400001928E-02 0.  1.
        1   -1    0    0  501    0  0.00000000000E+00  0.00000000000E+00 -0.18790938511E+04  0.18790938511E+04  0.50400001928E-02 0. -1.
    10030    2    1    2    0    0  0.00000000000E+00  0.00000000000E+00 -0.87462872773E+03  0.28835589745E+04  0.27477148593E+04 0.  0.
        2    1    3    3  502    0  0.55428157836E+03 -0.88273076066E+03 -0.13765725195E+04  0.17266712384E+04  0.25500000920E-02 0. -1.
       -2    1    3    3    0  502 -0.55428157836E+03  0.88273076066E+03  0.50194379176E+03  0.11568877361E+04  0.25500000920E-02 0.  1.
</event>
<event>
 5   0  0.1220908E-05  0.2608916E+04  0.7818609E-02  0.8365179E-01
       -2   -1    0    0    0  501  0.00000000000E+00  0.00000000000E+00  0.87551258128E+03  0.87551258128E+03  0.25500000920E-02 0. -1.
        2   -1    0    0  501    0  0.00000000000E+00  0.00000000000E+00 -0.19435592937E+04  0.19435592937E+04  0.25500000920E-02 0.  1.
    10030    2    1    2    0    0  0.00000000000E+00  0.00000000000E+00 -0.10680467124E+04  0.28190718750E+04  0.26089159542E+04 0.  0.
        2    1    3    3  502    0  0.58960383002E+03  0.26697211058E+03 -0.17578199945E+04  0.18731892369E+04  0.25500000920E-02 0.  1.
       -2    1    3    3    0  502 -0.58960383002E+03 -0.26697211058E+03  0.68977328212E+03  0.94588263803E+03  0.25500000920E-02 0. -1.
</event>
<event>
 5   0  0.1232559E-05  0.2182921E+04  0.7818609E-02  0.8525571E-01
       -2   -1    0    0    0  501  0.00000000000E+00  0.00000000000E+00  0.58433963242E+03  0.58433963242E+03  0.25500000920E-02 0. -1.
        2   -1    0    0  501    0  0.00000000000E+00  0.00000000000E+00 -0.20386875110E+04  0.20386875110E+04  0.25500000920E-02 0.  1.
    10030    2    1    2    0    0  0.00000000000E+00  0.00000000000E+00 -0.14543478786E+04  0.26230271434E+04  0.21829208971E+04 0.  0.
        3    1    3    3  502    0  0.31780698071E+03 -0.62566320711E+02 -0.19796045804E+04  0.20059287441E+04  0.10100000352E+00 0.  1.
       -3    1    3    3    0  502 -0.31780698071E+03  0.62566320711E+02  0.52525670180E+03  0.61709839933E+03  0.10100000352E+00 0. -1.
</event>
<event>
 5   0  0.1261364E-05  0.2575384E+04  0.7818609E-02  0.8376611E-01
       -2   -1    0    0    0  501  0.00000000000E+00  0.00000000000E+00  0.10362410993E+04  0.10362410993E+04  0.25500000920E-02 0. -1.
        2   -1    0    0  501    0  0.00000000000E+00  0.00000000000E+00 -0.16001592092E+04  0.16001592092E+04  0.25500000920E-02 0.  1.
    10030    2    1    2    0    0  0.00000000000E+00  0.00000000000E+00 -0.56391810981E+03  0.26364003085E+04  0.25753840397E+04 0.  0.
        5    1    3    3  502    0 -0.21974162632E+03  0.23051961605E+03 -0.15591982316E+04  0.15913977790E+04  0.46999998093E+01 0.  1.
       -5    1    3    3    0  502  0.21974162632E+03 -0.23051961605E+03  0.99528012180E+03  0.10450025295E+04  0.46999998093E+01 0. -1.
</event>
<event>
 5   0  0.4846214E-06  0.2685482E+04  0.7818609E-02  0.8339731E-01
       -1   -1    0    0    0  501  0.00000000000E+00  0.00000000000E+00  0.98611255397E+03  0.98611255398E+03  0.50400001928E-02 0. -1.
        1   -1    0    0  501    0  0.00000000000E+00  0.00000000000E+00 -0.18283444291E+04  0.18283444291E+04  0.50400001928E-02 0.  1.
    10030    2    1    2    0    0  0.00000000000E+00  0.00000000000E+00 -0.84223187512E+03  0.28144569831E+04  0.26854820011E+04 0.  0.
        2    1    3    3  502    0  0.11190211028E+04  0.74160884077E+03 -0.45003641408E+03  0.14158830019E+04  0.25500000920E-02 0. -1.
       -2    1    3    3    0  502 -0.11190211028E+04 -0.74160884077E+03 -0.39219546104E+03  0.13985739812E+04  0.25500000920E-02 0.  1.
</event>
<event>
 5   0  0.1220908E-05  0.2544696E+04  0.7818609E-02  0.8387233E-01
       -2   -1    0    0    0  501  0.00000000000E+00  0.00000000000E+00  0.67032728831E+03  0.67032728832E+03  0.25500000920E-02 0.  1.
        2   -1    0    0  501    0  0.00000000000E+00  0.00000000000E+00 -0.24150434803E+04  0.24150434803E+04  0.25500000920E-02 0. -1.
    10030    2    1    2    0    0  0.00000000000E+00  0.00000000000E+00 -0.17447161920E+04  0.30853707687E+04  0.25446960898E+04 0.  0.
        2    1    3    3  502    0  0.10386446634E+04 -0.47868262061E+03 -0.15484668368E+04  0.19250115150E+04  0.25500000920E-02 0. -1.
       -2    1    3    3    0  502 -0.10386446634E+04  0.47868262061E+03 -0.19624935519E+03  0.11603592537E+04  0.25500000920E-02 0.  1.
</event>
<event>
 5   0  0.4846214E-06  0.2693039E+04  0.7818609E-02  0.8337267E-01
       -1   -1    0    0    0  501  0.00000000000E+00  0.00000000000E+00  0.90310351061E+03  0.90310351062E+03  0.50400001928E-02 0. -1.
        1   -1    0    0  501    0  0.00000000000E+00  0.00000000000E+00 -0.20076485659E+04  0.20076485659E+04  0.50400001928E-02 0.  1.
    10030    2    1    2    0    0  0.00000000000E+00  0.00000000000E+00 -0.11045450553E+04  0.29107520765E+04  0.26930387802E+04 0.  0.
        2    1    3    3  502    0 -0.40559789979E+03  0.78566694200E+03 -0.16499175482E+04  0.18719001351E+04  0.25500000920E-02 0.  1.
       -2    1    3    3    0  502  0.40559789979E+03 -0.78566694200E+03  0.54537249291E+03  0.10388519414E+04  0.25500000920E-02 0. -1.
</event>
<event>
 5   0  0.1261364E-05  0.2688279E+04  0.7818609E-02  0.8338818E-01
        2   -1    0    0  501    0  0.00000000000E+00  0.00000000000E+00  0.11162918937E+04  0.11162918937E+04  0.25500000920E-02 0.  1.
       -2   -1    0    0    0  501  0.00000000000E+00  0.00000000000E+00 -0.16184927733E+04  0.16184927733E+04  0.25500000920E-02 0. -1.
    10030    2    1    2    0    0  0.00000000000E+00  0.00000000000E+00 -0.50220087964E+03  0.27347846670E+04  0.26882785293E+04 0.  0.
        5    1    3    3  502    0 -0.55083045263E+03 -0.97220169974E+03  0.50888291892E+03  0.12278331514E+04  0.46999998093E+01 0.  1.
       -5    1    3    3    0  502  0.55083045263E+03  0.97220169974E+03 -0.10110837986E+04  0.15069515155E+04  0.46999998093E+01 0. -1.
</event>
<event>
 5   0  0.4826140E-06  0.2676324E+04  0.7818609E-02  0.8342728E-01
        1   -1    0    0  501    0  0.00000000000E+00  0.00000000000E+00  0.12012691190E+04  0.12012691191E+04  0.50400001928E-02 0. -1.
       -1   -1    0    0    0  501  0.00000000000E+00  0.00000000000E+00 -0.14906551236E+04  0.14906551236E+04  0.50400001928E-02 0.  1.
    10030    2    1    2    0    0  0.00000000000E+00  0.00000000000E+00 -0.28938600456E+03  0.26919242427E+04  0.26763243205E+04 0.  0.
        1    1    3    3  502    0 -0.10664121892E+04 -0.64077200561E+03  0.35098191642E+03  0.12926763037E+04  0.50400001928E-02 0. -1.
       -1    1    3    3    0  502  0.10664121892E+04  0.64077200561E+03 -0.64036792098E+03  0.13992479390E+04  0.50400001928E-02 0.  1.
</event>
<event>
 5   0  0.4756800E-06  0.2692724E+04  0.7818609E-02  0.8337370E-01
        1   -1    0    0  501    0  0.00000000000E+00  0.00000000000E+00  0.23837627004E+04  0.23837627004E+04  0.50400001928E-02 0.  1.
       -1   -1    0    0    0  501  0.00000000000E+00  0.00000000000E+00 -0.76043230213E+03  0.76043230215E+03  0.50400001928E-02 0. -1.
    10030    2    1    2    0    0  0.00000000000E+00  0.00000000000E+00  0.16233303983E+04  0.31441950026E+04  0.26927236457E+04 0.  0.
        4    1    3    3  502    0 -0.12489450147E+04 -0.24994561151E+02  0.22527004310E+03  0.12693449425E+04  0.12699999809E+01 0. -1.
       -4    1    3    3    0  502  0.12489450147E+04  0.24994561151E+02  0.13980603552E+04  0.18748500600E+04  0.12699999809E+01 0.  1.
</event>
<event>
 5   0  0.4826140E-06  0.2693223E+04  0.7818609E-02  0.8337207E-01
       -1   -1    0    0    0  501  0.00000000000E+00  0.00000000000E+00  0.60578713573E+03  0.60578713575E+03  0.50400001928E-02 0.  1.
        1   -1    0    0  501    0  0.00000000000E+00  0.00000000000E+00 -0.29933995595E+04  0.29933995595E+04  0.50400001928E-02 0. -1.
    10030    2    1    2    0    0  0.00000000000E+00  0.00000000000E+00 -0.23876124238E+04  0.35991866953E+04  0.26932233070E+04 0.  0.
        1    1    3    3  502    0  0.23024567070E+03  0.12883008073E+04 -0.76987274527E+03  0.15183662546E+04  0.50400001928E-02 0.  1.
       -1    1    3    3    0  502 -0.23024567070E+03 -0.12883008073E+04 -0.16177396785E+04  0.20808204407E+04  0.50400001928E-02 0. -1.
</event>
<event>
 5   0  0.1261364E-05  0.2738790E+04  0.7818609E-02  0.8322528E-01
        2   -1    0    0  501    0  0.00000000000E+00  0.00000000000E+00  0.18870734952E+04  0.18870734952E+04  0.25500000920E-02 0.  1.
       -2   -1    0    0    0  501  0.00000000000E+00  0.00000000000E+00 -0.99373032332E+03  0.99373032333E+03  0.25500000920E-02 0. -1.
    10030    2    1    2    0    0  0.00000000000E+00  0.00000000000E+00  0.89334317189E+03  0.28808038185E+04  0.27387896265E+04 0.  0.
        5    1    3    3  502    0 -0.71942454226E+02  0.89220491378E+03  0.15367560010E+04  0.17784393219E+04  0.46999998093E+01 0.  1.
       -5    1    3    3    0  502  0.71942454226E+02 -0.89220491378E+03 -0.64341282912E+03  0.11023644967E+04  0.46999998093E+01 0. -1.
</event>
<event>
 5   0  0.4824715E-06  0.2737500E+04  0.7818609E-02  0.8322939E-01
       -1   -1    0    0    0  501  0.00000000000E+00  0.00000000000E+00  0.92140982988E+03  0.92140982989E+03  0.50400001928E-02 0.  1.
        1   -1    0    0  501    0  0.00000000000E+00  0.00000000000E+00 -0.20332711555E+04  0.20332711555E+04  0.50400001928E-02 0. -1.
    10030    2    1    2    0    0  0.00000000000E+00  0.00000000000E+00 -0.11118613256E+04  0.29546809853E+04  0.27374996106E+04 0.  0.
        5    1    3    3  502    0 -0.14948950183E+02  0.10851579910E+04 -0.14561655927E+04  0.18161034276E+04  0.46999998093E+01 0. -1.
       -5    1    3    3    0  502  0.14948950183E+02 -0.10851579910E+04  0.34430426708E+03  0.11385775577E+04  0.46999998093E+01 0.  1.
</event>
<event>
 5   0  0.5152288E-06  0.2785764E+04  0.7818609E-02  0.8307702E-01
        1   -1    0    0  501    0  0.00000000000E+00  0.00000000000E+00  0.20643731482E+04  0.20643731482E+04  0.50400001928E-02 0. -1.
       -1   -1    0    0    0  501  0.00000000000E+00  0.00000000000E+00 -0.93981054477E+03  0.93981054479E+03  0.50400001928E-02 0.  1.
    10030    2    1    2    0    0  0.00000000000E+00  0.00000000000E+00  0.11245626034E+04  0.30041836930E+04  0.27857635600E+04 0.  0.
        3    1    3    3  502    0  0.73759037818E+02 -0.23831664744E+02 -0.93748282804E+03  0.94068188404E+03  0.10100000352E+00 0.  1.
       -3    1    3    3    0  502 -0.73759037818E+02  0.23831664744E+02  0.20620454315E+04  0.20635018090E+04  0.10100000352E+00 0. -1.
</event>
<event>
 5   0  0.1276517E-05  0.2717359E+04  0.7818609E-02  0.8329394E-01
        2   -1    0    0  501    0  0.00000000000E+00  0.00000000000E+00  0.19859052321E+04  0.19859052321E+04  0.25500000920E-02 0.  1.
       -2   -1    0    0    0  501  0.00000000000E+00  0.00000000000E+00 -0.92955599573E+03  0.92955599574E+03  0.25500000920E-02 0. -1.
    10030    2    1    2    0    0  0.00000000000E+00  0.00000000000E+00  0.10563492364E+04  0.29154612279E+04  0.27173590970E+04 0.  0.
        1    1    3    3  502    0 -0.57972926930E+01 -0.13314334283E+04  0.81857570481E+03  0.15629506605E+04  0.50400001928E-02 0.  1.
       -1    1    3    3    0  502  0.57972926930E+01  0.13314334283E+04  0.23777353157E+03  0.13525105674E+04  0.50400001928E-02 0. -1.
</event>
<event>
 5   0  0.5152288E-06  0.2328604E+04  0.7818609E-02  0.8466728E-01
       -1   -1    0    0    0  501  0.00000000000E+00  0.00000000000E+00  0.90687334455E+03  0.90687334456E+03  0.50400001928E-02 0. -1.
        1   -1    0    0  501    0  0.00000000000E+00  0.00000000000E+00 -0.14948054770E+04  0.14948054770E+04  0.50400001928E-02 0.  1.
    10030    2    1    2    0    0  0.00000000000E+00  0.00000000000E+00 -0.58793213245E+03  0.24016788216E+04  0.23286040818E+04 0.  0.
        3    1    3    3  502    0  0.43060513378E+03  0.10722127344E+04 -0.14615683667E+03  0.11646556402E+04  0.10100000352E+00 0. -1.
       -3    1    3    3    0  502 -0.43060513378E+03 -0.10722127344E+04 -0.44177529578E+03  0.12370231814E+04  0.10100000352E+00 0.  1.
</event>
<event>
 5   0  0.1232559E-05  0.2676090E+04  0.7818609E-02  0.8342805E-01
        2   -1    0    0  501    0  0.00000000000E+00  0.00000000000E+00  0.29602794060E+04  0.29602794060E+04  0.25500000920E-02 0. -1.
       -2   -1    0    0    0  501  0.00000000000E+00  0.00000000000E+00 -0.60479564151E+03  0.60479564152E+03  0.25500000920E-02 0.  1.
    10030    2    1    2    0    0  0.00000000000E+00  0.00000000000E+00  0.23554837644E+04  0.35650750475E+04  0.26760897462E+04 0.  0.
        3    1    3    3  502    0  0.67013454683E+03  0.10745824718E+04  0.60233781073E+03  0.14023618106E+04  0.10100000352E+00 0.  1.
       -3    1    3    3    0  502 -0.67013454683E+03 -0.10745824718E+04  0.17531459537E+04  0.21627132368E+04  0.10100000352E+00 0. -1.
</event>
<event>
 5   0  0.4826140E-06  0.2473567E+04  0.7818609E-02  0.8412463E-01
       -1   -1    0    0    0  501  0.00000000000E+00  0.00000000000E+00  0.12404784239E+04  0.12404784239E+04  0.50400001928E-02 0.  1.
        1   -1    0    0  501    0  0.00000000000E+00  0.00000000000E+00 -0.12330998750E+04  0.12330998750E+04  0.50400001928E-02 0. -1.
    10030    2    1    2    0    0  0.00000000000E+00  0.00000000000E+00  0.73785488554E+01  0.24735782989E+04  0.24735672939E+04 0.  0.
        1    1    3    3  502    0 -0.11793474118E+04 -0.56004217216E+02  0.37198020065E+03  0.12378877411E+04  0.50400001928E-02 0.  1.
       -1    1    3    3    0  502  0.11793474118E+04  0.56004217216E+02 -0.36460165179E+03  0.12356905577E+04  0.50400001928E-02 0. -1.
</event>
<event>
 5   0  0.4826140E-06  0.2620012E+04  0.7818609E-02  0.8361435E-01
        1   -1    0    0  501    0  0.00000000000E+00  0.00000000000E+00  0.17143810616E+04  0.17143810616E+04  0.50400001928E-02 0. -1.
       -1   -1    0    0    0  501  0.00000000000E+00  0.00000000000E+00 -0.10010119123E+04  0.10010119123E+04  0.50400001928E-02 0.  1.
    10030    2    1    2    0    0  0.00000000000E+00  0.00000000000E+00  0.71336914931E+03  0.27153929740E+04  0.26200121107E+04 0.  0.
        1    1    3    3  502    0 -0.88425549297E+03  0.92899593785E+03  0.80186560026E+02  0.12850568524E+04  0.50400001928E-02 0.  1.
       -1    1    3    3    0  502  0.88425549297E+03 -0.92899593785E+03  0.63318258929E+03  0.14303361216E+04  0.50400001928E-02 0. -1.
</event>
<event>
 5   0  0.1276517E-05  0.2686312E+04  0.7818609E-02  0.8339460E-01
        2   -1    0    0  501    0  0.00000000000E+00  0.00000000000E+00  0.23086734049E+04  0.23086734049E+04  0.25500000920E-02 0. -1.
       -2   -1    0    0    0  501  0.00000000000E+00  0.00000000000E+00 -0.78143064703E+03  0.78143064703E+03  0.25500000920E-02 0.  1.
    10030    2    1    2    0    0  0.00000000000E+00  0.00000000000E+00  0.15272427579E+04  0.30901040520E+04  0.26863120836E+04 0.  0.
        1    1    3    3  502    0 -0.31761909541E+03 -0.54427951067E+03  0.21280642744E+04  0.22194097484E+04  0.50400001928E-02 0. -1.
       -1    1    3    3    0  502  0.31761909541E+03  0.54427951067E+03 -0.60082151648E+03  0.87069430353E+03  0.50400001928E-02 0.  1.
</event>
<event>
 5   0  0.5152288E-06  0.2716229E+04  0.7818609E-02  0.8329758E-01
        1   -1    0    0  501    0  0.00000000000E+00  0.00000000000E+00  0.13165199200E+04  0.13165199200E+04  0.50400001928E-02 0. -1.
       -1   -1    0    0    0  501  0.00000000000E+00  0.00000000000E+00 -0.14010232245E+04  0.14010232245E+04  0.50400001928E-02 0.  1.
    10030    2    1    2    0    0  0.00000000000E+00  0.00000000000E+00 -0.84503304517E+02  0.27175431445E+04  0.27162289914E+04 0.  0.
        3    1    3    3  502    0  0.15731710264E+03 -0.90066481693E+03  0.96248976211E+03  0.13275286572E+04  0.10100000352E+00 0. -1.
       -3    1    3    3    0  502 -0.15731710264E+03  0.90066481693E+03 -0.10469930666E+04  0.13900144873E+04  0.10100000352E+00 0.  1.
</event>
<event>
 5   0  0.4826140E-06  0.2748941E+04  0.7818609E-02  0.8319298E-01
       -1   -1    0    0    0  501  0.00000000000E+00  0.00000000000E+00  0.10760543775E+04  0.10760543775E+04  0.50400001928E-02 0.  1.
        1   -1    0    0  501    0  0.00000000000E+00  0.00000000000E+00 -0.17556445139E+04  0.17556445139E+04  0.50400001928E-02 0. -1.
    10030    2    1    2    0    0  0.00000000000E+00  0.00000000000E+00 -0.67959013635E+03  0.28316988914E+04  0.27489408611E+04 0.  0.
        1    1    3    3  502    0 -0.98944500381E+02 -0.77108291233E+03 -0.15074140421E+04  0.16960707433E+04  0.50400001928E-02 0. -1.
       -1    1    3    3    0  502  0.98944500381E+02  0.77108291233E+03  0.82782390575E+03  0.11356281481E+04  0.50400001928E-02 0.  1.
</event>
<event>
 5   0  0.1232559E-05  0.2230704E+04  0.7818609E-02  0.8505756E-01
        2   -1    0    0  501    0  0.00000000000E+00  0.00000000000E+00  0.11637225670E+04  0.11637225670E+04  0.25500000920E-02 0. -1.
       -2   -1    0    0    0  501  0.00000000000E+00  0.00000000000E+00 -0.10689923063E+04  0.10689923063E+04  0.25500000920E-02 0.  1.
    10030    2    1    2    0    0  0.00000000000E+00  0.00000000000E+00  0.94730260698E+02  0.22327148732E+04  0.22307043468E+04 0.  0.
        3    1    3    3  502    0 -0.67961429895E+03 -0.19396634357E+03 -0.81626359762E+03  0.10797151517E+04  0.10100000352E+00 0.  1.
       -3    1    3    3    0  502  0.67961429895E+03  0.19396634357E+03  0.91099385832E+03  0.11529997215E+04  0.10100000352E+00 0. -1.
</event>
<event>
 5   0  0.1261364E-05  0.2689401E+04  0.7818609E-02  0.8338452E-01
       -2   -1    0    0    0  501  0.00000000000E+00  0.00000000000E+00  0.12756331243E+04  0.12756331243E+04  0.25500000920E-02 0. -1.
        2   -1    0    0  501    0  0.00000000000E+00  0.00000000000E+00 -0.14175073387E+04  0.14175073387E+04  0.25500000920E-02 0.  1.
    10030    2    1    2    0    0  0.00000000000E+00  0.00000000000E+00 -0.14187421447E+03  0.26931404630E+04  0.26894009111E+04 0.  0.
        5    1    3    3  502    0  0.10546682245E+04  0.78858409996E+03 -0.34335816487E+03  0.13609213298E+04  0.46999998093E+01 0. -1.
       -5    1    3    3    0  502 -0.10546682245E+04 -0.78858409996E+03  0.20148395040E+03  0.13322191332E+04  0.46999998093E+01 0.  1.
</event>
<event>
 5   0  0.1220908E-05  0.2728733E+04  0.7818609E-02  0.8325742E-01
       -2   -1    0    0    0  501  0.00000000000E+00  0.00000000000E+00  0.14733452363E+04  0.14733452363E+04  0.25500000920E-02 0.  1.
        2   -1    0    0  501    0  0.00000000000E+00  0.00000000000E+00 -0.12634490398E+04  0.12634490398E+04  0.25500000920E-02 0. -1.
    10030    2    1    2    0    0  0.00000000000E+00  0.00000000000E+00  0.20989619647E+03  0.27367942761E+04  0.27287334968E+04 0.  0.
        2    1    3    3  502    0 -0.76929967472E+03 -0.30197472400E+03  0.11937358490E+04  0.14519008232E+04  0.25500000920E-02 0.  1.
       -2    1    3    3    0  502  0.76929967472E+03  0.30197472400E+03 -0.98383965249E+03  0.12848934529E+04  0.25500000920E-02 0. -1.
</event>
<event>
 5   0  0.1220908E-05  0.2678812E+04  0.7818609E-02  0.8341913E-01
        2   -1    0    0  501    0  0.00000000000E+00  0.00000000000E+00  0.12127086568E+04  0.12127086568E+04  0.25500000920E-02 0.  1.
       -2   -1    0    0    0  501  0.00000000000E+00  0.00000000000E+00 -0.14793401879E+04  0.14793401879E+04  0.25500000920E-02 0. -1.
    10030    2    1    2    0    0  0.00000000000E+00  0.00000000000E+00 -0.26663153109E+03  0.26920488448E+04  0.26788121638E+04 0.  0.
        2    1    3    3  502    0 -0.10098565531E+04 -0.24797369317E+03 -0.98170728764E+03  0.14300525896E+04  0.25500000920E-02 0. -1.
       -2    1    3    3    0  502  0.10098565531E+04  0.24797369317E+03  0.71507575655E+03  0.12619962552E+04  0.25500000920E-02 0.  1.
</event>
<event>
 5   0  0.1232559E-05  0.2758569E+04  0.7818609E-02  0.8316248E-01
        2   -1    0    0  501    0  0.00000000000E+00  0.00000000000E+00  0.17005706790E+04  0.17005706790E+04  0.25500000920E-02 0. -1.
       -2   -1    0    0    0  501  0.00000000000E+00  0.00000000000E+00 -0.11186981397E+04  0.11186981397E+04  0.25500000920E-02 0.  1.
    10030    2    1    2    0    0  0.00000000000E+00  0.00000000000E+00  0.58187253925E+03  0.28192688187E+04  0.27585686543E+04 0.  0.
        3    1    3    3  502    0  0.33373563014E+03  0.10695967352E+04  0.11130042204E+04  0.15793020774E+04  0.10100000352E+00 0. -1.
       -3    1    3    3    0  502 -0.33373563014E+03 -0.10695967352E+04 -0.53113168117E+03  0.12399667414E+04  0.10100000352E+00 0.  1.
</event>
<event>
 5   0  0.4846214E-06  0.2650465E+04  0.7818609E-02  0.8351259E-01
        1   -1    0    0  501    0  0.00000000000E+00  0.00000000000E+00  0.15913123723E+04  0.15913123723E+04  0.50400001928E-02 0. -1.
       -1   -1    0    0    0  501  0.00000000000E+00  0.00000000000E+00 -0.11036434936E+04  0.11036434936E+04  0.50400001928E-02 0.  1.
    10030    2    1    2    0    0  0.00000000000E+00  0.00000000000E+00  0.48766887865E+03  0.26949558659E+04  0.26504652769E+04 0.  0.
        2    1    3    3  502    0  0.80301445234E+03  0.62801010199E+03 -0.61714532906E+03  0.11916783358E+04  0.25500000920E-02 0.  1.
       -2    1    3    3    0  502 -0.80301445234E+03 -0.62801010199E+03  0.11048142077E+04  0.15032775301E+04  0.25500000920E-02 0. -1.
</event>
<event>
 5   0  0.1276517E-05  0.2706539E+04  0.7818609E-02  0.8332886E-01
        2   -1    0    0  501    0  0.00000000000E+00  0.00000000000E+00  0.20210464616E+04  0.20210464616E+04  0.25500000920E-02 0. -1.
       -2   -1    0    0    0  501  0.00000000000E+00  0.00000000000E+00 -0.90613388447E+03  0.90613388447E+03  0.25500000920E-02 0.  1.
    10030    2    1    2    0    0  0.00000000000E+00  0.00000000000E+00  0.11149125771E+04  0.29271803460E+04  0.27065392522E+04 0.  0.
        1    1    3    3  502    0 -0.34595995287E+03 -0.93498524212E+03  0.15471831768E+04  0.18405600981E+04  0.50400001928E-02 0. -1.
       -1    1    3    3    0  502  0.34595995287E+03  0.93498524212E+03 -0.43227059968E+03  0.10866202480E+04  0.50400001928E-02 0.  1.
</event>
<event>
 5   0  0.5152288E-06  0.2692472E+04  0.7818609E-02  0.8337452E-01
        1   -1    0    0  501    0  0.00000000000E+00  0.00000000000E+00  0.96589826202E+03  0.96589826203E+03  0.50400001928E-02 0.  1.
       -1   -1    0    0    0  501  0.00000000000E+00  0.00000000000E+00 -0.18763377192E+04  0.18763377192E+04  0.50400001928E-02 0. -1.
    10030    2    1    2    0    0  0.00000000000E+00  0.00000000000E+00 -0.91043945720E+03  0.28422359813E+04  0.26924719809E+04 0.  0.
        3    1    3    3  502    0  0.14141816648E+03  0.70610330933E+03  0.74548864024E+03  0.10365009909E+04  0.10100000352E+00 0.  1.
       -3    1    3    3    0  502 -0.14141816648E+03 -0.70610330933E+03 -0.16559280974E+04  0.18057349903E+04  0.10100000352E+00 0. -1.
</event>
<event>
 5   0  0.5152288E-06  0.2718738E+04  0.7818609E-02  0.8328951E-01
       -1   -1    0    0    0  501  0.00000000000E+00  0.00000000000E+00  0.12831784397E+04  0.12831784397E+04  0.50400001928E-02 0.  1.
        1   -1    0    0  501    0  0.00000000000E+00  0.00000000000E+00 -0.14400834251E+04  0.14400834251E+04  0.50400001928E-02 0. -1.
    10030    2    1    2    0    0  0.00000000000E+00  0.00000000000E+00 -0.15690498539E+03  0.27232618649E+04  0.27187379444E+04 0.  0.
        3    1    3    3  502    0 -0.36470974266E+03 -0.12942206802E+04  0.12153851117E+03  0.13501081384E+04  0.10100000352E+00 0.  1.
       -3    1    3    3    0  502  0.36470974266E+03  0.12942206802E+04 -0.27844349657E+03  0.13731537265E+04  0.10100000352E+00 0. -1.
</event>
<event>
 5   0  0.4756800E-06  0.2627524E+04  0.7818609E-02  0.8358912E-01
       -1   -1    0    0    0  501  0.00000000000E+00  0.00000000000E+00  0.12398044173E+04  0.12398044173E+04  0.50400001928E-02 0.  1.
        1   -1    0    0  501    0  0.00000000000E+00  0.00000000000E+00 -0.13921314637E+04  0.13921314637E+04  0.50400001928E-02 0. -1.
    10030    2    1    2    0    0  0.00000000000E+00  0.00000000000E+00 -0.15232704642E+03  0.26319358810E+04  0.26275241108E+04 0.  0.
        4    1    3    3  502    0  0.31915046519E+03 -0.11138017147E+04  0.54419682422E+03  0.12800636998E+04  0.12699999809E+01 0.  1.
       -4    1    3    3    0  502 -0.31915046519E+03  0.11138017147E+04 -0.69652387063E+03  0.13518721812E+04  0.12699999809E+01 0. -1.
</event>
<event>
 5   0  0.1286641E-05  0.2706848E+04  0.7818609E-02  0.8332786E-01
       -2   -1    0    0    0  501  0.00000000000E+00  0.00000000000E+00  0.97045923352E+03  0.97045923352E+03  0.25500000920E-02 0. -1.
        2   -1    0    0  501    0  0.00000000000E+00  0.00000000000E+00 -0.18875151977E+04  0.18875151977E+04  0.25500000920E-02 0.  1.
    10030    2    1    2    0    0  0.00000000000E+00  0.00000000000E+00 -0.91705596415E+03  0.28579744312E+04  0.27068480208E+04 0.  0.
        4    1    3    3  502    0 -0.10355628141E+04 -0.30972066705E+03 -0.13185202406E+04  0.17049382602E+04  0.12699999809E+01 0.  1.
       -4    1    3    3    0  502  0.10355628141E+04  0.30972066705E+03  0.40146427641E+03  0.11530361710E+04  0.12699999809E+01 0. -1.
</event>
<event>
 5   0  0.5152288E-06  0.2691393E+04  0.7818609E-02  0.8337803E-01
        1   -1    0    0  501    0  0.00000000000E+00  0.00000000000E+00  0.91365364699E+03  0.91365364701E+03  0.50400001928E-02 0. -1.
       -1   -1    0    0    0  501  0.00000000000E+00  0.00000000000E+00 -0.19820408233E+04  0.19820408234E+04  0.50400001928E-02 0.  1.
    10030    2    1    2    0    0  0.00000000000E+00  0.00000000000E+00 -0.10683871764E+04  0.28956944704E+04  0.26913928192E+04 0.  0.
        3    1    3    3  502    0 -0.76523095461E+03 -0.90607843856E+03  0.14995465752E+03  0.11954258489E+04  0.10100000352E+00 0. -1.
       -3    1    3    3    0  502  0.76523095461E+03  0.90607843856E+03 -0.12183418339E+04  0.17002686215E+04  0.10100000352E+00 0.  1.
</event>
<event>
 5   0  0.1261364E-05  0.2687400E+04  0.7818609E-02  0.8339105E-01
        2   -1    0    0  501    0  0.00000000000E+00  0.00000000000E+00  0.21977307071E+04  0.21977307071E+04  0.25500000920E-02 0.  1.
       -2   -1    0    0    0  501  0.00000000000E+00  0.00000000000E+00 -0.82154260517E+03  0.82154260517E+03  0.25500000920E-02 0. -1.
    10030    2    1    2    0    0  0.00000000000E+00  0.00000000000E+00  0.13761881019E+04  0.30192733123E+04  0.26873997920E+04 0.  0.
        5    1    3    3  502    0 -0.63808088916E+03 -0.98711376571E+03  0.14196304271E+04  0.18430717423E+04  0.46999998093E+01 0.  1.
       -5    1    3    3    0  502  0.63808088916E+03  0.98711376571E+03 -0.43442325237E+02  0.11762015700E+04  0.46999998093E+01 0. -1.
</event>
<event>
 5   0  0.5152288E-06  0.2707909E+04  0.7818609E-02  0.8332443E-01
       -1   -1    0    0    0  501  0.00000000000E+00  0.00000000000E+00  0.24756089980E+04  0.24756089980E+04  0.50400001928E-02 0. -1.
        1   -1    0    0  501    0  0.00000000000E+00  0.00000000000E+00 -0.74050187242E+03  0.74050187243E+03  0.50400001928E-02 0.  1.
    10030    2    1    2    0    0  0.00000000000E+00  0.00000000000E+00  0.17351071256E+04  0.32161108704E+04  0.27079092292E+04 0.  0.
        3    1    3    3  502    0  0.54983419601E+03  0.35978666752E+03  0.22735442998E+04  0.23665941314E+04  0.10100000352E+00 0. -1.
       -3    1    3    3    0  502 -0.54983419601E+03 -0.35978666752E+03 -0.53843717421E+03  0.84951673909E+03  0.10100000352E+00 0.  1.
</event>
<event>
 5   0  0.1276517E-05  0.2712959E+04  0.7818609E-02  0.8330813E-01
       -2   -1    0    0    0  501  0.00000000000E+00  0.00000000000E+00  0.91827250757E+03  0.91827250757E+03  0.25500000920E-02 0. -1.
        2   -1    0    0  501    0  0.00000000000E+00  0.00000000000E+00 -0.20038020919E+04  0.20038020919E+04  0.25500000920E-02 0.  1.
    10030    2    1    2    0    0  0.00000000000E+00  0.00000000000E+00 -0.10855295843E+04  0.29220745995E+04  0.27129588066E+04 0.  0.
        1    1    3    3  502    0 -0.95576018974E+03 -0.96081271946E+03 -0.60554803938E+03  0.14843608221E+04  0.50400001928E-02 0. -1.
       -1    1    3    3    0  502  0.95576018974E+03  0.96081271946E+03 -0.47998154496E+03  0.14377137774E+04  0.50400001928E-02 0.  1.
</event>
<event>
 5   0  0.5152288E-06  0.2712298E+04  0.7818609E-02  0.8331026E-01
        1   -1    0    0  501    0  0.00000000000E+00  0.00000000000E+00  0.12971524868E+04  0.12971524868E+04  0.50400001928E-02 0. -1.
       -1   -1    0    0    0  501  0.00000000000E+00  0.00000000000E+00 -0.14178287015E+04  0.14178287015E+04  0.50400001928E-02 0.  1.
    10030    2    1    2    0    0  0.00000000000E+00  0.00000000000E+00 -0.12067621479E+03  0.27149811883E+04  0.27122979379E+04 0.  0.
        3    1    3    3  502    0 -0.13132665739E+04  0.33252364256E+03 -0.12284144385E+03  0.13602687593E+04  0.10100000352E+00 0.  1.
       -3    1    3    3    0  502  0.13132665739E+04 -0.33252364256E+03  0.21652290638E+01  0.13547124290E+04  0.10100000352E+00 0. -1.
</event>
<event>
 5   0  0.1261364E-05  0.2716896E+04  0.7818609E-02  0.8329543E-01
        2   -1    0    0  501    0  0.00000000000E+00  0.00000000000E+00  0.19323841716E+04  0.19323841716E+04  0.25500000920E-02 0. -1.
       -2   -1    0    0    0  501  0.00000000000E+00  0.00000000000E+00 -0.95497652198E+03  0.95497652198E+03  0.25500000920E-02 0.  1.
    10030    2    1    2    0    0  0.00000000000E+00  0.00000000000E+00  0.97740764966E+03  0.28873606936E+04  0.27168964024E+04 0.  0.
        5    1    3    3  502    0  0.10816379747E+04  0.57460314693E+03  0.11131496517E+04  0.16550630567E+04  0.46999998093E+01 0. -1.
       -5    1    3    3    0  502 -0.10816379747E+04 -0.57460314693E+03 -0.13574200204E+03  0.12322976369E+04  0.46999998093E+01 0.  1.
</event>
<event>
 5   0  0.1232559E-05  0.2696789E+04  0.7818609E-02  0.8336048E-01
       -2   -1    0    0    0  501  0.00000000000E+00  0.00000000000E+00  0.14089284873E+04  0.14089284873E+04  0.25500000920E-02 0. -1.
        2   -1    0    0  501    0  0.00000000000E+00  0.00000000000E+00 -0.12904611375E+04  0.12904611375E+04  0.25500000920E-02 0.  1.
    10030    2    1    2    0    0  0.00000000000E+00  0.00000000000E+00  0.11846734986E+03  0.26993896248E+04  0.26967888003E+04 0.  0.
        3    1    3    3  502    0  0.35816556139E+03  0.12997186682E+04  0.34385099792E+02  0.13486042900E+04  0.10100000352E+00 0.  1.
       -3    1    3    3    0  502 -0.35816556139E+03 -0.12997186682E+04  0.84082250068E+02  0.13507853348E+04  0.10100000352E+00 0. -1.
</event>
<event>
 5   0  0.1232559E-05  0.2670851E+04  0.7818609E-02  0.8344525E-01
        2   -1    0    0  501    0  0.00000000000E+00  0.00000000000E+00  0.19867333507E+04  0.19867333507E+04  0.25500000920E-02 0. -1.
       -2   -1    0    0    0  501  0.00000000000E+00  0.00000000000E+00 -0.89763472410E+03  0.89763472411E+03  0.25500000920E-02 0.  1.
    10030    2    1    2    0    0  0.00000000000E+00  0.00000000000E+00  0.10890986266E+04  0.28843680748E+04  0.26708506833E+04 0.  0.
        3    1    3    3  502    0  0.26805341142E+03  0.13064233620E+04  0.61910610912E+03  0.14703356817E+04  0.10100000352E+00 0.  1.
       -3    1    3    3    0  502 -0.26805341142E+03 -0.13064233620E+04  0.46999251750E+03  0.14140323932E+04  0.10100000352E+00 0. -1.
</event>
<event>
 5   0  0.4826140E-06  0.2802010E+04  0.7818609E-02  0.8302644E-01
       -1   -1    0    0    0  501  0.00000000000E+00  0.00000000000E+00  0.67867162086E+03  0.67867162088E+03  0.50400001928E-02 0. -1.
        1   -1    0    0  501    0  0.00000000000E+00  0.00000000000E+00 -0.28921434599E+04  0.28921434599E+04  0.50400001928E-02 0.  1.
    10030    2    1    2    0    0  0.00000000000E+00  0.00000000000E+00 -0.22134718390E+04  0.35708150807E+04  0.28020104851E+04 0.  0.
        1    1    3    3  502    0 -0.11567385098E+03  0.11295477567E+04 -0.21526230481E+04  0.24337305853E+04  0.50400001928E-02 0.  1.
       -1    1    3    3    0  502  0.11567385098E+03 -0.11295477567E+04 -0.60848790850E+02  0.11370844954E+04  0.50400001928E-02 0. -1.
</event>
<event>
 5   0  0.4756800E-06  0.2856181E+04  0.7818609E-02  0.8286036E-01
        1   -1    0    0  501    0  0.00000000000E+00  0.00000000000E+00  0.13433593055E+04  0.13433593055E+04  0.50400001928E-02 0. -1.
       -1   -1    0    0    0  501  0.00000000000E+00  0.00000000000E+00 -0.15181660392E+04  0.15181660392E+04  0.50400001928E-02 0.  1.
    10030    2    1    2    0    0  0.00000000000E+00  0.00000000000E+00 -0.17480673367E+03  0.28615253448E+04  0.28561810000E+04 0.  0.
        4    1    3    3  502    0 -0.72306761475E+02 -0.14584511813E+03 -0.15088399216E+04  0.15175963192E+04  0.12699999809E+01 0.  1.
       -4    1    3    3    0  502  0.72306761475E+02  0.14584511813E+03  0.13340331879E+04  0.13439290255E+04  0.12699999809E+01 0. -1.
</event>
<event>
 5   0  0.4826140E-06  0.2737300E+04  0.7818609E-02  0.8323003E-01
        1   -1    0    0  501    0  0.00000000000E+00  0.00000000000E+00  0.15984035819E+04  0.15984035819E+04  0.50400001928E-02 0. -1.
       -1   -1    0    0    0  501  0.00000000000E+00  0.00000000000E+00 -0.11719207090E+04  0.11719207090E+04  0.50400001928E-02 0.  1.
    10030    2    1    2    0    0  0.00000000000E+00  0.00000000000E+00  0.42648287290E+03  0.27703242908E+04  0.27372995882E+04 0.  0.
        1    1    3    3  502    0 -0.38327110111E+03  0.18435360003E+03  0.15298280287E+04  0.15878465872E+04  0.50400001928E-02 0. -1.
       -1    1    3    3    0  502  0.38327110111E+03 -0.18435360003E+03 -0.11033451558E+04  0.11824777037E+04  0.50400001928E-02 0.  1.
</event>
<event>
 5   0  0.4188000E-06  0.2659248E+04  0.7818609E-02  0.8348350E-01
       -3   -1    0    0    0  501  0.00000000000E+00  0.00000000000E+00  0.23276694583E+04  0.23276694605E+04  0.10100000352E+00 0. -1.
        3   -1    0    0  501    0  0.00000000000E+00  0.00000000000E+00 -0.75951527148E+03  0.75951527820E+03  0.10100000352E+00 0.  1.
    10030    2    1    2    0    0  0.00000000000E+00  0.00000000000E+00  0.15681541869E+04  0.30871847387E+04  0.26592484008E+04 0.  0.
        4    1    3    3  502    0  0.24390767935E+03 -0.10162275979E+04  0.17383602744E+04  0.20283262911E+04  0.12699999809E+01 0. -1.
       -4    1    3    3    0  502 -0.24390767935E+03  0.10162275979E+04 -0.17020608753E+03  0.10588584476E+04  0.12699999809E+01 0.  1.
</event>
<event>
 5   0  0.4824715E-06  0.2727313E+04  0.7818609E-02  0.8326197E-01
        1   -1    0    0  501    0  0.00000000000E+00  0.00000000000E+00  0.12588896165E+04  0.12588896165E+04  0.50400001928E-02 0. -1.
       -1   -1    0    0    0  501  0.00000000000E+00  0.00000000000E+00 -0.14771422703E+04  0.14771422704E+04  0.50400001928E-02 0.  1.
    10030    2    1    2    0    0  0.00000000000E+00  0.00000000000E+00 -0.21825265382E+03  0.27360318869E+04  0.27273130120E+04 0.  0.
        5    1    3    3  502    0  0.12150853666E+04 -0.16570389770E+03  0.48914141965E+03  0.13202922586E+04  0.46999998093E+01 0. -1.
       -5    1    3    3    0  502 -0.12150853666E+04  0.16570389770E+03 -0.70739407347E+03  0.14157396282E+04  0.46999998093E+01 0.  1.
</event>
<event>
 5   0  0.4756800E-06  0.2674261E+04  0.7818609E-02  0.8343405E-01
       -1   -1    0    0    0  501  0.00000000000E+00  0.00000000000E+00  0.13608356959E+04  0.13608356959E+04  0.50400001928E-02 0.  1.
        1   -1    0    0  501    0  0.00000000000E+00  0.00000000000E+00 -0.13138380911E+04  0.13138380911E+04  0.50400001928E-02 0. -1.
    10030    2    1    2    0    0  0.00000000000E+00  0.00000000000E+00  0.46997604832E+02  0.26746737870E+04  0.26742608497E+04 0.  0.
        4    1    3    3  502    0 -0.61563719584E+03  0.20614903902E+03 -0.11456169271E+04  0.13167939625E+04  0.12699999809E+01 0. -1.
       -4    1    3    3    0  502  0.61563719584E+03 -0.20614903902E+03  0.11926145319E+04  0.13578798245E+04  0.12699999809E+01 0.  1.
</event>
<event>
 5   0  0.4846214E-06  0.2414592E+04  0.7818609E-02  0.8434061E-01
       -1   -1    0    0    0  501  0.00000000000E+00  0.00000000000E+00  0.64305150260E+03  0.64305150262E+03  0.50400001928E-02 0.  1.
        1   -1    0    0  501    0  0.00000000000E+00  0.00000000000E+00 -0.22666358570E+04  0.22666358570E+04  0.50400001928E-02 0. -1.
    10030    2    1    2    0    0  0.00000000000E+00  0.00000000000E+00 -0.16235843544E+04  0.29096873596E+04  0.24145919686E+04 0.  0.
        2    1    3    3  502    0  0.34699605761E+03  0.36397735420E+03 -0.21344211502E+04  0.21928610136E+04  0.25500000920E-02 0. -1.
       -2    1    3    3    0  502 -0.34699605761E+03 -0.36397735420E+03  0.51083679584E+03  0.71682634603E+03  0.25500000920E-02 0.  1.
</event>
<event>
 5   0  0.1220908E-05  0.2678189E+04  0.7818609E-02  0.8342117E-01
       -2   -1    0    0    0  501  0.00000000000E+00  0.00000000000E+00  0.10423434950E+04  0.10423434950E+04  0.25500000920E-02 0.  1.
        2   -1    0    0  501    0  0.00000000000E+00  0.00000000000E+00 -0.17203294608E+04  0.17203294608E+04  0.25500000920E-02 0. -1.
    10030    2    1    2    0    0  0.00000000000E+00  0.00000000000E+00 -0.67798596581E+03  0.27626729558E+04  0.26781891067E+04 0.  0.
        2    1    3    3  502    0 -0.26319136739E+03  0.76884708414E+03 -0.14368878937E+04  0.16507702304E+04  0.25500000920E-02 0. -1.
       -2    1    3    3    0  502  0.26319136739E+03 -0.76884708414E+03  0.75890192786E+03  0.11119027254E+04  0.25500000920E-02 0.  1.
</event>
<event>
 5   0  0.4824715E-06  0.2696847E+04  0.7818609E-02  0.8336029E-01
        1   -1    0    0  501    0  0.00000000000E+00  0.00000000000E+00  0.11067191162E+04  0.11067191162E+04  0.50400001928E-02 0.  1.
       -1   -1    0    0    0  501  0.00000000000E+00  0.00000000000E+00 -0.16429159735E+04  0.16429159735E+04  0.50400001928E-02 0. -1.
    10030    2    1    2    0    0  0.00000000000E+00  0.00000000000E+00 -0.53619685731E+03  0.27496350897E+04  0.26968474292E+04 0.  0.
        5    1    3    3  502    0 -0.33590572832E+03  0.10419033191E+04  0.53460425280E+03  0.12182852629E+04  0.46999998093E+01 0.  1.
       -5    1    3    3    0  502  0.33590572832E+03 -0.10419033191E+04 -0.10708011101E+04  0.15313498268E+04  0.46999998093E+01 0. -1.
</event>
<event>
 5   0  0.5152288E-06  0.2700075E+04  0.7818609E-02  0.8334981E-01
        1   -1    0    0  501    0  0.00000000000E+00  0.00000000000E+00  0.10103907227E+04  0.10103907227E+04  0.50400001928E-02 0.  1.
       -1   -1    0    0    0  501  0.00000000000E+00  0.00000000000E+00 -0.18038581359E+04  0.18038581359E+04  0.50400001928E-02 0. -1.
    10030    2    1    2    0    0  0.00000000000E+00  0.00000000000E+00 -0.79346741328E+03  0.28142488586E+04  0.27000752031E+04 0.  0.
        3    1    3    3  502    0 -0.12607224298E+04 -0.20915845970E+03  0.56909797653E+02  0.12792212637E+04  0.10100000352E+00 0.  1.
       -3    1    3    3    0  502  0.12607224298E+04  0.20915845970E+03 -0.85037721093E+03  0.15350275949E+04  0.10100000352E+00 0. -1.
</event>
<event>
 5   0  0.1220908E-05  0.2701603E+04  0.7818609E-02  0.8334485E-01
        2   -1    0    0  501    0  0.00000000000E+00  0.00000000000E+00  0.19880421445E+04  0.19880421445E+04  0.25500000920E-02 0.  1.
       -2   -1    0    0    0  501  0.00000000000E+00  0.00000000000E+00 -0.91782002346E+03  0.91782002346E+03  0.25500000920E-02 0. -1.
    10030    2    1    2    0    0  0.00000000000E+00  0.00000000000E+00  0.10702221210E+04  0.29058621679E+04  0.27016031446E+04 0.  0.
        2    1    3    3  502    0 -0.11398461552E+04  0.72365853129E+03  0.57990023149E+03  0.14694268291E+04  0.25500000920E-02 0.  1.
       -2    1    3    3    0  502  0.11398461552E+04 -0.72365853129E+03  0.49032188954E+03  0.14364353389E+04  0.25500000920E-02 0. -1.
</event>
<event>
 5   0  0.4846214E-06  0.2677958E+04  0.7818609E-02  0.8342192E-01
       -1   -1    0    0    0  501  0.00000000000E+00  0.00000000000E+00  0.10153584507E+04  0.10153584507E+04  0.50400001928E-02 0.  1.
        1   -1    0    0  501    0  0.00000000000E+00  0.00000000000E+00 -0.17657461926E+04  0.17657461926E+04  0.50400001928E-02 0. -1.
    10030    2    1    2    0    0  0.00000000000E+00  0.00000000000E+00 -0.75038774186E+03  0.27811046433E+04  0.26779584153E+04 0.  0.
        2    1    3    3  502    0  0.35530065615E+03 -0.63501212183E+03 -0.15424914761E+04  0.17055084008E+04  0.25500000920E-02 0. -1.
       -2    1    3    3    0  502 -0.35530065615E+03  0.63501212183E+03  0.79210373429E+03  0.10755962426E+04  0.25500000920E-02 0.  1.
</event>
<event>
 5   0  0.4824715E-06  0.2685825E+04  0.7818609E-02  0.8339619E-01
        1   -1    0    0  501    0  0.00000000000E+00  0.00000000000E+00  0.16103567779E+04  0.16103567779E+04  0.50400001928E-02 0.  1.
       -1   -1    0    0    0  501  0.00000000000E+00  0.00000000000E+00 -0.11198843372E+04  0.11198843372E+04  0.50400001928E-02 0. -1.
    10030    2    1    2    0    0  0.00000000000E+00  0.00000000000E+00  0.49047244066E+03  0.27302411151E+04  0.26858245162E+04 0.  0.
        5    1    3    3  502    0 -0.11631886161E+03 -0.77952655195E+03 -0.86003473618E+03  0.11665648547E+04  0.46999998093E+01 0. -1.
       -5    1    3    3    0  502  0.11631886161E+03  0.77952655195E+03  0.13505071768E+04  0.15636762604E+04  0.46999998093E+01 0.  1.
</event>
<event>
 5   0  0.1276517E-05  0.2697499E+04  0.7818609E-02  0.8335817E-01
       -2   -1    0    0    0  501  0.00000000000E+00  0.00000000000E+00  0.65549568321E+03  0.65549568322E+03  0.25500000920E-02 0.  1.
        2   -1    0    0  501    0  0.00000000000E+00  0.00000000000E+00 -0.27751912526E+04  0.27751912526E+04  0.25500000920E-02 0. -1.
    10030    2    1    2    0    0  0.00000000000E+00  0.00000000000E+00 -0.21196955694E+04  0.34306869358E+04  0.26974994985E+04 0.  0.
        1    1    3    3  502    0 -0.54186943974E+03 -0.44504094672E+03 -0.25251509425E+04  0.26207005201E+04  0.50400001928E-02 0. -1.
       -1    1    3    3    0  502  0.54186943974E+03  0.44504094672E+03  0.40545537308E+03  0.80998641567E+03  0.50400001928E-02 0.  1.
</event>
<event>
 5   0  0.1220908E-05  0.2691897E+04  0.7818609E-02  0.8337639E-01
        2   -1    0    0  501    0  0.00000000000E+00  0.00000000000E+00  0.20187453038E+04  0.20187453038E+04  0.25500000920E-02 0. -1.
       -2   -1    0    0    0  501  0.00000000000E+00  0.00000000000E+00 -0.89737797429E+03  0.89737797430E+03  0.25500000920E-02 0.  1.
    10030    2    1    2    0    0  0.00000000000E+00  0.00000000000E+00  0.11213673295E+04  0.29161232781E+04  0.26918971536E+04 0.  0.
        2    1    3    3  502    0  0.68644180822E+02 -0.65457503610E+03 -0.71116250689E+03  0.96898535213E+03  0.25500000920E-02 0.  1.
       -2    1    3    3    0  502 -0.68644180822E+02  0.65457503610E+03  0.18325298364E+04  0.19471379260E+04  0.25500000920E-02 0. -1.
</event>
<event>
 5   0  0.1286641E-05  0.2638480E+04  0.7818609E-02  0.8355247E-01
        2   -1    0    0  501    0  0.00000000000E+00  0.00000000000E+00  0.21457861731E+04  0.21457861731E+04  0.25500000920E-02 0. -1.
       -2   -1    0    0    0  501  0.00000000000E+00  0.00000000000E+00 -0.81107528114E+03  0.81107528114E+03  0.25500000920E-02 0.  1.
    10030    2    1    2    0    0  0.00000000000E+00  0.00000000000E+00  0.13347108920E+04  0.29568614543E+04  0.26384799591E+04 0.  0.
        4    1    3    3  502    0  0.10927296978E+04  0.35003194794E+03 -0.62209194503E+02  0.11491092871E+04  0.12699999809E+01 0.  1.
       -4    1    3    3    0  502 -0.10927296978E+04 -0.35003194794E+03  0.13969200865E+04  0.18077521672E+04  0.12699999809E+01 0. -1.
</event>
<event>
 5   0  0.1261364E-05  0.2684516E+04  0.7818609E-02  0.8340047E-01
       -2   -1    0    0    0  501  0.00000000000E+00  0.00000000000E+00  0.67033703206E+03  0.67033703207E+03  0.25500000920E-02 0. -1.
        2   -1    0    0  501    0  0.00000000000E+00  0.00000000000E+00 -0.26876870542E+04  0.26876870542E+04  0.25500000920E-02 0.  1.
    10030    2    1    2    0    0  0.00000000000E+00  0.00000000000E+00 -0.20173500222E+04  0.33580240863E+04  0.26845157202E+04 0.  0.
        5    1    3    3  502    0  0.89004130606E+03  0.38374110233E+03 -0.21701843314E+04  0.23767946655E+04  0.46999998093E+01 0.  1.
       -5    1    3    3    0  502 -0.89004130606E+03 -0.38374110233E+03  0.15283430918E+03  0.98122942076E+03  0.46999998093E+01 0. -1.
</event>
<event>
 5   0  0.1286641E-05  0.2733797E+04  0.7818609E-02  0.8324122E-01
        2   -1    0    0  501    0  0.00000000000E+00  0.00000000000E+00  0.21013865401E+04  0.21013865401E+04  0.25500000920E-02 0.  1.
       -2   -1    0    0    0  501  0.00000000000E+00  0.00000000000E+00 -0.88913257939E+03  0.88913257940E+03  0.25500000920E-02 0. -1.
    10030    2    1    2    0    0  0.00000000000E+00  0.00000000000E+00  0.12122539607E+04  0.29905191195E+04  0.27337967991E+04 0.  0.
        4    1    3    3  502    0 -0.46047088703E+03  0.47148057407E+03  0.19161151791E+04  0.20262838799E+04  0.12699999809E+01 0.  1.
       -4    1    3    3    0  502  0.46047088703E+03 -0.47148057407E+03 -0.70386121841E+03  0.96423523956E+03  0.12699999809E+01 0. -1.
</event>
<event>
 5   0  0.1276517E-05  0.2405267E+04  0.7818609E-02  0.8437534E-01
       -2   -1    0    0    0  501  0.00000000000E+00  0.00000000000E+00  0.73549230722E+03  0.73549230722E+03  0.25500000920E-02 0. -1.
        2   -1    0    0  501    0  0.00000000000E+00  0.00000000000E+00 -0.19664753130E+04  0.19664753130E+04  0.25500000920E-02 0.  1.
    10030    2    1    2    0    0  0.00000000000E+00  0.00000000000E+00 -0.12309830058E+04  0.27019676202E+04  0.24052671079E+04 0.  0.
        1    1    3    3  502    0  0.45021211334E+03 -0.68685967850E+03  0.37143810928E+03  0.90135089394E+03  0.50400001928E-02 0. -1.
       -1    1    3    3    0  502 -0.45021211334E+03  0.68685967850E+03 -0.16024211151E+04  0.18006167263E+04  0.50400001928E-02 0.  1.
</event>
<event>
 5   0  0.4756800E-06  0.2692431E+04  0.7818609E-02  0.8337465E-01
       -1   -1    0    0    0  501  0.00000000000E+00  0.00000000000E+00  0.15384149111E+04  0.15384149111E+04  0.50400001928E-02 0. -1.
        1   -1    0    0  501    0  0.00000000000E+00  0.00000000000E+00 -0.11780281594E+04  0.11780281594E+04  0.50400001928E-02 0.  1.
    10030    2    1    2    0    0  0.00000000000E+00  0.00000000000E+00  0.36038675163E+03  0.27164430705E+04  0.26924309359E+04 0.  0.
        4    1    3    3  502    0  0.13441102647E+04  0.73889717319E+02  0.19454625869E+03  0.13601257124E+04  0.12699999809E+01 0. -1.
       -4    1    3    3    0  502 -0.13441102647E+04 -0.73889717319E+02  0.16584049294E+03  0.13563173581E+04  0.12699999809E+01 0.  1.
</event>
<event>
 5   0  0.1220908E-05  0.2692157E+04  0.7818609E-02  0.8337554E-01
        2   -1    0    0  501    0  0.00000000000E+00  0.00000000000E+00  0.19353007440E+04  0.19353007440E+04  0.25500000920E-02 0.  1.
       -2   -1    0    0    0  501  0.00000000000E+00  0.00000000000E+00 -0.93625077985E+03  0.93625077986E+03  0.25500000920E-02 0. -1.
    10030    2    1    2    0    0  0.00000000000E+00  0.00000000000E+00  0.99904996414E+03  0.28715515239E+04  0.26921566305E+04 0.  0.
        2    1    3    3  502    0  0.75667177515E+03 -0.54497960833E+03 -0.53592100470E+03  0.10755306932E+04  0.25500000920E-02 0. -1.
       -2    1    3    3    0  502 -0.75667177515E+03  0.54497960833E+03  0.15349709688E+04  0.17960208306E+04  0.25500000920E-02 0.  1.
</event>
<event>
 5   0  0.1232559E-05  0.2687848E+04  0.7818609E-02  0.8338959E-01
       -2   -1    0    0    0  501  0.00000000000E+00  0.00000000000E+00  0.13743401365E+04  0.13743401365E+04  0.25500000920E-02 0.  1.
        2   -1    0    0  501    0  0.00000000000E+00  0.00000000000E+00 -0.13141808068E+04  0.13141808068E+04  0.25500000920E-02 0. -1.
    10030    2    1    2    0    0  0.00000000000E+00  0.00000000000E+00  0.60159329726E+02  0.26885209433E+04  0.26878477854E+04 0.  0.
        3    1    3    3  502    0  0.68828844030E+03  0.87336307294E+02 -0.11211920038E+04  0.13184991950E+04  0.10100000352E+00 0. -1.
       -3    1    3    3    0  502 -0.68828844030E+03 -0.87336307294E+02  0.11813513335E+04  0.13700217483E+04  0.10100000352E+00 0.  1.
</event>
<event>
 5   0  0.4188000E-06  0.2683009E+04  0.7818609E-02  0.8340539E-01
        4   -1    0    0  501    0  0.00000000000E+00  0.00000000000E+00  0.17992974561E+04  0.17992979043E+04  0.12699999809E+01 0. -1.
       -4   -1    0    0    0  501  0.00000000000E+00  0.00000000000E+00 -0.10001859096E+04  0.10001867159E+04  0.12699999809E+01 0.  1.
    10030    2    1    2    0    0  0.00000000000E+00  0.00000000000E+00  0.79911154646E+03  0.27994846202E+04  0.26830085492E+04 0.  0.
        1    1    3    3  502    0  0.46266517683E+03 -0.79591863459E+03 -0.61855402275E+03  0.11091233556E+04  0.50400001928E-02 0.  1.
       -1    1    3    3    0  502 -0.46266517683E+03  0.79591863459E+03  0.14176655692E+04  0.16903612646E+04  0.50400001928E-02 0. -1.
</event>
<event>
 5   0  0.1276517E-05  0.2630857E+04  0.7818609E-02  0.8357795E-01
       -2   -1    0    0    0  501  0.00000000000E+00  0.00000000000E+00  0.85499963963E+03  0.85499963963E+03  0.25500000920E-02 0. -1.
        2   -1    0    0  501    0  0.00000000000E+00  0.00000000000E+00 -0.20238039594E+04  0.20238039594E+04  0.25500000920E-02 0.  1.
    10030    2    1    2    0    0  0.00000000000E+00  0.00000000000E+00 -0.11688043198E+04  0.28788035990E+04  0.26308566331E+04 0.  0.
        1    1    3    3  502    0  0.48219545234E+03  0.46238134695E+02 -0.19226522497E+04  0.19827360118E+04  0.50400001928E-02 0.  1.
       -1    1    3    3    0  502 -0.48219545234E+03 -0.46238134695E+02  0.75384792992E+03  0.89606758720E+03  0.50400001928E-02 0. -1.
</event>
<event>
 5   0  0.4826140E-06  0.2724129E+04  0.7818609E-02  0.8327218E-01
        1   -1    0    0  501    0  0.00000000000E+00  0.00000000000E+00  0.22011527965E+04  0.22011527965E+04  0.50400001928E-02 0. -1.
       -1   -1    0    0    0  501  0.00000000000E+00  0.00000000000E+00 -0.84284022556E+03  0.84284022558E+03  0.50400001928E-02 0.  1.
    10030    2    1    2    0    0  0.00000000000E+00  0.00000000000E+00  0.13583125709E+04  0.30439930221E+04  0.27241293064E+04 0.  0.
        1    1    3    3  502    0  0.17814304844E+02  0.10340525216E+04  0.16695941087E+04  0.19639568362E+04  0.50400001928E-02 0. -1.
       -1    1    3    3    0  502 -0.17814304844E+02 -0.10340525216E+04 -0.31128153778E+03  0.10800361858E+04  0.50400001928E-02 0.  1.
</event>
<event>
 5   0  0.1220908E-05  0.2598079E+04  0.7818609E-02  0.8368854E-01
        2   -1    0    0  501    0  0.00000000000E+00  0.00000000000E+00  0.10479967580E+04  0.10479967580E+04  0.25500000920E-02 0.  1.
       -2   -1    0    0    0  501  0.00000000000E+00  0.00000000000E+00 -0.16102183082E+04  0.16102183082E+04  0.25500000920E-02 0. -1.
    10030    2    1    2    0    0  0.00000000000E+00  0.00000000000E+00 -0.56222155023E+03  0.26582150661E+04  0.25980789569E+04 0.  0.
        2    1    3    3  502    0 -0.15684064835E+02 -0.12176130582E+04  0.18177224363E+03  0.12312061963E+04  0.25500000920E-02 0. -1.
       -2    1    3    3    0  502  0.15684064835E+02  0.12176130582E+04 -0.74399379386E+03  0.14270088698E+04  0.25500000920E-02 0.  1.
</event>
<event>
 5   0  0.4824715E-06  0.2673324E+04  0.7818609E-02  0.8343713E-01
        1   -1    0    0  501    0  0.00000000000E+00  0.00000000000E+00  0.10011877325E+04  0.10011877325E+04  0.50400001928E-02 0. -1.
       -1   -1    0    0    0  501  0.00000000000E+00  0.00000000000E+00 -0.17845458530E+04  0.17845458530E+04  0.50400001928E-02 0.  1.
    10030    2    1    2    0    0  0.00000000000E+00  0.00000000000E+00 -0.78335812048E+03  0.27857335855E+04  0.26733240852E+04 0.  0.
        5    1    3    3  502    0 -0.30376250963E+03 -0.11512642985E+04 -0.10246428914E+04  0.15708584570E+04  0.46999998093E+01 0. -1.
       -5    1    3    3    0  502  0.30376250963E+03  0.11512642985E+04  0.24128477088E+03  0.12148751285E+04  0.46999998093E+01 0.  1.
</event>
<event>
 5   0  0.1261364E-05  0.2688854E+04  0.7818609E-02  0.8338630E-01
       -2   -1    0    0    0  501  0.00000000000E+00  0.00000000000E+00  0.97629358961E+03  0.97629358962E+03  0.25500000920E-02 0. -1.
        2   -1    0    0  501    0  0.00000000000E+00  0.00000000000E+00 -0.18513736132E+04  0.18513736132E+04  0.25500000920E-02 0.  1.
    10030    2    1    2    0    0  0.00000000000E+00  0.00000000000E+00 -0.87508002355E+03  0.28276672028E+04  0.26888541727E+04 0.  0.
        5    1    3    3  502    0 -0.70650882523E+03 -0.12962130791E+03 -0.16326536664E+04  0.17836862078E+04  0.46999998093E+01 0.  1.
       -5    1    3    3    0  502  0.70650882523E+03  0.12962130791E+03  0.75757364282E+03  0.10439809950E+04  0.46999998093E+01 0. -1.
</event>
<event>
 5   0  0.4756800E-06  0.2653787E+04  0.7818609E-02  0.8350157E-01
        1   -1    0    0  501    0  0.00000000000E+00  0.00000000000E+00  0.12025096975E+04  0.12025096976E+04  0.50400001928E-02 0. -1.
       -1   -1    0    0    0  501  0.00000000000E+00  0.00000000000E+00 -0.14641430337E+04  0.14641430337E+04  0.50400001928E-02 0.  1.
    10030    2    1    2    0    0  0.00000000000E+00  0.00000000000E+00 -0.26163333611E+03  0.26666527312E+04  0.26537868766E+04 0.  0.
        4    1    3    3  502    0 -0.12675412614E+04 -0.66062608213E+02 -0.51949870585E+03  0.13714611317E+04  0.12699999809E+01 0.  1.
       -4    1    3    3    0  502  0.12675412614E+04  0.66062608213E+02  0.25786536974E+03  0.12951915995E+04  0.12699999809E+01 0. -1.
</event>
<event>
 5   0  0.1286641E-05  0.2751936E+04  0.7818609E-02  0.8318347E-01
        2   -1    0    0  501    0  0.00000000000E+00  0.00000000000E+00  0.23269275074E+04  0.23269275074E+04  0.25500000920E-02 0. -1.
       -2   -1    0    0    0  501  0.00000000000E+00  0.00000000000E+00 -0.81364308469E+03  0.81364308470E+03  0.25500000920E-02 0.  1.
    10030    2    1    2    0    0  0.00000000000E+00  0.00000000000E+00  0.15132844227E+04  0.31405705920E+04  0.27519363909E+04 0.  0.
        4    1    3    3  502    0 -0.96457245867E+02 -0.11438827735E+04 -0.10911978022E+03  0.11531177473E+04  0.12699999809E+01 0.  1.
       -4    1    3    3    0  502  0.96457245867E+02  0.11438827735E+04  0.16224042029E+04  0.19874528448E+04  0.12699999809E+01 0. -1.
</event>
<event>
 5   0  0.4826140E-06  0.2666340E+04  0.7818609E-02  0.8346010E-01
       -1   -1    0    0    0  501  0.00000000000E+00  0.00000000000E+00  0.63853506774E+03  0.63853506776E+03  0.50400001928E-02 0.  1.
        1   -1    0    0  501    0  0.00000000000E+00  0.00000000000E+00 -0.27834680851E+04  0.27834680851E+04  0.50400001928E-02 0. -1.
    10030    2    1    2    0    0  0.00000000000E+00  0.00000000000E+00 -0.21449330173E+04  0.34220031529E+04  0.26663398000E+04 0.  0.
        1    1    3    3  502    0  0.80619522882E+03  0.91658971666E+03 -0.38460920888E+03  0.12798483110E+04  0.50400001928E-02 0.  1.
       -1    1    3    3    0  502 -0.80619522882E+03 -0.91658971666E+03 -0.17603238085E+04  0.21421548418E+04  0.50400001928E-02 0. -1.
</event>
<event>
 5   0  0.1276517E-05  0.2708105E+04  0.7818609E-02  0.8332380E-01
        2   -1    0    0  501    0  0.00000000000E+00  0.00000000000E+00  0.22709400005E+04  0.22709400005E+04  0.25500000920E-02 0. -1.
       -2   -1    0    0    0  501  0.00000000000E+00  0.00000000000E+00 -0.80735647221E+03  0.80735647221E+03  0.25500000920E-02 0.  1.
    10030    2    1    2    0    0  0.00000000000E+00  0.00000000000E+00  0.14635835283E+04  0.30782964727E+04  0.27081049517E+04 0.  0.
        1    1    3    3  502    0  0.95239498281E+03  0.96139689089E+03  0.67947992799E+03  0.15142764469E+04  0.50400001928E-02 0. -1.
       -1    1    3    3    0  502 -0.95239498281E+03 -0.96139689089E+03  0.78410360031E+03  0.15640200258E+04  0.50400001928E-02 0.  1.
</event>
<event>
 5   0  0.4756800E-06  0.2693997E+04  0.7818609E-02  0.8336955E-01
       -1   -1    0    0    0  501  0.00000000000E+00  0.00000000000E+00  0.10263580169E+04  0.10263580169E+04  0.50400001928E-02 0. -1.
        1   -1    0    0  501    0  0.00000000000E+00  0.00000000000E+00 -0.17678093291E+04  0.17678093291E+04  0.50400001928E-02 0.  1.
    10030    2    1    2    0    0  0.00000000000E+00  0.00000000000E+00 -0.74145131221E+03  0.27941673460E+04  0.26939972362E+04 0.  0.
        4    1    3    3  502    0  0.10223171988E+04 -0.84364058078E+03 -0.12192764042E+03  0.13310634271E+04  0.12699999809E+01 0.  1.
       -4    1    3    3    0  502 -0.10223171988E+04  0.84364058078E+03 -0.61952367179E+03  0.14631039189E+04  0.12699999809E+01 0. -1.
</event>
<event>
 5   0  0.1232559E-05  0.2706595E+04  0.7818609E-02  0.8332868E-01
        2   -1    0    0  501    0  0.00000000000E+00  0.00000000000E+00  0.19593839306E+04  0.19593839306E+04  0.25500000920E-02 0. -1.
       -2   -1    0    0    0  501  0.00000000000E+00  0.00000000000E+00 -0.93468853495E+03  0.93468853495E+03  0.25500000920E-02 0.  1.
    10030    2    1    2    0    0  0.00000000000E+00  0.00000000000E+00  0.10246953956E+04  0.28940724655E+04  0.27065946837E+04 0.  0.
        3    1    3    3  502    0  0.66697246781E+03 -0.70514935693E+03 -0.49601465282E+03  0.10900084561E+04  0.10100000352E+00 0.  1.
       -3    1    3    3    0  502 -0.66697246781E+03  0.70514935693E+03  0.15207100485E+04  0.18040640094E+04  0.10100000352E+00 0. -1.
</event>
<event>
 5   0  0.5152288E-06  0.2693671E+04  0.7818609E-02  0.8337061E-01
        1   -1    0    0  501    0  0.00000000000E+00  0.00000000000E+00  0.11656240088E+04  0.11656240088E+04  0.50400001928E-02 0. -1.
       -1   -1    0    0    0  501  0.00000000000E+00  0.00000000000E+00 -0.15562184613E+04  0.15562184613E+04  0.50400001928E-02 0.  1.
    10030    2    1    2    0    0  0.00000000000E+00  0.00000000000E+00 -0.39059445254E+03  0.27218424701E+04  0.26936708050E+04 0.  0.
        3    1    3    3  502    0  0.11598431251E+04 -0.70604399707E+02 -0.88340722640E+03  0.14596675629E+04  0.10100000352E+00 0.  1.
       -3    1    3    3    0  502 -0.11598431251E+04  0.70604399707E+02  0.49281277386E+03  0.12621749072E+04  0.10100000352E+00 0. -1.
</event>
<event>
 5   0  0.1276517E-05  0.2615228E+04  0.7818609E-02  0.8363047E-01
       -2   -1    0    0    0  501  0.00000000000E+00  0.00000000000E+00  0.11669882078E+04  0.11669882078E+04  0.25500000920E-02 0.  1.
        2   -1    0    0  501    0  0.00000000000E+00  0.00000000000E+00 -0.14651857278E+04  0.14651857278E+04  0.25500000920E-02 0. -1.
    10030    2    1    2    0    0  0.00000000000E+00  0.00000000000E+00 -0.29819751996E+03  0.26321739356E+04  0.26152280716E+04 0.  0.
        1    1    3    3  502    0 -0.71601550167E+03 -0.14635106956E+03 -0.12404484222E+04  0.14397253635E+04  0.50400001928E-02 0. -1.
       -1    1    3    3    0  502  0.71601550167E+03  0.14635106956E+03  0.94225090227E+03  0.11924485721E+04  0.50400001928E-02 0.  1.
</event>
<event>
 5   0  0.4756800E-06  0.2631003E+04  0.7818609E-02  0.8357746E-01
       -1   -1    0    0    0  501  0.00000000000E+00  0.00000000000E+00  0.17001027623E+04  0.17001027623E+04  0.50400001928E-02 0. -1.
        1   -1    0    0  501    0  0.00000000000E+00  0.00000000000E+00 -0.10179053973E+04  0.10179053973E+04  0.50400001928E-02 0.  1.
    10030    2    1    2    0    0  0.00000000000E+00  0.00000000000E+00  0.68219736506E+03  0.27180081596E+04  0.26310026816E+04 0.  0.
        4    1    3    3  502    0  0.74110446738E+03  0.96734905702E+03  0.85300734579E+03  0.14874888822E+04  0.12699999809E+01 0. -1.
       -4    1    3    3    0  502 -0.74110446738E+03 -0.96734905702E+03 -0.17080998073E+03  0.12305192774E+04  0.12699999809E+01 0.  1.
</event>
<event>
 5   0  0.1232559E-05  0.2740007E+04  0.7818609E-02  0.8322140E-01
       -2   -1    0    0    0  501  0.00000000000E+00  0.00000000000E+00  0.14725773675E+04  0.14725773675E+04  0.25500000920E-02 0.  1.
        2   -1    0    0  501    0  0.00000000000E+00  0.00000000000E+00 -0.12745748467E+04  0.12745748467E+04  0.25500000920E-02 0. -1.
    10030    2    1    2    0    0  0.00000000000E+00  0.00000000000E+00  0.19800252078E+03  0.27471522142E+04  0.27400073521E+04 0.  0.
        3    1    3    3  502    0  0.88658013933E+03 -0.10065084210E+04 -0.18070023826E+03  0.13534164663E+04  0.10100000352E+00 0. -1.
       -3    1    3    3    0  502 -0.88658013933E+03  0.10065084210E+04  0.37870275904E+03  0.13937357479E+04  0.10100000352E+00 0.  1.
</event>
<event>
 5   0  0.4756800E-06  0.2629999E+04  0.7818609E-02  0.8358082E-01
       -1   -1    0    0    0  501  0.00000000000E+00  0.00000000000E+00  0.10306855216E+04  0.10306855216E+04  0.50400001928E-02 0.  1.
        1   -1    0    0  501    0  0.00000000000E+00  0.00000000000E+00 -0.16777417251E+04  0.16777417251E+04  0.50400001928E-02 0. -1.
    10030    2    1    2    0    0  0.00000000000E+00  0.00000000000E+00 -0.64705620356E+03  0.27084272467E+04  0.26299993194E+04 0.  0.
        4    1    3    3  502    0  0.67449267212E+03 -0.86240701529E+03 -0.10736279487E+04  0.15334160589E+04  0.12699999809E+01 0. -1.
       -4    1    3    3    0  502 -0.67449267212E+03  0.86240701529E+03  0.42657174510E+03  0.11750111878E+04  0.12699999809E+01 0.  1.
</event>
<event>
 5   0  0.4188000E-06  0.2668020E+04  0.7818609E-02  0.8345457E-01
        3   -1    0    0  501    0  0.00000000000E+00  0.00000000000E+00  0.10508879583E+04  0.10508879632E+04  0.10100000352E+00 0.  1.
       -3   -1    0    0    0  501  0.00000000000E+00  0.00000000000E+00 -0.16934082395E+04  0.16934082425E+04  0.10100000352E+00 0. -1.
    10030    2    1    2    0    0  0.00000000000E+00  0.00000000000E+00 -0.64252028120E+03  0.27442962057E+04  0.26680197437E+04 0.  0.
        4    1    3    3  502    0 -0.10879784263E+04 -0.52957475486E+03  0.25643187965E+03  0.12368934468E+04  0.12699999809E+01 0.  1.
       -4    1    3    3    0  502  0.10879784263E+04  0.52957475486E+03 -0.89895216086E+03  0.15074027588E+04  0.12699999809E+01 0. -1.
</event>
<event>
 5   0  0.4756800E-06  0.2751749E+04  0.7818609E-02  0.8318407E-01
        1   -1    0    0  501    0  0.00000000000E+00  0.00000000000E+00  0.23717979225E+04  0.23717979225E+04  0.50400001928E-02 0. -1.
       -1   -1    0    0    0  501  0.00000000000E+00  0.00000000000E+00 -0.79814142346E+03  0.79814142348E+03  0.50400001928E-02 0.  1.
    10030    2    1    2    0    0  0.00000000000E+00  0.00000000000E+00  0.15736564990E+04  0.31699393460E+04  0.27517486586E+04 0.  0.
        4    1    3    3  502    0 -0.95745173604E+03 -0.97495536351E+03  0.97177914259E+03  0.16767850496E+04  0.12699999809E+01 0. -1.
       -4    1    3    3    0  502  0.95745173604E+03  0.97495536351E+03  0.60187735642E+03  0.14931542964E+04  0.12699999809E+01 0.  1.
</event>
<event>
 5   0  0.4824715E-06  0.2692770E+04  0.7818609E-02  0.8337355E-01
       -1   -1    0    0    0  501  0.00000000000E+00  0.00000000000E+00  0.14371389055E+04  0.14371389055E+04  0.50400001928E-02 0.  1.
        1   -1    0    0  501    0  0.00000000000E+00  0.00000000000E+00 -0.12613623116E+04  0.12613623116E+04  0.50400001928E-02 0. -1.
    10030    2    1    2    0    0  0.00000000000E+00  0.00000000000E+00  0.17577659391E+03  0.26985012171E+04  0.26927702107E+04 0.  0.
        5    1    3    3  502    0  0.15947635653E+03  0.43025243860E+02  0.14269382889E+04  0.14364744516E+04  0.46999998093E+01 0.  1.
       -5    1    3    3    0  502 -0.15947635653E+03 -0.43025243860E+02 -0.12511616950E+04  0.12620267655E+04  0.46999998093E+01 0. -1.
</event>
<event>
 5   0  0.1220908E-05  0.2673584E+04  0.7818609E-02  0.8343627E-01
       -2   -1    0    0    0  501  0.00000000000E+00  0.00000000000E+00  0.11953492722E+04  0.11953492722E+04  0.25500000920E-02 0.  1.
        2   -1    0    0  501    0  0.00000000000E+00  0.00000000000E+00 -0.14949714735E+04  0.14949714735E+04  0.25500000920E-02 0. -1.
    10030    2    1    2    0    0  0.00000000000E+00  0.00000000000E+00 -0.29962220129E+03  0.26903207456E+04  0.26735841582E+04 0.  0.
        2    1    3    3  502    0 -0.72816318543E+03 -0.10046950818E+02  0.97822855374E+03  0.12195301018E+04  0.25500000920E-02 0.  1.
       -2    1    3    3    0  502  0.72816318543E+03  0.10046950818E+02 -0.12778507550E+04  0.14707906438E+04  0.25500000920E-02 0. -1.
</event>
<event>
 5   0  0.1286641E-05  0.2691249E+04  0.7818609E-02  0.8337850E-01
        2   -1    0    0  501    0  0.00000000000E+00  0.00000000000E+00  0.25278970017E+04  0.25278970017E+04  0.25500000920E-02 0. -1.
       -2   -1    0    0    0  501  0.00000000000E+00  0.00000000000E+00 -0.71628932247E+03  0.71628932247E+03  0.25500000920E-02 0.  1.
    10030    2    1    2    0    0  0.00000000000E+00  0.00000000000E+00  0.18116076792E+04  0.32441863242E+04  0.26912492494E+04 0.  0.
        4    1    3    3  502    0 -0.27592287904E+03  0.46020283848E+03 -0.58174423447E+03  0.79142154062E+03  0.12699999809E+01 0.  1.
       -4    1    3    3    0  502  0.27592287904E+03 -0.46020283848E+03  0.23933519137E+04  0.24527647836E+04  0.12699999809E+01 0. -1.
</event>
<event>
 5   0  0.1261364E-05  0.2698997E+04  0.7818609E-02  0.8335331E-01
        2   -1    0    0  501    0  0.00000000000E+00  0.00000000000E+00  0.23781817799E+04  0.23781817799E+04  0.25500000920E-02 0. -1.
       -2   -1    0    0    0  501  0.00000000000E+00  0.00000000000E+00 -0.76577229293E+03  0.76577229293E+03  0.25500000920E-02 0.  1.
    10030    2    1    2    0    0  0.00000000000E+00  0.00000000000E+00  0.16124094869E+04  0.31439540728E+04  0.26989966392E+04 0.  0.
        5    1    3    3  502    0 -0.10639207415E+04 -0.51875561204E+02  0.17713568594E+04  0.20669653193E+04  0.46999998093E+01 0. -1.
       -5    1    3    3    0  502  0.10639207415E+04  0.51875561204E+02 -0.15894737243E+03  0.10769887535E+04  0.46999998093E+01 0.  1.
</event>
<event>
 5   0  0.1261364E-05  0.2714020E+04  0.7818609E-02  0.8330470E-01
        2   -1    0    0  501    0  0.00000000000E+00  0.00000000000E+00  0.18960947445E+04  0.18960947445E+04  0.25500000920E-02 0.  1.
       -2   -1    0    0    0  501  0.00000000000E+00  0.00000000000E+00 -0.97119419906E+03  0.97119419907E+03  0.25500000920E-02 0. -1.
    10030    2    1    2    0    0  0.00000000000E+00  0.00000000000E+00  0.92490054542E+03  0.28672889436E+04  0.27140200565E+04 0.  0.
        5    1    3    3  502    0 -0.60931745857E+03  0.95214911641E+03  0.12555782895E+04  0.16894835413E+04  0.46999998093E+01 0.  1.
       -5    1    3    3    0  502  0.60931745857E+03 -0.95214911641E+03 -0.33067774408E+03  0.11778054023E+04  0.46999998093E+01 0. -1.
</event>
<event>
 5   0  0.4756800E-06  0.2707948E+04  0.7818609E-02  0.8332431E-01
        1   -1    0    0  501    0  0.00000000000E+00  0.00000000000E+00  0.29588093783E+04  0.29588093783E+04  0.50400001928E-02 0. -1.
       -1   -1    0    0    0  501  0.00000000000E+00  0.00000000000E+00 -0.61958876018E+03  0.61958876020E+03  0.50400001928E-02 0.  1.
    10030    2    1    2    0    0  0.00000000000E+00  0.00000000000E+00  0.23392206182E+04  0.35783981386E+04  0.27079475877E+04 0.  0.
        4    1    3    3  502    0  0.68829000612E+03  0.98160628023E+03  0.33809882957E+03  0.12456349599E+04  0.12699999809E+01 0.  1.
       -4    1    3    3    0  502 -0.68829000612E+03 -0.98160628023E+03  0.20011217886E+04  0.23327631786E+04  0.12699999809E+01 0. -1.
</event>
<event>
 5   0  0.4826140E-06  0.2704109E+04  0.7818609E-02  0.8333673E-01
        1   -1    0    0  501    0  0.00000000000E+00  0.00000000000E+00  0.10611801477E+04  0.10611801477E+04  0.50400001928E-02 0.  1.
       -1   -1    0    0    0  501  0.00000000000E+00  0.00000000000E+00 -0.17226592531E+04  0.17226592531E+04  0.50400001928E-02 0. -1.
    10030    2    1    2    0    0  0.00000000000E+00  0.00000000000E+00 -0.66147910547E+03  0.27838394008E+04  0.27041093178E+04 0.  0.
        1    1    3    3  502    0 -0.12373184208E+04 -0.11323709236E+03 -0.87963192358E+03  0.15223441905E+04  0.50400001928E-02 0. -1.
       -1    1    3    3    0  502  0.12373184208E+04  0.11323709236E+03  0.21815281811E+03  0.12614952103E+04  0.50400001928E-02 0.  1.
</event>
<event>
 5   0  0.1232559E-05  0.2179341E+04  0.7818609E-02  0.8527076E-01
       -2   -1    0    0    0  501  0.00000000000E+00  0.00000000000E+00  0.53641764653E+03  0.53641764653E+03  0.25500000920E-02 0.  1.
        2   -1    0    0  501    0  0.00000000000E+00  0.00000000000E+00 -0.22135407763E+04  0.22135407764E+04  0.25500000920E-02 0. -1.
    10030    2    1    2    0    0  0.00000000000E+00  0.00000000000E+00 -0.16771231298E+04  0.27499584229E+04  0.21793414911E+04 0.  0.
        3    1    3    3  502    0 -0.35352642944E+03 -0.28786018366E+03 -0.20874149721E+04  0.21366201576E+04  0.10100000352E+00 0. -1.
       -3    1    3    3    0  502  0.35352642944E+03  0.28786018366E+03  0.41029184230E+03  0.61333826532E+03  0.10100000352E+00 0.  1.
</event>
<event>
 5   0  0.1276517E-05  0.2704182E+04  0.7818609E-02  0.8333649E-01
        2   -1    0    0  501    0  0.00000000000E+00  0.00000000000E+00  0.16519104846E+04  0.16519104846E+04  0.25500000920E-02 0. -1.
       -2   -1    0    0    0  501  0.00000000000E+00  0.00000000000E+00 -0.11066880490E+04  0.11066880490E+04  0.25500000920E-02 0.  1.
    10030    2    1    2    0    0  0.00000000000E+00  0.00000000000E+00  0.54522243563E+03  0.27585985337E+04  0.27041816443E+04 0.  0.
        1    1    3    3  502    0 -0.54983669349E+02  0.12746815427E+04 -0.18395901164E+03  0.12890605715E+04  0.50400001928E-02 0.  1.
       -1    1    3    3    0  502  0.54983669349E+02 -0.12746815427E+04  0.72918144727E+03  0.14695379621E+04  0.50400001928E-02 0. -1.
</event>
<event>
 5   0  0.1261364E-05  0.2697109E+04  0.7818609E-02  0.8335944E-01
       -2   -1    0    0    0  501  0.00000000000E+00  0.00000000000E+00  0.13535296472E+04  0.13535296472E+04  0.25500000920E-02 0. -1.
        2   -1    0    0  501    0  0.00000000000E+00  0.00000000000E+00 -0.13435971603E+04  0.13435971603E+04  0.25500000920E-02 0.  1.
    10030    2    1    2    0    0  0.00000000000E+00  0.00000000000E+00  0.99324868833E+01  0.26971268076E+04  0.26971085187E+04 0.  0.
        5    1    3    3  502    0  0.10761492499E+03  0.29771404980E+03 -0.13059056714E+04  0.13437359637E+04  0.46999998093E+01 0.  1.
       -5    1    3    3    0  502 -0.10761492499E+03 -0.29771404980E+03  0.13158381583E+04  0.13533908439E+04  0.46999998093E+01 0. -1.
</event>
<event>
 5   0  0.5152288E-06  0.2701977E+04  0.7818609E-02  0.8334364E-01
       -1   -1    0    0    0  501  0.00000000000E+00  0.00000000000E+00  0.11047666037E+04  0.11047666038E+04  0.50400001928E-02 0.  1.
        1   -1    0    0  501    0  0.00000000000E+00  0.00000000000E+00 -0.16520864152E+04  0.16520864152E+04  0.50400001928E-02 0. -1.
    10030    2    1    2    0    0  0.00000000000E+00  0.00000000000E+00 -0.54731981145E+03  0.27568530189E+04  0.27019769784E+04 0.  0.
        3    1    3    3  502    0 -0.64054238425E+02  0.53232368551E+03 -0.15388842929E+04  0.16296123247E+04  0.10100000352E+00 0. -1.
       -3    1    3    3    0  502  0.64054238425E+02 -0.53232368551E+03  0.99156448148E+03  0.11272406942E+04  0.10100000352E+00 0.  1.
</event>
<event>
 5   0  0.1220908E-05  0.2776223E+04  0.7818609E-02  0.8310689E-01
        2   -1    0    0  501    0  0.00000000000E+00  0.00000000000E+00  0.15550162657E+04  0.15550162657E+04  0.25500000920E-02 0. -1.
       -2   -1    0    0    0  501  0.00000000000E+00  0.00000000000E+00 -0.12391207238E+04  0.12391207238E+04  0.25500000920E-02 0.  1.
    10030    2    1    2    0    0  0.00000000000E+00  0.00000000000E+00  0.31589554184E+03  0.27941369895E+04  0.27762225276E+04 0.  0.
        2    1    3    3  502    0  0.29917872974E+02 -0.80286181897E+03 -0.98133312632E+03  0.12682653052E+04  0.25500000920E-02 0.  1.
       -2    1    3    3    0  502 -0.29917872974E+02  0.80286181897E+03  0.12972286682E+04  0.15258716843E+04  0.25500000920E-02 0. -1.
</event>
<event>
 5   0  0.4826140E-06  0.2725860E+04  0.7818609E-02  0.8326663E-01
        1   -1    0    0  501    0  0.00000000000E+00  0.00000000000E+00  0.16095268431E+04  0.16095268431E+04  0.50400001928E-02 0. -1.
       -1   -1    0    0    0  501  0.00000000000E+00  0.00000000000E+00 -0.11541145228E+04  0.11541145228E+04  0.50400001928E-02 0.  1.
    10030    2    1    2    0    0  0.00000000000E+00  0.00000000000E+00  0.45541232036E+03  0.27636413659E+04  0.27258600877E+04 0.  0.
        1    1    3    3  502    0  0.12614896503E+04 -0.19872261557E+03 -0.25505691329E+03  0.13022675781E+04  0.50400001928E-02 0.  1.
       -1    1    3    3    0  502 -0.12614896503E+04  0.19872261557E+03  0.71046923365E+03  0.14613737879E+04  0.50400001928E-02 0. -1.
</event>
<event>
 5   0  0.1232559E-05  0.2702302E+04  0.7818609E-02  0.8334259E-01
       -2   -1    0    0    0  501  0.00000000000E+00  0.00000000000E+00  0.16469793414E+04  0.16469793414E+04  0.25500000920E-02 0. -1.
        2   -1    0    0  501    0  0.00000000000E+00  0.00000000000E+00 -0.11084587922E+04  0.11084587922E+04  0.25500000920E-02 0.  1.
    10030    2    1    2    0    0  0.00000000000E+00  0.00000000000E+00  0.53852054918E+03  0.27554381335E+04  0.27023017829E+04 0.  0.
        3    1    3    3  502    0 -0.61924510081E+03 -0.56025545096E+03  0.13523415265E+04  0.15893955706E+04  0.10100000352E+00 0. -1.
       -3    1    3    3    0  502  0.61924510081E+03  0.56025545096E+03 -0.81382097736E+03  0.11660425629E+04  0.10100000352E+00 0.  1.
</event>
<event>
 5   0  0.1220908E-05  0.2703870E+04  0.7818609E-02  0.8333750E-01
        2   -1    0    0  501    0  0.00000000000E+00  0.00000000000E+00  0.28981988929E+04  0.28981988929E+04  0.25500000920E-02 0. -1.
       -2   -1    0    0    0  501  0.00000000000E+00  0.00000000000E+00 -0.63064277038E+03  0.63064277038E+03  0.25500000920E-02 0.  1.
    10030    2    1    2    0    0  0.00000000000E+00  0.00000000000E+00  0.22675561225E+04  0.35288416632E+04  0.27038699517E+04 0.  0.
        2    1    3    3  502    0  0.83597332764E+03 -0.65624302173E+03  0.43234301477E+02  0.10636613714E+04  0.25500000920E-02 0.  1.
       -2    1    3    3    0  502 -0.83597332764E+03  0.65624302173E+03  0.22243218210E+04  0.24651802919E+04  0.25500000920E-02 0. -1.
</event>
<event>
 5   0  0.4826140E-06  0.2695120E+04  0.7818609E-02  0.8336590E-01
       -1   -1    0    0    0  501  0.00000000000E+00  0.00000000000E+00  0.58308643876E+03  0.58308643879E+03  0.50400001928E-02 0.  1.
        1   -1    0    0  501    0  0.00000000000E+00  0.00000000000E+00 -0.31143206335E+04  0.31143206335E+04  0.50400001928E-02 0. -1.
    10030    2    1    2    0    0  0.00000000000E+00  0.00000000000E+00 -0.25312341947E+04  0.36974070723E+04  0.26951201290E+04 0.  0.
        1    1    3    3  502    0 -0.65647730175E+03  0.69744832408E+03 -0.25660363191E+04  0.27389667766E+04  0.50400001928E-02 0. -1.
       -1    1    3    3    0  502  0.65647730175E+03 -0.69744832408E+03  0.34802124367E+02  0.95844029567E+03  0.50400001928E-02 0.  1.
</event>
<event>
 5   0  0.1261364E-05  0.2618248E+04  0.7818609E-02  0.8362029E-01
        2   -1    0    0  501    0  0.00000000000E+00  0.00000000000E+00  0.22628018094E+04  0.22628018094E+04  0.25500000920E-02 0. -1.
       -2   -1    0    0    0  501  0.00000000000E+00  0.00000000000E+00 -0.75738210823E+03  0.75738210824E+03  0.25500000920E-02 0.  1.
    10030    2    1    2    0    0  0.00000000000E+00  0.00000000000E+00  0.15054197011E+04  0.30201839176E+04  0.26182479676E+04 0.  0.
        5    1    3    3  502    0 -0.35453085024E+03  0.19328025068E+03  0.21891624152E+04  0.22260960332E+04  0.46999998093E+01 0. -1.
       -5    1    3    3    0  502  0.35453085024E+03 -0.19328025068E+03 -0.68374271406E+03  0.79408788437E+03  0.46999998093E+01 0.  1.
</event>
<event>
 5   0  0.1220908E-05  0.2645511E+04  0.7818609E-02  0.8352905E-01
       -2   -1    0    0    0  501  0.00000000000E+00  0.00000000000E+00  0.92292447728E+03  0.92292447728E+03  0.25500000920E-02 0. -1.
        2   -1    0    0  501    0  0.00000000000E+00  0.00000000000E+00 -0.18958017070E+04  0.18958017070E+04  0.25500000920E-02 0.  1.
    10030    2    1    2    0    0  0.00000000000E+00  0.00000000000E+00 -0.97287722974E+03  0.28187261843E+04  0.26455107631E+04 0.  0.
        2    1    3    3  502    0 -0.38958489168E+03  0.10050248059E+04  0.33046239690E+03  0.11274114795E+04  0.25500000920E-02 0. -1.
       -2    1    3    3    0  502  0.38958489168E+03 -0.10050248059E+04 -0.13033396266E+04  0.16913147048E+04  0.25500000920E-02 0.  1.
</event>
<event>
 5   0  0.1261364E-05  0.2700246E+04  0.7818609E-02  0.8334925E-01
        2   -1    0    0  501    0  0.00000000000E+00  0.00000000000E+00  0.18563285493E+04  0.18563285493E+04  0.25500000920E-02 0.  1.
       -2   -1    0    0    0  501  0.00000000000E+00  0.00000000000E+00 -0.98195576589E+03  0.98195576589E+03  0.25500000920E-02 0. -1.
    10030    2    1    2    0    0  0.00000000000E+00  0.00000000000E+00  0.87437278341E+03  0.28382843152E+04  0.27002463016E+04 0.  0.
        5    1    3    3  502    0 -0.12897677894E+04 -0.33778222057E+03  0.66068895807E+03  0.14879952179E+04  0.46999998093E+01 0.  1.
       -5    1    3    3    0  502  0.12897677894E+04  0.33778222057E+03  0.21368382533E+03  0.13502890973E+04  0.46999998093E+01 0. -1.
</event>
<event>
 5   0  0.4826140E-06  0.2716132E+04  0.7818609E-02  0.8329790E-01
        1   -1    0    0  501    0  0.00000000000E+00  0.00000000000E+00  0.13660444097E+04  0.13660444097E+04  0.50400001928E-02 0. -1.
       -1   -1    0    0    0  501  0.00000000000E+00  0.00000000000E+00 -0.13501342820E+04  0.13501342821E+04  0.50400001928E-02 0.  1.
    10030    2    1    2    0    0  0.00000000000E+00  0.00000000000E+00  0.15910127659E+02  0.27161786918E+04  0.27161320942E+04 0.  0.
        1    1    3    3  502    0 -0.54508535064E+03  0.56559194009E+03 -0.10999137092E+04  0.13515999593E+04  0.50400001928E-02 0.  1.
       -1    1    3    3    0  502  0.54508535064E+03 -0.56559194009E+03  0.11158238369E+04  0.13645787325E+04  0.50400001928E-02 0. -1.
</event>
<event>
 5   0  0.1286641E-05  0.2636273E+04  0.7818609E-02  0.8355984E-01
        2   -1    0    0  501    0  0.00000000000E+00  0.00000000000E+00  0.23828871843E+04  0.23828871843E+04  0.25500000920E-02 0. -1.
       -2   -1    0    0    0  501  0.00000000000E+00  0.00000000000E+00 -0.72915043292E+03  0.72915043292E+03  0.25500000920E-02 0.  1.
    10030    2    1    2    0    0  0.00000000000E+00  0.00000000000E+00  0.16537367514E+04  0.31120376172E+04  0.26362725368E+04 0.  0.
        4    1    3    3  502    0  0.87424650492E+02 -0.11407876822E+04  0.54186806075E+02  0.11454158321E+04  0.12699999809E+01 0.  1.
       -4    1    3    3    0  502 -0.87424650492E+02  0.11407876822E+04  0.15995499453E+04  0.19666217852E+04  0.12699999809E+01 0. -1.
</event>
<event>
 5   0  0.1232559E-05  0.2697364E+04  0.7818609E-02  0.8335861E-01
        2   -1    0    0  501    0  0.00000000000E+00  0.00000000000E+00  0.17827188592E+04  0.17827188592E+04  0.25500000920E-02 0.  1.
       -2   -1    0    0    0  501  0.00000000000E+00  0.00000000000E+00 -0.10203193761E+04  0.10203193761E+04  0.25500000920E-02 0. -1.
    10030    2    1    2    0    0  0.00000000000E+00  0.00000000000E+00  0.76239948306E+03  0.28030382352E+04  0.26973635974E+04 0.  0.
        3    1    3    3  502    0  0.10423954301E+04 -0.62037640557E+03 -0.23137502365E+03  0.12349046639E+04  0.10100000352E+00 0. -1.
       -3    1    3    3    0  502 -0.10423954301E+04  0.62037640557E+03  0.99377450671E+03  0.15681335713E+04  0.10100000352E+00 0.  1.
</event>
<event>
 5   0  0.1261364E-05  0.2693541E+04  0.7818609E-02  0.8337104E-01
        2   -1    0    0  501    0  0.00000000000E+00  0.00000000000E+00  0.17088615762E+04  0.17088615762E+04  0.25500000920E-02 0. -1.
       -2   -1    0    0    0  501  0.00000000000E+00  0.00000000000E+00 -0.10614028507E+04  0.10614028507E+04  0.25500000920E-02 0.  1.
    10030    2    1    2    0    0  0.00000000000E+00  0.00000000000E+00  0.64745872544E+03  0.27702644269E+04  0.26935408283E+04 0.  0.
        5    1    3    3  502    0  0.83524897011E+03  0.91571048520E+03  0.86561656945E+03  0.15117806290E+04  0.46999998093E+01 0. -1.
       -5    1    3    3    0  502 -0.83524897011E+03 -0.91571048520E+03 -0.21815784401E+03  0.12584837979E+04  0.46999998093E+01 0.  1.
</event>
<event>
 5   0  0.1232559E-05  0.2703117E+04  0.7818609E-02  0.8333994E-01
        2   -1    0    0  501    0  0.00000000000E+00  0.00000000000E+00  0.18012535915E+04  0.18012535915E+04  0.25500000920E-02 0. -1.
       -2   -1    0    0    0  501  0.00000000000E+00  0.00000000000E+00 -0.10141328244E+04  0.10141328244E+04  0.25500000920E-02 0.  1.
    10030    2    1    2    0    0  0.00000000000E+00  0.00000000000E+00  0.78712076713E+03  0.28153864160E+04  0.27031170099E+04 0.  0.
        3    1    3    3  502    0 -0.46153911363E+03 -0.46822697952E+03 -0.83635575154E+03  0.10638354248E+04  0.10100000352E+00 0.  1.
       -3    1    3    3    0  502  0.46153911363E+03  0.46822697952E+03  0.16234765187E+04  0.17515509912E+04  0.10100000352E+00 0. -1.
</event>
<event>
 5   0  0.5152288E-06  0.2693812E+04  0.7818609E-02  0.8337016E-01
       -1   -1    0    0    0  501  0.00000000000E+00  0.00000000000E+00  0.75011115812E+03  0.75011115814E+03  0.50400001928E-02 0.  1.
        1   -1    0    0  501    0  0.00000000000E+00  0.00000000000E+00 -0.24185157897E+04  0.24185157897E+04  0.50400001928E-02 0. -1.
    10030    2    1    2    0    0  0.00000000000E+00  0.00000000000E+00 -0.16684046316E+04  0.31686269478E+04  0.26938119311E+04 0.  0.
        3    1    3    3  502    0 -0.21705196467E+03 -0.11169666973E+04 -0.16819510491E+04  0.20306859678E+04  0.10100000352E+00 0. -1.
       -3    1    3    3    0  502  0.21705196467E+03  0.11169666973E+04  0.13546417501E+02  0.11379409800E+04  0.10100000352E+00 0.  1.
</event>
<event>
 5   0  0.5152288E-06  0.2695506E+04  0.7818609E-02  0.8336465E-01
       -1   -1    0    0    0  501  0.00000000000E+00  0.00000000000E+00  0.10714024848E+04  0.10714024848E+04  0.50400001928E-02 0. -1.
        1   -1    0    0  501    0  0.00000000000E+00  0.00000000000E+00 -0.16953832538E+04  0.16953832538E+04  0.50400001928E-02 0.  1.
    10030    2    1    2    0    0  0.00000000000E+00  0.00000000000E+00 -0.62398076898E+03  0.27667857386E+04  0.26955057640E+04 0.  0.
        3    1    3    3  502    0 -0.66798484155E+03 -0.10464671970E+04  0.22641885872E+03  0.12619678493E+04  0.10100000352E+00 0. -1.
       -3    1    3    3    0  502  0.66798484155E+03  0.10464671970E+04 -0.85039962770E+03  0.15048178893E+04  0.10100000352E+00 0.  1.
</event>
<event>
 5   0  0.1286641E-05  0.2709053E+04  0.7818609E-02  0.8332074E-01
        2   -1    0    0  501    0  0.00000000000E+00  0.00000000000E+00  0.27235327977E+04  0.27235327977E+04  0.25500000920E-02 0.  1.
       -2   -1    0    0    0  501  0.00000000000E+00  0.00000000000E+00 -0.67366239066E+03  0.67366239067E+03  0.25500000920E-02 0. -1.
    10030    2    1    2    0    0  0.00000000000E+00  0.00000000000E+00  0.20498704071E+04  0.33971951884E+04  0.27090526873E+04 0.  0.
        4    1    3    3  502    0  0.80331721961E+03  0.72220437266E+03  0.20497373055E+04  0.23169640364E+04  0.12699999809E+01 0.  1.
       -4    1    3    3    0  502 -0.80331721961E+03 -0.72220437266E+03  0.13310152726E+00  0.10802311520E+04  0.12699999809E+01 0. -1.
</event>
<event>
 5   0  0.4824715E-06  0.2730718E+04  0.7818609E-02  0.8325106E-01
        1   -1    0    0  501    0  0.00000000000E+00  0.00000000000E+00  0.14427760626E+04  0.14427760626E+04  0.50400001928E-02 0. -1.
       -1   -1    0    0    0  501  0.00000000000E+00  0.00000000000E+00 -0.12920959969E+04  0.12920959969E+04  0.50400001928E-02 0.  1.
    10030    2    1    2    0    0  0.00000000000E+00  0.00000000000E+00  0.15068006569E+03  0.27348720596E+04  0.27307179825E+04 0.  0.
        5    1    3    3  502    0 -0.60942408956E+03  0.52356347812E+02 -0.11471905616E+04  0.13000796832E+04  0.46999998093E+01 0.  1.
       -5    1    3    3    0  502  0.60942408956E+03 -0.52356347812E+02  0.12978706273E+04  0.14347923764E+04  0.46999998093E+01 0. -1.
</event>
<event>
 5   0  0.5152288E-06  0.2709124E+04  0.7818609E-02  0.8332050E-01
        1   -1    0    0  501    0  0.00000000000E+00  0.00000000000E+00  0.11659861194E+04  0.11659861194E+04  0.50400001928E-02 0. -1.
       -1   -1    0    0    0  501  0.00000000000E+00  0.00000000000E+00 -0.15736369226E+04  0.15736369226E+04  0.50400001928E-02 0.  1.
    10030    2    1    2    0    0  0.00000000000E+00  0.00000000000E+00 -0.40765080319E+03  0.27396230420E+04  0.27091244406E+04 0.  0.
        3    1    3    3  502    0  0.11684418073E+04 -0.31801477678E+03  0.41000816198E+03  0.12784742307E+04  0.10100000352E+00 0. -1.
       -3    1    3    3    0  502 -0.11684418073E+04  0.31801477678E+03 -0.81765896517E+03  0.14611488113E+04  0.10100000352E+00 0.  1.
</event>
<event>
 5   0  0.4188000E-06  0.2730469E+04  0.7818609E-02  0.8325186E-01
        3   -1    0    0  501    0  0.00000000000E+00  0.00000000000E+00  0.95425462541E+03  0.95425463076E+03  0.10100000352E+00 0.  1.
       -3   -1    0    0    0  501  0.00000000000E+00  0.00000000000E+00 -0.19532153041E+04  0.19532153067E+04  0.10100000352E+00 0. -1.
    10030    2    1    2    0    0  0.00000000000E+00  0.00000000000E+00 -0.99896067871E+03  0.29074699375E+04  0.27304686411E+04 0.  0.
        3    1    3    3  502    0  0.71582596387E+02 -0.55226920218E+03  0.82781365464E+03  0.99769774821E+03  0.10100000352E+00 0.  1.
       -3    1    3    3    0  502 -0.71582596387E+02  0.55226920218E+03 -0.18267743333E+04  0.19097721893E+04  0.10100000352E+00 0. -1.
</event>
<event>
 5   0  0.5152288E-06  0.2706466E+04  0.7818609E-02  0.8332910E-01
       -1   -1    0    0    0  501  0.00000000000E+00  0.00000000000E+00  0.24981052464E+04  0.24981052464E+04  0.50400001928E-02 0.  1.
        1   -1    0    0  501    0  0.00000000000E+00  0.00000000000E+00 -0.73305113932E+03  0.73305113934E+03  0.50400001928E-02 0. -1.
    10030    2    1    2    0    0  0.00000000000E+00  0.00000000000E+00  0.17650541071E+04  0.32311563858E+04  0.27064655158E+04 0.  0.
        3    1    3    3  502    0 -0.82378177633E+03 -0.56944930086E+03  0.19691088110E+04  0.22091352247E+04  0.10100000352E+00 0.  1.
       -3    1    3    3    0  502  0.82378177633E+03  0.56944930086E+03 -0.20405470391E+03  0.10220211611E+04  0.10100000352E+00 0. -1.
</event>
<event>
 5   0  0.1276517E-05  0.2734338E+04  0.7818609E-02  0.8323949E-01
        2   -1    0    0  501    0  0.00000000000E+00  0.00000000000E+00  0.23048886623E+04  0.23048886623E+04  0.25500000920E-02 0.  1.
       -2   -1    0    0    0  501  0.00000000000E+00  0.00000000000E+00 -0.81095057001E+03  0.81095057001E+03  0.25500000920E-02 0. -1.
    10030    2    1    2    0    0  0.00000000000E+00  0.00000000000E+00  0.14939380923E+04  0.31158392323E+04  0.27343377805E+04 0.  0.
        1    1    3    3  502    0 -0.11340731854E+04 -0.37732602882E+03 -0.94660384120E+01  0.11952349258E+04  0.50400001928E-02 0. -1.
       -1    1    3    3    0  502  0.11340731854E+04  0.37732602882E+03  0.15034041307E+04  0.19206043065E+04  0.50400001928E-02 0.  1.
</event>
<event>
 5   0  0.4846214E-06  0.2692816E+04  0.7818609E-02  0.8337340E-01
       -1   -1    0    0    0  501  0.00000000000E+00  0.00000000000E+00  0.14439062430E+04  0.14439062430E+04  0.50400001928E-02 0. -1.
        1   -1    0    0  501    0  0.00000000000E+00  0.00000000000E+00 -0.12554936471E+04  0.12554936471E+04  0.50400001928E-02 0.  1.
    10030    2    1    2    0    0  0.00000000000E+00  0.00000000000E+00  0.18841259581E+03  0.26993998901E+04  0.26928164550E+04 0.  0.
        2    1    3    3  502    0 -0.10843331797E+04  0.68589655121E+03  0.50334944416E+03  0.13782573005E+04  0.25500000920E-02 0. -1.
       -2    1    3    3    0  502  0.10843331797E+04 -0.68589655121E+03 -0.31493684835E+03  0.13211425896E+04  0.25500000920E-02 0.  1.
</event>
<event>
 5   0  0.5152288E-06  0.2640135E+04  0.7818609E-02  0.8354695E-01
       -1   -1    0    0    0  501  0.00000000000E+00  0.00000000000E+00  0.10049551363E+04  0.10049551363E+04  0.50400001928E-02 0.  1.
        1   -1    0    0  501    0  0.00000000000E+00  0.00000000000E+00 -0.17339854578E+04  0.17339854578E+04  0.50400001928E-02 0. -1.
    10030    2    1    2    0    0  0.00000000000E+00  0.00000000000E+00 -0.72903032152E+03  0.27389405941E+04  0.26401345360E+04 0.  0.
        3    1    3    3  502    0 -0.23680305420E+03  0.92490159115E+02  0.97931917798E+03  0.10117787202E+04  0.10100000352E+00 0.  1.
       -3    1    3    3    0  502  0.23680305420E+03 -0.92490159115E+02 -0.17083494995E+04  0.17271618739E+04  0.10100000352E+00 0. -1.
</event>
<event>
 5   0  0.4846214E-06  0.2702891E+04  0.7818609E-02  0.8334067E-01
        1   -1    0    0  501    0  0.00000000000E+00  0.00000000000E+00  0.14243502286E+04  0.14243502286E+04  0.50400001928E-02 0. -1.
       -1   -1    0    0    0  501  0.00000000000E+00  0.00000000000E+00 -0.12822727057E+04  0.12822727057E+04  0.50400001928E-02 0.  1.
    10030    2    1    2    0    0  0.00000000000E+00  0.00000000000E+00  0.14207752290E+03  0.27066229343E+04  0.27028913567E+04 0.  0.
        2    1    3    3  502    0  0.10706756038E+04  0.75295702811E+03  0.40782865479E+03  0.13709904254E+04  0.25500000920E-02 0. -1.
       -2    1    3    3    0  502 -0.10706756038E+04 -0.75295702811E+03 -0.26575113189E+03  0.13356325089E+04  0.25500000920E-02 0.  1.
</event>
<event>
 5   0  0.5152288E-06  0.2784813E+04  0.7818609E-02  0.8307999E-01
        1   -1    0    0  501    0  0.00000000000E+00  0.00000000000E+00  0.19199766426E+04  0.19199766426E+04  0.50400001928E-02 0.  1.
       -1   -1    0    0    0  501  0.00000000000E+00  0.00000000000E+00 -0.10098021470E+04  0.10098021470E+04  0.50400001928E-02 0. -1.
    10030    2    1    2    0    0  0.00000000000E+00  0.00000000000E+00  0.91017449563E+03  0.29297787896E+04  0.27848134845E+04 0.  0.
        3    1    3    3  502    0 -0.13123215512E+04  0.11863295644E+03  0.92855308204E+03  0.16119778127E+04  0.10100000352E+00 0.  1.
       -3    1    3    3    0  502  0.13123215512E+04 -0.11863295644E+03 -0.18378586408E+02  0.13178009770E+04  0.10100000352E+00 0. -1.
</event>
<event>
 5   0  0.1261364E-05  0.2680919E+04  0.7818609E-02  0.8341223E-01
        2   -1    0    0  501    0  0.00000000000E+00  0.00000000000E+00  0.17245017145E+04  0.17245017145E+04  0.25500000920E-02 0. -1.
       -2   -1    0    0    0  501  0.00000000000E+00  0.00000000000E+00 -0.10419426939E+04  0.10419426939E+04  0.25500000920E-02 0.  1.
    10030    2    1    2    0    0  0.00000000000E+00  0.00000000000E+00  0.68255902064E+03  0.27664444084E+04  0.26809192170E+04 0.  0.
        5    1    3    3  502    0 -0.54201302133E+03  0.72807809191E+03 -0.67656144280E+03  0.11320924428E+04  0.46999998093E+01 0.  1.
       -5    1    3    3    0  502  0.54201302133E+03 -0.72807809191E+03  0.13591204634E+04  0.16343519656E+04  0.46999998093E+01 0. -1.
</event>
<event>
 5   0  0.1276517E-05  0.2735305E+04  0.7818609E-02  0.8323640E-01
       -2   -1    0    0    0  501  0.00000000000E+00  0.00000000000E+00  0.16466148348E+04  0.16466148348E+04  0.25500000920E-02 0.  1.
        2   -1    0    0  501    0  0.00000000000E+00  0.00000000000E+00 -0.11359503393E+04  0.11359503393E+04  0.25500000920E-02 0. -1.
    10030    2    1    2    0    0  0.00000000000E+00  0.00000000000E+00  0.51066449543E+03  0.27825651741E+04  0.27353045025E+04 0.  0.
        1    1    3    3  502    0 -0.46976226379E+03  0.12514740598E+04  0.54948003869E+03  0.14452654496E+04  0.50400001928E-02 0.  1.
       -1    1    3    3    0  502  0.46976226379E+03 -0.12514740598E+04 -0.38815543252E+02  0.13372997245E+04  0.50400001928E-02 0. -1.
</event>
<event>
 5   0  0.4826140E-06  0.2745772E+04  0.7818609E-02  0.8320305E-01
       -1   -1    0    0    0  501  0.00000000000E+00  0.00000000000E+00  0.14175590249E+04  0.14175590249E+04  0.50400001928E-02 0. -1.
        1   -1    0    0  501    0  0.00000000000E+00  0.00000000000E+00 -0.13296204610E+04  0.13296204610E+04  0.50400001928E-02 0.  1.
    10030    2    1    2    0    0  0.00000000000E+00  0.00000000000E+00  0.87938563861E+02  0.27471794859E+04  0.27457716469E+04 0.  0.
        1    1    3    3  502    0  0.12445849373E+04  0.57829391461E+03  0.81404590918E+02  0.13747880656E+04  0.50400001928E-02 0. -1.
       -1    1    3    3    0  502 -0.12445849373E+04 -0.57829391461E+03  0.65339729433E+01  0.13723914203E+04  0.50400001928E-02 0.  1.
</event>
<event>
 5   0  0.1220908E-05  0.2689571E+04  0.7818609E-02  0.8338397E-01
        2   -1    0    0  501    0  0.00000000000E+00  0.00000000000E+00  0.19277206495E+04  0.19277206495E+04  0.25500000920E-02 0. -1.
       -2   -1    0    0    0  501  0.00000000000E+00  0.00000000000E+00 -0.93812757332E+03  0.93812757333E+03  0.25500000920E-02 0.  1.
    10030    2    1    2    0    0  0.00000000000E+00  0.00000000000E+00  0.98959307618E+03  0.28658482228E+04  0.26895708914E+04 0.  0.
        2    1    3    3  502    0  0.71312094664E+01 -0.61731395276E+03 -0.77821091330E+03  0.99334767126E+03  0.25500000920E-02 0.  1.
       -2    1    3    3    0  502 -0.71312094664E+01  0.61731395276E+03  0.17678039895E+04  0.18725005516E+04  0.25500000920E-02 0. -1.
</event>
<event>
 5   0  0.1261364E-05  0.2697786E+04  0.7818609E-02  0.8335724E-01
       -2   -1    0    0    0  501  0.00000000000E+00  0.00000000000E+00  0.76646329247E+03  0.76646329248E+03  0.25500000920E-02 0.  1.
        2   -1    0    0  501    0  0.00000000000E+00  0.00000000000E+00 -0.23739058919E+04  0.23739058919E+04  0.25500000920E-02 0. -1.
    10030    2    1    2    0    0  0.00000000000E+00  0.00000000000E+00 -0.16074425995E+04  0.31403691844E+04  0.26977855556E+04 0.  0.
        5    1    3    3  502    0 -0.57459381111E+02  0.12412448171E+04 -0.19273203613E+03  0.12574410540E+04  0.46999998093E+01 0.  1.
       -5    1    3    3    0  502  0.57459381111E+02 -0.12412448171E+04 -0.14147105633E+04  0.18829281305E+04  0.46999998093E+01 0. -1.
</event>
<event>
 5   0  0.4846214E-06  0.2688587E+04  0.7818609E-02  0.8338718E-01
       -1   -1    0    0    0  501  0.00000000000E+00  0.00000000000E+00  0.13458935596E+04  0.13458935596E+04  0.50400001928E-02 0.  1.
        1   -1    0    0  501    0  0.00000000000E+00  0.00000000000E+00 -0.13426949485E+04  0.13426949485E+04  0.50400001928E-02 0. -1.
    10030    2    1    2    0    0  0.00000000000E+00  0.00000000000E+00  0.31986110257E+01  0.26885885081E+04  0.26885866054E+04 0.  0.
        2    1    3    3  502    0  0.52835575431E+03 -0.59476544168E+03 -0.10820152071E+04  0.13430050790E+04  0.25500000920E-02 0. -1.
       -2    1    3    3    0  502 -0.52835575431E+03  0.59476544168E+03  0.10852138181E+04  0.13455834291E+04  0.25500000920E-02 0.  1.
</event>
<event>
 5   0  0.1220908E-05  0.2712222E+04  0.7818609E-02  0.8331050E-01
        2   -1    0    0  501    0  0.00000000000E+00  0.00000000000E+00  0.18254308159E+04  0.18254308159E+04  0.25500000920E-02 0.  1.
       -2   -1    0    0    0  501  0.00000000000E+00  0.00000000000E+00 -0.10074534390E+04  0.10074534390E+04  0.25500000920E-02 0. -1.
    10030    2    1    2    0    0  0.00000000000E+00  0.00000000000E+00  0.81797737686E+03  0.28328842549E+04  0.27122216378E+04 0.  0.
        2    1    3    3  502    0 -0.11332898491E+04 -0.52725312099E+03  0.95840831137E+03  0.15750835619E+04  0.25500000920E-02 0.  1.
       -2    1    3    3    0  502  0.11332898491E+04  0.52725312099E+03 -0.14043093451E+03  0.12578006929E+04  0.25500000920E-02 0. -1.
</event>
<event>
 5   0  0.1232559E-05  0.2682798E+04  0.7818609E-02  0.8340608E-01
       -2   -1    0    0    0  501  0.00000000000E+00  0.00000000000E+00  0.11194950833E+04  0.11194950833E+04  0.25500000920E-02 0.  1.
        2   -1    0    0  501    0  0.00000000000E+00  0.00000000000E+00 -0.16072883280E+04  0.16072883280E+04  0.25500000920E-02 0. -1.
    10030    2    1    2    0    0  0.00000000000E+00  0.00000000000E+00 -0.48779324466E+03  0.27267834114E+04  0.26827980772E+04 0.  0.
        3    1    3    3  502    0 -0.57747401572E+03 -0.68570164700E+03 -0.12580984221E+04  0.15448218789E+04  0.10100000352E+00 0. -1.
       -3    1    3    3    0  502  0.57747401572E+03  0.68570164700E+03  0.77030517748E+03  0.11819615324E+04  0.10100000352E+00 0.  1.
</event>
<event>
 5   0  0.4188000E-06  0.2591295E+04  0.7818609E-02  0.8371164E-01
       -3   -1    0    0    0  501  0.00000000000E+00  0.00000000000E+00  0.14974204400E+04  0.14974204434E+04  0.10100000352E+00 0.  1.
        3   -1    0    0  501    0  0.00000000000E+00  0.00000000000E+00 -0.11210630142E+04  0.11210630187E+04  0.10100000352E+00 0. -1.
    10030    2    1    2    0    0  0.00000000000E+00  0.00000000000E+00  0.37635742577E+03  0.26184834621E+04  0.25912951838E+04 0.  0.
        4    1    3    3  502    0 -0.12663227471E-01 -0.27054948189E+03  0.14685580292E+04  0.14932720182E+04  0.12699999809E+01 0.  1.
       -4    1    3    3    0  502  0.12663227471E-01  0.27054948189E+03 -0.10922006035E+04  0.11252114439E+04  0.12699999809E+01 0. -1.
</event>
<event>
 5   0  0.4824715E-06  0.2689274E+04  0.7818609E-02  0.8338494E-01
        1   -1    0    0  501    0  0.00000000000E+00  0.00000000000E+00  0.23967668673E+04  0.23967668673E+04  0.50400001928E-02 0.  1.
       -1   -1    0    0    0  501  0.00000000000E+00  0.00000000000E+00 -0.75436990912E+03  0.75436990914E+03  0.50400001928E-02 0. -1.
    10030    2    1    2    0    0  0.00000000000E+00  0.00000000000E+00  0.16423969582E+04  0.31511367765E+04  0.26892741057E+04 0.  0.
        5    1    3    3  502    0 -0.21028201128E+03  0.82307589858E+03  0.20424859985E+04  0.22121129273E+04  0.46999998093E+01 0.  1.
       -5    1    3    3    0  502  0.21028201128E+03 -0.82307589858E+03 -0.40008904031E+03  0.93902384915E+03  0.46999998093E+01 0. -1.
</event>
<event>
 5   0  0.1276517E-05  0.2708253E+04  0.7818609E-02  0.8332332E-01
        2   -1    0    0  501    0  0.00000000000E+00  0.00000000000E+00  0.22390434722E+04  0.22390434722E+04  0.25500000920E-02 0.  1.
       -2   -1    0    0    0  501  0.00000000000E+00  0.00000000000E+00 -0.81894740076E+03  0.81894740076E+03  0.25500000920E-02 0. -1.
    10030    2    1    2    0    0  0.00000000000E+00  0.00000000000E+00  0.14200960715E+04  0.30579908730E+04  0.27082531874E+04 0.  0.
        1    1    3    3  502    0  0.11088832331E+04 -0.21867368475E+03  0.15521597063E+04  0.19200624883E+04  0.50400001928E-02 0.  1.
       -1    1    3    3    0  502 -0.11088832331E+04  0.21867368475E+03 -0.13206363477E+03  0.11379283847E+04  0.50400001928E-02 0. -1.
</event>
<event>
 5   0  0.4756800E-06  0.2685616E+04  0.7818609E-02  0.8339687E-01
        1   -1    0    0  501    0  0.00000000000E+00  0.00000000000E+00  0.20589253635E+04  0.20589253635E+04  0.50400001928E-02 0.  1.
       -1   -1    0    0    0  501  0.00000000000E+00  0.00000000000E+00 -0.87576456694E+03  0.87576456695E+03  0.50400001928E-02 0. -1.
    10030    2    1    2    0    0  0.00000000000E+00  0.00000000000E+00  0.11831607966E+04  0.29346899305E+04  0.26856164129E+04 0.  0.
        4    1    3    3  502    0  0.58855756405E+03 -0.72578052303E+03 -0.46220906389E+03  0.10424951825E+04  0.12699999809E+01 0. -1.
       -4    1    3    3    0  502 -0.58855756405E+03  0.72578052303E+03  0.16453698604E+04  0.18921947480E+04  0.12699999809E+01 0.  1.
</event>
<event>
 5   0  0.4846214E-06  0.2702510E+04  0.7818609E-02  0.8334191E-01
        1   -1    0    0  501    0  0.00000000000E+00  0.00000000000E+00  0.14981296857E+04  0.14981296857E+04  0.50400001928E-02 0. -1.
       -1   -1    0    0    0  501  0.00000000000E+00  0.00000000000E+00 -0.12187797292E+04  0.12187797292E+04  0.50400001928E-02 0.  1.
    10030    2    1    2    0    0  0.00000000000E+00  0.00000000000E+00  0.27934995646E+03  0.27169094149E+04  0.27025100130E+04 0.  0.
        2    1    3    3  502    0  0.37958311022E+03  0.37175845257E+03 -0.11093627900E+04  0.12300298714E+04  0.25500000920E-02 0.  1.
       -2    1    3    3    0  502 -0.37958311022E+03 -0.37175845257E+03  0.13887127465E+04  0.14868795435E+04  0.25500000920E-02 0. -1.
</event>
<event>
 5   0  0.1286641E-05  0.2732088E+04  0.7818609E-02  0.8324668E-01
       -2   -1    0    0    0  501  0.00000000000E+00  0.00000000000E+00  0.95607752232E+03  0.95607752233E+03  0.25500000920E-02 0.  1.
        2   -1    0    0  501    0  0.00000000000E+00  0.00000000000E+00 -0.19518038927E+04  0.19518038927E+04  0.25500000920E-02 0. -1.
    10030    2    1    2    0    0  0.00000000000E+00  0.00000000000E+00 -0.99572637033E+03  0.29078814150E+04  0.27320877217E+04 0.  0.
        4    1    3    3  502    0 -0.62687956105E+03  0.29583524000E+03 -0.17507086395E+04  0.18829441911E+04  0.12699999809E+01 0. -1.
       -4    1    3    3    0  502  0.62687956105E+03 -0.29583524000E+03  0.75498226918E+03  0.10249372239E+04  0.12699999809E+01 0.  1.
</event>
<event>
 5   0  0.1220908E-05  0.2710704E+04  0.7818609E-02  0.8331540E-01
        2   -1    0    0  501    0  0.00000000000E+00  0.00000000000E+00  0.21198218483E+04  0.21198218483E+04  0.25500000920E-02 0.  1.
       -2   -1    0    0    0  501  0.00000000000E+00  0.00000000000E+00 -0.86657216545E+03  0.86657216545E+03  0.25500000920E-02 0. -1.
    10030    2    1    2    0    0  0.00000000000E+00  0.00000000000E+00  0.12532496828E+04  0.29863940137E+04  0.27107036794E+04 0.  0.
        2    1    3    3  502    0  0.28192955343E+03 -0.13093857629E+04  0.85508777690E+03  0.15890721995E+04  0.25500000920E-02 0.  1.
       -2    1    3    3    0  502 -0.28192955343E+03  0.13093857629E+04  0.39816190594E+03  0.13973218142E+04  0.25500000920E-02 0. -1.
</event>
<event>
 5   0  0.1261364E-05  0.2704542E+04  0.7818609E-02  0.8333533E-01
        2   -1    0    0  501    0  0.00000000000E+00  0.00000000000E+00  0.14354880403E+04  0.14354880403E+04  0.25500000920E-02 0. -1.
       -2   -1    0    0    0  501  0.00000000000E+00  0.00000000000E+00 -0.12738781287E+04  0.12738781287E+04  0.25500000920E-02 0.  1.
    10030    2    1    2    0    0  0.00000000000E+00  0.00000000000E+00  0.16160991165E+03  0.27093661690E+04  0.27045419713E+04 0.  0.
        5    1    3    3  502    0 -0.13084956422E+04  0.95793969940E+02 -0.24731156225E+03  0.13351113920E+04  0.46999998093E+01 0.  1.
       -5    1    3    3    0  502  0.13084956422E+04 -0.95793969940E+02  0.40892147390E+03  0.13742547770E+04  0.46999998093E+01 0. -1.
</event>
<event>
 5   0  0.4846214E-06  0.2676428E+04  0.7818609E-02  0.8342694E-01
       -1   -1    0    0    0  501  0.00000000000E+00  0.00000000000E+00  0.99610145142E+03  0.99610145143E+03  0.50400001928E-02 0.  1.
        1   -1    0    0  501    0  0.00000000000E+00  0.00000000000E+00 -0.17978250540E+04  0.17978250540E+04  0.50400001928E-02 0. -1.
    10030    2    1    2    0    0  0.00000000000E+00  0.00000000000E+00 -0.80172360256E+03  0.27939265054E+04  0.26764275785E+04 0.  0.
        2    1    3    3  502    0  0.11550579143E+04 -0.67409272011E+03 -0.45044838144E+03  0.14111922353E+04  0.25500000920E-02 0.  1.
       -2    1    3    3    0  502 -0.11550579143E+04  0.67409272011E+03 -0.35127522111E+03  0.13827342701E+04  0.25500000920E-02 0. -1.
</event>
<event>
 5   0  0.1286641E-05  0.2695259E+04  0.7818609E-02  0.8336545E-01
        2   -1    0    0  501    0  0.00000000000E+00  0.00000000000E+00  0.19995573759E+04  0.19995573759E+04  0.25500000920E-02 0.  1.
       -2   -1    0    0    0  501  0.00000000000E+00  0.00000000000E+00 -0.90825338816E+03  0.90825338817E+03  0.25500000920E-02 0. -1.
    10030    2    1    2    0    0  0.00000000000E+00  0.00000000000E+00  0.10913039877E+04  0.29078107640E+04  0.26952586232E+04 0.  0.
        4    1    3    3  502    0  0.38998944390E+03 -0.96964182198E+02 -0.84210501712E+03  0.93307893114E+03  0.12699999809E+01 0. -1.
       -4    1    3    3    0  502 -0.38998944390E+03  0.96964182198E+02  0.19334090048E+04  0.19747318329E+04  0.12699999809E+01 0.  1.
</event>
<event>
 5   0  0.1232559E-05  0.2687910E+04  0.7818609E-02  0.8338938E-01
        2   -1    0    0  501    0  0.00000000000E+00  0.00000000000E+00  0.15449496953E+04  0.15449496953E+04  0.25500000920E-02 0.  1.
       -2   -1    0    0    0  501  0.00000000000E+00  0.00000000000E+00 -0.11691092751E+04  0.11691092751E+04  0.25500000920E-02 0. -1.
    10030    2    1    2    0    0  0.00000000000E+00  0.00000000000E+00  0.37584042017E+03  0.27140589703E+04  0.26879099823E+04 0.  0.
        3    1    3    3  502    0 -0.10444738281E+04 -0.83918722345E+03  0.81758258101E+02  0.13423282745E+04  0.10100000352E+00 0. -1.
       -3    1    3    3    0  502  0.10444738281E+04  0.83918722345E+03  0.29408216207E+03  0.13717306958E+04  0.10100000352E+00 0.  1.
</event>
<event>
 5   0  0.5152288E-06  0.2737560E+04  0.7818609E-02  0.8322920E-01
        1   -1    0    0  501    0  0.00000000000E+00  0.00000000000E+00  0.20760204472E+04  0.20760204472E+04  0.50400001928E-02 0. -1.
       -1   -1    0    0    0  501  0.00000000000E+00  0.00000000000E+00 -0.90247582903E+03  0.90247582904E+03  0.50400001928E-02 0.  1.
    10030    2    1    2    0    0  0.00000000000E+00  0.00000000000E+00  0.11735446182E+04  0.29784962763E+04  0.27375596974E+04 0.  0.
        3    1    3    3  502    0 -0.68916879220E+02  0.11640192914E+04 -0.19316406033E+03  0.11819487347E+04  0.10100000352E+00 0.  1.
       -3    1    3    3    0  502  0.68916879220E+02 -0.11640192914E+04  0.13667086785E+04  0.17965475416E+04  0.10100000352E+00 0. -1.
</event>
<event>
 5   0  0.1232559E-05  0.2712624E+04  0.7818609E-02  0.8330920E-01
       -2   -1    0    0    0  501  0.00000000000E+00  0.00000000000E+00  0.16789297478E+04  0.16789297478E+04  0.25500000920E-02 0.  1.
        2   -1    0    0  501    0  0.00000000000E+00  0.00000000000E+00 -0.10956876059E+04  0.10956876059E+04  0.25500000920E-02 0. -1.
    10030    2    1    2    0    0  0.00000000000E+00  0.00000000000E+00  0.58324214194E+03  0.27746173537E+04  0.27126242024E+04 0.  0.
        3    1    3    3  502    0 -0.13019565758E+04 -0.24643282174E+03  0.58765271584E+03  0.14495364036E+04  0.10100000352E+00 0.  1.
       -3    1    3    3    0  502  0.13019565758E+04  0.24643282174E+03 -0.44105738971E+01  0.13250809500E+04  0.10100000352E+00 0. -1.
</event>
<event>
 5   0  0.4846214E-06  0.2692238E+04  0.7818609E-02  0.8337528E-01
        1   -1    0    0  501    0  0.00000000000E+00  0.00000000000E+00  0.13242256771E+04  0.13242256771E+04  0.50400001928E-02 0.  1.
       -1   -1    0    0    0  501  0.00000000000E+00  0.00000000000E+00 -0.13683738244E+04  0.13683738244E+04  0.50400001928E-02 0. -1.
    10030    2    1    2    0    0  0.00000000000E+00  0.00000000000E+00 -0.44148147312E+02  0.26925995015E+04  0.26922375483E+04 0.  0.
        2    1    3    3  502    0 -0.65530015194E+03  0.58180246333E+03  0.99988684937E+03  0.13295435709E+04  0.25500000920E-02 0.  1.
       -2    1    3    3    0  502  0.65530015194E+03 -0.58180246333E+03 -0.10440349967E+04  0.13630559305E+04  0.25500000920E-02 0. -1.
</event>
<event>
 5   0  0.4826140E-06  0.2706122E+04  0.7818609E-02  0.8333021E-01
       -1   -1    0    0    0  501  0.00000000000E+00  0.00000000000E+00  0.13445004090E+04  0.13445004090E+04  0.50400001928E-02 0.  1.
        1   -1    0    0  501    0  0.00000000000E+00  0.00000000000E+00 -0.13616760257E+04  0.13616760257E+04  0.50400001928E-02 0. -1.
    10030    2    1    2    0    0  0.00000000000E+00  0.00000000000E+00 -0.17175616660E+02  0.27061764347E+04  0.27061219289E+04 0.  0.
        1    1    3    3  502    0 -0.28150382192E+03  0.75377915978E+03 -0.10964270518E+04  0.13599925380E+04  0.50400001928E-02 0. -1.
       -1    1    3    3    0  502  0.28150382192E+03 -0.75377915978E+03  0.10792514351E+04  0.13461838967E+04  0.50400001928E-02 0.  1.
</event>
<event>
 5   0  0.1286641E-05  0.2701508E+04  0.7818609E-02  0.8334516E-01
        2   -1    0    0  501    0  0.00000000000E+00  0.00000000000E+00  0.27767554060E+04  0.27767554060E+04  0.25500000920E-02 0. -1.
       -2   -1    0    0    0  501  0.00000000000E+00  0.00000000000E+00 -0.65707491830E+03  0.65707491831E+03  0.25500000920E-02 0.  1.
    10030    2    1    2    0    0  0.00000000000E+00  0.00000000000E+00  0.21196804877E+04  0.34338303243E+04  0.27015079726E+04 0.  0.
        4    1    3    3  502    0  0.81568701676E+03 -0.44213174887E+03  0.23076417881E+04  0.24871747079E+04  0.12699999809E+01 0.  1.
       -4    1    3    3    0  502 -0.81568701676E+03  0.44213174887E+03 -0.18796130040E+03  0.94665561638E+03  0.12699999809E+01 0. -1.
</event>
<event>
 5   0  0.1286641E-05  0.2694175E+04  0.7818609E-02  0.8336897E-01
       -2   -1    0    0    0  501  0.00000000000E+00  0.00000000000E+00  0.15884854113E+04  0.15884854113E+04  0.25500000920E-02 0.  1.
        2   -1    0    0  501    0  0.00000000000E+00  0.00000000000E+00 -0.11423740585E+04  0.11423740585E+04  0.25500000920E-02 0. -1.
    10030    2    1    2    0    0  0.00000000000E+00  0.00000000000E+00  0.44611135279E+03  0.27308594698E+04  0.26941748467E+04 0.  0.
        4    1    3    3  502    0 -0.73986525673E+03 -0.11214419916E+04  0.12368935445E+03  0.13491973199E+04  0.12699999809E+01 0. -1.
       -4    1    3    3    0  502  0.73986525673E+03  0.11214419916E+04  0.32242199834E+03  0.13816621499E+04  0.12699999809E+01 0.  1.
</event>
<event>
 5   0  0.1286641E-05  0.2705850E+04  0.7818609E-02  0.8333109E-01
        2   -1    0    0  501    0  0.00000000000E+00  0.00000000000E+00  0.15518907898E+04  0.15518907898E+04  0.25500000920E-02 0. -1.
       -2   -1    0    0    0  501  0.00000000000E+00  0.00000000000E+00 -0.11794687631E+04  0.11794687631E+04  0.25500000920E-02 0.  1.
    10030    2    1    2    0    0  0.00000000000E+00  0.00000000000E+00  0.37242202671E+03  0.27313595528E+04  0.27058504838E+04 0.  0.
        4    1    3    3  502    0 -0.75667012175E+02 -0.13497276169E+04  0.13171164929E+03  0.13582487651E+04  0.12699999809E+01 0. -1.
       -4    1    3    3    0  502  0.75667012175E+02  0.13497276169E+04  0.24071037742E+03  0.13731107877E+04  0.12699999809E+01 0.  1.
</event>
<event>
 5   0  0.4826140E-06  0.2709809E+04  0.7818609E-02  0.8331829E-01
        1   -1    0    0  501    0  0.00000000000E+00  0.00000000000E+00  0.19870378701E+04  0.19870378701E+04  0.50400001928E-02 0.  1.
       -1   -1    0    0    0  501  0.00000000000E+00  0.00000000000E+00 -0.92387100955E+03  0.92387100956E+03  0.50400001928E-02 0. -1.
    10030    2    1    2    0    0  0.00000000000E+00  0.00000000000E+00  0.10631668606E+04  0.29109088797E+04  0.27098093535E+04 0.  0.
        1    1    3    3  502    0 -0.12032054278E+04  0.48507171583E+03  0.95144606275E+03  0.16088031207E+04  0.50400001928E-02 0.  1.
       -1    1    3    3    0  502  0.12032054278E+04 -0.48507171583E+03  0.11172079782E+03  0.13021057590E+04  0.50400001928E-02 0. -1.
</event>
<event>
 5   0  0.1232559E-05  0.2733370E+04  0.7818609E-02  0.8324258E-01
        2   -1    0    0  501    0  0.00000000000E+00  0.00000000000E+00  0.22145132837E+04  0.22145132837E+04  0.25500000920E-02 0. -1.
       -2   -1    0    0    0  501  0.00000000000E+00  0.00000000000E+00 -0.84344869069E+03  0.84344869070E+03  0.25500000920E-02 0.  1.
    10030    2    1    2    0    0  0.00000000000E+00  0.00000000000E+00  0.13710645930E+04  0.30579619744E+04  0.27333703223E+04 0.  0.
        3    1    3    3  502    0 -0.55653938715E+02 -0.93801864068E+03 -0.42471337576E+03  0.10311924131E+04  0.10100000352E+00 0.  1.
       -3    1    3    3    0  502  0.55653938715E+02  0.93801864068E+03  0.17957779687E+04  0.20267695612E+04  0.10100000352E+00 0. -1.
</event>
<event>
 5   0  0.1276517E-05  0.2681925E+04  0.7818609E-02  0.8340893E-01
       -2   -1    0    0    0  501  0.00000000000E+00  0.00000000000E+00  0.28645556171E+04  0.28645556171E+04  0.25500000920E-02 0.  1.
        2   -1    0    0  501    0  0.00000000000E+00  0.00000000000E+00 -0.62773464489E+03  0.62773464489E+03  0.25500000920E-02 0. -1.
    10030    2    1    2    0    0  0.00000000000E+00  0.00000000000E+00  0.22368209722E+04  0.34922902620E+04  0.26819252809E+04 0.  0.
        1    1    3    3  502    0 -0.12452300687E+04 -0.38269857072E+03  0.15324981052E+04  0.20113693252E+04  0.50400001928E-02 0.  1.
       -1    1    3    3    0  502  0.12452300687E+04  0.38269857072E+03  0.70432286703E+03  0.14809209368E+04  0.50400001928E-02 0. -1.
</event>
<event>
 5   0  0.4846214E-06  0.2700707E+04  0.7818609E-02  0.8334776E-01
        1   -1    0    0  501    0  0.00000000000E+00  0.00000000000E+00  0.23215887636E+04  0.23215887636E+04  0.50400001928E-02 0.  1.
       -1   -1    0    0    0  501  0.00000000000E+00  0.00000000000E+00 -0.78543388446E+03  0.78543388448E+03  0.50400001928E-02 0. -1.
    10030    2    1    2    0    0  0.00000000000E+00  0.00000000000E+00  0.15361548791E+04  0.31070226481E+04  0.27007069302E+04 0.  0.
        2    1    3    3  502    0 -0.11344570746E+04 -0.42481792382E+03  0.81662562268E+02  0.12141383351E+04  0.25500000920E-02 0. -1.
       -2    1    3    3    0  502  0.11344570746E+04  0.42481792382E+03  0.14544923168E+04  0.18928843130E+04  0.25500000920E-02 0.  1.
</event>
<event>
 5   0  0.4826140E-06  0.2710090E+04  0.7818609E-02  0.8331739E-01
        1   -1    0    0  501    0  0.00000000000E+00  0.00000000000E+00  0.27524435036E+04  0.27524435036E+04  0.50400001928E-02 0.  1.
       -1   -1    0    0    0  501  0.00000000000E+00  0.00000000000E+00 -0.66709682660E+03  0.66709682662E+03  0.50400001928E-02 0. -1.
    10030    2    1    2    0    0  0.00000000000E+00  0.00000000000E+00  0.20853466770E+04  0.34195403302E+04  0.27100895385E+04 0.  0.
        1    1    3    3  502    0  0.32634641339E+03 -0.12079015784E+04  0.38628247342E+03  0.13094817119E+04  0.50400001928E-02 0. -1.
       -1    1    3    3    0  502 -0.32634641339E+03  0.12079015784E+04  0.16990642036E+04  0.21100586183E+04  0.50400001928E-02 0.  1.
</event>
<event>
 5   0  0.4846214E-06  0.2667239E+04  0.7818609E-02  0.8345714E-01
        1   -1    0    0  501    0  0.00000000000E+00  0.00000000000E+00  0.27814911192E+04  0.27814911192E+04  0.50400001928E-02 0. -1.
       -1   -1    0    0    0  501  0.00000000000E+00  0.00000000000E+00 -0.63942000118E+03  0.63942000120E+03  0.50400001928E-02 0.  1.
    10030    2    1    2    0    0  0.00000000000E+00  0.00000000000E+00  0.21420711180E+04  0.34209111204E+04  0.26672390630E+04 0.  0.
        2    1    3    3  502    0 -0.10375540215E+03 -0.61957022744E+03  0.25798420808E+04  0.26552245879E+04  0.25500000920E-02 0. -1.
       -2    1    3    3    0  502  0.10375540215E+03  0.61957022744E+03 -0.43777096280E+03  0.76568653251E+03  0.25500000920E-02 0.  1.
</event>
<event>
 5   0  0.1232559E-05  0.2658253E+04  0.7818609E-02  0.8348679E-01
        2   -1    0    0  501    0  0.00000000000E+00  0.00000000000E+00  0.17883925622E+04  0.17883925622E+04  0.25500000920E-02 0.  1.
       -2   -1    0    0    0  501  0.00000000000E+00  0.00000000000E+00 -0.98780151777E+03  0.98780151777E+03  0.25500000920E-02 0. -1.
    10030    2    1    2    0    0  0.00000000000E+00  0.00000000000E+00  0.80059104441E+03  0.27761940800E+04  0.26582527249E+04 0.  0.
        3    1    3    3  502    0  0.50661936779E+03  0.10469300380E+04 -0.27155964181E+03  0.11943493365E+04  0.10100000352E+00 0. -1.
       -3    1    3    3    0  502 -0.50661936779E+03 -0.10469300380E+04  0.10721506862E+04  0.15818447435E+04  0.10100000352E+00 0.  1.
</event>
<event>
 5   0  0.4846214E-06  0.2706539E+04  0.7818609E-02  0.8332886E-01
       -1   -1    0    0    0  501  0.00000000000E+00  0.00000000000E+00  0.13535195634E+04  0.13535195634E+04  0.50400001928E-02 0.  1.
        1   -1    0    0  501    0  0.00000000000E+00  0.00000000000E+00 -0.13530193778E+04  0.13530193778E+04  0.50400001928E-02 0. -1.
    10030    2    1    2    0    0  0.00000000000E+00  0.00000000000E+00  0.50018558131E+00  0.27065389412E+04  0.27065388950E+04 0.  0.
        2    1    3    3  502    0  0.87663777255E+03  0.45384309143E+03 -0.92542311677E+03  0.13530984003E+04  0.25500000920E-02 0. -1.
       -2    1    3    3    0  502 -0.87663777255E+03 -0.45384309143E+03  0.92592330235E+03  0.13534405409E+04  0.25500000920E-02 0.  1.
</event>
<event>
 5   0  0.1220908E-05  0.2715464E+04  0.7818609E-02  0.8330005E-01
        2   -1    0    0  501    0  0.00000000000E+00  0.00000000000E+00  0.13210192646E+04  0.13210192646E+04  0.25500000920E-02 0.  1.
       -2   -1    0    0    0  501  0.00000000000E+00  0.00000000000E+00 -0.13954648909E+04  0.13954648909E+04  0.25500000920E-02 0. -1.
    10030    2    1    2    0    0  0.00000000000E+00  0.00000000000E+00 -0.74445626281E+02  0.27164841554E+04  0.27154638675E+04 0.  0.
        2    1    3    3  502    0 -0.17995901867E+03  0.98086053206E+03  0.88451546760E+03  0.13329817119E+04  0.25500000920E-02 0.  1.
       -2    1    3    3    0  502  0.17995901867E+03 -0.98086053206E+03 -0.95896109388E+03  0.13835024436E+04  0.25500000920E-02 0. -1.
</event>
<event>
 5   0  0.5152288E-06  0.2717916E+04  0.7818609E-02  0.8329215E-01
       -1   -1    0    0    0  501  0.00000000000E+00  0.00000000000E+00  0.10651123492E+04  0.10651123492E+04  0.50400001928E-02 0. -1.
        1   -1    0    0  501    0  0.00000000000E+00  0.00000000000E+00 -0.17338709536E+04  0.17338709536E+04  0.50400001928E-02 0.  1.
    10030    2    1    2    0    0  0.00000000000E+00  0.00000000000E+00 -0.66875860445E+03  0.27989833028E+04  0.27179163818E+04 0.  0.
        3    1    3    3  502    0  0.49980650708E+03  0.69635391230E+03 -0.14203716666E+04  0.16589668463E+04  0.10100000352E+00 0.  1.
       -3    1    3    3    0  502 -0.49980650708E+03 -0.69635391230E+03  0.75161306216E+03  0.11400164565E+04  0.10100000352E+00 0. -1.
</event>
<event>
 5   0  0.4826140E-06  0.2744106E+04  0.7818609E-02  0.8320834E-01
        1   -1    0    0  501    0  0.00000000000E+00  0.00000000000E+00  0.15725470045E+04  0.15725470045E+04  0.50400001928E-02 0.  1.
       -1   -1    0    0    0  501  0.00000000000E+00  0.00000000000E+00 -0.11971215043E+04  0.11971215043E+04  0.50400001928E-02 0. -1.
    10030    2    1    2    0    0  0.00000000000E+00  0.00000000000E+00  0.37542550021E+03  0.27696685089E+04  0.27441062922E+04 0.  0.
        1    1    3    3  502    0  0.13025088869E+04  0.66963407675E+02 -0.24230335713E+03  0.13265460471E+04  0.50400001928E-02 0. -1.
       -1    1    3    3    0  502 -0.13025088869E+04 -0.66963407675E+02  0.61772885734E+03  0.14431224617E+04  0.50400001928E-02 0.  1.
</event>
<event>
 5   0  0.1286641E-05  0.2707671E+04  0.7818609E-02  0.8332520E-01
        2   -1    0    0  501    0  0.00000000000E+00  0.00000000000E+00  0.15432233014E+04  0.15432233014E+04  0.25500000920E-02 0. -1.
       -2   -1    0    0    0  501  0.00000000000E+00  0.00000000000E+00 -0.11876897656E+04  0.11876897656E+04  0.25500000920E-02 0.  1.
    10030    2    1    2    0    0  0.00000000000E+00  0.00000000000E+00  0.35553353580E+03  0.27309130671E+04  0.27076709705E+04 0.  0.
        4    1    3    3  502    0  0.35351380741E+03 -0.88956310706E+03  0.11433636223E+04  0.14911661608E+04  0.12699999809E+01 0. -1.
       -4    1    3    3    0  502 -0.35351380741E+03  0.88956310706E+03 -0.78783008649E+03  0.12397469062E+04  0.12699999809E+01 0.  1.
</event>
<event>
 5   0  0.1261364E-05  0.2741119E+04  0.7818609E-02  0.8321785E-01
       -2   -1    0    0    0  501  0.00000000000E+00  0.00000000000E+00  0.14566847779E+04  0.14566847779E+04  0.25500000920E-02 0.  1.
        2   -1    0    0  501    0  0.00000000000E+00  0.00000000000E+00 -0.12895259929E+04  0.12895259929E+04  0.25500000920E-02 0. -1.
    10030    2    1    2    0    0  0.00000000000E+00  0.00000000000E+00  0.16715878493E+03  0.27462107708E+04  0.27411186655E+04 0.  0.
        5    1    3    3  502    0 -0.10531742551E+04 -0.86543942988E+03  0.22614404304E+03  0.13817831366E+04  0.46999998093E+01 0.  1.
       -5    1    3    3    0  502  0.10531742551E+04  0.86543942988E+03 -0.58985258104E+02  0.13644276342E+04  0.46999998093E+01 0. -1.
</event>
<event>
 5   0  0.4846214E-06  0.2703901E+04  0.7818609E-02  0.8333740E-01
       -1   -1    0    0    0  501  0.00000000000E+00  0.00000000000E+00  0.98744969052E+03  0.98744969053E+03  0.50400001928E-02 0. -1.
        1   -1    0    0  501    0  0.00000000000E+00  0.00000000000E+00 -0.18510002559E+04  0.18510002559E+04  0.50400001928E-02 0.  1.
    10030    2    1    2    0    0  0.00000000000E+00  0.00000000000E+00 -0.86355056539E+03  0.28384499464E+04  0.27039006120E+04 0.  0.
        2    1    3    3  502    0  0.41738446074E+03  0.52449707764E+03 -0.16642783788E+04  0.17941932713E+04  0.25500000920E-02 0.  1.
       -2    1    3    3    0  502 -0.41738446074E+03 -0.52449707764E+03  0.80072781340E+03  0.10442566752E+04  0.25500000920E-02 0. -1.
</event>
<event>
 5   0  0.4756800E-06  0.2687538E+04  0.7818609E-02  0.8339060E-01
        1   -1    0    0  501    0  0.00000000000E+00  0.00000000000E+00  0.19869241423E+04  0.19869241424E+04  0.50400001928E-02 0. -1.
       -1   -1    0    0    0  501  0.00000000000E+00  0.00000000000E+00 -0.90879892146E+03  0.90879892147E+03  0.50400001928E-02 0.  1.
    10030    2    1    2    0    0  0.00000000000E+00  0.00000000000E+00  0.10781252209E+04  0.28957230638E+04  0.26875375477E+04 0.  0.
        4    1    3    3  502    0 -0.12352658855E+04 -0.47267621982E+03  0.28316045495E+03  0.13525849596E+04  0.12699999809E+01 0.  1.
       -4    1    3    3    0  502  0.12352658855E+04  0.47267621982E+03  0.79496476593E+03  0.15431381042E+04  0.12699999809E+01 0. -1.
</event>
<event>
 5   0  0.4826140E-06  0.2706831E+04  0.7818609E-02  0.8332792E-01
        1   -1    0    0  501    0  0.00000000000E+00  0.00000000000E+00  0.14487493078E+04  0.14487493078E+04  0.50400001928E-02 0. -1.
       -1   -1    0    0    0  501  0.00000000000E+00  0.00000000000E+00 -0.12643554503E+04  0.12643554503E+04  0.50400001928E-02 0.  1.
    10030    2    1    2    0    0  0.00000000000E+00  0.00000000000E+00  0.18439385756E+03  0.27131047581E+04  0.27068314195E+04 0.  0.
        1    1    3    3  502    0 -0.10265189562E+04  0.71061867208E+03  0.61591532366E+03  0.13921464544E+04  0.50400001928E-02 0.  1.
       -1    1    3    3    0  502  0.10265189562E+04 -0.71061867208E+03 -0.43152146610E+03  0.13209583037E+04  0.50400001928E-02 0. -1.
</event>
<event>
 5   0  0.4824715E-06  0.2704545E+04  0.7818609E-02  0.8333532E-01
        1   -1    0    0  501    0  0.00000000000E+00  0.00000000000E+00  0.12883617499E+04  0.12883617499E+04  0.50400001928E-02 0. -1.
       -1   -1    0    0    0  501  0.00000000000E+00  0.00000000000E+00 -0.14193536369E+04  0.14193536369E+04  0.50400001928E-02 0.  1.
    10030    2    1    2    0    0  0.00000000000E+00  0.00000000000E+00 -0.13099188699E+03  0.27077153869E+04  0.27045450157E+04 0.  0.
        5    1    3    3  502    0  0.68205995868E+03 -0.41790744597E+03  0.10260878111E+04  0.13010498479E+04  0.46999998093E+01 0. -1.
       -5    1    3    3    0  502 -0.68205995868E+03  0.41790744597E+03 -0.11570796981E+04  0.14066655389E+04  0.46999998093E+01 0.  1.
</event>
<event>
 5   0  0.5152288E-06  0.2732545E+04  0.7818609E-02  0.8324522E-01
       -1   -1    0    0    0  501  0.00000000000E+00  0.00000000000E+00  0.13605577294E+04  0.13605577295E+04  0.50400001928E-02 0.  1.
        1   -1    0    0  501    0  0.00000000000E+00  0.00000000000E+00 -0.13720112504E+04  0.13720112505E+04  0.50400001928E-02 0. -1.
    10030    2    1    2    0    0  0.00000000000E+00  0.00000000000E+00 -0.11453521001E+02  0.27325689799E+04  0.27325449762E+04 0.  0.
        3    1    3    3  502    0 -0.81529279396E+03 -0.85215920087E+03 -0.69553196318E+03  0.13691757979E+04  0.10100000352E+00 0. -1.
       -3    1    3    3    0  502  0.81529279396E+03  0.85215920087E+03  0.68407844217E+03  0.13633931820E+04  0.10100000352E+00 0.  1.
</event>
<event>
 5   0  0.1276517E-05  0.2702158E+04  0.7818609E-02  0.8334305E-01
        2   -1    0    0  501    0  0.00000000000E+00  0.00000000000E+00  0.11796527791E+04  0.11796527791E+04  0.25500000920E-02 0. -1.
       -2   -1    0    0    0  501  0.00000000000E+00  0.00000000000E+00 -0.15474170686E+04  0.15474170686E+04  0.25500000920E-02 0.  1.
    10030    2    1    2    0    0  0.00000000000E+00  0.00000000000E+00 -0.36776428943E+03  0.27270698477E+04  0.27021582821E+04 0.  0.
        1    1    3    3  502    0  0.86040136452E+03  0.10134461068E+04 -0.42704181659E+03  0.13963266927E+04  0.50400001928E-02 0. -1.
       -1    1    3    3    0  502 -0.86040136452E+03 -0.10134461068E+04  0.59277527157E+02  0.13307431551E+04  0.50400001928E-02 0.  1.
</event>
<event>
 5   0  0.4824715E-06  0.2704800E+04  0.7818609E-02  0.8333449E-01
        1   -1    0    0  501    0  0.00000000000E+00  0.00000000000E+00  0.16305104139E+04  0.16305104139E+04  0.50400001928E-02 0.  1.
       -1   -1    0    0    0  501  0.00000000000E+00  0.00000000000E+00 -0.11217255991E+04  0.11217255991E+04  0.50400001928E-02 0. -1.
    10030    2    1    2    0    0  0.00000000000E+00  0.00000000000E+00  0.50878481484E+03  0.27522360131E+04  0.27047996384E+04 0.  0.
        5    1    3    3  502    0  0.38461552594E+03  0.11875016578E+04  0.78397554300E+03  0.14740179891E+04  0.46999998093E+01 0.  1.
       -5    1    3    3    0  502 -0.38461552594E+03 -0.11875016578E+04 -0.27519072816E+03  0.12782180240E+04  0.46999998093E+01 0. -1.
</event>
<event>
 5   0  0.4826140E-06  0.2769755E+04  0.7818609E-02  0.8312720E-01
       -1   -1    0    0    0  501  0.00000000000E+00  0.00000000000E+00  0.11961504716E+04  0.11961504716E+04  0.50400001928E-02 0.  1.
        1   -1    0    0  501    0  0.00000000000E+00  0.00000000000E+00 -0.16033813536E+04  0.16033813536E+04  0.50400001928E-02 0. -1.
    10030    2    1    2    0    0  0.00000000000E+00  0.00000000000E+00 -0.40723088198E+03  0.27995318253E+04  0.27697547634E+04 0.  0.
        1    1    3    3  502    0  0.10720701703E+04  0.84639945196E+03  0.27223046325E+02  0.13661872407E+04  0.50400001928E-02 0. -1.
       -1    1    3    3    0  502 -0.10720701703E+04 -0.84639945196E+03 -0.43445392831E+03  0.14333445846E+04  0.50400001928E-02 0.  1.
</event>
<event>
 5   0  0.4826140E-06  0.2686339E+04  0.7818609E-02  0.8339451E-01
       -1   -1    0    0    0  501  0.00000000000E+00  0.00000000000E+00  0.67674127259E+03  0.67674127261E+03  0.50400001928E-02 0. -1.
        1   -1    0    0  501    0  0.00000000000E+00  0.00000000000E+00 -0.26658693522E+04  0.26658693522E+04  0.50400001928E-02 0.  1.
    10030    2    1    2    0    0  0.00000000000E+00  0.00000000000E+00 -0.19891280796E+04  0.33426106248E+04  0.26863386369E+04 0.  0.
        1    1    3    3  502    0  0.12879740753E+04  0.37240381161E+03 -0.89392179419E+03  0.16114149036E+04  0.50400001928E-02 0. -1.
       -1    1    3    3    0  502 -0.12879740753E+04 -0.37240381161E+03 -0.10952062854E+04  0.17311957212E+04  0.50400001928E-02 0.  1.
</event>
<event>
 5   0  0.4756800E-06  0.2754223E+04  0.7818609E-02  0.8317623E-01
       -1   -1    0    0    0  501  0.00000000000E+00  0.00000000000E+00  0.10470395546E+04  0.10470395546E+04  0.50400001928E-02 0. -1.
        1   -1    0    0  501    0  0.00000000000E+00  0.00000000000E+00 -0.18112369707E+04  0.18112369707E+04  0.50400001928E-02 0.  1.
    10030    2    1    2    0    0  0.00000000000E+00  0.00000000000E+00 -0.76419741609E+03  0.28582765254E+04  0.27542234849E+04 0.  0.
        4    1    3    3  502    0 -0.70622177338E+03 -0.86245110129E+03 -0.12212664734E+04  0.16535006826E+04  0.12699999809E+01 0.  1.
       -4    1    3    3    0  502  0.70622177338E+03  0.86245110129E+03  0.45706905731E+03  0.12047758428E+04  0.12699999809E+01 0. -1.
</event>
<event>
 5   0  0.5152288E-06  0.2707259E+04  0.7818609E-02  0.8332654E-01
       -1   -1    0    0    0  501  0.00000000000E+00  0.00000000000E+00  0.83321880739E+03  0.83321880740E+03  0.50400001928E-02 0. -1.
        1   -1    0    0  501    0  0.00000000000E+00  0.00000000000E+00 -0.21990772845E+04  0.21990772845E+04  0.50400001928E-02 0.  1.
    10030    2    1    2    0    0  0.00000000000E+00  0.00000000000E+00 -0.13658584771E+04  0.30322960919E+04  0.27072587999E+04 0.  0.
        3    1    3    3  502    0 -0.32800315582E+03 -0.23139347319E+03 -0.21308803744E+04  0.21683588702E+04  0.10100000352E+00 0.  1.
       -3    1    3    3    0  502  0.32800315582E+03  0.23139347319E+03  0.76502189726E+03  0.86393722176E+03  0.10100000352E+00 0. -1.
</event>
<event>
 5   0  0.1276517E-05  0.2664841E+04  0.7818609E-02  0.8346504E-01
        2   -1    0    0  501    0  0.00000000000E+00  0.00000000000E+00  0.19758742433E+04  0.19758742433E+04  0.25500000920E-02 0. -1.
       -2   -1    0    0    0  501  0.00000000000E+00  0.00000000000E+00 -0.89851074892E+03  0.89851074893E+03  0.25500000920E-02 0.  1.
    10030    2    1    2    0    0  0.00000000000E+00  0.00000000000E+00  0.10773634944E+04  0.28743849922E+04  0.26648408929E+04 0.  0.
        1    1    3    3  502    0 -0.99807433641E+03 -0.85686242458E+03  0.76744004840E+03  0.15229346091E+04  0.50400001928E-02 0.  1.
       -1    1    3    3    0  502  0.99807433641E+03  0.85686242458E+03  0.30992344596E+03  0.13514503831E+04  0.50400001928E-02 0. -1.
</event>
<event>
 5   0  0.1232559E-05  0.2698047E+04  0.7818609E-02  0.8335639E-01
       -2   -1    0    0    0  501  0.00000000000E+00  0.00000000000E+00  0.89969180328E+03  0.89969180329E+03  0.25500000920E-02 0.  1.
        2   -1    0    0  501    0  0.00000000000E+00  0.00000000000E+00 -0.20227648817E+04  0.20227648817E+04  0.25500000920E-02 0. -1.
    10030    2    1    2    0    0  0.00000000000E+00  0.00000000000E+00 -0.11230730784E+04  0.29224566850E+04  0.26980474303E+04 0.  0.
        3    1    3    3  502    0  0.71405604052E+03  0.29753974979E+03 -0.17586572858E+04  0.19212707749E+04  0.10100000352E+00 0. -1.
       -3    1    3    3    0  502 -0.71405604052E+03 -0.29753974979E+03  0.63558420732E+03  0.10011859101E+04  0.10100000352E+00 0.  1.
</event>
<event>
 5   0  0.5152288E-06  0.2740002E+04  0.7818609E-02  0.8322141E-01
       -1   -1    0    0    0  501  0.00000000000E+00  0.00000000000E+00  0.63144059142E+03  0.63144059144E+03  0.50400001928E-02 0.  1.
        1   -1    0    0  501    0  0.00000000000E+00  0.00000000000E+00 -0.29724144248E+04  0.29724144248E+04  0.50400001928E-02 0. -1.
    10030    2    1    2    0    0  0.00000000000E+00  0.00000000000E+00 -0.23409738334E+04  0.36038550163E+04  0.27400022791E+04 0.  0.
        3    1    3    3  502    0  0.17637167143E+03 -0.11782450531E+04 -0.20601558481E+04  0.23798341330E+04  0.10100000352E+00 0. -1.
       -3    1    3    3    0  502 -0.17637167143E+03  0.11782450531E+04 -0.28081798530E+03  0.12240208833E+04  0.10100000352E+00 0.  1.
</event>
<event>
 5   0  0.4188000E-06  0.2691184E+04  0.7818609E-02  0.8337871E-01
       -4   -1    0    0    0  501  0.00000000000E+00  0.00000000000E+00  0.18071759416E+04  0.18071763878E+04  0.12699999809E+01 0. -1.
        4   -1    0    0  501    0  0.00000000000E+00  0.00000000000E+00 -0.10019035548E+04  0.10019043598E+04  0.12699999809E+01 0.  1.
    10030    2    1    2    0    0  0.00000000000E+00  0.00000000000E+00  0.80527238674E+03  0.28090807476E+04  0.26911839457E+04 0.  0.
        5    1    3    3  502    0 -0.31828916452E+03  0.27227161515E+03  0.17373876860E+04  0.17871703573E+04  0.46999998093E+01 0. -1.
       -5    1    3    3    0  502  0.31828916452E+03 -0.27227161515E+03 -0.93211529924E+03  0.10219103903E+04  0.46999998093E+01 0.  1.
</event>
<event>
 5   0  0.4756800E-06  0.2696618E+04  0.7818609E-02  0.8336103E-01
        1   -1    0    0  501    0  0.00000000000E+00  0.00000000000E+00  0.13011423666E+04  0.13011423666E+04  0.50400001928E-02 0. -1.
       -1   -1    0    0    0  501  0.00000000000E+00  0.00000000000E+00 -0.13971856389E+04  0.13971856389E+04  0.50400001928E-02 0.  1.
    10030    2    1    2    0    0  0.00000000000E+00  0.00000000000E+00 -0.96043272307E+02  0.26983280056E+04  0.26966181998E+04 0.  0.
        4    1    3    3  502    0  0.21412839741E+03  0.16670859581E+03 -0.13695759287E+04  0.13962029093E+04  0.12699999809E+01 0.  1.
       -4    1    3    3    0  502 -0.21412839741E+03 -0.16670859581E+03  0.12735326564E+04  0.13021250963E+04  0.12699999809E+01 0. -1.
</event>
<event>
 5   0  0.4846214E-06  0.2764692E+04  0.7818609E-02  0.8314315E-01
        1   -1    0    0  501    0  0.00000000000E+00  0.00000000000E+00  0.17953476350E+04  0.17953476350E+04  0.50400001928E-02 0. -1.
       -1   -1    0    0    0  501  0.00000000000E+00  0.00000000000E+00 -0.10643511783E+04  0.10643511783E+04  0.50400001928E-02 0.  1.
    10030    2    1    2    0    0  0.00000000000E+00  0.00000000000E+00  0.73099645667E+03  0.28596988133E+04  0.27646919327E+04 0.  0.
        2    1    3    3  502    0  0.11714035930E+04 -0.42946967912E+03 -0.25014392599E+03  0.12724789062E+04  0.25500000920E-02 0.  1.
       -2    1    3    3    0  502 -0.11714035930E+04  0.42946967912E+03  0.98114038267E+03  0.15872199071E+04  0.25500000920E-02 0. -1.
</event>
<event>
 5   0  0.4826140E-06  0.2366374E+04  0.7818609E-02  0.8452201E-01
        1   -1    0    0  501    0  0.00000000000E+00  0.00000000000E+00  0.16145195339E+04  0.16145195339E+04  0.50400001928E-02 0.  1.
       -1   -1    0    0    0  501  0.00000000000E+00  0.00000000000E+00 -0.86708829145E+03  0.86708829147E+03  0.50400001928E-02 0. -1.
    10030    2    1    2    0    0  0.00000000000E+00  0.00000000000E+00  0.74743124240E+03  0.24816078253E+04  0.23663735835E+04 0.  0.
        1    1    3    3  502    0 -0.71560933356E+03  0.53639001357E+03 -0.43868247812E+03  0.99611911013E+03  0.50400001928E-02 0. -1.
       -1    1    3    3    0  502  0.71560933356E+03 -0.53639001357E+03  0.11861137205E+04  0.14854887152E+04  0.50400001928E-02 0.  1.
</event>
<event>
 5   0  0.4824715E-06  0.2708243E+04  0.7818609E-02  0.8332335E-01
       -1   -1    0    0    0  501  0.00000000000E+00  0.00000000000E+00  0.10670286940E+04  0.10670286940E+04  0.50400001928E-02 0.  1.
        1   -1    0    0  501    0  0.00000000000E+00  0.00000000000E+00 -0.17184588366E+04  0.17184588366E+04  0.50400001928E-02 0. -1.
    10030    2    1    2    0    0  0.00000000000E+00  0.00000000000E+00 -0.65143014258E+03  0.27854875305E+04  0.27082428902E+04 0.  0.
        5    1    3    3  502    0  0.98356950580E+03  0.93023984413E+03 -0.35601124765E+03  0.13998290034E+04  0.46999998093E+01 0.  1.
       -5    1    3    3    0  502 -0.98356950580E+03 -0.93023984413E+03 -0.29541889492E+03  0.13856585271E+04  0.46999998093E+01 0. -1.
</event>
<event>
 5   0  0.1261364E-05  0.2711821E+04  0.7818609E-02  0.8331180E-01
       -2   -1    0    0    0  501  0.00000000000E+00  0.00000000000E+00  0.10140573580E+04  0.10140573581E+04  0.25500000920E-02 0.  1.
        2   -1    0    0  501    0  0.00000000000E+00  0.00000000000E+00 -0.18130070314E+04  0.18130070315E+04  0.25500000920E-02 0. -1.
    10030    2    1    2    0    0  0.00000000000E+00  0.00000000000E+00 -0.79894967340E+03  0.28270643895E+04  0.27118208794E+04 0.  0.
        5    1    3    3  502    0  0.13308258247E+04  0.25905157855E+03 -0.38247433018E+03  0.14087277237E+04  0.46999998093E+01 0.  1.
       -5    1    3    3    0  502 -0.13308258247E+04 -0.25905157855E+03 -0.41647534322E+03  0.14183366658E+04  0.46999998093E+01 0. -1.
</event>
<event>
 5   0  0.1286641E-05  0.2591398E+04  0.7818609E-02  0.8371129E-01
       -2   -1    0    0    0  501  0.00000000000E+00  0.00000000000E+00  0.11049241766E+04  0.11049241766E+04  0.25500000920E-02 0. -1.
        2   -1    0    0  501    0  0.00000000000E+00  0.00000000000E+00 -0.15194125496E+04  0.15194125496E+04  0.25500000920E-02 0.  1.
    10030    2    1    2    0    0  0.00000000000E+00  0.00000000000E+00 -0.41448837298E+03  0.26243367262E+04  0.25913978161E+04 0.  0.
        4    1    3    3  502    0  0.76978153821E+02  0.12918445921E+04 -0.27166056778E+03  0.13223423018E+04  0.12699999809E+01 0. -1.
       -4    1    3    3    0  502 -0.76978153821E+02 -0.12918445921E+04 -0.14282780520E+03  0.13019944244E+04  0.12699999809E+01 0.  1.
</event>
<event>
 5   0  0.4824715E-06  0.2731890E+04  0.7818609E-02  0.8324732E-01
       -1   -1    0    0    0  501  0.00000000000E+00  0.00000000000E+00  0.20945841740E+04  0.20945841740E+04  0.50400001928E-02 0. -1.
        1   -1    0    0  501    0  0.00000000000E+00  0.00000000000E+00 -0.89077590502E+03  0.89077590504E+03  0.50400001928E-02 0.  1.
    10030    2    1    2    0    0  0.00000000000E+00  0.00000000000E+00  0.12038082690E+04  0.29853600790E+04  0.27318895389E+04 0.  0.
        5    1    3    3  502    0  0.76446907225E+03  0.65211361363E+03  0.16130187162E+04  0.19003990624E+04  0.46999998093E+01 0. -1.
       -5    1    3    3    0  502 -0.76446907225E+03 -0.65211361363E+03 -0.40921044724E+03  0.10849610166E+04  0.46999998093E+01 0.  1.
</event>
<event>
 5   0  0.4188000E-06  0.2593233E+04  0.7818609E-02  0.8370504E-01
       -3   -1    0    0    0  501  0.00000000000E+00  0.00000000000E+00  0.11158217346E+04  0.11158217392E+04  0.10100000352E+00 0. -1.
        3   -1    0    0  501    0  0.00000000000E+00  0.00000000000E+00 -0.15067048509E+04  0.15067048543E+04  0.10100000352E+00 0.  1.
    10030    2    1    2    0    0  0.00000000000E+00  0.00000000000E+00 -0.39088311626E+03  0.26225265935E+04  0.25932327553E+04 0.  0.
        1    1    3    3  502    0  0.29150907942E+03 -0.55035423727E+03  0.95465917965E+03  0.11398427432E+04  0.50400001928E-02 0. -1.
       -1    1    3    3    0  502 -0.29150907942E+03  0.55035423727E+03 -0.13455422959E+04  0.14826838503E+04  0.50400001928E-02 0.  1.
</event>
<event>
 5   0  0.1232559E-05  0.2757119E+04  0.7818609E-02  0.8316706E-01
        2   -1    0    0  501    0  0.00000000000E+00  0.00000000000E+00  0.12544955743E+04  0.12544955743E+04  0.25500000920E-02 0.  1.
       -2   -1    0    0    0  501  0.00000000000E+00  0.00000000000E+00 -0.15148927047E+04  0.15148927047E+04  0.25500000920E-02 0. -1.
    10030    2    1    2    0    0  0.00000000000E+00  0.00000000000E+00 -0.26039713045E+03  0.27693882790E+04  0.27571189264E+04 0.  0.
        3    1    3    3  502    0  0.78830743286E+03 -0.76465795661E+03 -0.96715068638E+03  0.14633901939E+04  0.10100000352E+00 0. -1.
       -3    1    3    3    0  502 -0.78830743286E+03  0.76465795661E+03  0.70675355593E+03  0.13059980851E+04  0.10100000352E+00 0.  1.
</event>
<event>
 5   0  0.1286641E-05  0.2689067E+04  0.7818609E-02  0.8338561E-01
       -2   -1    0    0    0  501  0.00000000000E+00  0.00000000000E+00  0.18081387773E+04  0.18081387773E+04  0.25500000920E-02 0.  1.
        2   -1    0    0  501    0  0.00000000000E+00  0.00000000000E+00 -0.99979590488E+03  0.99979590488E+03  0.25500000920E-02 0. -1.
    10030    2    1    2    0    0  0.00000000000E+00  0.00000000000E+00  0.80834287243E+03  0.28079346822E+04  0.26890665630E+04 0.  0.
        4    1    3    3  502    0 -0.13302983973E+04 -0.83912736328E+02  0.22022260103E+03  0.13510125018E+04  0.12699999809E+01 0. -1.
       -4    1    3    3    0  502  0.13302983973E+04  0.83912736328E+02  0.58812027140E+03  0.14569221804E+04  0.12699999809E+01 0.  1.
</event>
<event>
 5   0  0.1286641E-05  0.2832790E+04  0.7818609E-02  0.8293160E-01
        2   -1    0    0  501    0  0.00000000000E+00  0.00000000000E+00  0.16754673903E+04  0.16754673904E+04  0.25500000920E-02 0.  1.
       -2   -1    0    0    0  501  0.00000000000E+00  0.00000000000E+00 -0.11973823995E+04  0.11973823995E+04  0.25500000920E-02 0. -1.
    10030    2    1    2    0    0  0.00000000000E+00  0.00000000000E+00  0.47808499083E+03  0.28728497899E+04  0.28327902599E+04 0.  0.
        4    1    3    3  502    0  0.46743143179E+03  0.11084575101E+04 -0.51919578451E+03  0.13102427526E+04  0.12699999809E+01 0. -1.
       -4    1    3    3    0  502 -0.46743143179E+03 -0.11084575101E+04  0.99728077535E+03  0.15626070373E+04  0.12699999809E+01 0.  1.
</event>
<event>
 5   0  0.4826140E-06  0.2530684E+04  0.7818609E-02  0.8392135E-01
       -1   -1    0    0    0  501  0.00000000000E+00  0.00000000000E+00  0.10246204420E+04  0.10246204420E+04  0.50400001928E-02 0. -1.
        1   -1    0    0  501    0  0.00000000000E+00  0.00000000000E+00 -0.15626182597E+04  0.15626182597E+04  0.50400001928E-02 0.  1.
    10030    2    1    2    0    0  0.00000000000E+00  0.00000000000E+00 -0.53799781770E+03  0.25872387018E+04  0.25306841858E+04 0.  0.
        1    1    3    3  502    0 -0.11458892684E+04 -0.25979699297E+03  0.21110610949E+03  0.11937849398E+04  0.50400001928E-02 0. -1.
       -1    1    3    3    0  502  0.11458892684E+04  0.25979699297E+03 -0.74910392720E+03  0.13934537620E+04  0.50400001928E-02 0.  1.
</event>
<event>
 5   0  0.5152288E-06  0.2742493E+04  0.7818609E-02  0.8321348E-01
        1   -1    0    0  501    0  0.00000000000E+00  0.00000000000E+00  0.15291637167E+04  0.15291637167E+04  0.50400001928E-02 0. -1.
       -1   -1    0    0    0  501  0.00000000000E+00  0.00000000000E+00 -0.12296374158E+04  0.12296374158E+04  0.50400001928E-02 0.  1.
    10030    2    1    2    0    0  0.00000000000E+00  0.00000000000E+00  0.29952630088E+03  0.27588011325E+04  0.27424929688E+04 0.  0.
        3    1    3    3  502    0  0.26545813766E+03 -0.13244959633E+04 -0.87348763924E+02  0.13536570454E+04  0.10100000352E+00 0.  1.
       -3    1    3    3    0  502 -0.26545813766E+03  0.13244959633E+04  0.38687506480E+03  0.14051440872E+04  0.10100000352E+00 0. -1.
</event>
<event>
 5   0  0.5152288E-06  0.2694683E+04  0.7818609E-02  0.8336732E-01
        1   -1    0    0  501    0  0.00000000000E+00  0.00000000000E+00  0.11400689779E+04  0.11400689780E+04  0.50400001928E-02 0. -1.
       -1   -1    0    0    0  501  0.00000000000E+00  0.00000000000E+00 -0.15922980552E+04  0.15922980552E+04  0.50400001928E-02 0.  1.
    10030    2    1    2    0    0  0.00000000000E+00  0.00000000000E+00 -0.45222907720E+03  0.27323670331E+04  0.26946833702E+04 0.  0.
        3    1    3    3  502    0 -0.65654907464E+03 -0.46127110446E+00  0.96689007327E+03  0.11687315022E+04  0.10100000352E+00 0. -1.
       -3    1    3    3    0  502  0.65654907464E+03  0.46127110446E+00 -0.14191191505E+04  0.15636355309E+04  0.10100000352E+00 0.  1.
</event>
<event>
 5   0  0.1286641E-05  0.2696226E+04  0.7818609E-02  0.8336231E-01
       -2   -1    0    0    0  501  0.00000000000E+00  0.00000000000E+00  0.24867718363E+04  0.24867718363E+04  0.25500000920E-02 0.  1.
        2   -1    0    0  501    0  0.00000000000E+00  0.00000000000E+00 -0.73083026423E+03  0.73083026423E+03  0.25500000920E-02 0. -1.
    10030    2    1    2    0    0  0.00000000000E+00  0.00000000000E+00  0.17559415721E+04  0.32176021005E+04  0.26962255975E+04 0.  0.
        4    1    3    3  502    0  0.85741723872E+03  0.37781843386E+03  0.20346779937E+04  0.22400507229E+04  0.12699999809E+01 0.  1.
       -4    1    3    3    0  502 -0.85741723872E+03 -0.37781843386E+03 -0.27873642165E+03  0.97755137762E+03  0.12699999809E+01 0. -1.
</event>
<event>
 5   0  0.4756800E-06  0.2705436E+04  0.7818609E-02  0.8333243E-01
       -1   -1    0    0    0  501  0.00000000000E+00  0.00000000000E+00  0.99956822865E+03  0.99956822866E+03  0.50400001928E-02 0.  1.
        1   -1    0    0  501    0  0.00000000000E+00  0.00000000000E+00 -0.18306358157E+04  0.18306358157E+04  0.50400001928E-02 0. -1.
    10030    2    1    2    0    0  0.00000000000E+00  0.00000000000E+00 -0.83106758704E+03  0.28302040444E+04  0.27054355654E+04 0.  0.
        4    1    3    3  502    0  0.11107949026E+04 -0.10684126422E+03 -0.12153613599E+04  0.16499652176E+04  0.12699999809E+01 0. -1.
       -4    1    3    3    0  502 -0.11107949026E+04  0.10684126422E+03  0.38429377286E+03  0.11802388267E+04  0.12699999809E+01 0.  1.
</event>
<event>
 5   0  0.1232559E-05  0.2726411E+04  0.7818609E-02  0.8326486E-01
       -2   -1    0    0    0  501  0.00000000000E+00  0.00000000000E+00  0.22449286442E+04  0.22449286442E+04  0.25500000920E-02 0.  1.
        2   -1    0    0  501    0  0.00000000000E+00  0.00000000000E+00 -0.82778988763E+03  0.82778988764E+03  0.25500000920E-02 0. -1.
    10030    2    1    2    0    0  0.00000000000E+00  0.00000000000E+00  0.14171387565E+04  0.30727185318E+04  0.27264109962E+04 0.  0.
        3    1    3    3  502    0 -0.11438377128E+04 -0.72425296962E+03  0.88826501463E+03  0.16192349501E+04  0.10100000352E+00 0.  1.
       -3    1    3    3    0  502  0.11438377128E+04  0.72425296962E+03  0.52887374190E+03  0.14534835817E+04  0.10100000352E+00 0. -1.
</event>
<event>
 5   0  0.4824715E-06  0.2698933E+04  0.7818609E-02  0.8335351E-01
        1   -1    0    0  501    0  0.00000000000E+00  0.00000000000E+00  0.19449382071E+04  0.19449382071E+04  0.50400001928E-02 0. -1.
       -1   -1    0    0    0  501  0.00000000000E+00  0.00000000000E+00 -0.93630705721E+03  0.93630705723E+03  0.50400001928E-02 0.  1.
    10030    2    1    2    0    0  0.00000000000E+00  0.00000000000E+00  0.10086311499E+04  0.28812452643E+04  0.26989326551E+04 0.  0.
        5    1    3    3  502    0 -0.25826411462E+03 -0.43690084086E+03 -0.83052935312E+03  0.97333642388E+03  0.46999998093E+01 0.  1.
       -5    1    3    3    0  502  0.25826411462E+03  0.43690084086E+03  0.18391605030E+04  0.19079088404E+04  0.46999998093E+01 0. -1.
</event>
<event>
 5   0  0.1232559E-05  0.2895592E+04  0.7818609E-02  0.8274190E-01
        2   -1    0    0  501    0  0.00000000000E+00  0.00000000000E+00  0.22872181174E+04  0.22872181174E+04  0.25500000920E-02 0. -1.
       -2   -1    0    0    0  501  0.00000000000E+00  0.00000000000E+00 -0.91644646880E+03  0.91644646880E+03  0.25500000920E-02 0.  1.
    10030    2    1    2    0    0  0.00000000000E+00  0.00000000000E+00  0.13707716486E+04  0.32036645862E+04  0.28955917993E+04 0.  0.
        3    1    3    3  502    0  0.47570404115E+03  0.12695950185E+04  0.12473065320E+04  0.18422647585E+04  0.10100000352E+00 0. -1.
       -3    1    3    3    0  502 -0.47570404115E+03 -0.12695950185E+04  0.12346511667E+03  0.13613998277E+04  0.10100000352E+00 0.  1.
</event>
<event>
 5   0  0.1276517E-05  0.2660288E+04  0.7818609E-02  0.8348006E-01
        2   -1    0    0  501    0  0.00000000000E+00  0.00000000000E+00  0.10714047527E+04  0.10714047527E+04  0.25500000920E-02 0.  1.
       -2   -1    0    0    0  501  0.00000000000E+00  0.00000000000E+00 -0.16513681652E+04  0.16513681652E+04  0.25500000920E-02 0. -1.
    10030    2    1    2    0    0  0.00000000000E+00  0.00000000000E+00 -0.57996341244E+03  0.27227729179E+04  0.26602884811E+04 0.  0.
        1    1    3    3  502    0  0.12347900994E+04  0.42164668835E+03 -0.25471612121E+02  0.13050445673E+04  0.50400001928E-02 0.  1.
       -1    1    3    3    0  502 -0.12347900994E+04 -0.42164668835E+03 -0.55449180032E+03  0.14177283506E+04  0.50400001928E-02 0. -1.
</event>
<event>
 5   0  0.4824715E-06  0.2167956E+04  0.7818609E-02  0.8531885E-01
       -1   -1    0    0    0  501  0.00000000000E+00  0.00000000000E+00  0.97413003399E+03  0.97413003400E+03  0.50400001928E-02 0. -1.
        1   -1    0    0  501    0  0.00000000000E+00  0.00000000000E+00 -0.12062129030E+04  0.12062129030E+04  0.50400001928E-02 0.  1.
    10030    2    1    2    0    0  0.00000000000E+00  0.00000000000E+00 -0.23208286901E+03  0.21803429370E+04  0.21679559186E+04 0.  0.
        5    1    3    3  502    0  0.60754256366E+03 -0.22072842704E+03  0.75907807436E+03  0.99702087146E+03  0.46999998093E+01 0. -1.
       -5    1    3    3    0  502 -0.60754256366E+03  0.22072842704E+03 -0.99116094337E+03  0.11833220655E+04  0.46999998093E+01 0.  1.
</event>
<event>
 5   0  0.4846214E-06  0.2742727E+04  0.7818609E-02  0.8321273E-01
       -1   -1    0    0    0  501  0.00000000000E+00  0.00000000000E+00  0.92981136167E+03  0.92981136168E+03  0.50400001928E-02 0.  1.
        1   -1    0    0  501    0  0.00000000000E+00  0.00000000000E+00 -0.20226016490E+04  0.20226016490E+04  0.50400001928E-02 0. -1.
    10030    2    1    2    0    0  0.00000000000E+00  0.00000000000E+00 -0.10927902873E+04  0.29524130107E+04  0.27427271052E+04 0.  0.
        2    1    3    3  502    0  0.65000079139E+03 -0.90721710498E+03  0.31145918564E+03  0.11586849135E+04  0.25500000920E-02 0.  1.
       -2    1    3    3    0  502 -0.65000079139E+03  0.90721710498E+03 -0.14042494730E+04  0.17937280972E+04  0.25500000920E-02 0. -1.
</event>
<event>
 5   0  0.1220908E-05  0.2720419E+04  0.7818609E-02  0.8328410E-01
       -2   -1    0    0    0  501  0.00000000000E+00  0.00000000000E+00  0.13061875726E+04  0.13061875726E+04  0.25500000920E-02 0.  1.
        2   -1    0    0  501    0  0.00000000000E+00  0.00000000000E+00 -0.14164656271E+04  0.14164656271E+04  0.25500000920E-02 0. -1.
    10030    2    1    2    0    0  0.00000000000E+00  0.00000000000E+00 -0.11027805451E+03  0.27226531997E+04  0.27204189377E+04 0.  0.
        2    1    3    3  502    0  0.12329926741E+04  0.38201840723E+03  0.37411974903E+03  0.13439399482E+04  0.25500000920E-02 0.  1.
       -2    1    3    3    0  502 -0.12329926741E+04 -0.38201840723E+03 -0.48439780354E+03  0.13787132515E+04  0.25500000920E-02 0. -1.
</event>
<event>
 5   0  0.1220908E-05  0.2754113E+04  0.7818609E-02  0.8317658E-01
       -2   -1    0    0    0  501  0.00000000000E+00  0.00000000000E+00  0.88049780031E+03  0.88049780032E+03  0.25500000920E-02 0.  1.
        2   -1    0    0  501    0  0.00000000000E+00  0.00000000000E+00 -0.21536511723E+04  0.21536511723E+04  0.25500000920E-02 0. -1.
    10030    2    1    2    0    0  0.00000000000E+00  0.00000000000E+00 -0.12731533720E+04  0.30341489726E+04  0.27541133745E+04 0.  0.
        2    1    3    3  502    0 -0.10037952886E+04 -0.53105632343E+03  0.22150280682E+03  0.11570174128E+04  0.25500000920E-02 0.  1.
       -2    1    3    3    0  502  0.10037952886E+04  0.53105632343E+03 -0.14946561788E+04  0.18771315598E+04  0.25500000920E-02 0. -1.
</event>
<event>
 5   0  0.5152288E-06  0.2642584E+04  0.7818609E-02  0.8353879E-01
        1   -1    0    0  501    0  0.00000000000E+00  0.00000000000E+00  0.16888447875E+04  0.16888447875E+04  0.50400001928E-02 0.  1.
       -1   -1    0    0    0  501  0.00000000000E+00  0.00000000000E+00 -0.10337314865E+04  0.10337314865E+04  0.50400001928E-02 0. -1.
    10030    2    1    2    0    0  0.00000000000E+00  0.00000000000E+00  0.65511330105E+03  0.27225762740E+04  0.26425836090E+04 0.  0.
        3    1    3    3  502    0 -0.11226307112E+04 -0.35229789960E+03  0.94691855686E+03  0.15103205909E+04  0.10100000352E+00 0.  1.
       -3    1    3    3    0  502  0.11226307112E+04  0.35229789960E+03 -0.29180525581E+03  0.12122556831E+04  0.10100000352E+00 0. -1.
</event>
<event>
 5   0  0.4846214E-06  0.2686756E+04  0.7818609E-02  0.8339315E-01
       -1   -1    0    0    0  501  0.00000000000E+00  0.00000000000E+00  0.15430050428E+04  0.15430050428E+04  0.50400001928E-02 0.  1.
        1   -1    0    0  501    0  0.00000000000E+00  0.00000000000E+00 -0.11695777294E+04  0.11695777294E+04  0.50400001928E-02 0. -1.
    10030    2    1    2    0    0  0.00000000000E+00  0.00000000000E+00  0.37342731336E+03  0.27125827722E+04  0.26867559133E+04 0.  0.
        2    1    3    3  502    0  0.92564217991E+03  0.76209554836E+03 -0.42496603800E+03  0.12720845898E+04  0.25500000920E-02 0. -1.
       -2    1    3    3    0  502 -0.92564217991E+03 -0.76209554836E+03  0.79839335136E+03  0.14404981824E+04  0.25500000920E-02 0.  1.
</event>
<event>
 5   0  0.1276517E-05  0.2695013E+04  0.7818609E-02  0.8336625E-01
        2   -1    0    0  501    0  0.00000000000E+00  0.00000000000E+00  0.24285160471E+04  0.24285160471E+04  0.25500000920E-02 0.  1.
       -2   -1    0    0    0  501  0.00000000000E+00  0.00000000000E+00 -0.74768861327E+03  0.74768861327E+03  0.25500000920E-02 0. -1.
    10030    2    1    2    0    0  0.00000000000E+00  0.00000000000E+00  0.16808274338E+04  0.31762046603E+04  0.26950130208E+04 0.  0.
        1    1    3    3  502    0  0.21025513577E+03 -0.86676625754E+03  0.20308547814E+04  0.22180762183E+04  0.50400001928E-02 0.  1.
       -1    1    3    3    0  502 -0.21025513577E+03  0.86676625754E+03 -0.35002734756E+03  0.95812844201E+03  0.50400001928E-02 0. -1.
</event>
<event>
 5   0  0.4756800E-06  0.2596577E+04  0.7818609E-02  0.8369365E-01
       -1   -1    0    0    0  501  0.00000000000E+00  0.00000000000E+00  0.67225146592E+03  0.67225146594E+03  0.50400001928E-02 0. -1.
        1   -1    0    0  501    0  0.00000000000E+00  0.00000000000E+00 -0.25073246102E+04  0.25073246102E+04  0.50400001928E-02 0.  1.
    10030    2    1    2    0    0  0.00000000000E+00  0.00000000000E+00 -0.18350731443E+04  0.31795760761E+04  0.25965767039E+04 0.  0.
        4    1    3    3  502    0 -0.10717467106E+04 -0.28850811010E+03 -0.17423193317E+04  0.20658064303E+04  0.12699999809E+01 0.  1.
       -4    1    3    3    0  502  0.10717467106E+04  0.28850811010E+03 -0.92753812572E+02  0.11137696458E+04  0.12699999809E+01 0. -1.
</event>
<event>
 5   0  0.1276517E-05  0.2600528E+04  0.7818609E-02  0.8368022E-01
        2   -1    0    0  501    0  0.00000000000E+00  0.00000000000E+00  0.24832782119E+04  0.24832782119E+04  0.25500000920E-02 0.  1.
       -2   -1    0    0    0  501  0.00000000000E+00  0.00000000000E+00 -0.68082841450E+03  0.68082841450E+03  0.25500000920E-02 0. -1.
    10030    2    1    2    0    0  0.00000000000E+00  0.00000000000E+00  0.18024497974E+04  0.31641066264E+04  0.26005279216E+04 0.  0.
        1    1    3    3  502    0  0.32507683282E+03 -0.78929225179E+03 -0.29216870991E+03  0.90223043678E+03  0.50400001928E-02 0. -1.
       -1    1    3    3    0  502 -0.32507683282E+03  0.78929225179E+03  0.20946185073E+04  0.22618761896E+04  0.50400001928E-02 0.  1.
</event>
<event>
 5   0  0.4826140E-06  0.2482449E+04  0.7818609E-02  0.8409265E-01
       -1   -1    0    0    0  501  0.00000000000E+00  0.00000000000E+00  0.74116316292E+03  0.74116316294E+03  0.50400001928E-02 0.  1.
        1   -1    0    0  501    0  0.00000000000E+00  0.00000000000E+00 -0.20786756674E+04  0.20786756674E+04  0.50400001928E-02 0. -1.
    10030    2    1    2    0    0  0.00000000000E+00  0.00000000000E+00 -0.13375125045E+04  0.28198388303E+04  0.24824486560E+04 0.  0.
        1    1    3    3  502    0 -0.54003000112E+03  0.10950949574E+04 -0.92217490875E+03  0.15301215410E+04  0.50400001928E-02 0. -1.
       -1    1    3    3    0  502  0.54003000112E+03 -0.10950949574E+04 -0.41533759572E+03  0.12897172893E+04  0.50400001928E-02 0.  1.
</event>
<event>
 5   0  0.1286641E-05  0.2670219E+04  0.7818609E-02  0.8344733E-01
        2   -1    0    0  501    0  0.00000000000E+00  0.00000000000E+00  0.14600938282E+04  0.14600938282E+04  0.25500000920E-02 0. -1.
       -2   -1    0    0    0  501  0.00000000000E+00  0.00000000000E+00 -0.12208237974E+04  0.12208237974E+04  0.25500000920E-02 0.  1.
    10030    2    1    2    0    0  0.00000000000E+00  0.00000000000E+00  0.23927003079E+03  0.26809176255E+04  0.26702189362E+04 0.  0.
        4    1    3    3  502    0  0.18539467837E+03 -0.11131338113E+04  0.83599051085E+03  0.14043930418E+04  0.12699999809E+01 0. -1.
       -4    1    3    3    0  502 -0.18539467837E+03  0.11131338113E+04 -0.59672048006E+03  0.12765245837E+04  0.12699999809E+01 0.  1.
</event>
<event>
 5   0  0.4188000E-06  0.2712071E+04  0.7818609E-02  0.8331099E-01
        3   -1    0    0  501    0  0.00000000000E+00  0.00000000000E+00  0.18011549276E+04  0.18011549304E+04  0.10100000352E+00 0.  1.
       -3   -1    0    0    0  501  0.00000000000E+00  0.00000000000E+00 -0.10209181984E+04  0.10209182034E+04  0.10100000352E+00 0. -1.
    10030    2    1    2    0    0  0.00000000000E+00  0.00000000000E+00  0.78023672920E+03  0.28220731338E+04  0.27120706884E+04 0.  0.
        1    1    3    3  502    0 -0.28886955969E+03 -0.12626145499E+04 -0.27651674914E+02  0.12955329943E+04  0.50400001928E-02 0.  1.
       -1    1    3    3    0  502  0.28886955969E+03  0.12626145499E+04  0.80788840411E+03  0.15265401395E+04  0.50400001928E-02 0. -1.
</event>
<event>
 5   0  0.1232559E-05  0.2688060E+04  0.7818609E-02  0.8338889E-01
       -2   -1    0    0    0  501  0.00000000000E+00  0.00000000000E+00  0.80918860717E+03  0.80918860717E+03  0.25500000920E-02 0. -1.
        2   -1    0    0  501    0  0.00000000000E+00  0.00000000000E+00 -0.22323808063E+04  0.22323808063E+04  0.25500000920E-02 0.  1.
    10030    2    1    2    0    0  0.00000000000E+00  0.00000000000E+00 -0.14231921992E+04  0.30415694135E+04  0.26880603530E+04 0.  0.
        3    1    3    3  502    0 -0.12329730865E+04 -0.45429624823E+03 -0.10312542025E+04  0.16703571336E+04  0.10100000352E+00 0.  1.
       -3    1    3    3    0  502  0.12329730865E+04  0.45429624823E+03 -0.39193799668E+03  0.13712122800E+04  0.10100000352E+00 0. -1.
</event>
<event>
 5   0  0.1220908E-05  0.2710374E+04  0.7818609E-02  0.8331647E-01
       -2   -1    0    0    0  501  0.00000000000E+00  0.00000000000E+00  0.12535324122E+04  0.12535324122E+04  0.25500000920E-02 0.  1.
        2   -1    0    0  501    0  0.00000000000E+00  0.00000000000E+00 -0.14650850402E+04  0.14650850402E+04  0.25500000920E-02 0. -1.
    10030    2    1    2    0    0  0.00000000000E+00  0.00000000000E+00 -0.21155262800E+03  0.27186174524E+04  0.27103738373E+04 0.  0.
        2    1    3    3  502    0 -0.11817749357E+04  0.42151993229E+03 -0.61944769911E+03  0.13992807095E+04  0.25500000920E-02 0. -1.
       -2    1    3    3    0  502  0.11817749357E+04 -0.42151993229E+03  0.40789507111E+03  0.13193367429E+04  0.25500000920E-02 0.  1.
</event>
<event>
 5   0  0.1276517E-05  0.2679956E+04  0.7818609E-02  0.8341538E-01
        2   -1    0    0  501    0  0.00000000000E+00  0.00000000000E+00  0.17264835646E+04  0.17264835646E+04  0.25500000920E-02 0.  1.
       -2   -1    0    0    0  501  0.00000000000E+00  0.00000000000E+00 -0.10399990659E+04  0.10399990659E+04  0.25500000920E-02 0. -1.
    10030    2    1    2    0    0  0.00000000000E+00  0.00000000000E+00  0.68648449871E+03  0.27664826306E+04  0.26799561896E+04 0.  0.
        1    1    3    3  502    0 -0.79100225501E+03 -0.73457509399E+02  0.14571844966E+04  0.16596587693E+04  0.50400001928E-02 0.  1.
       -1    1    3    3    0  502  0.79100225501E+03  0.73457509399E+02 -0.77069999792E+03  0.11068238613E+04  0.50400001928E-02 0. -1.
</event>
<event>
 5   0  0.4756800E-06  0.2725561E+04  0.7818609E-02  0.8326759E-01
       -1   -1    0    0    0  501  0.00000000000E+00  0.00000000000E+00  0.12804284826E+04  0.12804284826E+04  0.50400001928E-02 0.  1.
        1   -1    0    0  501    0  0.00000000000E+00  0.00000000000E+00 -0.14504288146E+04  0.14504288146E+04  0.50400001928E-02 0. -1.
    10030    2    1    2    0    0  0.00000000000E+00  0.00000000000E+00 -0.17000033202E+03  0.27308572973E+04  0.27255607616E+04 0.  0.
        4    1    3    3  502    0  0.12076003988E+04 -0.54918976641E+03 -0.39747257729E+03  0.13848805672E+04  0.12699999809E+01 0. -1.
       -4    1    3    3    0  502 -0.12076003988E+04  0.54918976641E+03  0.22747224526E+03  0.13459767301E+04  0.12699999809E+01 0.  1.
</event>
<event>
 5   0  0.1220908E-05  0.2689819E+04  0.7818609E-02  0.8338316E-01
       -2   -1    0    0    0  501  0.00000000000E+00  0.00000000000E+00  0.12877041945E+04  0.12877041945E+04  0.25500000920E-02 0.  1.
        2   -1    0    0  501    0  0.00000000000E+00  0.00000000000E+00 -0.14046560020E+04  0.14046560020E+04  0.25500000920E-02 0. -1.
    10030    2    1    2    0    0  0.00000000000E+00  0.00000000000E+00 -0.11695180758E+03  0.26923601965E+04  0.26898188977E+04 0.  0.
        2    1    3    3  502    0 -0.13001655378E+04 -0.26670433375E+03 -0.27598237628E+03  0.13556282305E+04  0.25500000920E-02 0. -1.
       -2    1    3    3    0  502  0.13001655378E+04  0.26670433375E+03  0.15903056870E+03  0.13367319660E+04  0.25500000920E-02 0.  1.
</event>
<event>
 5   0  0.5152288E-06  0.2675351E+04  0.7818609E-02  0.8343047E-01
       -1   -1    0    0    0  501  0.00000000000E+00  0.00000000000E+00  0.13917306341E+04  0.13917306341E+04  0.50400001928E-02 0.  1.
        1   -1    0    0  501    0  0.00000000000E+00  0.00000000000E+00 -0.12857202533E+04  0.12857202533E+04  0.50400001928E-02 0. -1.
    10030    2    1    2    0    0  0.00000000000E+00  0.00000000000E+00  0.10601038085E+03  0.26774508874E+04  0.26753513888E+04 0.  0.
        3    1    3    3  502    0 -0.75251261729E+03 -0.99166075758E+03 -0.43698086171E+03  0.13193250475E+04  0.10100000352E+00 0.  1.
       -3    1    3    3    0  502  0.75251261729E+03  0.99166075758E+03  0.54299124256E+03  0.13581258399E+04  0.10100000352E+00 0. -1.
</event>
<event>
 5   0  0.4756800E-06  0.2702803E+04  0.7818609E-02  0.8334096E-01
        1   -1    0    0  501    0  0.00000000000E+00  0.00000000000E+00  0.11070728938E+04  0.11070728938E+04  0.50400001928E-02 0.  1.
       -1   -1    0    0    0  501  0.00000000000E+00  0.00000000000E+00 -0.16496525209E+04  0.16496525209E+04  0.50400001928E-02 0. -1.
    10030    2    1    2    0    0  0.00000000000E+00  0.00000000000E+00 -0.54257962717E+03  0.27567254147E+04  0.27028026861E+04 0.  0.
        4    1    3    3  502    0 -0.81807382305E+03 -0.10721933282E+04 -0.18330959895E+03  0.13610464118E+04  0.12699999809E+01 0.  1.
       -4    1    3    3    0  502  0.81807382305E+03  0.10721933282E+04 -0.35927002822E+03  0.13956790029E+04  0.12699999809E+01 0. -1.
</event>
<event>
 5   0  0.4846214E-06  0.2455028E+04  0.7818609E-02  0.8419184E-01
       -1   -1    0    0    0  501  0.00000000000E+00  0.00000000000E+00  0.11200473842E+04  0.11200473843E+04  0.50400001928E-02 0.  1.
        1   -1    0    0  501    0  0.00000000000E+00  0.00000000000E+00 -0.13452922945E+04  0.13452922945E+04  0.50400001928E-02 0. -1.
    10030    2    1    2    0    0  0.00000000000E+00  0.00000000000E+00 -0.22524491027E+03  0.24653396788E+04  0.24550284035E+04 0.  0.
        2    1    3    3  502    0 -0.17675493123E+03 -0.28000292829E+03 -0.12995967725E+04  0.13411173389E+04  0.25500000920E-02 0. -1.
       -2    1    3    3    0  502  0.17675493123E+03  0.28000292829E+03  0.10743518622E+04  0.11242223399E+04  0.25500000920E-02 0.  1.
</event>
<event>
 5   0  0.4824715E-06  0.2719979E+04  0.7818609E-02  0.8328551E-01
       -1   -1    0    0    0  501  0.00000000000E+00  0.00000000000E+00  0.12425478492E+04  0.12425478492E+04  0.50400001928E-02 0. -1.
        1   -1    0    0  501    0  0.00000000000E+00  0.00000000000E+00 -0.14885314064E+04  0.14885314064E+04  0.50400001928E-02 0.  1.
    10030    2    1    2    0    0  0.00000000000E+00  0.00000000000E+00 -0.24598355720E+03  0.27310792557E+04  0.27199790423E+04 0.  0.
        5    1    3    3  502    0 -0.57878189362E+03 -0.18757159384E+03  0.10982686857E+04  0.12555428225E+04  0.46999998093E+01 0. -1.
       -5    1    3    3    0  502  0.57878189362E+03  0.18757159384E+03 -0.13442522429E+04  0.14755364332E+04  0.46999998093E+01 0.  1.
</event>
<event>
 5   0  0.1232559E-05  0.2730263E+04  0.7818609E-02  0.8325252E-01
       -2   -1    0    0    0  501  0.00000000000E+00  0.00000000000E+00  0.12828928600E+04  0.12828928600E+04  0.25500000920E-02 0.  1.
        2   -1    0    0  501    0  0.00000000000E+00  0.00000000000E+00 -0.14526414871E+04  0.14526414871E+04  0.25500000920E-02 0. -1.
    10030    2    1    2    0    0  0.00000000000E+00  0.00000000000E+00 -0.16974862709E+03  0.27355343471E+04  0.27302625456E+04 0.  0.
        3    1    3    3  502    0  0.11775444925E+04 -0.64326010622E+03  0.16698485504E+03  0.13521385092E+04  0.10100000352E+00 0. -1.
       -3    1    3    3    0  502 -0.11775444925E+04  0.64326010622E+03 -0.33673348213E+03  0.13833958379E+04  0.10100000352E+00 0.  1.
</event>
<event>
 5   0  0.1286641E-05  0.2696014E+04  0.7818609E-02  0.8336299E-01
       -2   -1    0    0    0  501  0.00000000000E+00  0.00000000000E+00  0.14355306613E+04  0.14355306613E+04  0.25500000920E-02 0. -1.
        2   -1    0    0  501    0  0.00000000000E+00  0.00000000000E+00 -0.12658195713E+04  0.12658195713E+04  0.25500000920E-02 0.  1.
    10030    2    1    2    0    0  0.00000000000E+00  0.00000000000E+00  0.16971108998E+03  0.27013502326E+04  0.26960139512E+04 0.  0.
        4    1    3    3  502    0  0.10277201969E+04 -0.40863345507E+03  0.85705019589E+03  0.13991878912E+04  0.12699999809E+01 0. -1.
       -4    1    3    3    0  502 -0.10277201969E+04  0.40863345507E+03 -0.68733910591E+03  0.13021623413E+04  0.12699999809E+01 0.  1.
</event>
<event>
 5   0  0.1261364E-05  0.2697574E+04  0.7818609E-02  0.8335792E-01
        2   -1    0    0  501    0  0.00000000000E+00  0.00000000000E+00  0.10021779999E+04  0.10021779999E+04  0.25500000920E-02 0.  1.
       -2   -1    0    0    0  501  0.00000000000E+00  0.00000000000E+00 -0.18152732763E+04  0.18152732763E+04  0.25500000920E-02 0. -1.
    10030    2    1    2    0    0  0.00000000000E+00  0.00000000000E+00 -0.81309527633E+03  0.28174512762E+04  0.26975744226E+04 0.  0.
        5    1    3    3  502    0  0.10519843812E+03 -0.12400619883E+03 -0.18049885760E+04  0.18123051890E+04  0.46999998093E+01 0. -1.
       -5    1    3    3    0  502 -0.10519843812E+03  0.12400619883E+03  0.99189329963E+03  0.10051460872E+04  0.46999998093E+01 0.  1.
</event>
<event>
 5   0  0.4846214E-06  0.2839907E+04  0.7818609E-02  0.8290985E-01
       -1   -1    0    0    0  501  0.00000000000E+00  0.00000000000E+00  0.92871903846E+03  0.92871903847E+03  0.50400001928E-02 0. -1.
        1   -1    0    0  501    0  0.00000000000E+00  0.00000000000E+00 -0.21710205705E+04  0.21710205705E+04  0.50400001928E-02 0.  1.
    10030    2    1    2    0    0  0.00000000000E+00  0.00000000000E+00 -0.12423015320E+04  0.30997396089E+04  0.28399071370E+04 0.  0.
        2    1    3    3  502    0 -0.56732360553E+03  0.45153553578E+03  0.71142251998E+03  0.10158062883E+04  0.25500000920E-02 0. -1.
       -2    1    3    3    0  502  0.56732360553E+03 -0.45153553578E+03 -0.19537240520E+04  0.20839333206E+04  0.25500000920E-02 0.  1.
</event>
<event>
 5   0  0.4846214E-06  0.2704138E+04  0.7818609E-02  0.8333664E-01
        1   -1    0    0  501    0  0.00000000000E+00  0.00000000000E+00  0.13455787329E+04  0.13455787329E+04  0.50400001928E-02 0. -1.
       -1   -1    0    0    0  501  0.00000000000E+00  0.00000000000E+00 -0.13585903093E+04  0.13585903093E+04  0.50400001928E-02 0.  1.
    10030    2    1    2    0    0  0.00000000000E+00  0.00000000000E+00 -0.13011576352E+02  0.27041690422E+04  0.27041377383E+04 0.  0.
        2    1    3    3  502    0 -0.84160897609E+03  0.10426794426E+04 -0.18707403867E+03  0.13529533564E+04  0.25500000920E-02 0.  1.
       -2    1    3    3    0  502  0.84160897609E+03 -0.10426794426E+04  0.17406246231E+03  0.13512156858E+04  0.25500000920E-02 0. -1.
</event>
<event>
 5   0  0.4188000E-06  0.2699589E+04  0.7818609E-02  0.8335138E-01
       -3   -1    0    0    0  501  0.00000000000E+00  0.00000000000E+00  0.12300792834E+04  0.12300792875E+04  0.10100000352E+00 0. -1.
        3   -1    0    0  501    0  0.00000000000E+00  0.00000000000E+00 -0.14811606031E+04  0.14811606065E+04  0.10100000352E+00 0.  1.
    10030    2    1    2    0    0  0.00000000000E+00  0.00000000000E+00 -0.25108131968E+03  0.27112398941E+04  0.26995888454E+04 0.  0.
        5    1    3    3  502    0  0.11964507806E+04  0.27870091537E+03 -0.68719861232E+03  0.14076337213E+04  0.46999998093E+01 0.  1.
       -5    1    3    3    0  502 -0.11964507806E+04 -0.27870091537E+03  0.43611729265E+03  0.13036061727E+04  0.46999998093E+01 0. -1.
</event>
<event>
 5   0  0.4188000E-06  0.2794114E+04  0.7818609E-02  0.8305098E-01
        3   -1    0    0  501    0  0.00000000000E+00  0.00000000000E+00  0.99173547513E+03  0.99173548027E+03  0.10100000352E+00 0.  1.
       -3   -1    0    0    0  501  0.00000000000E+00  0.00000000000E+00 -0.19680324618E+04  0.19680324644E+04  0.10100000352E+00 0. -1.
    10030    2    1    2    0    0  0.00000000000E+00  0.00000000000E+00 -0.97629698667E+03  0.29597679447E+04  0.27941135410E+04 0.  0.
        1    1    3    3  502    0 -0.54134765139E+03 -0.12291259813E+04 -0.80688214237E+02  0.13454807860E+04  0.50400001928E-02 0.  1.
       -1    1    3    3    0  502  0.54134765139E+03  0.12291259813E+04 -0.89560877244E+03  0.16142871587E+04  0.50400001928E-02 0. -1.
</event>
<event>
 5   0  0.4756800E-06  0.2665215E+04  0.7818609E-02  0.8346380E-01
        1   -1    0    0  501    0  0.00000000000E+00  0.00000000000E+00  0.10686342222E+04  0.10686342222E+04  0.50400001928E-02 0.  1.
       -1   -1    0    0    0  501  0.00000000000E+00  0.00000000000E+00 -0.16617878928E+04  0.16617878928E+04  0.50400001928E-02 0. -1.
    10030    2    1    2    0    0  0.00000000000E+00  0.00000000000E+00 -0.59315367060E+03  0.27304221151E+04  0.26652154978E+04 0.  0.
        4    1    3    3  502    0  0.89853594087E+03 -0.86307525391E+03  0.18782984130E+03  0.12599791241E+04  0.12699999809E+01 0. -1.
       -4    1    3    3    0  502 -0.89853594087E+03  0.86307525391E+03 -0.78098351191E+03  0.14704429910E+04  0.12699999809E+01 0.  1.
</event>
<event>
 5   0  0.4826140E-06  0.2718166E+04  0.7818609E-02  0.8329135E-01
        1   -1    0    0  501    0  0.00000000000E+00  0.00000000000E+00  0.31622789199E+04  0.31622789199E+04  0.50400001928E-02 0. -1.
       -1   -1    0    0    0  501  0.00000000000E+00  0.00000000000E+00 -0.58410617536E+03  0.58410617539E+03  0.50400001928E-02 0.  1.
    10030    2    1    2    0    0  0.00000000000E+00  0.00000000000E+00  0.25781727445E+04  0.37463850953E+04  0.27181660327E+04 0.  0.
        1    1    3    3  502    0 -0.47236149053E+03  0.14132548137E+02 -0.46721983256E+03  0.66454456481E+03  0.50400001928E-02 0.  1.
       -1    1    3    3    0  502  0.47236149053E+03 -0.14132548137E+02  0.30453925771E+04  0.30818405305E+04  0.50400001928E-02 0. -1.
</event>
<event>
 5   0  0.1286641E-05  0.2716056E+04  0.7818609E-02  0.8329814E-01
        2   -1    0    0  501    0  0.00000000000E+00  0.00000000000E+00  0.28983010535E+04  0.28983010535E+04  0.25500000920E-02 0. -1.
       -2   -1    0    0    0  501  0.00000000000E+00  0.00000000000E+00 -0.63631765739E+03  0.63631765739E+03  0.25500000920E-02 0.  1.
    10030    2    1    2    0    0  0.00000000000E+00  0.00000000000E+00  0.22619833961E+04  0.35346187109E+04  0.27160560648E+04 0.  0.
        4    1    3    3  502    0 -0.10159240875E+04  0.88447831554E+03  0.90620738458E+03  0.16234583700E+04  0.12699999809E+01 0.  1.
       -4    1    3    3    0  502  0.10159240875E+04 -0.88447831554E+03  0.13557760115E+04  0.19111603409E+04  0.12699999809E+01 0. -1.
</event>
<event>
 5   0  0.1261364E-05  0.2839861E+04  0.7818609E-02  0.8290999E-01
       -2   -1    0    0    0  501  0.00000000000E+00  0.00000000000E+00  0.10965383181E+04  0.10965383181E+04  0.25500000920E-02 0. -1.
        2   -1    0    0  501    0  0.00000000000E+00  0.00000000000E+00 -0.18386977486E+04  0.18386977486E+04  0.25500000920E-02 0.  1.
    10030    2    1    2    0    0  0.00000000000E+00  0.00000000000E+00 -0.74215943051E+03  0.29352360667E+04  0.28398609379E+04 0.  0.
        5    1    3    3  502    0 -0.72008743358E+03  0.27868668546E+03 -0.16027326299E+04  0.17790351749E+04  0.46999998093E+01 0.  1.
       -5    1    3    3    0  502  0.72008743358E+03 -0.27868668546E+03  0.86057319938E+03  0.11562008918E+04  0.46999998093E+01 0. -1.
</event>
<event>
 5   0  0.4824715E-06  0.2710363E+04  0.7818609E-02  0.8331650E-01
       -1   -1    0    0    0  501  0.00000000000E+00  0.00000000000E+00  0.84544860418E+03  0.84544860420E+03  0.50400001928E-02 0. -1.
        1   -1    0    0  501    0  0.00000000000E+00  0.00000000000E+00 -0.21722392183E+04  0.21722392183E+04  0.50400001928E-02 0.  1.
    10030    2    1    2    0    0  0.00000000000E+00  0.00000000000E+00 -0.13267906141E+04  0.30176878225E+04  0.27103627913E+04 0.  0.
        5    1    3    3  502    0  0.10444268597E+04 -0.85971334960E+03 -0.75357304584E+03  0.15484924715E+04  0.46999998093E+01 0. -1.
       -5    1    3    3    0  502 -0.10444268597E+04  0.85971334960E+03 -0.57321756825E+03  0.14691953510E+04  0.46999998093E+01 0.  1.
</event>
<event>
 5   0  0.1276517E-05  0.2715109E+04  0.7818609E-02  0.8330119E-01
        2   -1    0    0  501    0  0.00000000000E+00  0.00000000000E+00  0.11338212401E+04  0.11338212401E+04  0.25500000920E-02 0.  1.
       -2   -1    0    0    0  501  0.00000000000E+00  0.00000000000E+00 -0.16254363628E+04  0.16254363628E+04  0.25500000920E-02 0. -1.
    10030    2    1    2    0    0  0.00000000000E+00  0.00000000000E+00 -0.49161512262E+03  0.27592576029E+04  0.27151090384E+04 0.  0.
        1    1    3    3  502    0 -0.62048335630E+03 -0.11129348708E+04 -0.72175022384E+03  0.14644271944E+04  0.50400001928E-02 0.  1.
       -1    1    3    3    0  502  0.62048335630E+03  0.11129348708E+04  0.23013510122E+03  0.12948304085E+04  0.50400001928E-02 0. -1.
</event>
<event>
 5   0  0.1220908E-05  0.2686839E+04  0.7818609E-02  0.8339288E-01
        2   -1    0    0  501    0  0.00000000000E+00  0.00000000000E+00  0.10592402655E+04  0.10592402655E+04  0.25500000920E-02 0. -1.
       -2   -1    0    0    0  501  0.00000000000E+00  0.00000000000E+00 -0.17038397449E+04  0.17038397449E+04  0.25500000920E-02 0.  1.
    10030    2    1    2    0    0  0.00000000000E+00  0.00000000000E+00 -0.64459947940E+03  0.27630800104E+04  0.26868387847E+04 0.  0.
        2    1    3    3  502    0  0.22419119982E+03 -0.12916731590E+04 -0.62404423406E+03  0.14519340377E+04  0.25500000920E-02 0. -1.
       -2    1    3    3    0  502 -0.22419119982E+03  0.12916731590E+04 -0.20555245338E+02  0.13111459727E+04  0.25500000920E-02 0.  1.
</event>
<event>
 5   0  0.1220908E-05  0.2608627E+04  0.7818609E-02  0.8365277E-01
       -2   -1    0    0    0  501  0.00000000000E+00  0.00000000000E+00  0.85824372370E+03  0.85824372371E+03  0.25500000920E-02 0. -1.
        2   -1    0    0  501    0  0.00000000000E+00  0.00000000000E+00 -0.19822260541E+04  0.19822260541E+04  0.25500000920E-02 0.  1.
    10030    2    1    2    0    0  0.00000000000E+00  0.00000000000E+00 -0.11239823304E+04  0.28404697778E+04  0.26086265121E+04 0.  0.
        2    1    3    3  502    0 -0.17705496906E+03 -0.12586489857E+04 -0.88073118570E+03  0.15463612620E+04  0.25500000920E-02 0.  1.
       -2    1    3    3    0  502  0.17705496906E+03  0.12586489857E+04 -0.24325114471E+03  0.12941085158E+04  0.25500000920E-02 0. -1.
</event>
<event>
 5   0  0.4756800E-06  0.2722076E+04  0.7818609E-02  0.8327878E-01
        1   -1    0    0  501    0  0.00000000000E+00  0.00000000000E+00  0.27118062867E+04  0.27118062867E+04  0.50400001928E-02 0. -1.
       -1   -1    0    0    0  501  0.00000000000E+00  0.00000000000E+00 -0.68309602377E+03  0.68309602379E+03  0.50400001928E-02 0.  1.
    10030    2    1    2    0    0  0.00000000000E+00  0.00000000000E+00  0.20287102629E+04  0.33949023105E+04  0.27220757460E+04 0.  0.
        4    1    3    3  502    0 -0.14260935137E+03 -0.86367844958E+03  0.23141382648E+04  0.24741696411E+04  0.12699999809E+01 0. -1.
       -4    1    3    3    0  502  0.14260935137E+03  0.86367844958E+03 -0.28542800187E+03  0.92073266941E+03  0.12699999809E+01 0.  1.
</event>
<event>
 5   0  0.4826140E-06  0.2636884E+04  0.7818609E-02  0.8355780E-01
       -1   -1    0    0    0  501  0.00000000000E+00  0.00000000000E+00  0.22735046519E+04  0.22735046519E+04  0.50400001928E-02 0. -1.
        1   -1    0    0  501    0  0.00000000000E+00  0.00000000000E+00 -0.76458549632E+03  0.76458549634E+03  0.50400001928E-02 0.  1.
    10030    2    1    2    0    0  0.00000000000E+00  0.00000000000E+00  0.15089191556E+04  0.30380901483E+04  0.26368835262E+04 0.  0.
        1    1    3    3  502    0 -0.78926568092E+03  0.98947187590E+03  0.11798108330E+04  0.17303030110E+04  0.50400001928E-02 0. -1.
       -1    1    3    3    0  502  0.78926568092E+03 -0.98947187590E+03  0.32910832258E+03  0.13077871372E+04  0.50400001928E-02 0.  1.
</event>
<event>
 5   0  0.1261364E-05  0.2720117E+04  0.7818609E-02  0.8328507E-01
       -2   -1    0    0    0  501  0.00000000000E+00  0.00000000000E+00  0.10956149468E+04  0.10956149468E+04  0.25500000920E-02 0.  1.
        2   -1    0    0  501    0  0.00000000000E+00  0.00000000000E+00 -0.16883294163E+04  0.16883294163E+04  0.25500000920E-02 0. -1.
    10030    2    1    2    0    0  0.00000000000E+00  0.00000000000E+00 -0.59271446953E+03  0.27839443632E+04  0.27201168679E+04 0.  0.
        5    1    3    3  502    0  0.13443111168E+04 -0.14302598117E+03 -0.14418054084E+03  0.13595730684E+04  0.46999998093E+01 0.  1.
       -5    1    3    3    0  502 -0.13443111168E+04  0.14302598117E+03 -0.44853392870E+03  0.14243712947E+04  0.46999998093E+01 0. -1.
</event>
<event>
 5   0  0.4824715E-06  0.2685067E+04  0.7818609E-02  0.8339867E-01
       -1   -1    0    0    0  501  0.00000000000E+00  0.00000000000E+00  0.88548172152E+03  0.88548172153E+03  0.50400001928E-02 0.  1.
        1   -1    0    0  501    0  0.00000000000E+00  0.00000000000E+00 -0.20354978685E+04  0.20354978685E+04  0.50400001928E-02 0. -1.
    10030    2    1    2    0    0  0.00000000000E+00  0.00000000000E+00 -0.11500161470E+04  0.29209795901E+04  0.26850669688E+04 0.  0.
        5    1    3    3  502    0 -0.16080916315E+03 -0.76347223440E+03  0.61351409248E+03  0.99255784281E+03  0.46999998093E+01 0.  1.
       -5    1    3    3    0  502  0.16080916315E+03  0.76347223440E+03 -0.17635302395E+04  0.19284217473E+04  0.46999998093E+01 0. -1.
</event>
<event>
 5   0  0.1220908E-05  0.2672677E+04  0.7818609E-02  0.8343925E-01
        2   -1    0    0  501    0  0.00000000000E+00  0.00000000000E+00  0.15793476413E+04  0.15793476413E+04  0.25500000920E-02 0. -1.
       -2   -1    0    0    0  501  0.00000000000E+00  0.00000000000E+00 -0.11307206936E+04  0.11307206936E+04  0.25500000920E-02 0.  1.
    10030    2    1    2    0    0  0.00000000000E+00  0.00000000000E+00  0.44862694769E+03  0.27100683349E+04  0.26726773546E+04 0.  0.
        2    1    3    3  502    0  0.10270198093E+04  0.77988333442E+03  0.57966362811E+03  0.14138591251E+04  0.25500000920E-02 0. -1.
       -2    1    3    3    0  502 -0.10270198093E+04 -0.77988333442E+03 -0.13103668043E+03  0.12962092098E+04  0.25500000920E-02 0.  1.
</event>
<event>
 5   0  0.1286641E-05  0.2718367E+04  0.7818609E-02  0.8329070E-01
        2   -1    0    0  501    0  0.00000000000E+00  0.00000000000E+00  0.16291823935E+04  0.16291823935E+04  0.25500000920E-02 0. -1.
       -2   -1    0    0    0  501  0.00000000000E+00  0.00000000000E+00 -0.11339308600E+04  0.11339308600E+04  0.25500000920E-02 0.  1.
    10030    2    1    2    0    0  0.00000000000E+00  0.00000000000E+00  0.49525153349E+03  0.27631132534E+04  0.27183672986E+04 0.  0.
        4    1    3    3  502    0 -0.36940170227E+03 -0.10127452534E+04  0.10890611667E+04  0.15323728018E+04  0.12699999809E+01 0. -1.
       -4    1    3    3    0  502  0.36940170227E+03  0.10127452534E+04 -0.59380963317E+03  0.12307404517E+04  0.12699999809E+01 0.  1.
</event>
<event>
 5   0  0.4756800E-06  0.2711104E+04  0.7818609E-02  0.8331411E-01
       -1   -1    0    0    0  501  0.00000000000E+00  0.00000000000E+00  0.14956961966E+04  0.14956961966E+04  0.50400001928E-02 0. -1.
        1   -1    0    0  501    0  0.00000000000E+00  0.00000000000E+00 -0.12285394226E+04  0.12285394226E+04  0.50400001928E-02 0.  1.
    10030    2    1    2    0    0  0.00000000000E+00  0.00000000000E+00  0.26715677395E+03  0.27242356192E+04  0.27111043814E+04 0.  0.
        4    1    3    3  502    0 -0.98603868990E+03  0.59830853945E+03  0.84926029571E+03  0.14323023665E+04  0.12699999809E+01 0. -1.
       -4    1    3    3    0  502  0.98603868990E+03 -0.59830853945E+03 -0.58210352176E+03  0.12919332527E+04  0.12699999809E+01 0.  1.
</event>
<event>
 5   0  0.1261364E-05  0.2695837E+04  0.7818609E-02  0.8336357E-01
       -2   -1    0    0    0  501  0.00000000000E+00  0.00000000000E+00  0.14440614090E+04  0.14440614090E+04  0.25500000920E-02 0.  1.
        2   -1    0    0  501    0  0.00000000000E+00  0.00000000000E+00 -0.12581768578E+04  0.12581768578E+04  0.25500000920E-02 0. -1.
    10030    2    1    2    0    0  0.00000000000E+00  0.00000000000E+00  0.18588455118E+03  0.27022382667E+04  0.26958372696E+04 0.  0.
        5    1    3    3  502    0  0.21787976710E+03 -0.35461751215E+03  0.13780305824E+04  0.14395192075E+04  0.46999998093E+01 0.  1.
       -5    1    3    3    0  502 -0.21787976710E+03  0.35461751215E+03 -0.11921460312E+04  0.12627190592E+04  0.46999998093E+01 0. -1.
</event>
<event>
 5   0  0.1232559E-05  0.2685229E+04  0.7818609E-02  0.8339814E-01
       -2   -1    0    0    0  501  0.00000000000E+00  0.00000000000E+00  0.77537891369E+03  0.77537891370E+03  0.25500000920E-02 0.  1.
        2   -1    0    0  501    0  0.00000000000E+00  0.00000000000E+00 -0.23248162459E+04  0.23248162459E+04  0.25500000920E-02 0. -1.
    10030    2    1    2    0    0  0.00000000000E+00  0.00000000000E+00 -0.15494373322E+04  0.31001951596E+04  0.26852288508E+04 0.  0.
        3    1    3    3  502    0  0.10552010853E+04 -0.61353177798E+03 -0.14203750760E+04  0.18727882795E+04  0.10100000352E+00 0. -1.
       -3    1    3    3    0  502 -0.10552010853E+04  0.61353177798E+03 -0.12906225619E+03  0.12274068801E+04  0.10100000352E+00 0.  1.
</event>
<event>
 5   0  0.1286641E-05  0.2681899E+04  0.7818609E-02  0.8340902E-01
        2   -1    0    0  501    0  0.00000000000E+00  0.00000000000E+00  0.25771975682E+04  0.25771975682E+04  0.25500000920E-02 0.  1.
       -2   -1    0    0    0  501  0.00000000000E+00  0.00000000000E+00 -0.69771333325E+03  0.69771333325E+03  0.25500000920E-02 0. -1.
    10030    2    1    2    0    0  0.00000000000E+00  0.00000000000E+00  0.18794842350E+04  0.32749109015E+04  0.26818986601E+04 0.  0.
        4    1    3    3  502    0 -0.28507266030E+03  0.75997510478E+03 -0.36366178306E+03  0.88942683055E+03  0.12699999809E+01 0. -1.
       -4    1    3    3    0  502  0.28507266030E+03 -0.75997510478E+03  0.22431460180E+04  0.23854840709E+04  0.12699999809E+01 0.  1.
</event>
<event>
 5   0  0.4846214E-06  0.2709184E+04  0.7818609E-02  0.8332031E-01
        1   -1    0    0  501    0  0.00000000000E+00  0.00000000000E+00  0.19258634788E+04  0.19258634788E+04  0.50400001928E-02 0.  1.
       -1   -1    0    0    0  501  0.00000000000E+00  0.00000000000E+00 -0.95277737866E+03  0.95277737867E+03  0.50400001928E-02 0. -1.
    10030    2    1    2    0    0  0.00000000000E+00  0.00000000000E+00  0.97308610017E+03  0.28786408575E+04  0.27091837568E+04 0.  0.
        2    1    3    3  502    0 -0.11343653615E+04  0.73275973940E+03  0.37410572927E+03  0.14013124940E+04  0.25500000920E-02 0.  1.
       -2    1    3    3    0  502  0.11343653615E+04 -0.73275973940E+03  0.59898037090E+03  0.14773283636E+04  0.25500000920E-02 0. -1.
</event>
<event>
 5   0  0.1261364E-05  0.2668059E+04  0.7818609E-02  0.8345444E-01
        2   -1    0    0  501    0  0.00000000000E+00  0.00000000000E+00  0.11232985265E+04  0.11232985265E+04  0.25500000920E-02 0.  1.
       -2   -1    0    0    0  501  0.00000000000E+00  0.00000000000E+00 -0.15842935223E+04  0.15842935223E+04  0.25500000920E-02 0. -1.
    10030    2    1    2    0    0  0.00000000000E+00  0.00000000000E+00 -0.46099499583E+03  0.27075920488E+04  0.26680589043E+04 0.  0.
        5    1    3    3  502    0  0.11190958763E+04  0.32569733779E+03 -0.88908035632E+03  0.14659264328E+04  0.46999998093E+01 0.  1.
       -5    1    3    3    0  502 -0.11190958763E+04 -0.32569733779E+03  0.42808536049E+03  0.12416656161E+04  0.46999998093E+01 0. -1.
</event>
<event>
 5   0  0.4824715E-06  0.2729153E+04  0.7818609E-02  0.8325607E-01
        1   -1    0    0  501    0  0.00000000000E+00  0.00000000000E+00  0.76770879400E+03  0.76770879401E+03  0.50400001928E-02 0. -1.
       -1   -1    0    0    0  501  0.00000000000E+00  0.00000000000E+00 -0.24254894194E+04  0.24254894194E+04  0.50400001928E-02 0.  1.
    10030    2    1    2    0    0  0.00000000000E+00  0.00000000000E+00 -0.16577806254E+04  0.31931982134E+04  0.27291533904E+04 0.  0.
        5    1    3    3  502    0  0.54193459836E+03  0.16372527896E+03 -0.22815922416E+04  0.23507837677E+04  0.46999998093E+01 0.  1.
       -5    1    3    3    0  502 -0.54193459836E+03 -0.16372527896E+03  0.62381161615E+03  0.84241444569E+03  0.46999998093E+01 0. -1.
</event>
<event>
 5   0  0.1286641E-05  0.2704461E+04  0.7818609E-02  0.8333559E-01
        2   -1    0    0  501    0  0.00000000000E+00  0.00000000000E+00  0.18120010891E+04  0.18120010891E+04  0.25500000920E-02 0.  1.
       -2   -1    0    0    0  501  0.00000000000E+00  0.00000000000E+00 -0.10091207595E+04  0.10091207595E+04  0.25500000920E-02 0. -1.
    10030    2    1    2    0    0  0.00000000000E+00  0.00000000000E+00  0.80288032953E+03  0.28211218486E+04  0.27044614364E+04 0.  0.
        4    1    3    3  502    0  0.80476659389E+03  0.42972093062E+03  0.14426014610E+04  0.17068713885E+04  0.12699999809E+01 0.  1.
       -4    1    3    3    0  502 -0.80476659389E+03 -0.42972093062E+03 -0.63972113146E+03  0.11142504601E+04  0.12699999809E+01 0. -1.
</event>
<event>
 5   0  0.4826140E-06  0.2718782E+04  0.7818609E-02  0.8328936E-01
        1   -1    0    0  501    0  0.00000000000E+00  0.00000000000E+00  0.16112610584E+04  0.16112610584E+04  0.50400001928E-02 0.  1.
       -1   -1    0    0    0  501  0.00000000000E+00  0.00000000000E+00 -0.11468931423E+04  0.11468931423E+04  0.50400001928E-02 0. -1.
    10030    2    1    2    0    0  0.00000000000E+00  0.00000000000E+00  0.46436791617E+03  0.27581542007E+04  0.27187822703E+04 0.  0.
        1    1    3    3  502    0  0.67513474759E+03 -0.23728155630E+03  0.14047045786E+04  0.15764848294E+04  0.50400001928E-02 0.  1.
       -1    1    3    3    0  502 -0.67513474759E+03  0.23728155630E+03 -0.94033666240E+03  0.11816693713E+04  0.50400001928E-02 0. -1.
</event>
<event>
 5   0  0.1261364E-05  0.2692152E+04  0.7818609E-02  0.8337556E-01
       -2   -1    0    0    0  501  0.00000000000E+00  0.00000000000E+00  0.23738820939E+04  0.23738820939E+04  0.25500000920E-02 0.  1.
        2   -1    0    0  501    0  0.00000000000E+00  0.00000000000E+00 -0.76327296170E+03  0.76327296170E+03  0.25500000920E-02 0. -1.
    10030    2    1    2    0    0  0.00000000000E+00  0.00000000000E+00  0.16106091322E+04  0.31371550556E+04  0.26921515682E+04 0.  0.
        5    1    3    3  502    0 -0.83604864543E+03 -0.54130093068E+03  0.18604701068E+04  0.21102974064E+04  0.46999998093E+01 0.  1.
       -5    1    3    3    0  502  0.83604864543E+03  0.54130093068E+03 -0.24986097461E+03  0.10268576492E+04  0.46999998093E+01 0. -1.
</event>
<event>
 5   0  0.4824715E-06  0.2767472E+04  0.7818609E-02  0.8313439E-01
        1   -1    0    0  501    0  0.00000000000E+00  0.00000000000E+00  0.24493572751E+04  0.24493572751E+04  0.50400001928E-02 0.  1.
       -1   -1    0    0    0  501  0.00000000000E+00  0.00000000000E+00 -0.78172560868E+03  0.78172560870E+03  0.50400001928E-02 0. -1.
    10030    2    1    2    0    0  0.00000000000E+00  0.00000000000E+00  0.16676316664E+04  0.32310828838E+04  0.27674719921E+04 0.  0.
        5    1    3    3  502    0 -0.53034341493E+03  0.12481378504E+04  0.11548120158E+04  0.17812145051E+04  0.46999998093E+01 0. -1.
       -5    1    3    3    0  502  0.53034341493E+03 -0.12481378504E+04  0.51281965060E+03  0.14498683787E+04  0.46999998093E+01 0.  1.
</event>
<event>
 5   0  0.4824715E-06  0.2702027E+04  0.7818609E-02  0.8334348E-01
       -1   -1    0    0    0  501  0.00000000000E+00  0.00000000000E+00  0.82886247033E+03  0.82886247034E+03  0.50400001928E-02 0.  1.
        1   -1    0    0  501    0  0.00000000000E+00  0.00000000000E+00 -0.22020994688E+04  0.22020994688E+04  0.50400001928E-02 0. -1.
    10030    2    1    2    0    0  0.00000000000E+00  0.00000000000E+00 -0.13732369985E+04  0.30309619392E+04  0.27020270951E+04 0.  0.
        5    1    3    3  502    0  0.40808861402E+03 -0.10734626469E+04 -0.14848323403E+04  0.18771274703E+04  0.46999998093E+01 0. -1.
       -5    1    3    3    0  502 -0.40808861402E+03  0.10734626469E+04  0.11159534176E+03  0.11538344688E+04  0.46999998093E+01 0.  1.
</event>
<event>
 5   0  0.1261364E-05  0.2693527E+04  0.7818609E-02  0.8337108E-01
        2   -1    0    0  501    0  0.00000000000E+00  0.00000000000E+00  0.12671723732E+04  0.12671723732E+04  0.25500000920E-02 0.  1.
       -2   -1    0    0    0  501  0.00000000000E+00  0.00000000000E+00 -0.14313539185E+04  0.14313539185E+04  0.25500000920E-02 0. -1.
    10030    2    1    2    0    0  0.00000000000E+00  0.00000000000E+00 -0.16418154527E+03  0.26985262916E+04  0.26935271610E+04 0.  0.
        5    1    3    3  502    0 -0.15824230894E+03  0.10160976389E+04  0.78915247929E+03  0.12962556714E+04  0.46999998093E+01 0.  1.
       -5    1    3    3    0  502  0.15824230894E+03 -0.10160976389E+04 -0.95333402456E+03  0.14022706203E+04  0.46999998093E+01 0. -1.
</event>
<event>
 5   0  0.4756800E-06  0.2710971E+04  0.7818609E-02  0.8331454E-01
        1   -1    0    0  501    0  0.00000000000E+00  0.00000000000E+00  0.10974147310E+04  0.10974147310E+04  0.50400001928E-02 0.  1.
       -1   -1    0    0    0  501  0.00000000000E+00  0.00000000000E+00 -0.16742447210E+04  0.16742447211E+04  0.50400001928E-02 0. -1.
    10030    2    1    2    0    0  0.00000000000E+00  0.00000000000E+00 -0.57682999005E+03  0.27716594521E+04  0.27109709111E+04 0.  0.
        4    1    3    3  502    0 -0.44143957744E+03 -0.20576361759E+03 -0.15816959056E+04  0.16549837212E+04  0.12699999809E+01 0. -1.
       -4    1    3    3    0  502  0.44143957744E+03  0.20576361759E+03  0.10048659155E+04  0.11166757309E+04  0.12699999809E+01 0.  1.
</event>
<event>
 5   0  0.4756800E-06  0.2691237E+04  0.7818609E-02  0.8337854E-01
       -1   -1    0    0    0  501  0.00000000000E+00  0.00000000000E+00  0.11079746271E+04  0.11079746271E+04  0.50400001928E-02 0.  1.
        1   -1    0    0  501    0  0.00000000000E+00  0.00000000000E+00 -0.16342332302E+04  0.16342332302E+04  0.50400001928E-02 0. -1.
    10030    2    1    2    0    0  0.00000000000E+00  0.00000000000E+00 -0.52625860310E+03  0.27422078573E+04  0.26912368561E+04 0.  0.
        4    1    3    3  502    0  0.13738568729E+03  0.28659618635E+03  0.10691805754E+04  0.11154196147E+04  0.12699999809E+01 0.  1.
       -4    1    3    3    0  502 -0.13738568729E+03 -0.28659618635E+03 -0.15954391785E+04  0.16267882426E+04  0.12699999809E+01 0. -1.
</event>
<event>
 5   0  0.4824715E-06  0.2704657E+04  0.7818609E-02  0.8333495E-01
        1   -1    0    0  501    0  0.00000000000E+00  0.00000000000E+00  0.16179988051E+04  0.16179988051E+04  0.50400001928E-02 0.  1.
       -1   -1    0    0    0  501  0.00000000000E+00  0.00000000000E+00 -0.11302805478E+04  0.11302805478E+04  0.50400001928E-02 0. -1.
    10030    2    1    2    0    0  0.00000000000E+00  0.00000000000E+00  0.48771825735E+03  0.27482793529E+04  0.27046571508E+04 0.  0.
        5    1    3    3  502    0 -0.74543414700E+03 -0.10748342059E+04  0.59265899791E+03  0.14360387932E+04  0.46999998093E+01 0. -1.
       -5    1    3    3    0  502  0.74543414700E+03  0.10748342059E+04 -0.10494074055E+03  0.13122405598E+04  0.46999998093E+01 0.  1.
</event>
<event>
 5   0  0.4756800E-06  0.2700813E+04  0.7818609E-02  0.8334741E-01
       -1   -1    0    0    0  501  0.00000000000E+00  0.00000000000E+00  0.97008616914E+03  0.97008616916E+03  0.50400001928E-02 0.  1.
        1   -1    0    0  501    0  0.00000000000E+00  0.00000000000E+00 -0.18798311740E+04  0.18798311740E+04  0.50400001928E-02 0. -1.
    10030    2    1    2    0    0  0.00000000000E+00  0.00000000000E+00 -0.90974500487E+03  0.28499173432E+04  0.27008133755E+04 0.  0.
        4    1    3    3  502    0  0.54844553090E+03 -0.35403553258E+03  0.79253352978E+03  0.10267641732E+04  0.12699999809E+01 0.  1.
       -4    1    3    3    0  502 -0.54844553090E+03  0.35403553258E+03 -0.17022785346E+04  0.18231531700E+04  0.12699999809E+01 0. -1.
</event>
<event>
 5   0  0.4756800E-06  0.2884471E+04  0.7818609E-02  0.8277513E-01
        1   -1    0    0  501    0  0.00000000000E+00  0.00000000000E+00  0.22714935711E+04  0.22714935712E+04  0.50400001928E-02 0. -1.
       -1   -1    0    0    0  501  0.00000000000E+00  0.00000000000E+00 -0.91571594434E+03  0.91571594435E+03  0.50400001928E-02 0.  1.
    10030    2    1    2    0    0  0.00000000000E+00  0.00000000000E+00  0.13557776268E+04  0.31872095155E+04  0.28844707526E+04 0.  0.
        4    1    3    3  502    0 -0.84631492388E+03  0.10850767965E+02 -0.61243836739E+03  0.10447243925E+04  0.12699999809E+01 0.  1.
       -4    1    3    3    0  502  0.84631492388E+03 -0.10850767965E+02  0.19682159942E+04  0.21424851230E+04  0.12699999809E+01 0. -1.
</event>
<event>
 5   0  0.4756800E-06  0.2691110E+04  0.7818609E-02  0.8337895E-01
        1   -1    0    0  501    0  0.00000000000E+00  0.00000000000E+00  0.11528854402E+04  0.11528854402E+04  0.50400001928E-02 0. -1.
       -1   -1    0    0    0  501  0.00000000000E+00  0.00000000000E+00 -0.15704232984E+04  0.15704232984E+04  0.50400001928E-02 0.  1.
    10030    2    1    2    0    0  0.00000000000E+00  0.00000000000E+00 -0.41753785817E+03  0.27233087387E+04  0.26911099240E+04 0.  0.
        4    1    3    3  502    0 -0.57207683243E+01  0.82376033170E+03 -0.12854076521E+04  0.15267246825E+04  0.12699999809E+01 0.  1.
       -4    1    3    3    0  502  0.57207683243E+01 -0.82376033170E+03  0.86786979393E+03  0.11965840561E+04  0.12699999809E+01 0. -1.
</event>
<event>
 5   0  0.4826140E-06  0.2726639E+04  0.7818609E-02  0.8326413E-01
        1   -1    0    0  501    0  0.00000000000E+00  0.00000000000E+00  0.62622409558E+03  0.62622409561E+03  0.50400001928E-02 0.  1.
       -1   -1    0    0    0  501  0.00000000000E+00  0.00000000000E+00 -0.29680112448E+04  0.29680112448E+04  0.50400001928E-02 0. -1.
    10030    2    1    2    0    0  0.00000000000E+00  0.00000000000E+00 -0.23417871492E+04  0.35942353404E+04  0.27266390722E+04 0.  0.
        1    1    3    3  502    0  0.12805201011E+04 -0.11845194819E+03 -0.57423476496E+03  0.14083707461E+04  0.50400001928E-02 0.  1.
       -1    1    3    3    0  502 -0.12805201011E+04  0.11845194819E+03 -0.17675523842E+04  0.21858645942E+04  0.50400001928E-02 0. -1.
</event>
<event>
 5   0  0.1220908E-05  0.2692461E+04  0.7818609E-02  0.8337455E-01
       -2   -1    0    0    0  501  0.00000000000E+00  0.00000000000E+00  0.11492477626E+04  0.11492477626E+04  0.25500000920E-02 0. -1.
        2   -1    0    0  501    0  0.00000000000E+00  0.00000000000E+00 -0.15769759307E+04  0.15769759307E+04  0.25500000920E-02 0.  1.
    10030    2    1    2    0    0  0.00000000000E+00  0.00000000000E+00 -0.42772816805E+03  0.27262236933E+04  0.26924606293E+04 0.  0.
        2    1    3    3  502    0  0.84463110334E+03  0.34629024865E+03 -0.12157247745E+04  0.15202977881E+04  0.25500000920E-02 0.  1.
       -2    1    3    3    0  502 -0.84463110334E+03 -0.34629024865E+03  0.78799660648E+03  0.12059259052E+04  0.25500000920E-02 0. -1.
</event>
<event>
 5   0  0.4826140E-06  0.2185716E+04  0.7818609E-02  0.8524397E-01
        1   -1    0    0  501    0  0.00000000000E+00  0.00000000000E+00  0.14870857079E+04  0.14870857079E+04  0.50400001928E-02 0. -1.
       -1   -1    0    0    0  501  0.00000000000E+00  0.00000000000E+00 -0.80314016992E+03  0.80314016994E+03  0.50400001928E-02 0.  1.
    10030    2    1    2    0    0  0.00000000000E+00  0.00000000000E+00  0.68394553796E+03  0.22902258778E+04  0.21857156889E+04 0.  0.
        1    1    3    3  502    0  0.39646528330E+03  0.99722705666E+03  0.55847212053E+03  0.12097675946E+04  0.50400001928E-02 0.  1.
       -1    1    3    3    0  502 -0.39646528330E+03 -0.99722705666E+03  0.12547341743E+03  0.10804582833E+04  0.50400001928E-02 0. -1.
</event>
<event>
 5   0  0.4826140E-06  0.2680726E+04  0.7818609E-02  0.8341286E-01
        1   -1    0    0  501    0  0.00000000000E+00  0.00000000000E+00  0.91705408900E+03  0.91705408902E+03  0.50400001928E-02 0. -1.
       -1   -1    0    0    0  501  0.00000000000E+00  0.00000000000E+00 -0.19590703263E+04  0.19590703263E+04  0.50400001928E-02 0.  1.
    10030    2    1    2    0    0  0.00000000000E+00  0.00000000000E+00 -0.10420162373E+04  0.28761244153E+04  0.26807263593E+04 0.  0.
        1    1    3    3  502    0  0.88736397957E+03 -0.61623151217E+03  0.33017800948E+03  0.11296785502E+04  0.50400001928E-02 0. -1.
       -1    1    3    3    0  502 -0.88736397957E+03  0.61623151217E+03 -0.13721942467E+04  0.17464458651E+04  0.50400001928E-02 0.  1.
</event>
<event>
 5   0  0.1261364E-05  0.2662419E+04  0.7818609E-02  0.8347303E-01
       -2   -1    0    0    0  501  0.00000000000E+00  0.00000000000E+00  0.17602089135E+04  0.17602089135E+04  0.25500000920E-02 0.  1.
        2   -1    0    0  501    0  0.00000000000E+00  0.00000000000E+00 -0.10067662057E+04  0.10067662057E+04  0.25500000920E-02 0. -1.
    10030    2    1    2    0    0  0.00000000000E+00  0.00000000000E+00  0.75344270780E+03  0.27669751192E+04  0.26624190872E+04 0.  0.
        5    1    3    3  502    0  0.13243823510E+04  0.26724789626E+02  0.23965598766E+03  0.13461648891E+04  0.46999998093E+01 0. -1.
       -5    1    3    3    0  502 -0.13243823510E+04 -0.26724789626E+02  0.51378672014E+03  0.14208102301E+04  0.46999998093E+01 0.  1.
</event>
<event>
 5   0  0.4846214E-06  0.2704308E+04  0.7818609E-02  0.8333609E-01
        1   -1    0    0  501    0  0.00000000000E+00  0.00000000000E+00  0.20065007521E+04  0.20065007521E+04  0.50400001928E-02 0.  1.
       -1   -1    0    0    0  501  0.00000000000E+00  0.00000000000E+00 -0.91119825133E+03  0.91119825135E+03  0.50400001928E-02 0. -1.
    10030    2    1    2    0    0  0.00000000000E+00  0.00000000000E+00  0.10953025008E+04  0.29176990035E+04  0.27043076575E+04 0.  0.
        2    1    3    3  502    0  0.16181063910E+03 -0.19366572591E+03 -0.88556368946E+03  0.92082145089E+03  0.25500000920E-02 0. -1.
       -2    1    3    3    0  502 -0.16181063910E+03  0.19366572591E+03  0.19808661902E+04  0.19968775526E+04  0.25500000920E-02 0.  1.
</event>
<event>
 5   0  0.5152288E-06  0.2439963E+04  0.7818609E-02  0.8424692E-01
        1   -1    0    0  501    0  0.00000000000E+00  0.00000000000E+00  0.67147404962E+03  0.67147404964E+03  0.50400001928E-02 0. -1.
       -1   -1    0    0    0  501  0.00000000000E+00  0.00000000000E+00 -0.22165485990E+04  0.22165485990E+04  0.50400001928E-02 0.  1.
    10030    2    1    2    0    0  0.00000000000E+00  0.00000000000E+00 -0.15450745494E+04  0.28880226487E+04  0.24399630030E+04 0.  0.
        3    1    3    3  502    0 -0.24323993317E+03  0.11952202224E+04 -0.74264475086E+03  0.14280190059E+04  0.10100000352E+00 0. -1.
       -3    1    3    3    0  502  0.24323993317E+03 -0.11952202224E+04 -0.80242979853E+03  0.14600036427E+04  0.10100000352E+00 0.  1.
</event>
<event>
 5   0  0.4756800E-06  0.2705110E+04  0.7818609E-02  0.8333349E-01
        1   -1    0    0  501    0  0.00000000000E+00  0.00000000000E+00  0.15711023572E+04  0.15711023572E+04  0.50400001928E-02 0.  1.
       -1   -1    0    0    0  501  0.00000000000E+00  0.00000000000E+00 -0.11644087229E+04  0.11644087229E+04  0.50400001928E-02 0. -1.
    10030    2    1    2    0    0  0.00000000000E+00  0.00000000000E+00  0.40669363436E+03  0.27355110801E+04  0.27051101932E+04 0.  0.
        4    1    3    3  502    0 -0.11046726158E+04  0.65670963581E+03 -0.22309676063E+03  0.13043553624E+04  0.12699999809E+01 0. -1.
       -4    1    3    3    0  502  0.11046726158E+04 -0.65670963581E+03  0.62979039499E+03  0.14311557177E+04  0.12699999809E+01 0.  1.
</event>
<event>
 5   0  0.4756800E-06  0.2625002E+04  0.7818609E-02  0.8359758E-01
       -1   -1    0    0    0  501  0.00000000000E+00  0.00000000000E+00  0.12535698002E+04  0.12535698002E+04  0.50400001928E-02 0. -1.
        1   -1    0    0  501    0  0.00000000000E+00  0.00000000000E+00 -0.13742023168E+04  0.13742023169E+04  0.50400001928E-02 0.  1.
    10030    2    1    2    0    0  0.00000000000E+00  0.00000000000E+00 -0.12063251666E+03  0.26277721170E+04  0.26250017324E+04 0.  0.
        4    1    3    3  502    0  0.11377388882E+04  0.55525697970E+03  0.28631038167E+03  0.12979735509E+04  0.12699999809E+01 0. -1.
       -4    1    3    3    0  502 -0.11377388882E+04 -0.55525697970E+03 -0.40694289833E+03  0.13297985662E+04  0.12699999809E+01 0.  1.
</event>
<event>
 5   0  0.1286641E-05  0.2676203E+04  0.7818609E-02  0.8342768E-01
       -2   -1    0    0    0  501  0.00000000000E+00  0.00000000000E+00  0.16712093055E+04  0.16712093055E+04  0.25500000920E-02 0.  1.
        2   -1    0    0  501    0  0.00000000000E+00  0.00000000000E+00 -0.10713895161E+04  0.10713895161E+04  0.25500000920E-02 0. -1.
    10030    2    1    2    0    0  0.00000000000E+00  0.00000000000E+00  0.59981978940E+03  0.27425988216E+04  0.26762033772E+04 0.  0.
        4    1    3    3  502    0  0.65609545089E+03  0.10283808488E+04  0.86354221095E+03  0.14945685578E+04  0.12699999809E+01 0. -1.
       -4    1    3    3    0  502 -0.65609545089E+03 -0.10283808488E+04 -0.26372242155E+03  0.12480302638E+04  0.12699999809E+01 0.  1.
</event>
<event>
 5   0  0.4188000E-06  0.2696245E+04  0.7818609E-02  0.8336224E-01
        3   -1    0    0  501    0  0.00000000000E+00  0.00000000000E+00  0.12854666796E+04  0.12854666835E+04  0.10100000352E+00 0. -1.
       -3   -1    0    0    0  501  0.00000000000E+00  0.00000000000E+00 -0.14138320498E+04  0.14138320534E+04  0.10100000352E+00 0.  1.
    10030    2    1    2    0    0  0.00000000000E+00  0.00000000000E+00 -0.12836537018E+03  0.26992987369E+04  0.26962447965E+04 0.  0.
        3    1    3    3  502    0  0.12506232653E+04 -0.18795056225E+03 -0.53166986109E+03  0.13718807590E+04  0.10100000352E+00 0.  1.
       -3    1    3    3    0  502 -0.12506232653E+04  0.18795056225E+03  0.40330449091E+03  0.13274179779E+04  0.10100000352E+00 0. -1.
</event>
<event>
 5   0  0.5152288E-06  0.2703595E+04  0.7818609E-02  0.8333839E-01
        1   -1    0    0  501    0  0.00000000000E+00  0.00000000000E+00  0.17229675843E+04  0.17229675843E+04  0.50400001928E-02 0. -1.
       -1   -1    0    0    0  501  0.00000000000E+00  0.00000000000E+00 -0.10605870731E+04  0.10605870731E+04  0.50400001928E-02 0.  1.
    10030    2    1    2    0    0  0.00000000000E+00  0.00000000000E+00  0.66238051114E+03  0.27835546574E+04  0.27035954929E+04 0.  0.
        3    1    3    3  502    0 -0.12710483520E+04 -0.36102256775E+03  0.37344520404E+02  0.13218531805E+04  0.10100000352E+00 0.  1.
       -3    1    3    3    0  502  0.12710483520E+04  0.36102256775E+03  0.62503599074E+03  0.14617014769E+04  0.10100000352E+00 0. -1.
</event>
<event>
 5   0  0.1220908E-05  0.2631668E+04  0.7818609E-02  0.8357523E-01
       -2   -1    0    0    0  501  0.00000000000E+00  0.00000000000E+00  0.10562758354E+04  0.10562758354E+04  0.25500000920E-02 0.  1.
        2   -1    0    0  501    0  0.00000000000E+00  0.00000000000E+00 -0.16391737010E+04  0.16391737010E+04  0.25500000920E-02 0. -1.
    10030    2    1    2    0    0  0.00000000000E+00  0.00000000000E+00 -0.58289786562E+03  0.26954495363E+04  0.26316683456E+04 0.  0.
        2    1    3    3  502    0 -0.74327858910E+03 -0.10128209132E+04  0.10937992827E+03  0.12610445004E+04  0.25500000920E-02 0.  1.
       -2    1    3    3    0  502  0.74327858910E+03  0.10128209132E+04 -0.69227779389E+03  0.14344050359E+04  0.25500000920E-02 0. -1.
</event>
<event>
 5   0  0.1261364E-05  0.2703707E+04  0.7818609E-02  0.8333803E-01
       -2   -1    0    0    0  501  0.00000000000E+00  0.00000000000E+00  0.22656860855E+04  0.22656860855E+04  0.25500000920E-02 0.  1.
        2   -1    0    0  501    0  0.00000000000E+00  0.00000000000E+00 -0.80660257033E+03  0.80660257033E+03  0.25500000920E-02 0. -1.
    10030    2    1    2    0    0  0.00000000000E+00  0.00000000000E+00  0.14590835152E+04  0.30722886558E+04  0.27037072476E+04 0.  0.
        5    1    3    3  502    0  0.47813877692E+03 -0.11059365151E+04  0.14261131554E+04  0.18669582447E+04  0.46999998093E+01 0.  1.
       -5    1    3    3    0  502 -0.47813877692E+03  0.11059365151E+04  0.32970359773E+02  0.12053304111E+04  0.46999998093E+01 0. -1.
</event>
<event>
 5   0  0.1232559E-05  0.2716260E+04  0.7818609E-02  0.8329748E-01
       -2   -1    0    0    0  501  0.00000000000E+00  0.00000000000E+00  0.18562965212E+04  0.18562965212E+04  0.25500000920E-02 0.  1.
        2   -1    0    0  501    0  0.00000000000E+00  0.00000000000E+00 -0.99365437304E+03  0.99365437304E+03  0.25500000920E-02 0. -1.
    10030    2    1    2    0    0  0.00000000000E+00  0.00000000000E+00  0.86264214813E+03  0.28499508942E+04  0.27162600435E+04 0.  0.
        3    1    3    3  502    0  0.39398920833E+03 -0.49509811138E+03  0.16922041542E+04  0.18066279489E+04  0.10100000352E+00 0.  1.
       -3    1    3    3    0  502 -0.39398920833E+03  0.49509811138E+03 -0.82956200603E+03  0.10433229453E+04  0.10100000352E+00 0. -1.
</event>
<event>
 5   0  0.4846214E-06  0.2714588E+04  0.7818609E-02  0.8330287E-01
       -1   -1    0    0    0  501  0.00000000000E+00  0.00000000000E+00  0.11816756631E+04  0.11816756631E+04  0.50400001928E-02 0. -1.
        1   -1    0    0  501    0  0.00000000000E+00  0.00000000000E+00 -0.15590121658E+04  0.15590121658E+04  0.50400001928E-02 0.  1.
    10030    2    1    2    0    0  0.00000000000E+00  0.00000000000E+00 -0.37733650272E+03  0.27406878289E+04  0.27145878028E+04 0.  0.
        2    1    3    3  502    0  0.15016907041E+03 -0.12845292453E+04 -0.60455183473E+03  0.14276025541E+04  0.25500000920E-02 0.  1.
       -2    1    3    3    0  502 -0.15016907041E+03  0.12845292453E+04  0.22721533200E+03  0.13130852748E+04  0.25500000920E-02 0. -1.
</event>
<event>
 5   0  0.1232559E-05  0.2701407E+04  0.7818609E-02  0.8334548E-01
        2   -1    0    0  501    0  0.00000000000E+00  0.00000000000E+00  0.25493414038E+04  0.25493414038E+04  0.25500000920E-02 0. -1.
       -2   -1    0    0    0  501  0.00000000000E+00  0.00000000000E+00 -0.71563595138E+03  0.71563595139E+03  0.25500000920E-02 0.  1.
    10030    2    1    2    0    0  0.00000000000E+00  0.00000000000E+00  0.18337054524E+04  0.32649773552E+04  0.27014073080E+04 0.  0.
        3    1    3    3  502    0  0.70562485960E+03 -0.39514525381E+03  0.22243739597E+04  0.23668303144E+04  0.10100000352E+00 0. -1.
       -3    1    3    3    0  502 -0.70562485960E+03  0.39514525381E+03 -0.39066850732E+03  0.89814704081E+03  0.10100000352E+00 0.  1.
</event>
<event>
 5   0  0.4824715E-06  0.2685067E+04  0.7818609E-02  0.8339867E-01
       -1   -1    0    0    0  501  0.00000000000E+00  0.00000000000E+00  0.11565091671E+04  0.11565091672E+04  0.50400001928E-02 0.  1.
        1   -1    0    0  501    0  0.00000000000E+00  0.00000000000E+00 -0.15584796502E+04  0.15584796502E+04  0.50400001928E-02 0. -1.
    10030    2    1    2    0    0  0.00000000000E+00  0.00000000000E+00 -0.40197048300E+03  0.27149888173E+04  0.26850668537E+04 0.  0.
        5    1    3    3  502    0 -0.11093492769E+04  0.63299976605E+03 -0.61915085334E+03  0.14194063517E+04  0.46999998093E+01 0. -1.
       -5    1    3    3    0  502  0.11093492769E+04 -0.63299976605E+03  0.21718037034E+03  0.12955824656E+04  0.46999998093E+01 0.  1.
</event>
<event>
 5   0  0.5152288E-06  0.2651613E+04  0.7818609E-02  0.8350878E-01
        1   -1    0    0  501    0  0.00000000000E+00  0.00000000000E+00  0.11832228140E+04  0.11832228140E+04  0.50400001928E-02 0. -1.
       -1   -1    0    0    0  501  0.00000000000E+00  0.00000000000E+00 -0.14855719038E+04  0.14855719038E+04  0.50400001928E-02 0.  1.
    10030    2    1    2    0    0  0.00000000000E+00  0.00000000000E+00 -0.30234908980E+03  0.26687947178E+04  0.26516127685E+04 0.  0.
        3    1    3    3  502    0 -0.47604841061E+03 -0.11407853120E+04  0.33125312048E+03  0.12797428872E+04  0.10100000352E+00 0. -1.
       -3    1    3    3    0  502  0.47604841061E+03  0.11407853120E+04 -0.63360221028E+03  0.13890518307E+04  0.10100000352E+00 0.  1.
</event>
<event>
 5   0  0.4756800E-06  0.2751243E+04  0.7818609E-02  0.8318567E-01
       -1   -1    0    0    0  501  0.00000000000E+00  0.00000000000E+00  0.21082675327E+04  0.21082675327E+04  0.50400001928E-02 0.  1.
        1   -1    0    0  501    0  0.00000000000E+00  0.00000000000E+00 -0.89757772158E+03  0.89757772160E+03  0.50400001928E-02 0. -1.
    10030    2    1    2    0    0  0.00000000000E+00  0.00000000000E+00  0.12106898112E+04  0.30058452543E+04  0.27512426055E+04 0.  0.
        4    1    3    3  502    0 -0.75807649335E+03  0.99656046581E+03  0.12277286087E+04  0.17536053950E+04  0.12699999809E+01 0.  1.
       -4    1    3    3    0  502  0.75807649335E+03 -0.99656046581E+03 -0.17038797584E+02  0.12522398593E+04  0.12699999809E+01 0. -1.
</event>
<event>
 5   0  0.1286641E-05  0.2705195E+04  0.7818609E-02  0.8333321E-01
       -2   -1    0    0    0  501  0.00000000000E+00  0.00000000000E+00  0.20174381795E+04  0.20174381795E+04  0.25500000920E-02 0.  1.
        2   -1    0    0  501    0  0.00000000000E+00  0.00000000000E+00 -0.90685278491E+03  0.90685278492E+03  0.25500000920E-02 0. -1.
    10030    2    1    2    0    0  0.00000000000E+00  0.00000000000E+00  0.11105853946E+04  0.29242909644E+04  0.27051945819E+04 0.  0.
        4    1    3    3  502    0 -0.88847248662E+03 -0.14220999228E+03 -0.53640693466E+03  0.10475404784E+04  0.12699999809E+01 0. -1.
       -4    1    3    3    0  502  0.88847248662E+03  0.14220999228E+03  0.16469923292E+04  0.18767504860E+04  0.12699999809E+01 0.  1.
</event>
<event>
 5   0  0.4756800E-06  0.2750345E+04  0.7818609E-02  0.8318852E-01
        1   -1    0    0  501    0  0.00000000000E+00  0.00000000000E+00  0.11842669277E+04  0.11842669278E+04  0.50400001928E-02 0.  1.
       -1   -1    0    0    0  501  0.00000000000E+00  0.00000000000E+00 -0.15968520088E+04  0.15968520088E+04  0.50400001928E-02 0. -1.
    10030    2    1    2    0    0  0.00000000000E+00  0.00000000000E+00 -0.41258508107E+03  0.27811189366E+04  0.27503447221E+04 0.  0.
        4    1    3    3  502    0  0.27244480500E+03  0.11646242750E+04  0.47991802990E+03  0.12887586283E+04  0.12699999809E+01 0.  1.
       -4    1    3    3    0  502 -0.27244480500E+03 -0.11646242750E+04 -0.89250311098E+03  0.14923603083E+04  0.12699999809E+01 0. -1.
</event>
<event>
 5   0  0.4188000E-06  0.2687563E+04  0.7818609E-02  0.8339052E-01
        4   -1    0    0  501    0  0.00000000000E+00  0.00000000000E+00  0.12485945193E+04  0.12485951652E+04  0.12699999809E+01 0. -1.
       -4   -1    0    0    0  501  0.00000000000E+00  0.00000000000E+00 -0.14462235495E+04  0.14462241071E+04  0.12699999809E+01 0.  1.
    10030    2    1    2    0    0  0.00000000000E+00  0.00000000000E+00 -0.19762903014E+03  0.26948192723E+04  0.26875627764E+04 0.  0.
        4    1    3    3  502    0 -0.81878401938E+03  0.22962087223E+03  0.94448211555E+03  0.12708977515E+04  0.12699999809E+01 0. -1.
       -4    1    3    3    0  502  0.81878401938E+03 -0.22962087223E+03 -0.11421111457E+04  0.14239215208E+04  0.12699999809E+01 0.  1.
</event>
<event>
 5   0  0.5152288E-06  0.2599545E+04  0.7818609E-02  0.8368356E-01
        1   -1    0    0  501    0  0.00000000000E+00  0.00000000000E+00  0.14875840196E+04  0.14875840196E+04  0.50400001928E-02 0. -1.
       -1   -1    0    0    0  501  0.00000000000E+00  0.00000000000E+00 -0.11356724469E+04  0.11356724469E+04  0.50400001928E-02 0.  1.
    10030    2    1    2    0    0  0.00000000000E+00  0.00000000000E+00  0.35191157266E+03  0.26232564665E+04  0.25995447167E+04 0.  0.
        3    1    3    3  502    0  0.55239237873E+03  0.66569789009E+03  0.11549165911E+04  0.14429564662E+04  0.10100000352E+00 0. -1.
       -3    1    3    3    0  502 -0.55239237873E+03 -0.66569789009E+03 -0.80300501839E+03  0.11803000003E+04  0.10100000352E+00 0.  1.
</event>
<event>
 5   0  0.1220908E-05  0.2691761E+04  0.7818609E-02  0.8337683E-01
       -2   -1    0    0    0  501  0.00000000000E+00  0.00000000000E+00  0.13746928209E+04  0.13746928209E+04  0.25500000920E-02 0. -1.
        2   -1    0    0  501    0  0.00000000000E+00  0.00000000000E+00 -0.13176721522E+04  0.13176721522E+04  0.25500000920E-02 0.  1.
    10030    2    1    2    0    0  0.00000000000E+00  0.00000000000E+00  0.57020668732E+02  0.26923649731E+04  0.26917610948E+04 0.  0.
        2    1    3    3  502    0 -0.69666001095E+03  0.16841457511E+03 -0.11109097513E+04  0.13220511017E+04  0.25500000920E-02 0.  1.
       -2    1    3    3    0  502  0.69666001095E+03 -0.16841457511E+03  0.11679304200E+04  0.13703138714E+04  0.25500000920E-02 0. -1.
</event>
<event>
 5   0  0.1286641E-05  0.2689630E+04  0.7818609E-02  0.8338377E-01
       -2   -1    0    0    0  501  0.00000000000E+00  0.00000000000E+00  0.86238842555E+03  0.86238842555E+03  0.25500000920E-02 0.  1.
        2   -1    0    0  501    0  0.00000000000E+00  0.00000000000E+00 -0.20971150335E+04  0.20971150335E+04  0.25500000920E-02 0. -1.
    10030    2    1    2    0    0  0.00000000000E+00  0.00000000000E+00 -0.12347266080E+04  0.29595034591E+04  0.26896302586E+04 0.  0.
        4    1    3    3  502    0  0.56077015293E+02  0.51057280204E+03  0.75020147623E+03  0.90919364585E+03  0.12699999809E+01 0.  1.
       -4    1    3    3    0  502 -0.56077015293E+02 -0.51057280204E+03 -0.19849280842E+04  0.20503098132E+04  0.12699999809E+01 0. -1.
</event>
<event>
 5   0  0.1220908E-05  0.2739850E+04  0.7818609E-02  0.8322190E-01
        2   -1    0    0  501    0  0.00000000000E+00  0.00000000000E+00  0.19165633392E+04  0.19165633392E+04  0.25500000920E-02 0. -1.
       -2   -1    0    0    0  501  0.00000000000E+00  0.00000000000E+00 -0.97919759164E+03  0.97919759164E+03  0.25500000920E-02 0.  1.
    10030    2    1    2    0    0  0.00000000000E+00  0.00000000000E+00  0.93736574754E+03  0.28957609308E+04  0.27398497812E+04 0.  0.
        2    1    3    3  502    0  0.73603799474E+03  0.60904428456E+03 -0.56902741202E+03  0.11119708026E+04  0.25500000920E-02 0.  1.
       -2    1    3    3    0  502 -0.73603799474E+03 -0.60904428456E+03  0.15063931596E+04  0.17837901282E+04  0.25500000920E-02 0. -1.
</event>
<event>
 5   0  0.4756800E-06  0.2660806E+04  0.7818609E-02  0.8347835E-01
        1   -1    0    0  501    0  0.00000000000E+00  0.00000000000E+00  0.26734701512E+04  0.26734701512E+04  0.50400001928E-02 0.  1.
       -1   -1    0    0    0  501  0.00000000000E+00  0.00000000000E+00 -0.66205062586E+03  0.66205062588E+03  0.50400001928E-02 0. -1.
    10030    2    1    2    0    0  0.00000000000E+00  0.00000000000E+00  0.20114195254E+04  0.33355207771E+04  0.26608063341E+04 0.  0.
        4    1    3    3  502    0  0.12291702194E+04  0.50282562039E+03  0.11050348625E+04  0.17276564164E+04  0.12699999809E+01 0. -1.
       -4    1    3    3    0  502 -0.12291702194E+04 -0.50282562039E+03  0.90638466284E+03  0.16078643608E+04  0.12699999809E+01 0.  1.
</event>
<event>
 5   0  0.1261364E-05  0.2667572E+04  0.7818609E-02  0.8345604E-01
       -2   -1    0    0    0  501  0.00000000000E+00  0.00000000000E+00  0.12093143903E+04  0.12093143903E+04  0.25500000920E-02 0. -1.
        2   -1    0    0  501    0  0.00000000000E+00  0.00000000000E+00 -0.14710695934E+04  0.14710695934E+04  0.25500000920E-02 0.  1.
    10030    2    1    2    0    0  0.00000000000E+00  0.00000000000E+00 -0.26175520315E+03  0.26803839837E+04  0.26675724008E+04 0.  0.
        5    1    3    3  502    0 -0.11290455965E+04  0.65393252735E+03  0.14720384847E+03  0.13130357087E+04  0.46999998093E+01 0. -1.
       -5    1    3    3    0  502  0.11290455965E+04 -0.65393252735E+03 -0.40895905162E+03  0.13673482750E+04  0.46999998093E+01 0.  1.
</event>
<event>
 5   0  0.4846214E-06  0.2751015E+04  0.7818609E-02  0.8318640E-01
       -1   -1    0    0    0  501  0.00000000000E+00  0.00000000000E+00  0.13811144262E+04  0.13811144262E+04  0.50400001928E-02 0. -1.
        1   -1    0    0  501    0  0.00000000000E+00  0.00000000000E+00 -0.13699232203E+04  0.13699232203E+04  0.50400001928E-02 0.  1.
    10030    2    1    2    0    0  0.00000000000E+00  0.00000000000E+00  0.11191205916E+02  0.27510376466E+04  0.27510148836E+04 0.  0.
        2    1    3    3  502    0  0.76640246901E+03 -0.16307040812E+03  0.11361163548E+04  0.13801177754E+04  0.25500000920E-02 0. -1.
       -2    1    3    3    0  502 -0.76640246901E+03  0.16307040812E+03 -0.11249251488E+04  0.13709198711E+04  0.25500000920E-02 0.  1.
</event>
<event>
 5   0  0.4826140E-06  0.2576786E+04  0.7818609E-02  0.8376130E-01
        1   -1    0    0  501    0  0.00000000000E+00  0.00000000000E+00  0.14420824745E+04  0.14420824745E+04  0.50400001928E-02 0.  1.
       -1   -1    0    0    0  501  0.00000000000E+00  0.00000000000E+00 -0.11510825338E+04  0.11510825338E+04  0.50400001928E-02 0. -1.
    10030    2    1    2    0    0  0.00000000000E+00  0.00000000000E+00  0.29099994067E+03  0.25931650083E+04  0.25767855547E+04 0.  0.
        1    1    3    3  502    0  0.30840080760E+03  0.91326685916E+03 -0.71479570154E+03  0.12000417947E+04  0.50400001928E-02 0. -1.
       -1    1    3    3    0  502 -0.30840080760E+03 -0.91326685916E+03  0.10057956422E+04  0.13931232135E+04  0.50400001928E-02 0.  1.
</event>
<event>
 5   0  0.4824715E-06  0.2700524E+04  0.7818609E-02  0.8334835E-01
        1   -1    0    0  501    0  0.00000000000E+00  0.00000000000E+00  0.21726055884E+04  0.21726055884E+04  0.50400001928E-02 0. -1.
       -1   -1    0    0    0  501  0.00000000000E+00  0.00000000000E+00 -0.83917993306E+03  0.83917993307E+03  0.50400001928E-02 0.  1.
    10030    2    1    2    0    0  0.00000000000E+00  0.00000000000E+00  0.13334256553E+04  0.30117855215E+04  0.27005236620E+04 0.  0.
        5    1    3    3  502    0  0.84140760881E+03  0.61369725908E+03 -0.29175798571E+03  0.10815432965E+04  0.46999998093E+01 0.  1.
       -5    1    3    3    0  502 -0.84140760881E+03 -0.61369725908E+03  0.16251836411E+04  0.19302422250E+04  0.46999998093E+01 0. -1.
</event>
<event>
 5   0  0.4756800E-06  0.2695939E+04  0.7818609E-02  0.8336324E-01
       -1   -1    0    0    0  501  0.00000000000E+00  0.00000000000E+00  0.89816483672E+03  0.89816483673E+03  0.50400001928E-02 0. -1.
        1   -1    0    0  501    0  0.00000000000E+00  0.00000000000E+00 -0.20230384931E+04  0.20230384931E+04  0.50400001928E-02 0.  1.
    10030    2    1    2    0    0  0.00000000000E+00  0.00000000000E+00 -0.11248736564E+04  0.29212033298E+04  0.26959391965E+04 0.  0.
        4    1    3    3  502    0  0.12591683241E+04  0.47796461357E+03 -0.62242894563E+03  0.14837029505E+04  0.12699999809E+01 0. -1.
       -4    1    3    3    0  502 -0.12591683241E+04 -0.47796461357E+03 -0.50244471073E+03  0.14375003793E+04  0.12699999809E+01 0.  1.
</event>
<event>
 5   0  0.1276517E-05  0.2700607E+04  0.7818609E-02  0.8334808E-01
        2   -1    0    0  501    0  0.00000000000E+00  0.00000000000E+00  0.17088535721E+04  0.17088535721E+04  0.25500000920E-02 0. -1.
       -2   -1    0    0    0  501  0.00000000000E+00  0.00000000000E+00 -0.10669841443E+04  0.10669841443E+04  0.25500000920E-02 0.  1.
    10030    2    1    2    0    0  0.00000000000E+00  0.00000000000E+00  0.64186942782E+03  0.27758377163E+04  0.27006070920E+04 0.  0.
        1    1    3    3  502    0  0.13327456494E+04 -0.98306845079E+02  0.12203851601E+03  0.13419271966E+04  0.50400001928E-02 0. -1.
       -1    1    3    3    0  502 -0.13327456494E+04  0.98306845079E+02  0.51983091181E+03  0.14339105197E+04  0.50400001928E-02 0.  1.
</event>
<event>
 5   0  0.4826140E-06  0.2686432E+04  0.7818609E-02  0.8339421E-01
        1   -1    0    0  501    0  0.00000000000E+00  0.00000000000E+00  0.18279661965E+04  0.18279661965E+04  0.50400001928E-02 0. -1.
       -1   -1    0    0    0  501  0.00000000000E+00  0.00000000000E+00 -0.98701438698E+03  0.98701438699E+03  0.50400001928E-02 0.  1.
    10030    2    1    2    0    0  0.00000000000E+00  0.00000000000E+00  0.84095180948E+03  0.28149805835E+04  0.26864317857E+04 0.  0.
        1    1    3    3  502    0  0.35052095074E+03  0.12535519062E+04  0.72987841436E+02  0.13036811510E+04  0.50400001928E-02 0.  1.
       -1    1    3    3    0  502 -0.35052095074E+03 -0.12535519062E+04  0.76796396804E+03  0.15112994325E+04  0.50400001928E-02 0. -1.
</event>
<event>
 5   0  0.1232559E-05  0.2698546E+04  0.7818609E-02  0.8335477E-01
        2   -1    0    0  501    0  0.00000000000E+00  0.00000000000E+00  0.25038874517E+04  0.25038874517E+04  0.25500000920E-02 0.  1.
       -2   -1    0    0    0  501  0.00000000000E+00  0.00000000000E+00 -0.72708439874E+03  0.72708439874E+03  0.25500000920E-02 0. -1.
    10030    2    1    2    0    0  0.00000000000E+00  0.00000000000E+00  0.17768030529E+04  0.32309718504E+04  0.26985459065E+04 0.  0.
        3    1    3    3  502    0  0.54147445317E+03 -0.29459880931E+03  0.23254393628E+04  0.24057537867E+04  0.10100000352E+00 0.  1.
       -3    1    3    3    0  502 -0.54147445317E+03  0.29459880931E+03 -0.54863630991E+03  0.82521806369E+03  0.10100000352E+00 0. -1.
</event>
<event>
 5   0  0.1276517E-05  0.2730448E+04  0.7818609E-02  0.8325193E-01
       -2   -1    0    0    0  501  0.00000000000E+00  0.00000000000E+00  0.21019492769E+04  0.21019492769E+04  0.25500000920E-02 0.  1.
        2   -1    0    0  501    0  0.00000000000E+00  0.00000000000E+00 -0.88671782595E+03  0.88671782596E+03  0.25500000920E-02 0. -1.
    10030    2    1    2    0    0  0.00000000000E+00  0.00000000000E+00  0.12152314509E+04  0.29886671028E+04  0.27304475040E+04 0.  0.
        1    1    3    3  502    0  0.29566232647E+03  0.75382320380E+03  0.18107325011E+04  0.19835366960E+04  0.50400001928E-02 0.  1.
       -1    1    3    3    0  502 -0.29566232647E+03 -0.75382320380E+03 -0.59550105019E+03  0.10051304068E+04  0.50400001928E-02 0. -1.
</event>
<event>
 5   0  0.1276517E-05  0.2686190E+04  0.7818609E-02  0.8339500E-01
        2   -1    0    0  501    0  0.00000000000E+00  0.00000000000E+00  0.12475223492E+04  0.12475223492E+04  0.25500000920E-02 0. -1.
       -2   -1    0    0    0  501  0.00000000000E+00  0.00000000000E+00 -0.14459894711E+04  0.14459894711E+04  0.25500000920E-02 0.  1.
    10030    2    1    2    0    0  0.00000000000E+00  0.00000000000E+00 -0.19846712188E+03  0.26935118203E+04  0.26861900021E+04 0.  0.
        1    1    3    3  502    0  0.63724806597E+03 -0.11548641629E+04 -0.35311898118E+03  0.13654630523E+04  0.50400001928E-02 0.  1.
       -1    1    3    3    0  502 -0.63724806597E+03  0.11548641629E+04  0.15465185930E+03  0.13280487679E+04  0.50400001928E-02 0. -1.
</event>
<event>
 5   0  0.1261364E-05  0.2734067E+04  0.7818609E-02  0.8324035E-01
       -2   -1    0    0    0  501  0.00000000000E+00  0.00000000000E+00  0.11444980085E+04  0.11444980085E+04  0.25500000920E-02 0. -1.
        2   -1    0    0  501    0  0.00000000000E+00  0.00000000000E+00 -0.16328381618E+04  0.16328381618E+04  0.25500000920E-02 0.  1.
    10030    2    1    2    0    0  0.00000000000E+00  0.00000000000E+00 -0.48834015328E+03  0.27773361704E+04  0.27340665862E+04 0.  0.
        5    1    3    3  502    0 -0.34258793471E+03 -0.24371003729E+03 -0.15655239410E+04  0.16210022749E+04  0.46999998093E+01 0.  1.
       -5    1    3    3    0  502  0.34258793471E+03  0.24371003729E+03  0.10771837877E+04  0.11563338955E+04  0.46999998093E+01 0. -1.
</event>
<event>
 5   0  0.4824715E-06  0.2379440E+04  0.7818609E-02  0.8447241E-01
       -1   -1    0    0    0  501  0.00000000000E+00  0.00000000000E+00  0.68357572056E+03  0.68357572058E+03  0.50400001928E-02 0. -1.
        1   -1    0    0  501    0  0.00000000000E+00  0.00000000000E+00 -0.20706323033E+04  0.20706323033E+04  0.50400001928E-02 0.  1.
    10030    2    1    2    0    0  0.00000000000E+00  0.00000000000E+00 -0.13870565827E+04  0.27542080238E+04  0.23794402440E+04 0.  0.
        5    1    3    3  502    0  0.85339913528E+03 -0.19017777760E+02 -0.16527620841E+04  0.18601871832E+04  0.46999998093E+01 0.  1.
       -5    1    3    3    0  502 -0.85339913528E+03  0.19017777760E+02  0.26570550142E+03  0.89402084061E+03  0.46999998093E+01 0. -1.
</event>
<event>
 5   0  0.1232559E-05  0.2667366E+04  0.7818609E-02  0.8345672E-01
        2   -1    0    0  501    0  0.00000000000E+00  0.00000000000E+00  0.64070403804E+03  0.64070403804E+03  0.25500000920E-02 0.  1.
       -2   -1    0    0    0  501  0.00000000000E+00  0.00000000000E+00 -0.27761813322E+04  0.27761813322E+04  0.25500000920E-02 0. -1.
    10030    2    1    2    0    0  0.00000000000E+00  0.00000000000E+00 -0.21354772942E+04  0.34168853703E+04  0.26673661840E+04 0.  0.
        3    1    3    3  502    0  0.36112789031E+03 -0.93534229650E+03  0.58833061817E+02  0.10043604453E+04  0.10100000352E+00 0.  1.
       -3    1    3    3    0  502 -0.36112789031E+03  0.93534229650E+03 -0.21943103560E+04  0.24125249249E+04  0.10100000352E+00 0. -1.
</event>
<event>
 5   0  0.4846214E-06  0.2703484E+04  0.7818609E-02  0.8333875E-01
       -1   -1    0    0    0  501  0.00000000000E+00  0.00000000000E+00  0.12730204051E+04  0.12730204051E+04  0.50400001928E-02 0.  1.
        1   -1    0    0  501    0  0.00000000000E+00  0.00000000000E+00 -0.14353319286E+04  0.14353319286E+04  0.50400001928E-02 0. -1.
    10030    2    1    2    0    0  0.00000000000E+00  0.00000000000E+00 -0.16231152343E+03  0.27083523337E+04  0.27034842949E+04 0.  0.
        2    1    3    3  502    0 -0.58088053476E+03 -0.47301490251E+03  0.10460554204E+04  0.12866224140E+04  0.25500000920E-02 0.  1.
       -2    1    3    3    0  502  0.58088053476E+03  0.47301490251E+03 -0.12083669438E+04  0.14217299197E+04  0.25500000920E-02 0. -1.
</event>
<event>
 5   0  0.4826140E-06  0.2693553E+04  0.7818609E-02  0.8337100E-01
       -1   -1    0    0    0  501  0.00000000000E+00  0.00000000000E+00  0.88358641802E+03  0.88358641803E+03  0.50400001928E-02 0. -1.
        1   -1    0    0  501    0  0.00000000000E+00  0.00000000000E+00 -0.20527788503E+04  0.20527788503E+04  0.50400001928E-02 0.  1.
    10030    2    1    2    0    0  0.00000000000E+00  0.00000000000E+00 -0.11691924323E+04  0.29363652684E+04  0.26935534235E+04 0.  0.
        1    1    3    3  502    0  0.15695047024E+02 -0.13458627053E+04 -0.63589975906E+03  0.14886105131E+04  0.50400001928E-02 0. -1.
       -1    1    3    3    0  502 -0.15695047024E+02  0.13458627053E+04 -0.53329267325E+03  0.14477547553E+04  0.50400001928E-02 0.  1.
</event>
<event>
 5   0  0.5152288E-06  0.2717044E+04  0.7818609E-02  0.8329496E-01
        1   -1    0    0  501    0  0.00000000000E+00  0.00000000000E+00  0.25748372844E+04  0.25748372844E+04  0.50400001928E-02 0.  1.
       -1   -1    0    0    0  501  0.00000000000E+00  0.00000000000E+00 -0.71677617412E+03  0.71677617414E+03  0.50400001928E-02 0. -1.
    10030    2    1    2    0    0  0.00000000000E+00  0.00000000000E+00  0.18580611103E+04  0.32916134585E+04  0.27170439950E+04 0.  0.
        3    1    3    3  502    0 -0.11097375976E+04  0.23635529202E+03  0.23908126155E+02  0.11348801559E+04  0.10100000352E+00 0. -1.
       -3    1    3    3    0  502  0.11097375976E+04 -0.23635529202E+03  0.18341529841E+04  0.21567333027E+04  0.10100000352E+00 0.  1.
</event>
<event>
 5   0  0.5152288E-06  0.2766719E+04  0.7818609E-02  0.8313676E-01
       -1   -1    0    0    0  501  0.00000000000E+00  0.00000000000E+00  0.12812267198E+04  0.12812267198E+04  0.50400001928E-02 0.  1.
        1   -1    0    0  501    0  0.00000000000E+00  0.00000000000E+00 -0.14936333615E+04  0.14936333615E+04  0.50400001928E-02 0. -1.
    10030    2    1    2    0    0  0.00000000000E+00  0.00000000000E+00 -0.21240664167E+03  0.27748600813E+04  0.27667186140E+04 0.  0.
        3    1    3    3  502    0  0.62559919733E+03  0.79070516940E+03 -0.10561408795E+04  0.14601447148E+04  0.10100000352E+00 0. -1.
       -3    1    3    3    0  502 -0.62559919733E+03 -0.79070516940E+03  0.84373423783E+03  0.13147153665E+04  0.10100000352E+00 0.  1.
</event>
<event>
 5   0  0.1220908E-05  0.2709095E+04  0.7818609E-02  0.8332060E-01
        2   -1    0    0  501    0  0.00000000000E+00  0.00000000000E+00  0.26132340346E+04  0.26132340346E+04  0.25500000920E-02 0.  1.
       -2   -1    0    0    0  501  0.00000000000E+00  0.00000000000E+00 -0.70211823272E+03  0.70211823272E+03  0.25500000920E-02 0. -1.
    10030    2    1    2    0    0  0.00000000000E+00  0.00000000000E+00  0.19111158019E+04  0.33153522673E+04  0.27090952453E+04 0.  0.
        2    1    3    3  502    0 -0.66479217126E+02  0.10194104262E+04 -0.13298023569E+03  0.10301945673E+04  0.25500000920E-02 0. -1.
       -2    1    3    3    0  502  0.66479217126E+02 -0.10194104262E+04  0.20440960376E+04  0.22851577001E+04  0.25500000920E-02 0.  1.
</event>
<event>
 5   0  0.4824715E-06  0.2687761E+04  0.7818609E-02  0.8338987E-01
       -1   -1    0    0    0  501  0.00000000000E+00  0.00000000000E+00  0.15995369399E+04  0.15995369399E+04  0.50400001928E-02 0.  1.
        1   -1    0    0  501    0  0.00000000000E+00  0.00000000000E+00 -0.11290859432E+04  0.11290859432E+04  0.50400001928E-02 0. -1.
    10030    2    1    2    0    0  0.00000000000E+00  0.00000000000E+00  0.47045099670E+03  0.27286228831E+04  0.26877609078E+04 0.  0.
        5    1    3    3  502    0 -0.89727360166E+03  0.75521952527E+03 -0.43090250095E+03  0.12494620854E+04  0.46999998093E+01 0. -1.
       -5    1    3    3    0  502  0.89727360166E+03 -0.75521952527E+03  0.90135349765E+03  0.14791607977E+04  0.46999998093E+01 0.  1.
</event>
<event>
 5   0  0.1261364E-05  0.2486670E+04  0.7818609E-02  0.8407750E-01
       -2   -1    0    0    0  501  0.00000000000E+00  0.00000000000E+00  0.10688631156E+04  0.10688631156E+04  0.25500000920E-02 0.  1.
        2   -1    0    0  501    0  0.00000000000E+00  0.00000000000E+00 -0.14462861747E+04  0.14462861747E+04  0.25500000920E-02 0. -1.
    10030    2    1    2    0    0  0.00000000000E+00  0.00000000000E+00 -0.37742305910E+03  0.25151492903E+04  0.24866700198E+04 0.  0.
        5    1    3    3  502    0 -0.58678252117E+03  0.31047040283E+03 -0.12520145823E+04  0.14171337984E+04  0.46999998093E+01 0. -1.
       -5    1    3    3    0  502  0.58678252117E+03 -0.31047040283E+03  0.87459152319E+03  0.10980154920E+04  0.46999998093E+01 0.  1.
</event>
<event>
 5   0  0.4846214E-06  0.2746693E+04  0.7818609E-02  0.8320012E-01
        1   -1    0    0  501    0  0.00000000000E+00  0.00000000000E+00  0.22702363890E+04  0.22702363890E+04  0.50400001928E-02 0.  1.
       -1   -1    0    0    0  501  0.00000000000E+00  0.00000000000E+00 -0.83078613459E+03  0.83078613460E+03  0.50400001928E-02 0. -1.
    10030    2    1    2    0    0  0.00000000000E+00  0.00000000000E+00  0.14394502544E+04  0.31010225236E+04  0.27466932222E+04 0.  0.
        2    1    3    3  502    0  0.45013468806E+00  0.68907535318E+03  0.20609377909E+04  0.21730829765E+04  0.25500000920E-02 0.  1.
       -2    1    3    3    0  502 -0.45013468806E+00 -0.68907535318E+03 -0.62148753649E+03  0.92793954706E+03  0.25500000920E-02 0. -1.
</event>
<event>
 5   0  0.4846214E-06  0.2705887E+04  0.7818609E-02  0.8333097E-01
       -1   -1    0    0    0  501  0.00000000000E+00  0.00000000000E+00  0.76384953888E+03  0.76384953890E+03  0.50400001928E-02 0.  1.
        1   -1    0    0  501    0  0.00000000000E+00  0.00000000000E+00 -0.23963568279E+04  0.23963568279E+04  0.50400001928E-02 0. -1.
    10030    2    1    2    0    0  0.00000000000E+00  0.00000000000E+00 -0.16325072890E+04  0.31602063668E+04  0.27058869585E+04 0.  0.
        2    1    3    3  502    0  0.57981105683E+03 -0.11004524753E+04 -0.19465021327E+03  0.12589937321E+04  0.25500000920E-02 0.  1.
       -2    1    3    3    0  502 -0.57981105683E+03  0.11004524753E+04 -0.14378570757E+04  0.19012126346E+04  0.25500000920E-02 0. -1.
</event>
<event>
 5   0  0.4826140E-06  0.2737339E+04  0.7818609E-02  0.8322991E-01
       -1   -1    0    0    0  501  0.00000000000E+00  0.00000000000E+00  0.16809372202E+04  0.16809372202E+04  0.50400001928E-02 0.  1.
        1   -1    0    0  501    0  0.00000000000E+00  0.00000000000E+00 -0.11144115433E+04  0.11144115433E+04  0.50400001928E-02 0. -1.
    10030    2    1    2    0    0  0.00000000000E+00  0.00000000000E+00  0.56652567691E+03  0.27953487635E+04  0.27373387380E+04 0.  0.
        1    1    3    3  502    0  0.10048657784E+04 -0.88382003702E+03  0.57633386108E+03  0.14570702831E+04  0.50400001928E-02 0. -1.
       -1    1    3    3    0  502 -0.10048657784E+04  0.88382003702E+03 -0.98081841726E+01  0.13382784804E+04  0.50400001928E-02 0.  1.
</event>
<event>
 5   0  0.4846214E-06  0.2720609E+04  0.7818609E-02  0.8328349E-01
       -1   -1    0    0    0  501  0.00000000000E+00  0.00000000000E+00  0.83358331512E+03  0.83358331513E+03  0.50400001928E-02 0. -1.
        1   -1    0    0  501    0  0.00000000000E+00  0.00000000000E+00 -0.22198474840E+04  0.22198474840E+04  0.50400001928E-02 0.  1.
    10030    2    1    2    0    0  0.00000000000E+00  0.00000000000E+00 -0.13862641689E+04  0.30534307991E+04  0.27206086266E+04 0.  0.
        2    1    3    3  502    0 -0.44502027921E+03 -0.11554543786E+04 -0.60918446930E+02  0.12396890445E+04  0.25500000920E-02 0. -1.
       -2    1    3    3    0  502  0.44502027921E+03  0.11554543786E+04 -0.13253457219E+04  0.18137417546E+04  0.25500000920E-02 0.  1.
</event>
<event>
 5   0  0.1276517E-05  0.2744603E+04  0.7818609E-02  0.8320676E-01
       -2   -1    0    0    0  501  0.00000000000E+00  0.00000000000E+00  0.94930414829E+03  0.94930414830E+03  0.25500000920E-02 0. -1.
        2   -1    0    0  501    0  0.00000000000E+00  0.00000000000E+00 -0.19837811288E+04  0.19837811288E+04  0.25500000920E-02 0.  1.
    10030    2    1    2    0    0  0.00000000000E+00  0.00000000000E+00 -0.10344769806E+04  0.29330852771E+04  0.27446031807E+04 0.  0.
        1    1    3    3  502    0 -0.10004558004E+04  0.52097281593E+03  0.31802909951E+03  0.11719500807E+04  0.50400001928E-02 0. -1.
       -1    1    3    3    0  502  0.10004558004E+04 -0.52097281593E+03 -0.13525060801E+04  0.17611351964E+04  0.50400001928E-02 0.  1.
</event>
<event>
 5   0  0.1276517E-05  0.2544001E+04  0.7818609E-02  0.8387476E-01
        2   -1    0    0  501    0  0.00000000000E+00  0.00000000000E+00  0.18431315493E+04  0.18431315493E+04  0.25500000920E-02 0.  1.
       -2   -1    0    0    0  501  0.00000000000E+00  0.00000000000E+00 -0.87784572188E+03  0.87784572188E+03  0.25500000920E-02 0. -1.
    10030    2    1    2    0    0  0.00000000000E+00  0.00000000000E+00  0.96528582738E+03  0.27209772711E+04  0.25440009005E+04 0.  0.
        1    1    3    3  502    0  0.10952358199E+04 -0.38510069148E+03  0.10385509940E+04  0.15577009375E+04  0.50400001928E-02 0.  1.
       -1    1    3    3    0  502 -0.10952358199E+04  0.38510069148E+03 -0.73265166605E+02  0.11632763336E+04  0.50400001928E-02 0. -1.
</event>
<event>
 5   0  0.4188000E-06  0.2731859E+04  0.7818609E-02  0.8324741E-01
       -3   -1    0    0    0  501  0.00000000000E+00  0.00000000000E+00  0.78247429520E+03  0.78247430172E+03  0.10100000352E+00 0. -1.
        3   -1    0    0  501    0  0.00000000000E+00  0.00000000000E+00 -0.23844402866E+04  0.23844402888E+04  0.10100000352E+00 0.  1.
    10030    2    1    2    0    0  0.00000000000E+00  0.00000000000E+00 -0.16019659914E+04  0.31669145905E+04  0.27318588883E+04 0.  0.
        5    1    3    3  502    0  0.33932587538E+03 -0.13227918180E+04 -0.83419741307E+03  0.16002586221E+04  0.46999998093E+01 0. -1.
       -5    1    3    3    0  502 -0.33932587538E+03  0.13227918180E+04 -0.76776857835E+03  0.15666559684E+04  0.46999998093E+01 0.  1.
</event>
<event>
 5   0  0.4756800E-06  0.2758826E+04  0.7818609E-02  0.8316166E-01
        1   -1    0    0  501    0  0.00000000000E+00  0.00000000000E+00  0.21044693123E+04  0.21044693123E+04  0.50400001928E-02 0.  1.
       -1   -1    0    0    0  501  0.00000000000E+00  0.00000000000E+00 -0.90416172655E+03  0.90416172656E+03  0.50400001928E-02 0. -1.
    10030    2    1    2    0    0  0.00000000000E+00  0.00000000000E+00  0.12003075858E+04  0.30086310389E+04  0.27588262772E+04 0.  0.
        4    1    3    3  502    0 -0.53390397985E+03  0.25722773617E+03  0.19585572707E+04  0.20462570130E+04  0.12699999809E+01 0.  1.
       -4    1    3    3    0  502  0.53390397985E+03 -0.25722773617E+03 -0.75824968494E+03  0.96237402582E+03  0.12699999809E+01 0. -1.
</event>
<event>
 5   0  0.1261364E-05  0.2818069E+04  0.7818609E-02  0.8297681E-01
       -2   -1    0    0    0  501  0.00000000000E+00  0.00000000000E+00  0.76037434072E+03  0.76037434073E+03  0.25500000920E-02 0. -1.
        2   -1    0    0  501    0  0.00000000000E+00  0.00000000000E+00 -0.26110533369E+04  0.26110533369E+04  0.25500000920E-02 0.  1.
    10030    2    1    2    0    0  0.00000000000E+00  0.00000000000E+00 -0.18506789961E+04  0.33714276776E+04  0.28180688136E+04 0.  0.
        5    1    3    3  502    0 -0.85034015342E+03  0.56120984016E+03  0.23908367123E+03  0.10465266136E+04  0.46999998093E+01 0. -1.
       -5    1    3    3    0  502  0.85034015342E+03 -0.56120984016E+03 -0.20897626674E+04  0.23249010639E+04  0.46999998093E+01 0.  1.
</event>
<event>
 5   0  0.4824715E-06  0.2692001E+04  0.7818609E-02  0.8337605E-01
       -1   -1    0    0    0  501  0.00000000000E+00  0.00000000000E+00  0.16971748300E+04  0.16971748300E+04  0.50400001928E-02 0. -1.
        1   -1    0    0  501    0  0.00000000000E+00  0.00000000000E+00 -0.10674900020E+04  0.10674900021E+04  0.50400001928E-02 0.  1.
    10030    2    1    2    0    0  0.00000000000E+00  0.00000000000E+00  0.62968482793E+03  0.27646648320E+04  0.26920008639E+04 0.  0.
        5    1    3    3  502    0  0.86130106343E+03  0.97603306416E+03  0.66645054118E+03  0.14624152892E+04  0.46999998093E+01 0.  1.
       -5    1    3    3    0  502 -0.86130106343E+03 -0.97603306416E+03 -0.36765713252E+02  0.13022495429E+04  0.46999998093E+01 0. -1.
</event>
<event>
 5   0  0.4846214E-06  0.2709059E+04  0.7818609E-02  0.8332072E-01
       -1   -1    0    0    0  501  0.00000000000E+00  0.00000000000E+00  0.87851620039E+03  0.87851620041E+03  0.50400001928E-02 0.  1.
        1   -1    0    0  501    0  0.00000000000E+00  0.00000000000E+00 -0.20884647636E+04  0.20884647636E+04  0.50400001928E-02 0. -1.
    10030    2    1    2    0    0  0.00000000000E+00  0.00000000000E+00 -0.12099485632E+04  0.29669809640E+04  0.27090589723E+04 0.  0.
        2    1    3    3  502    0  0.29280756321E+03 -0.64731351605E+03  0.65807986721E+03  0.96841115688E+03  0.25500000920E-02 0.  1.
       -2    1    3    3    0  502 -0.29280756321E+03  0.64731351605E+03 -0.18680284305E+04  0.19985698072E+04  0.25500000920E-02 0. -1.
</event>
<event>
 5   0  0.1261364E-05  0.2723034E+04  0.7818609E-02  0.8327570E-01
        2   -1    0    0  501    0  0.00000000000E+00  0.00000000000E+00  0.11728618066E+04  0.11728618066E+04  0.25500000920E-02 0. -1.
       -2   -1    0    0    0  501  0.00000000000E+00  0.00000000000E+00 -0.15805171403E+04  0.15805171403E+04  0.25500000920E-02 0.  1.
    10030    2    1    2    0    0  0.00000000000E+00  0.00000000000E+00 -0.40765533364E+03  0.27533789469E+04  0.27230337409E+04 0.  0.
        5    1    3    3  502    0  0.80786988218E+03  0.10912163303E+04 -0.30644394001E+03  0.13918824679E+04  0.46999998093E+01 0.  1.
       -5    1    3    3    0  502 -0.80786988218E+03 -0.10912163303E+04 -0.10121139363E+03  0.13614964790E+04  0.46999998093E+01 0. -1.
</event>
<event>
 5   0  0.1276517E-05  0.2731839E+04  0.7818609E-02  0.8324748E-01
        2   -1    0    0  501    0  0.00000000000E+00  0.00000000000E+00  0.15590210048E+04  0.15590210048E+04  0.25500000920E-02 0.  1.
       -2   -1    0    0    0  501  0.00000000000E+00  0.00000000000E+00 -0.11967359491E+04  0.11967359491E+04  0.25500000920E-02 0. -1.
    10030    2    1    2    0    0  0.00000000000E+00  0.00000000000E+00  0.36228505577E+03  0.27557569539E+04  0.27318392938E+04 0.  0.
        1    1    3    3  502    0  0.17036859523E+03 -0.88752542779E+03 -0.85203631399E+03  0.12420518200E+04  0.50400001928E-02 0. -1.
       -1    1    3    3    0  502 -0.17036859523E+03  0.88752542779E+03  0.12143213698E+04  0.15137051339E+04  0.50400001928E-02 0.  1.
</event>
<event>
 5   0  0.4846214E-06  0.2719860E+04  0.7818609E-02  0.8328590E-01
       -1   -1    0    0    0  501  0.00000000000E+00  0.00000000000E+00  0.13853995480E+04  0.13853995480E+04  0.50400001928E-02 0.  1.
        1   -1    0    0  501    0  0.00000000000E+00  0.00000000000E+00 -0.13349285054E+04  0.13349285054E+04  0.50400001928E-02 0. -1.
    10030    2    1    2    0    0  0.00000000000E+00  0.00000000000E+00  0.50471042622E+02  0.27203280535E+04  0.27198598112E+04 0.  0.
        2    1    3    3  502    0 -0.61326358848E+03  0.12066799605E+04  0.15656156136E+03  0.13626005572E+04  0.25500000920E-02 0.  1.
       -2    1    3    3    0  502  0.61326358848E+03 -0.12066799605E+04 -0.10609051874E+03  0.13577274963E+04  0.25500000920E-02 0. -1.
</event>
<event>
 5   0  0.4824715E-06  0.2541427E+04  0.7818609E-02  0.8388374E-01
        1   -1    0    0  501    0  0.00000000000E+00  0.00000000000E+00  0.14528521455E+04  0.14528521455E+04  0.50400001928E-02 0.  1.
       -1   -1    0    0    0  501  0.00000000000E+00  0.00000000000E+00 -0.11114091916E+04  0.11114091916E+04  0.50400001928E-02 0. -1.
    10030    2    1    2    0    0  0.00000000000E+00  0.00000000000E+00  0.34144295388E+03  0.25642613370E+04  0.25414273379E+04 0.  0.
        5    1    3    3  502    0 -0.78258183036E+03  0.10009790087E+04  0.15330833599E+03  0.12798120303E+04  0.46999998093E+01 0.  1.
       -5    1    3    3    0  502  0.78258183036E+03 -0.10009790087E+04  0.18813461789E+03  0.12844493067E+04  0.46999998093E+01 0. -1.
</event>
<event>
 5   0  0.5152288E-06  0.2690914E+04  0.7818609E-02  0.8337959E-01
        1   -1    0    0  501    0  0.00000000000E+00  0.00000000000E+00  0.92076826712E+03  0.92076826714E+03  0.50400001928E-02 0. -1.
       -1   -1    0    0    0  501  0.00000000000E+00  0.00000000000E+00 -0.19660260992E+04  0.19660260992E+04  0.50400001928E-02 0.  1.
    10030    2    1    2    0    0  0.00000000000E+00  0.00000000000E+00 -0.10452578321E+04  0.28867943663E+04  0.26909139299E+04 0.  0.
        3    1    3    3  502    0  0.75574650691E+03  0.24272398454E+03  0.64281506621E+03  0.10214102677E+04  0.10100000352E+00 0. -1.
       -3    1    3    3    0  502 -0.75574650691E+03 -0.24272398454E+03 -0.16880728983E+04  0.18653840987E+04  0.10100000352E+00 0.  1.
</event>
<event>
 5   0  0.5152288E-06  0.2690705E+04  0.7818609E-02  0.8338027E-01
        1   -1    0    0  501    0  0.00000000000E+00  0.00000000000E+00  0.13513696265E+04  0.13513696265E+04  0.50400001928E-02 0. -1.
       -1   -1    0    0    0  501  0.00000000000E+00  0.00000000000E+00 -0.13393620603E+04  0.13393620603E+04  0.50400001928E-02 0.  1.
    10030    2    1    2    0    0  0.00000000000E+00  0.00000000000E+00  0.12007566196E+02  0.26907316867E+04  0.26907048943E+04 0.  0.
        3    1    3    3  502    0 -0.55541235746E+03  0.54388649908E+03 -0.10920407502E+04  0.13404657478E+04  0.10100000352E+00 0.  1.
       -3    1    3    3    0  502  0.55541235746E+03 -0.54388649908E+03  0.11040483164E+04  0.13502659389E+04  0.10100000352E+00 0. -1.
</event>
<event>
 5   0  0.4824715E-06  0.2689513E+04  0.7818609E-02  0.8338416E-01
        1   -1    0    0  501    0  0.00000000000E+00  0.00000000000E+00  0.16959363984E+04  0.16959363984E+04  0.50400001928E-02 0.  1.
       -1   -1    0    0    0  501  0.00000000000E+00  0.00000000000E+00 -0.10662958667E+04  0.10662958667E+04  0.50400001928E-02 0. -1.
    10030    2    1    2    0    0  0.00000000000E+00  0.00000000000E+00  0.62964053170E+03  0.27622322651E+04  0.26895129461E+04 0.  0.
        5    1    3    3  502    0 -0.25490645137E+03  0.92322392599E+03  0.12842855700E+04  0.16021021290E+04  0.46999998093E+01 0.  1.
       -5    1    3    3    0  502  0.25490645137E+03 -0.92322392599E+03 -0.65464503829E+03  0.11601301361E+04  0.46999998093E+01 0. -1.
</event>
<event>
 5   0  0.4756800E-06  0.2708216E+04  0.7818609E-02  0.8332344E-01
        1   -1    0    0  501    0  0.00000000000E+00  0.00000000000E+00  0.14094461489E+04  0.14094461489E+04  0.50400001928E-02 0. -1.
       -1   -1    0    0    0  501  0.00000000000E+00  0.00000000000E+00 -0.13009423732E+04  0.13009423732E+04  0.50400001928E-02 0.  1.
    10030    2    1    2    0    0  0.00000000000E+00  0.00000000000E+00  0.10850377572E+03  0.27103885222E+04  0.27082158097E+04 0.  0.
        4    1    3    3  502    0  0.10018899455E+04 -0.11224376267E+03  0.95898183126E+03  0.13914129117E+04  0.12699999809E+01 0. -1.
       -4    1    3    3    0  502 -0.10018899455E+04  0.11224376267E+03 -0.85047805553E+03  0.13189756105E+04  0.12699999809E+01 0.  1.
</event>
<event>
 5   0  0.4824715E-06  0.2764193E+04  0.7818609E-02  0.8314472E-01
        1   -1    0    0  501    0  0.00000000000E+00  0.00000000000E+00  0.12127173903E+04  0.12127173903E+04  0.50400001928E-02 0. -1.
       -1   -1    0    0    0  501  0.00000000000E+00  0.00000000000E+00 -0.15751322676E+04  0.15751322676E+04  0.50400001928E-02 0.  1.
    10030    2    1    2    0    0  0.00000000000E+00  0.00000000000E+00 -0.36241487725E+03  0.27878496579E+04  0.27641926799E+04 0.  0.
        5    1    3    3  502    0 -0.13264386130E+04  0.36122144047E+03 -0.32472029730E+03  0.14125812134E+04  0.46999998093E+01 0. -1.
       -5    1    3    3    0  502  0.13264386130E+04 -0.36122144047E+03 -0.37694579954E+02  0.13752684445E+04  0.46999998093E+01 0.  1.
</event>
<event>
 5   0  0.1286641E-05  0.2703009E+04  0.7818609E-02  0.8334029E-01
       -2   -1    0    0    0  501  0.00000000000E+00  0.00000000000E+00  0.88239961670E+03  0.88239961671E+03  0.25500000920E-02 0. -1.
        2   -1    0    0  501    0  0.00000000000E+00  0.00000000000E+00 -0.20699966483E+04  0.20699966483E+04  0.25500000920E-02 0.  1.
    10030    2    1    2    0    0  0.00000000000E+00  0.00000000000E+00 -0.11875970316E+04  0.29523962650E+04  0.27030088783E+04 0.  0.
        4    1    3    3  502    0  0.13443252596E+04  0.13618120241E+03 -0.62482555977E+03  0.14886787150E+04  0.12699999809E+01 0. -1.
       -4    1    3    3    0  502 -0.13443252596E+04 -0.13618120241E+03 -0.56277147179E+03  0.14637175499E+04  0.12699999809E+01 0.  1.
</event>
<event>
 5   0  0.4824715E-06  0.2626131E+04  0.7818609E-02  0.8359379E-01
        1   -1    0    0  501    0  0.00000000000E+00  0.00000000000E+00  0.11145656908E+04  0.11145656908E+04  0.50400001928E-02 0.  1.
       -1   -1    0    0    0  501  0.00000000000E+00  0.00000000000E+00 -0.15469176933E+04  0.15469176933E+04  0.50400001928E-02 0. -1.
    10030    2    1    2    0    0  0.00000000000E+00  0.00000000000E+00 -0.43235200254E+03  0.26614833841E+04  0.26261312895E+04 0.  0.
        5    1    3    3  502    0  0.80224856701E+03  0.41706964719E+02 -0.12687997812E+04  0.15017380627E+04  0.46999998093E+01 0. -1.
       -5    1    3    3    0  502 -0.80224856701E+03 -0.41706964719E+02  0.83644777862E+03  0.11597453214E+04  0.46999998093E+01 0.  1.
</event>
<event>
 5   0  0.1232559E-05  0.2709590E+04  0.7818609E-02  0.8331900E-01
       -2   -1    0    0    0  501  0.00000000000E+00  0.00000000000E+00  0.97355347313E+03  0.97355347313E+03  0.25500000920E-02 0.  1.
        2   -1    0    0  501    0  0.00000000000E+00  0.00000000000E+00 -0.18853305508E+04  0.18853305508E+04  0.25500000920E-02 0. -1.
    10030    2    1    2    0    0  0.00000000000E+00  0.00000000000E+00 -0.91177707772E+03  0.28588840240E+04  0.27095904530E+04 0.  0.
        3    1    3    3  502    0 -0.12218638124E+04  0.17782176299E+03 -0.10441929245E+04  0.16170685295E+04  0.10100000352E+00 0. -1.
       -3    1    3    3    0  502  0.12218638124E+04 -0.17782176299E+03  0.13241584676E+03  0.12418154944E+04  0.10100000352E+00 0.  1.
</event>
<event>
 5   0  0.1232559E-05  0.2741964E+04  0.7818609E-02  0.8321516E-01
        2   -1    0    0  501    0  0.00000000000E+00  0.00000000000E+00  0.13396418851E+04  0.13396418851E+04  0.25500000920E-02 0.  1.
       -2   -1    0    0    0  501  0.00000000000E+00  0.00000000000E+00 -0.14030556025E+04  0.14030556025E+04  0.25500000920E-02 0. -1.
    10030    2    1    2    0    0  0.00000000000E+00  0.00000000000E+00 -0.63413717421E+02  0.27426974876E+04  0.27419642975E+04 0.  0.
        3    1    3    3  502    0 -0.11157706729E+04  0.65916934402E+03 -0.47920062731E+03  0.13816952160E+04  0.10100000352E+00 0. -1.
       -3    1    3    3    0  502  0.11157706729E+04 -0.65916934402E+03  0.41578690989E+03  0.13610022716E+04  0.10100000352E+00 0.  1.
</event>
<event>
 5   0  0.4846214E-06  0.2703924E+04  0.7818609E-02  0.8333733E-01
       -1   -1    0    0    0  501  0.00000000000E+00  0.00000000000E+00  0.10973347188E+04  0.10973347188E+04  0.50400001928E-02 0.  1.
        1   -1    0    0  501    0  0.00000000000E+00  0.00000000000E+00 -0.16656734378E+04  0.16656734378E+04  0.50400001928E-02 0. -1.
    10030    2    1    2    0    0  0.00000000000E+00  0.00000000000E+00 -0.56833871905E+03  0.27630081567E+04  0.27039240326E+04 0.  0.
        2    1    3    3  502    0 -0.31696289786E+03  0.90860223435E+03 -0.12545395568E+04  0.15811049928E+04  0.25500000920E-02 0. -1.
       -2    1    3    3    0  502  0.31696289786E+03 -0.90860223435E+03  0.68620083773E+03  0.11819031638E+04  0.25500000920E-02 0.  1.
</event>
<event>
 5   0  0.1261364E-05  0.2625160E+04  0.7818609E-02  0.8359705E-01
       -2   -1    0    0    0  501  0.00000000000E+00  0.00000000000E+00  0.87457835828E+03  0.87457835829E+03  0.25500000920E-02 0. -1.
        2   -1    0    0  501    0  0.00000000000E+00  0.00000000000E+00 -0.19699394923E+04  0.19699394923E+04  0.25500000920E-02 0.  1.
    10030    2    1    2    0    0  0.00000000000E+00  0.00000000000E+00 -0.10953611340E+04  0.28445178506E+04  0.26251601453E+04 0.  0.
        5    1    3    3  502    0 -0.12220937275E+04  0.43450224080E+03 -0.76584794478E+03  0.15062703743E+04  0.46999998093E+01 0.  1.
       -5    1    3    3    0  502  0.12220937275E+04 -0.43450224080E+03 -0.32951318926E+03  0.13382474763E+04  0.46999998093E+01 0. -1.
</event>
<event>
 5   0  0.4824715E-06  0.2699664E+04  0.7818609E-02  0.8335114E-01
       -1   -1    0    0    0  501  0.00000000000E+00  0.00000000000E+00  0.65615372422E+03  0.65615372424E+03  0.50400001928E-02 0. -1.
        1   -1    0    0  501    0  0.00000000000E+00  0.00000000000E+00 -0.27768587924E+04  0.27768587924E+04  0.50400001928E-02 0.  1.
    10030    2    1    2    0    0  0.00000000000E+00  0.00000000000E+00 -0.21207050682E+04  0.34330125167E+04  0.26996638593E+04 0.  0.
        5    1    3    3  502    0  0.13101417745E+04 -0.19310653733E+03 -0.72810869999E+03  0.15112663475E+04  0.46999998093E+01 0. -1.
       -5    1    3    3    0  502 -0.13101417745E+04  0.19310653733E+03 -0.13925963682E+04  0.19217461692E+04  0.46999998093E+01 0.  1.
</event>
<event>
 5   0  0.4846214E-06  0.2716458E+04  0.7818609E-02  0.8329684E-01
       -1   -1    0    0    0  501  0.00000000000E+00  0.00000000000E+00  0.86888778746E+03  0.86888778747E+03  0.50400001928E-02 0.  1.
        1   -1    0    0  501    0  0.00000000000E+00  0.00000000000E+00 -0.21231585769E+04  0.21231585769E+04  0.50400001928E-02 0. -1.
    10030    2    1    2    0    0  0.00000000000E+00  0.00000000000E+00 -0.12542707895E+04  0.29920463644E+04  0.27164583990E+04 0.  0.
        2    1    3    3  502    0  0.80971427543E+02 -0.13555792100E+04 -0.59937550692E+03  0.14843861913E+04  0.25500000920E-02 0.  1.
       -2    1    3    3    0  502 -0.80971427543E+02  0.13555792100E+04 -0.65489528256E+03  0.15076601731E+04  0.25500000920E-02 0. -1.
</event>
<event>
 5   0  0.1261364E-05  0.2489203E+04  0.7818609E-02  0.8406842E-01
        2   -1    0    0  501    0  0.00000000000E+00  0.00000000000E+00  0.12410515853E+04  0.12410515853E+04  0.25500000920E-02 0. -1.
       -2   -1    0    0    0  501  0.00000000000E+00  0.00000000000E+00 -0.12481617441E+04  0.12481617441E+04  0.25500000920E-02 0.  1.
    10030    2    1    2    0    0  0.00000000000E+00  0.00000000000E+00 -0.71101588553E+01  0.24892133294E+04  0.24892031747E+04 0.  0.
        5    1    3    3  502    0  0.10172508317E+04  0.22248775306E+03 -0.68525498262E+03  0.12465538641E+04  0.46999998093E+01 0.  1.
       -5    1    3    3    0  502 -0.10172508317E+04 -0.22248775306E+03  0.67814482377E+03  0.12426594653E+04  0.46999998093E+01 0. -1.
</event>
<event>
 5   0  0.1276517E-05  0.2652257E+04  0.7818609E-02  0.8350664E-01
       -2   -1    0    0    0  501  0.00000000000E+00  0.00000000000E+00  0.69737015187E+03  0.69737015187E+03  0.25500000920E-02 0. -1.
        2   -1    0    0  501    0  0.00000000000E+00  0.00000000000E+00 -0.25217844030E+04  0.25217844030E+04  0.25500000920E-02 0.  1.
    10030    2    1    2    0    0  0.00000000000E+00  0.00000000000E+00 -0.18244142511E+04  0.32191545548E+04  0.26522572817E+04 0.  0.
        1    1    3    3  502    0 -0.94526644507E+03  0.54987435680E+01 -0.20410899418E+04  0.22493570279E+04  0.50400001928E-02 0.  1.
       -1    1    3    3    0  502  0.94526644507E+03 -0.54987435680E+01  0.21667569068E+03  0.96979752697E+03  0.50400001928E-02 0. -1.
</event>
<event>
 5   0  0.4846214E-06  0.2584614E+04  0.7818609E-02  0.8373446E-01
       -1   -1    0    0    0  501  0.00000000000E+00  0.00000000000E+00  0.10093030536E+04  0.10093030536E+04  0.50400001928E-02 0. -1.
        1   -1    0    0  501    0  0.00000000000E+00  0.00000000000E+00 -0.16546642265E+04  0.16546642265E+04  0.50400001928E-02 0.  1.
    10030    2    1    2    0    0  0.00000000000E+00  0.00000000000E+00 -0.64536117286E+03  0.26639672801E+04  0.25846142122E+04 0.  0.
        2    1    3    3  502    0 -0.10557400547E+04  0.19175081626E+03  0.41964120656E+03  0.11521519782E+04  0.25500000920E-02 0. -1.
       -2    1    3    3    0  502  0.10557400547E+04 -0.19175081626E+03 -0.10650023794E+04  0.15118153018E+04  0.25500000920E-02 0.  1.
</event>
<event>
 5   0  0.1276517E-05  0.2771755E+04  0.7818609E-02  0.8312091E-01
       -2   -1    0    0    0  501  0.00000000000E+00  0.00000000000E+00  0.12139834384E+04  0.12139834384E+04  0.25500000920E-02 0.  1.
        2   -1    0    0  501    0  0.00000000000E+00  0.00000000000E+00 -0.15821108648E+04  0.15821108648E+04  0.25500000920E-02 0. -1.
    10030    2    1    2    0    0  0.00000000000E+00  0.00000000000E+00 -0.36812742635E+03  0.27960943032E+04  0.27717549585E+04 0.  0.
        1    1    3    3  502    0 -0.12652648453E+04 -0.30222021684E+03 -0.66619802192E+03  0.14615238598E+04  0.50400001928E-02 0. -1.
       -1    1    3    3    0  502  0.12652648453E+04  0.30222021684E+03  0.29807059557E+03  0.13345704434E+04  0.50400001928E-02 0.  1.
</event>
<event>
 5   0  0.4756800E-06  0.2720512E+04  0.7818609E-02  0.8328380E-01
        1   -1    0    0  501    0  0.00000000000E+00  0.00000000000E+00  0.23877136716E+04  0.23877136716E+04  0.50400001928E-02 0. -1.
       -1   -1    0    0    0  501  0.00000000000E+00  0.00000000000E+00 -0.77492394345E+03  0.77492394347E+03  0.50400001928E-02 0.  1.
    10030    2    1    2    0    0  0.00000000000E+00  0.00000000000E+00  0.16127897282E+04  0.31626376151E+04  0.27205120799E+04 0.  0.
        4    1    3    3  502    0 -0.13336340851E+04 -0.13230568738E+03  0.53572535718E+03  0.14432906634E+04  0.12699999809E+01 0.  1.
       -4    1    3    3    0  502  0.13336340851E+04  0.13230568738E+03  0.10770643710E+04  0.17193469516E+04  0.12699999809E+01 0. -1.
</event>
<event>
 5   0  0.1232559E-05  0.2706892E+04  0.7818609E-02  0.8332772E-01
        2   -1    0    0  501    0  0.00000000000E+00  0.00000000000E+00  0.22243075983E+04  0.22243075983E+04  0.25500000920E-02 0. -1.
       -2   -1    0    0    0  501  0.00000000000E+00  0.00000000000E+00 -0.82354457265E+03  0.82354457266E+03  0.25500000920E-02 0.  1.
    10030    2    1    2    0    0  0.00000000000E+00  0.00000000000E+00  0.14007630256E+04  0.30478521709E+04  0.27068922775E+04 0.  0.
        3    1    3    3  502    0 -0.21305269924E+03 -0.13365648724E+04  0.69543118385E+03  0.15216509627E+04  0.10100000352E+00 0. -1.
       -3    1    3    3    0  502  0.21305269924E+03  0.13365648724E+04  0.70533184176E+03  0.15262012082E+04  0.10100000352E+00 0.  1.
</event>
<event>
 5   0  0.4756800E-06  0.2756373E+04  0.7818609E-02  0.8316942E-01
       -1   -1    0    0    0  501  0.00000000000E+00  0.00000000000E+00  0.15151771947E+04  0.15151771947E+04  0.50400001928E-02 0.  1.
        1   -1    0    0  501    0  0.00000000000E+00  0.00000000000E+00 -0.12535815543E+04  0.12535815543E+04  0.50400001928E-02 0. -1.
    10030    2    1    2    0    0  0.00000000000E+00  0.00000000000E+00  0.26159564034E+03  0.27687587490E+04  0.27563731117E+04 0.  0.
        4    1    3    3  502    0  0.78551004235E+03  0.51265530425E+03  0.11450651996E+04  0.14802085704E+04  0.12699999809E+01 0.  1.
       -4    1    3    3    0  502 -0.78551004235E+03 -0.51265530425E+03 -0.88346955930E+03  0.12885501786E+04  0.12699999809E+01 0. -1.
</event>
<event>
 5   0  0.1232559E-05  0.2620859E+04  0.7818609E-02  0.8361150E-01
       -2   -1    0    0    0  501  0.00000000000E+00  0.00000000000E+00  0.18839998669E+04  0.18839998669E+04  0.25500000920E-02 0.  1.
        2   -1    0    0  501    0  0.00000000000E+00  0.00000000000E+00 -0.91147885626E+03  0.91147885626E+03  0.25500000920E-02 0. -1.
    10030    2    1    2    0    0  0.00000000000E+00  0.00000000000E+00  0.97252101068E+03  0.27954787232E+04  0.26208594345E+04 0.  0.
        3    1    3    3  502    0 -0.87526190142E+03  0.90467042701E+03  0.87483198717E+03  0.15329197610E+04  0.10100000352E+00 0.  1.
       -3    1    3    3    0  502  0.87526190142E+03 -0.90467042701E+03  0.97689023513E+02  0.12625589622E+04  0.10100000352E+00 0. -1.
</event>
<event>
 5   0  0.1286641E-05  0.2525276E+04  0.7818609E-02  0.8394036E-01
       -2   -1    0    0    0  501  0.00000000000E+00  0.00000000000E+00  0.69620959934E+03  0.69620959935E+03  0.25500000920E-02 0. -1.
        2   -1    0    0  501    0  0.00000000000E+00  0.00000000000E+00 -0.22899064275E+04  0.22899064275E+04  0.25500000920E-02 0.  1.
    10030    2    1    2    0    0  0.00000000000E+00  0.00000000000E+00 -0.15936968281E+04  0.29861160268E+04  0.25252760929E+04 0.  0.
        4    1    3    3  502    0  0.56889180910E+03  0.50571936548E+02  0.53473181478E+03  0.78239065553E+03  0.12699999809E+01 0. -1.
       -4    1    3    3    0  502 -0.56889180910E+03 -0.50571936548E+02 -0.21284286429E+04  0.22037253713E+04  0.12699999809E+01 0.  1.
</event>
<event>
 5   0  0.1220908E-05  0.2702267E+04  0.7818609E-02  0.8334270E-01
       -2   -1    0    0    0  501  0.00000000000E+00  0.00000000000E+00  0.13985408561E+04  0.13985408561E+04  0.25500000920E-02 0. -1.
        2   -1    0    0  501    0  0.00000000000E+00  0.00000000000E+00 -0.13053330653E+04  0.13053330653E+04  0.25500000920E-02 0.  1.
    10030    2    1    2    0    0  0.00000000000E+00  0.00000000000E+00  0.93207790794E+02  0.27038739213E+04  0.27022669169E+04 0.  0.
        2    1    3    3  502    0  0.11140460679E+04  0.23601090590E+03 -0.68098865310E+03  0.13268554310E+04  0.25500000920E-02 0. -1.
       -2    1    3    3    0  502 -0.11140460679E+04 -0.23601090590E+03  0.77419644389E+03  0.13770184903E+04  0.25500000920E-02 0.  1.
</event>
<event>
 5   0  0.1220908E-05  0.2635884E+04  0.7818609E-02  0.8356114E-01
        2   -1    0    0  501    0  0.00000000000E+00  0.00000000000E+00  0.63199181563E+03  0.63199181564E+03  0.25500000920E-02 0. -1.
       -2   -1    0    0    0  501  0.00000000000E+00  0.00000000000E+00 -0.27484066835E+04  0.27484066835E+04  0.25500000920E-02 0.  1.
    10030    2    1    2    0    0  0.00000000000E+00  0.00000000000E+00 -0.21164148679E+04  0.33803984991E+04  0.26358835559E+04 0.  0.
        2    1    3    3  502    0  0.84200675554E+03 -0.10012274684E+04 -0.12631542424E+04  0.18185132553E+04  0.25500000920E-02 0. -1.
       -2    1    3    3    0  502 -0.84200675554E+03  0.10012274684E+04 -0.85326062549E+03  0.15618852438E+04  0.25500000920E-02 0.  1.
</event>
<event>
 5   0  0.4756800E-06  0.2494699E+04  0.7818609E-02  0.8404876E-01
       -1   -1    0    0    0  501  0.00000000000E+00  0.00000000000E+00  0.14082833464E+04  0.14082833464E+04  0.50400001928E-02 0.  1.
        1   -1    0    0  501    0  0.00000000000E+00  0.00000000000E+00 -0.11048068780E+04  0.11048068780E+04  0.50400001928E-02 0. -1.
    10030    2    1    2    0    0  0.00000000000E+00  0.00000000000E+00  0.30347646840E+03  0.25130902244E+04  0.24946992823E+04 0.  0.
        4    1    3    3  502    0 -0.88682483209E+03  0.55111014078E+03  0.83919035924E+03  0.13395606526E+04  0.12699999809E+01 0. -1.
       -4    1    3    3    0  502  0.88682483209E+03 -0.55111014078E+03 -0.53571389083E+03  0.11735295718E+04  0.12699999809E+01 0.  1.
</event>
<event>
 5   0  0.1220908E-05  0.2660321E+04  0.7818609E-02  0.8347995E-01
       -2   -1    0    0    0  501  0.00000000000E+00  0.00000000000E+00  0.78807986080E+03  0.78807986081E+03  0.25500000920E-02 0. -1.
        2   -1    0    0  501    0  0.00000000000E+00  0.00000000000E+00 -0.22451114398E+04  0.22451114398E+04  0.25500000920E-02 0.  1.
    10030    2    1    2    0    0  0.00000000000E+00  0.00000000000E+00 -0.14570315790E+04  0.30331913006E+04  0.26603211167E+04 0.  0.
        2    1    3    3  502    0 -0.22100970060E+01 -0.12595251190E+04 -0.24088087410E+03  0.12823540874E+04  0.25500000920E-02 0. -1.
       -2    1    3    3    0  502  0.22100970060E+01  0.12595251190E+04 -0.12161507049E+04  0.17508372132E+04  0.25500000920E-02 0.  1.
</event>
<event>
 5   0  0.1261364E-05  0.2736042E+04  0.7818609E-02  0.8323404E-01
        2   -1    0    0  501    0  0.00000000000E+00  0.00000000000E+00  0.17426253782E+04  0.17426253782E+04  0.25500000920E-02 0.  1.
       -2   -1    0    0    0  501  0.00000000000E+00  0.00000000000E+00 -0.10739436587E+04  0.10739436587E+04  0.25500000920E-02 0. -1.
    10030    2    1    2    0    0  0.00000000000E+00  0.00000000000E+00  0.66868171951E+03  0.28165690370E+04  0.27360420132E+04 0.  0.
        5    1    3    3  502    0 -0.11333488018E+04  0.49271581279E+02 -0.45272175583E+03  0.12214279649E+04  0.46999998093E+01 0. -1.
       -5    1    3    3    0  502  0.11333488018E+04 -0.49271581279E+02  0.11214034753E+04  0.15951410721E+04  0.46999998093E+01 0.  1.
</event>
<event>
 5   0  0.1261364E-05  0.2673500E+04  0.7818609E-02  0.8343655E-01
        2   -1    0    0  501    0  0.00000000000E+00  0.00000000000E+00  0.18146405309E+04  0.18146405309E+04  0.25500000920E-02 0.  1.
       -2   -1    0    0    0  501  0.00000000000E+00  0.00000000000E+00 -0.98471329319E+03  0.98471329319E+03  0.25500000920E-02 0. -1.
    10030    2    1    2    0    0  0.00000000000E+00  0.00000000000E+00  0.82992723776E+03  0.27993538241E+04  0.26735000678E+04 0.  0.
        5    1    3    3  502    0 -0.21790494622E+03 -0.37730292575E+03  0.17381934649E+04  0.17919761925E+04  0.46999998093E+01 0.  1.
       -5    1    3    3    0  502  0.21790494622E+03  0.37730292575E+03 -0.90826622710E+03  0.10073776316E+04  0.46999998093E+01 0. -1.
</event>
<event>
 5   0  0.1232559E-05  0.2722692E+04  0.7818609E-02  0.8327679E-01
        2   -1    0    0  501    0  0.00000000000E+00  0.00000000000E+00  0.32797577375E+04  0.32797577375E+04  0.25500000920E-02 0. -1.
       -2   -1    0    0    0  501  0.00000000000E+00  0.00000000000E+00 -0.56506106095E+03  0.56506106096E+03  0.25500000920E-02 0.  1.
    10030    2    1    2    0    0  0.00000000000E+00  0.00000000000E+00  0.27146966766E+04  0.38448187985E+04  0.27226923343E+04 0.  0.
        3    1    3    3  502    0 -0.12965384058E+04  0.70058494638E+02  0.77967605223E+03  0.15145345117E+04  0.10100000352E+00 0. -1.
       -3    1    3    3    0  502  0.12965384058E+04 -0.70058494638E+02  0.19350206243E+04  0.23302842868E+04  0.10100000352E+00 0.  1.
</event>
<event>
 5   0  0.4824715E-06  0.2695469E+04  0.7818609E-02  0.8336476E-01
        1   -1    0    0  501    0  0.00000000000E+00  0.00000000000E+00  0.15208046082E+04  0.15208046082E+04  0.50400001928E-02 0. -1.
       -1   -1    0    0    0  501  0.00000000000E+00  0.00000000000E+00 -0.11943603615E+04  0.11943603615E+04  0.50400001928E-02 0.  1.
    10030    2    1    2    0    0  0.00000000000E+00  0.00000000000E+00  0.32644424673E+03  0.27151649698E+04  0.26954693407E+04 0.  0.
        5    1    3    3  502    0  0.79619435240E+03 -0.61083564817E+03  0.10694183188E+04  0.14665344409E+04  0.46999998093E+01 0.  1.
       -5    1    3    3    0  502 -0.79619435240E+03  0.61083564817E+03 -0.74297407204E+03  0.12486305289E+04  0.46999998093E+01 0. -1.
</event>
<event>
 5   0  0.4826140E-06  0.2719599E+04  0.7818609E-02  0.8328674E-01
       -1   -1    0    0    0  501  0.00000000000E+00  0.00000000000E+00  0.10191284873E+04  0.10191284873E+04  0.50400001928E-02 0.  1.
        1   -1    0    0  501    0  0.00000000000E+00  0.00000000000E+00 -0.18143490460E+04  0.18143490460E+04  0.50400001928E-02 0. -1.
    10030    2    1    2    0    0  0.00000000000E+00  0.00000000000E+00 -0.79522055866E+03  0.28334775333E+04  0.27195990872E+04 0.  0.
        1    1    3    3  502    0  0.11570448636E+04 -0.20827019390E+03 -0.11095425627E+04  0.16165438406E+04  0.50400001928E-02 0. -1.
       -1    1    3    3    0  502 -0.11570448636E+04  0.20827019390E+03  0.31432200409E+03  0.12169336927E+04  0.50400001928E-02 0.  1.
</event>
<event>
 5   0  0.1232559E-05  0.2778145E+04  0.7818609E-02  0.8310086E-01
        2   -1    0    0  501    0  0.00000000000E+00  0.00000000000E+00  0.28368898607E+04  0.28368898607E+04  0.25500000920E-02 0. -1.
       -2   -1    0    0    0  501  0.00000000000E+00  0.00000000000E+00 -0.68015402599E+03  0.68015402599E+03  0.25500000920E-02 0.  1.
    10030    2    1    2    0    0  0.00000000000E+00  0.00000000000E+00  0.21567358347E+04  0.35170438867E+04  0.27781447479E+04 0.  0.
        3    1    3    3  502    0 -0.37675139766E+03  0.13365050669E+04  0.11246172072E+04  0.17868831194E+04  0.10100000352E+00 0. -1.
       -3    1    3    3    0  502  0.37675139766E+03 -0.13365050669E+04  0.10321186276E+04  0.17301607674E+04  0.10100000352E+00 0.  1.
</event>
<event>
 5   0  0.4846214E-06  0.2671376E+04  0.7818609E-02  0.8344353E-01
       -1   -1    0    0    0  501  0.00000000000E+00  0.00000000000E+00  0.13629161630E+04  0.13629161630E+04  0.50400001928E-02 0. -1.
        1   -1    0    0  501    0  0.00000000000E+00  0.00000000000E+00 -0.13090038991E+04  0.13090038991E+04  0.50400001928E-02 0.  1.
    10030    2    1    2    0    0  0.00000000000E+00  0.00000000000E+00  0.53912263981E+02  0.26719200621E+04  0.26713761035E+04 0.  0.
        2    1    3    3  502    0 -0.10450600074E+04 -0.76939027970E+03  0.34317039314E+03  0.13423403966E+04  0.25500000920E-02 0. -1.
       -2    1    3    3    0  502  0.10450600074E+04  0.76939027970E+03 -0.28925812916E+03  0.13295796655E+04  0.25500000920E-02 0.  1.
</event>
<event>
 5   0  0.1286641E-05  0.2532851E+04  0.7818609E-02  0.8391375E-01
        2   -1    0    0  501    0  0.00000000000E+00  0.00000000000E+00  0.19210630905E+04  0.19210630905E+04  0.25500000920E-02 0. -1.
       -2   -1    0    0    0  501  0.00000000000E+00  0.00000000000E+00 -0.83486768845E+03  0.83486768846E+03  0.25500000920E-02 0.  1.
    10030    2    1    2    0    0  0.00000000000E+00  0.00000000000E+00  0.10861954020E+04  0.27559307789E+04  0.25328509642E+04 0.  0.
        4    1    3    3  502    0 -0.41523442393E+03 -0.18782793052E+03 -0.74255022755E+03  0.87125278286E+03  0.12699999809E+01 0.  1.
       -4    1    3    3    0  502  0.41523442393E+03  0.18782793052E+03  0.18287456296E+04  0.18846779961E+04  0.12699999809E+01 0. -1.
</event>
<event>
 5   0  0.4756800E-06  0.2727939E+04  0.7818609E-02  0.8325996E-01
        1   -1    0    0  501    0  0.00000000000E+00  0.00000000000E+00  0.18109877304E+04  0.18109877304E+04  0.50400001928E-02 0.  1.
       -1   -1    0    0    0  501  0.00000000000E+00  0.00000000000E+00 -0.10272921148E+04  0.10272921148E+04  0.50400001928E-02 0. -1.
    10030    2    1    2    0    0  0.00000000000E+00  0.00000000000E+00  0.78369561558E+03  0.28382798452E+04  0.27279394535E+04 0.  0.
        4    1    3    3  502    0  0.70977618080E+03 -0.92986388153E+03 -0.33793800896E+03  0.12176340895E+04  0.12699999809E+01 0. -1.
       -4    1    3    3    0  502 -0.70977618080E+03  0.92986388153E+03  0.11216336245E+04  0.16206457557E+04  0.12699999809E+01 0.  1.
</event>
<event>
 5   0  0.1286641E-05  0.2654219E+04  0.7818609E-02  0.8350014E-01
        2   -1    0    0  501    0  0.00000000000E+00  0.00000000000E+00  0.14872707065E+04  0.14872707065E+04  0.25500000920E-02 0. -1.
       -2   -1    0    0    0  501  0.00000000000E+00  0.00000000000E+00 -0.11841958786E+04  0.11841958786E+04  0.25500000920E-02 0.  1.
    10030    2    1    2    0    0  0.00000000000E+00  0.00000000000E+00  0.30307482794E+03  0.26714665851E+04  0.26542191628E+04 0.  0.
        4    1    3    3  502    0 -0.65291902702E+03  0.35968182972E+03 -0.95356999517E+03  0.12103601212E+04  0.12699999809E+01 0.  1.
       -4    1    3    3    0  502  0.65291902702E+03 -0.35968182972E+03  0.12566448231E+04  0.14611064639E+04  0.12699999809E+01 0. -1.
</event>
<event>
 5   0  0.1276517E-05  0.2694040E+04  0.7818609E-02  0.8336941E-01
        2   -1    0    0  501    0  0.00000000000E+00  0.00000000000E+00  0.20814392425E+04  0.20814392425E+04  0.25500000920E-02 0.  1.
       -2   -1    0    0    0  501  0.00000000000E+00  0.00000000000E+00 -0.87173475819E+03  0.87173475819E+03  0.25500000920E-02 0. -1.
    10030    2    1    2    0    0  0.00000000000E+00  0.00000000000E+00  0.12097044843E+04  0.29531740007E+04  0.26940400403E+04 0.  0.
        1    1    3    3  502    0 -0.82001728309E+03 -0.50962258981E+03  0.16345218778E+04  0.18983691152E+04  0.50400001928E-02 0.  1.
       -1    1    3    3    0  502  0.82001728309E+03  0.50962258981E+03 -0.42481739347E+03  0.10548048855E+04  0.50400001928E-02 0. -1.
</event>
<event>
 5   0  0.1220908E-05  0.2720805E+04  0.7818609E-02  0.8328286E-01
        2   -1    0    0  501    0  0.00000000000E+00  0.00000000000E+00  0.17622392581E+04  0.17622392581E+04  0.25500000920E-02 0.  1.
       -2   -1    0    0    0  501  0.00000000000E+00  0.00000000000E+00 -0.10501954217E+04  0.10501954217E+04  0.25500000920E-02 0. -1.
    10030    2    1    2    0    0  0.00000000000E+00  0.00000000000E+00  0.71204383632E+03  0.28124346798E+04  0.27208054696E+04 0.  0.
        2    1    3    3  502    0 -0.53876752415E+03 -0.40387060591E+03 -0.86586751615E+03  0.10968630119E+04  0.25500000920E-02 0. -1.
       -2    1    3    3    0  502  0.53876752415E+03  0.40387060591E+03  0.15779113525E+04  0.17155716679E+04  0.25500000920E-02 0.  1.
</event>
<event>
 5   0  0.5152288E-06  0.2691552E+04  0.7818609E-02  0.8337751E-01
        1   -1    0    0  501    0  0.00000000000E+00  0.00000000000E+00  0.20793754193E+04  0.20793754193E+04  0.50400001928E-02 0. -1.
       -1   -1    0    0    0  501  0.00000000000E+00  0.00000000000E+00 -0.87098917927E+03  0.87098917928E+03  0.50400001928E-02 0.  1.
    10030    2    1    2    0    0  0.00000000000E+00  0.00000000000E+00  0.12083862400E+04  0.29503645986E+04  0.26915523327E+04 0.  0.
        3    1    3    3  502    0 -0.76619865416E+03 -0.11533846164E+03 -0.60195355556E+03  0.98117859313E+03  0.10100000352E+00 0.  1.
       -3    1    3    3    0  502  0.76619865416E+03  0.11533846164E+03  0.18103397956E+04  0.19691860054E+04  0.10100000352E+00 0. -1.
</event>
<event>
 5   0  0.4826140E-06  0.2536756E+04  0.7818609E-02  0.8390007E-01
       -1   -1    0    0    0  501  0.00000000000E+00  0.00000000000E+00  0.85158350642E+03  0.85158350644E+03  0.50400001928E-02 0. -1.
        1   -1    0    0  501    0  0.00000000000E+00  0.00000000000E+00 -0.18891665637E+04  0.18891665637E+04  0.50400001928E-02 0.  1.
    10030    2    1    2    0    0  0.00000000000E+00  0.00000000000E+00 -0.10375830573E+04  0.27407500702E+04  0.25367562647E+04 0.  0.
        1    1    3    3  502    0 -0.34243340055E+03 -0.29914822505E+03 -0.17980838056E+04  0.18546847890E+04  0.50400001928E-02 0.  1.
       -1    1    3    3    0  502  0.34243340055E+03  0.29914822505E+03  0.76050074831E+03  0.88606528121E+03  0.50400001928E-02 0. -1.
</event>
<event>
 5   0  0.4846214E-06  0.2685923E+04  0.7818609E-02  0.8339587E-01
        1   -1    0    0  501    0  0.00000000000E+00  0.00000000000E+00  0.12275718247E+04  0.12275718247E+04  0.50400001928E-02 0.  1.
       -1   -1    0    0    0  501  0.00000000000E+00  0.00000000000E+00 -0.14691979263E+04  0.14691979263E+04  0.50400001928E-02 0. -1.
    10030    2    1    2    0    0  0.00000000000E+00  0.00000000000E+00 -0.24162610163E+03  0.26967697510E+04  0.26859232895E+04 0.  0.
        2    1    3    3  502    0  0.92775860845E+03  0.59549331911E+03  0.64922450342E+03  0.12793907865E+04  0.25500000920E-02 0.  1.
       -2    1    3    3    0  502 -0.92775860845E+03 -0.59549331911E+03 -0.89085060504E+03  0.14173789646E+04  0.25500000920E-02 0. -1.
</event>
<event>
 5   0  0.1220908E-05  0.2707662E+04  0.7818609E-02  0.8332523E-01
        2   -1    0    0  501    0  0.00000000000E+00  0.00000000000E+00  0.13451655340E+04  0.13451655340E+04  0.25500000920E-02 0.  1.
       -2   -1    0    0    0  501  0.00000000000E+00  0.00000000000E+00 -0.13625521043E+04  0.13625521043E+04  0.25500000920E-02 0. -1.
    10030    2    1    2    0    0  0.00000000000E+00  0.00000000000E+00 -0.17386570307E+02  0.27077176383E+04  0.27076618171E+04 0.  0.
        2    1    3    3  502    0  0.10352933191E+04 -0.36125486058E+03  0.78537648256E+03  0.13487600047E+04  0.25500000920E-02 0. -1.
       -2    1    3    3    0  502 -0.10352933191E+04  0.36125486058E+03 -0.80276305287E+03  0.13589576336E+04  0.25500000920E-02 0.  1.
</event>
<event>
 5   0  0.1261364E-05  0.2683941E+04  0.7818609E-02  0.8340234E-01
       -2   -1    0    0    0  501  0.00000000000E+00  0.00000000000E+00  0.29107974053E+04  0.29107974053E+04  0.25500000920E-02 0.  1.
        2   -1    0    0  501    0  0.00000000000E+00  0.00000000000E+00 -0.61869127727E+03  0.61869127727E+03  0.25500000920E-02 0. -1.
    10030    2    1    2    0    0  0.00000000000E+00  0.00000000000E+00  0.22921061280E+04  0.35294886826E+04  0.26839411056E+04 0.  0.
        5    1    3    3  502    0  0.78566012768E+03  0.92937106740E+03  0.40230494981E+03  0.12817424780E+04  0.46999998093E+01 0.  1.
       -5    1    3    3    0  502 -0.78566012768E+03 -0.92937106740E+03  0.18898011782E+04  0.22477462046E+04  0.46999998093E+01 0. -1.
</event>
<event>
 5   0  0.4826140E-06  0.2797866E+04  0.7818609E-02  0.8303931E-01
        1   -1    0    0  501    0  0.00000000000E+00  0.00000000000E+00  0.22850369361E+04  0.22850369361E+04  0.50400001928E-02 0. -1.
       -1   -1    0    0    0  501  0.00000000000E+00  0.00000000000E+00 -0.85644737375E+03  0.85644737377E+03  0.50400001928E-02 0.  1.
    10030    2    1    2    0    0  0.00000000000E+00  0.00000000000E+00  0.14285895623E+04  0.31414843098E+04  0.27978662462E+04 0.  0.
        1    1    3    3  502    0 -0.35246728269E+03 -0.11194911985E+04  0.15690508993E+04  0.19594423833E+04  0.50400001928E-02 0. -1.
       -1    1    3    3    0  502  0.35246728269E+03  0.11194911985E+04 -0.14046133703E+03  0.11820419265E+04  0.50400001928E-02 0.  1.
</event>
<event>
 5   0  0.1276517E-05  0.2716614E+04  0.7818609E-02  0.8329634E-01
       -2   -1    0    0    0  501  0.00000000000E+00  0.00000000000E+00  0.10214698218E+04  0.10214698218E+04  0.25500000920E-02 0. -1.
        2   -1    0    0  501    0  0.00000000000E+00  0.00000000000E+00 -0.18062188385E+04  0.18062188385E+04  0.25500000920E-02 0.  1.
    10030    2    1    2    0    0  0.00000000000E+00  0.00000000000E+00 -0.78474901671E+03  0.28276886603E+04  0.27166140949E+04 0.  0.
        1    1    3    3  502    0 -0.50322705659E+03  0.65922213087E+03 -0.15120840165E+04  0.17245896211E+04  0.50400001928E-02 0.  1.
       -1    1    3    3    0  502  0.50322705659E+03 -0.65922213087E+03  0.72733499981E+03  0.11030990392E+04  0.50400001928E-02 0. -1.
</event>
<event>
 5   0  0.4826140E-06  0.2695561E+04  0.7818609E-02  0.8336447E-01
       -1   -1    0    0    0  501  0.00000000000E+00  0.00000000000E+00  0.99412591340E+03  0.99412591341E+03  0.50400001928E-02 0. -1.
        1   -1    0    0  501    0  0.00000000000E+00  0.00000000000E+00 -0.18272449993E+04  0.18272449993E+04  0.50400001928E-02 0.  1.
    10030    2    1    2    0    0  0.00000000000E+00  0.00000000000E+00 -0.83311908589E+03  0.28213709127E+04  0.26955605012E+04 0.  0.
        1    1    3    3  502    0  0.74565797722E+03 -0.33369199836E+03  0.70546017327E+03  0.10793656585E+04  0.50400001928E-02 0. -1.
       -1    1    3    3    0  502 -0.74565797722E+03  0.33369199836E+03 -0.15385792592E+04  0.17420052542E+04  0.50400001928E-02 0.  1.
</event>
<event>
 5   0  0.1261364E-05  0.2718729E+04  0.7818609E-02  0.8328954E-01
       -2   -1    0    0    0  501  0.00000000000E+00  0.00000000000E+00  0.11203759334E+04  0.11203759334E+04  0.25500000920E-02 0. -1.
        2   -1    0    0  501    0  0.00000000000E+00  0.00000000000E+00 -0.16493314458E+04  0.16493314458E+04  0.25500000920E-02 0.  1.
    10030    2    1    2    0    0  0.00000000000E+00  0.00000000000E+00 -0.52895551237E+03  0.27697073792E+04  0.27187285690E+04 0.  0.
        5    1    3    3  502    0  0.12023206605E+04 -0.62728201177E+03 -0.35999876811E+03  0.14030961820E+04  0.46999998093E+01 0. -1.
       -5    1    3    3    0  502 -0.12023206605E+04  0.62728201177E+03 -0.16895674426E+03  0.13666111972E+04  0.46999998093E+01 0.  1.
</event>
<event>
 5   0  0.1276517E-05  0.2704710E+04  0.7818609E-02  0.8333478E-01
        2   -1    0    0  501    0  0.00000000000E+00  0.00000000000E+00  0.17997606645E+04  0.17997606645E+04  0.25500000920E-02 0.  1.
       -2   -1    0    0    0  501  0.00000000000E+00  0.00000000000E+00 -0.10161705076E+04  0.10161705076E+04  0.25500000920E-02 0. -1.
    10030    2    1    2    0    0  0.00000000000E+00  0.00000000000E+00  0.78359015691E+03  0.28159311720E+04  0.27047097500E+04 0.  0.
        1    1    3    3  502    0 -0.74643332640E+03  0.86736608278E+03  0.11421085726E+04  0.16167555857E+04  0.50400001928E-02 0. -1.
       -1    1    3    3    0  502  0.74643332640E+03 -0.86736608278E+03 -0.35851841573E+03  0.11991755863E+04  0.50400001928E-02 0.  1.
</event>
<event>
 5   0  0.1261364E-05  0.2587607E+04  0.7818609E-02  0.8372423E-01
        2   -1    0    0  501    0  0.00000000000E+00  0.00000000000E+00  0.10821118903E+04  0.10821118903E+04  0.25500000920E-02 0. -1.
       -2   -1    0    0    0  501  0.00000000000E+00  0.00000000000E+00 -0.15469083985E+04  0.15469083985E+04  0.25500000920E-02 0.  1.
    10030    2    1    2    0    0  0.00000000000E+00  0.00000000000E+00 -0.46479650813E+03  0.26290202888E+04  0.25876073669E+04 0.  0.
        5    1    3    3  502    0  0.58687939220E+03  0.10935371065E+04  0.13904139178E+03  0.12488416324E+04  0.46999998093E+01 0. -1.
       -5    1    3    3    0  502 -0.58687939220E+03 -0.10935371065E+04 -0.60383789991E+03  0.13801786564E+04  0.46999998093E+01 0.  1.
</event>
<event>
 5   0  0.1261364E-05  0.2703575E+04  0.7818609E-02  0.8333846E-01
       -2   -1    0    0    0  501  0.00000000000E+00  0.00000000000E+00  0.79990396625E+03  0.79990396626E+03  0.25500000920E-02 0. -1.
        2   -1    0    0  501    0  0.00000000000E+00  0.00000000000E+00 -0.22844364911E+04  0.22844364911E+04  0.25500000920E-02 0.  1.
    10030    2    1    2    0    0  0.00000000000E+00  0.00000000000E+00 -0.14845325249E+04  0.30843404574E+04  0.27035752698E+04 0.  0.
        5    1    3    3  502    0  0.18781388031E+03 -0.18219096917E+03 -0.22552596388E+04  0.22703932988E+04  0.46999998093E+01 0.  1.
       -5    1    3    3    0  502 -0.18781388031E+03  0.18219096917E+03  0.77072711390E+03  0.81394715860E+03  0.46999998093E+01 0. -1.
</event>
<event>
 5   0  0.4846214E-06  0.2733178E+04  0.7818609E-02  0.8324319E-01
       -1   -1    0    0    0  501  0.00000000000E+00  0.00000000000E+00  0.13344718379E+04  0.13344718379E+04  0.50400001928E-02 0. -1.
        1   -1    0    0  501    0  0.00000000000E+00  0.00000000000E+00 -0.13994795924E+04  0.13994795924E+04  0.50400001928E-02 0.  1.
    10030    2    1    2    0    0  0.00000000000E+00  0.00000000000E+00 -0.65007754454E+02  0.27339514303E+04  0.27331784455E+04 0.  0.
        2    1    3    3  502    0 -0.59136380853E+03 -0.11394199996E+04  0.43621910199E+03  0.13558304446E+04  0.25500000920E-02 0. -1.
       -2    1    3    3    0  502  0.59136380853E+03  0.11394199996E+04 -0.50122685644E+03  0.13781209857E+04  0.25500000920E-02 0.  1.
</event>
<event>
 5   0  0.1232559E-05  0.2699679E+04  0.7818609E-02  0.8335109E-01
       -2   -1    0    0    0  501  0.00000000000E+00  0.00000000000E+00  0.13758878707E+04  0.13758878707E+04  0.25500000920E-02 0. -1.
        2   -1    0    0  501    0  0.00000000000E+00  0.00000000000E+00 -0.13242840255E+04  0.13242840255E+04  0.25500000920E-02 0.  1.
    10030    2    1    2    0    0  0.00000000000E+00  0.00000000000E+00  0.51603845264E+02  0.27001718962E+04  0.26996787424E+04 0.  0.
        3    1    3    3  502    0  0.69766042778E+03 -0.11901063189E+00 -0.11299766595E+04  0.13279974954E+04  0.10100000352E+00 0.  1.
       -3    1    3    3    0  502 -0.69766042778E+03  0.11901063189E+00  0.11815805048E+04  0.13721744008E+04  0.10100000352E+00 0. -1.
</event>
<event>
 5   0  0.4846214E-06  0.2687595E+04  0.7818609E-02  0.8339041E-01
        1   -1    0    0  501    0  0.00000000000E+00  0.00000000000E+00  0.18679585701E+04  0.18679585701E+04  0.50400001928E-02 0. -1.
       -1   -1    0    0    0  501  0.00000000000E+00  0.00000000000E+00 -0.96671968739E+03  0.96671968740E+03  0.50400001928E-02 0.  1.
    10030    2    1    2    0    0  0.00000000000E+00  0.00000000000E+00  0.90123888271E+03  0.28346782575E+04  0.26875954494E+04 0.  0.
        2    1    3    3  502    0  0.83664490655E+03  0.82244906781E+03  0.11417632884E+04  0.16370768386E+04  0.25500000920E-02 0. -1.
       -2    1    3    3    0  502 -0.83664490655E+03 -0.82244906781E+03 -0.24052440569E+03  0.11976014189E+04  0.25500000920E-02 0.  1.
</event>
<event>
 5   0  0.1286641E-05  0.2675008E+04  0.7818609E-02  0.8343160E-01
       -2   -1    0    0    0  501  0.00000000000E+00  0.00000000000E+00  0.11304852703E+04  0.11304852703E+04  0.25500000920E-02 0. -1.
        2   -1    0    0  501    0  0.00000000000E+00  0.00000000000E+00 -0.15824327225E+04  0.15824327225E+04  0.25500000920E-02 0.  1.
    10030    2    1    2    0    0  0.00000000000E+00  0.00000000000E+00 -0.45194745218E+03  0.27129179927E+04  0.26750079506E+04 0.  0.
        4    1    3    3  502    0 -0.36839749857E+03  0.21895288235E+03 -0.15109172381E+04  0.15705188935E+04  0.12699999809E+01 0.  1.
       -4    1    3    3    0  502  0.36839749857E+03 -0.21895288235E+03  0.10589697859E+04  0.11423990992E+04  0.12699999809E+01 0. -1.
</event>
<event>
 5   0  0.5152288E-06  0.2726930E+04  0.7818609E-02  0.8326320E-01
       -1   -1    0    0    0  501  0.00000000000E+00  0.00000000000E+00  0.18088876642E+04  0.18088876642E+04  0.50400001928E-02 0. -1.
        1   -1    0    0  501    0  0.00000000000E+00  0.00000000000E+00 -0.10277239087E+04  0.10277239087E+04  0.50400001928E-02 0.  1.
    10030    2    1    2    0    0  0.00000000000E+00  0.00000000000E+00  0.78116375549E+03  0.28366115729E+04  0.27269302159E+04 0.  0.
        3    1    3    3  502    0  0.78319520749E+03  0.39709304474E+03 -0.69442428479E+03  0.11195100342E+04  0.10100000352E+00 0.  1.
       -3    1    3    3    0  502 -0.78319520749E+03 -0.39709304474E+03  0.14755880403E+04  0.17171015386E+04  0.10100000352E+00 0. -1.
</event>
<event>
 5   0  0.1232559E-05  0.2704073E+04  0.7818609E-02  0.8333685E-01
       -2   -1    0    0    0  501  0.00000000000E+00  0.00000000000E+00  0.10583242311E+04  0.10583242311E+04  0.25500000920E-02 0.  1.
        2   -1    0    0  501    0  0.00000000000E+00  0.00000000000E+00 -0.17272611965E+04  0.17272611965E+04  0.25500000920E-02 0. -1.
    10030    2    1    2    0    0  0.00000000000E+00  0.00000000000E+00 -0.66893696539E+03  0.27855854276E+04  0.27040727636E+04 0.  0.
        3    1    3    3  502    0 -0.12436226256E+04 -0.70981476553E+02  0.20708457659E+03  0.12627429022E+04  0.10100000352E+00 0.  1.
       -3    1    3    3    0  502  0.12436226256E+04  0.70981476553E+02 -0.87602154198E+03  0.15228425254E+04  0.10100000352E+00 0. -1.
</event>
<event>
 5   0  0.4756800E-06  0.2713784E+04  0.7818609E-02  0.8330546E-01
        1   -1    0    0  501    0  0.00000000000E+00  0.00000000000E+00  0.10800546061E+04  0.10800546061E+04  0.50400001928E-02 0.  1.
       -1   -1    0    0    0  501  0.00000000000E+00  0.00000000000E+00 -0.17046874056E+04  0.17046874056E+04  0.50400001928E-02 0. -1.
    10030    2    1    2    0    0  0.00000000000E+00  0.00000000000E+00 -0.62463279957E+03  0.27847420117E+04  0.27137836940E+04 0.  0.
        4    1    3    3  502    0  0.57414079821E+03  0.12243080650E+04 -0.19719575554E+03  0.13665488184E+04  0.12699999809E+01 0.  1.
       -4    1    3    3    0  502 -0.57414079821E+03 -0.12243080650E+04 -0.42743704403E+03  0.14181931933E+04  0.12699999809E+01 0. -1.
</event>
<event>
 5   0  0.1276517E-05  0.2691312E+04  0.7818609E-02  0.8337829E-01
       -2   -1    0    0    0  501  0.00000000000E+00  0.00000000000E+00  0.99597469393E+03  0.99597469394E+03  0.25500000920E-02 0. -1.
        2   -1    0    0  501    0  0.00000000000E+00  0.00000000000E+00 -0.18181084496E+04  0.18181084496E+04  0.25500000920E-02 0.  1.
    10030    2    1    2    0    0  0.00000000000E+00  0.00000000000E+00 -0.82213375566E+03  0.28140831435E+04  0.26913119527E+04 0.  0.
        1    1    3    3  502    0  0.90066332820E+03  0.74328596999E+03 -0.11102415413E+04  0.16113052920E+04  0.50400001928E-02 0.  1.
       -1    1    3    3    0  502 -0.90066332820E+03 -0.74328596999E+03  0.28810778566E+03  0.12027778515E+04  0.50400001928E-02 0. -1.
</event>
<event>
 5   0  0.4824715E-06  0.2833906E+04  0.7818609E-02  0.8292819E-01
       -1   -1    0    0    0  501  0.00000000000E+00  0.00000000000E+00  0.11993022040E+04  0.11993022040E+04  0.50400001928E-02 0. -1.
        1   -1    0    0  501    0  0.00000000000E+00  0.00000000000E+00 -0.16741030828E+04  0.16741030828E+04  0.50400001928E-02 0.  1.
    10030    2    1    2    0    0  0.00000000000E+00  0.00000000000E+00 -0.47480087880E+03  0.28734052869E+04  0.28339057973E+04 0.  0.
        5    1    3    3  502    0  0.89379399985E+03 -0.10309398531E+04 -0.62486379398E+03  0.15007270058E+04  0.46999998093E+01 0. -1.
       -5    1    3    3    0  502 -0.89379399985E+03  0.10309398531E+04  0.15006291518E+03  0.13726782811E+04  0.46999998093E+01 0.  1.
</event>
<event>
 5   0  0.4756800E-06  0.2697887E+04  0.7818609E-02  0.8335691E-01
        1   -1    0    0  501    0  0.00000000000E+00  0.00000000000E+00  0.14905485400E+04  0.14905485400E+04  0.50400001928E-02 0. -1.
       -1   -1    0    0    0  501  0.00000000000E+00  0.00000000000E+00 -0.12207909491E+04  0.12207909491E+04  0.50400001928E-02 0.  1.
    10030    2    1    2    0    0  0.00000000000E+00  0.00000000000E+00  0.26975759095E+03  0.27113394891E+04  0.26978867040E+04 0.  0.
        4    1    3    3  502    0  0.91952950478E+03 -0.77585454980E+03  0.74797138358E+03  0.14166677790E+04  0.12699999809E+01 0.  1.
       -4    1    3    3    0  502 -0.91952950478E+03  0.77585454980E+03 -0.47821379263E+03  0.12946717101E+04  0.12699999809E+01 0. -1.
</event>
<event>
 5   0  0.1232559E-05  0.2699797E+04  0.7818609E-02  0.8335071E-01
       -2   -1    0    0    0  501  0.00000000000E+00  0.00000000000E+00  0.88095674323E+03  0.88095674323E+03  0.25500000920E-02 0. -1.
        2   -1    0    0  501    0  0.00000000000E+00  0.00000000000E+00 -0.20684621893E+04  0.20684621893E+04  0.25500000920E-02 0.  1.
    10030    2    1    2    0    0  0.00000000000E+00  0.00000000000E+00 -0.11875054461E+04  0.29494189326E+04  0.26997968174E+04 0.  0.
        3    1    3    3  502    0 -0.16030201241E+03 -0.44116480026E+03 -0.19764383045E+04  0.20314112085E+04  0.10100000352E+00 0.  1.
       -3    1    3    3    0  502  0.16030201241E+03  0.44116480026E+03  0.78893285842E+03  0.91800772408E+03  0.10100000352E+00 0. -1.
</event>
<event>
 5   0  0.4824715E-06  0.2556026E+04  0.7818609E-02  0.8383293E-01
       -1   -1    0    0    0  501  0.00000000000E+00  0.00000000000E+00  0.10155069509E+04  0.10155069509E+04  0.50400001928E-02 0.  1.
        1   -1    0    0  501    0  0.00000000000E+00  0.00000000000E+00 -0.16083764271E+04  0.16083764271E+04  0.50400001928E-02 0. -1.
    10030    2    1    2    0    0  0.00000000000E+00  0.00000000000E+00 -0.59286947624E+03  0.26238833780E+04  0.25560261669E+04 0.  0.
        5    1    3    3  502    0  0.57699612114E+03 -0.11363920717E+04 -0.19913506715E+03  0.12899567161E+04  0.46999998093E+01 0. -1.
       -5    1    3    3    0  502 -0.57699612114E+03  0.11363920717E+04 -0.39373440909E+03  0.13339266619E+04  0.46999998093E+01 0.  1.
</event>
<event>
 5   0  0.5152288E-06  0.2700618E+04  0.7818609E-02  0.8334804E-01
        1   -1    0    0  501    0  0.00000000000E+00  0.00000000000E+00  0.19207832220E+04  0.19207832220E+04  0.50400001928E-02 0. -1.
       -1   -1    0    0    0  501  0.00000000000E+00  0.00000000000E+00 -0.94926616119E+03  0.94926616121E+03  0.50400001928E-02 0.  1.
    10030    2    1    2    0    0  0.00000000000E+00  0.00000000000E+00  0.97151706084E+03  0.28700493832E+04  0.27006180890E+04 0.  0.
        3    1    3    3  502    0  0.15569107806E+03  0.51127795431E+02 -0.93865955843E+03  0.95285651600E+03  0.10100000352E+00 0.  1.
       -3    1    3    3    0  502 -0.15569107806E+03 -0.51127795431E+02  0.19101766193E+04  0.19171928673E+04  0.10100000352E+00 0. -1.
</event>
<event>
 5   0  0.4846214E-06  0.2742886E+04  0.7818609E-02  0.8321223E-01
        1   -1    0    0  501    0  0.00000000000E+00  0.00000000000E+00  0.14265087756E+04  0.14265087756E+04  0.50400001928E-02 0. -1.
       -1   -1    0    0    0  501  0.00000000000E+00  0.00000000000E+00 -0.13185030902E+04  0.13185030902E+04  0.50400001928E-02 0.  1.
    10030    2    1    2    0    0  0.00000000000E+00  0.00000000000E+00  0.10800568536E+03  0.27450118658E+04  0.27428862382E+04 0.  0.
        2    1    3    3  502    0 -0.65776687873E+02 -0.81001907365E+03  0.11595755496E+04  0.14160059773E+04  0.25500000920E-02 0. -1.
       -2    1    3    3    0  502  0.65776687873E+02  0.81001907365E+03 -0.10515698643E+04  0.13290058886E+04  0.25500000920E-02 0.  1.
</event>
<event>
 5   0  0.1220908E-05  0.2684667E+04  0.7818609E-02  0.8339997E-01
       -2   -1    0    0    0  501  0.00000000000E+00  0.00000000000E+00  0.13574038258E+04  0.13574038258E+04  0.25500000920E-02 0. -1.
        2   -1    0    0  501    0  0.00000000000E+00  0.00000000000E+00 -0.13274305726E+04  0.13274305726E+04  0.25500000920E-02 0.  1.
    10030    2    1    2    0    0  0.00000000000E+00  0.00000000000E+00  0.29973253148E+02  0.26848343984E+04  0.26846670838E+04 0.  0.
        2    1    3    3  502    0 -0.11399223190E+04  0.19895536536E+03  0.69536218530E+03  0.13500128516E+04  0.25500000920E-02 0. -1.
       -2    1    3    3    0  502  0.11399223190E+04 -0.19895536536E+03 -0.66538893215E+03  0.13348215468E+04  0.25500000920E-02 0.  1.
</event>
<event>
 5   0  0.4756800E-06  0.2722147E+04  0.7818609E-02  0.8327855E-01
        1   -1    0    0  501    0  0.00000000000E+00  0.00000000000E+00  0.19529885210E+04  0.19529885210E+04  0.50400001928E-02 0.  1.
       -1   -1    0    0    0  501  0.00000000000E+00  0.00000000000E+00 -0.94855708499E+03  0.94855708500E+03  0.50400001928E-02 0. -1.
    10030    2    1    2    0    0  0.00000000000E+00  0.00000000000E+00  0.10044314360E+04  0.29015456060E+04  0.27221470192E+04 0.  0.
        4    1    3    3  502    0 -0.10521031129E+04  0.24188706524E+03 -0.38132054015E+03  0.11449180232E+04  0.12699999809E+01 0. -1.
       -4    1    3    3    0  502  0.10521031129E+04 -0.24188706524E+03  0.13857519761E+04  0.17566275828E+04  0.12699999809E+01 0.  1.
</event>
<event>
 5   0  0.4846214E-06  0.2751440E+04  0.7818609E-02  0.8318505E-01
       -1   -1    0    0    0  501  0.00000000000E+00  0.00000000000E+00  0.86072114448E+03  0.86072114449E+03  0.50400001928E-02 0.  1.
        1   -1    0    0  501    0  0.00000000000E+00  0.00000000000E+00 -0.21988600402E+04  0.21988600402E+04  0.50400001928E-02 0. -1.
    10030    2    1    2    0    0  0.00000000000E+00  0.00000000000E+00 -0.13381388957E+04  0.30595811847E+04  0.27514398633E+04 0.  0.
        2    1    3    3  502    0  0.12981413963E+04 -0.47304347921E+01 -0.11754986711E+04  0.17512825550E+04  0.25500000920E-02 0.  1.
       -2    1    3    3    0  502 -0.12981413963E+04  0.47304347921E+01 -0.16264022459E+03  0.13082986297E+04  0.25500000920E-02 0. -1.
</event>
<event>
 5   0  0.5152288E-06  0.2682824E+04  0.7818609E-02  0.8340600E-01
       -1   -1    0    0    0  501  0.00000000000E+00  0.00000000000E+00  0.87186505500E+03  0.87186505501E+03  0.50400001928E-02 0. -1.
        1   -1    0    0  501    0  0.00000000000E+00  0.00000000000E+00 -0.20638349665E+04  0.20638349665E+04  0.50400001928E-02 0.  1.
    10030    2    1    2    0    0  0.00000000000E+00  0.00000000000E+00 -0.11919699115E+04  0.29357000215E+04  0.26828235772E+04 0.  0.
        3    1    3    3  502    0  0.62464198488E+03 -0.11374572240E+04 -0.22426092107E+03  0.13169204670E+04  0.10100000352E+00 0. -1.
       -3    1    3    3    0  502 -0.62464198488E+03  0.11374572240E+04 -0.96770899044E+03  0.16187795545E+04  0.10100000352E+00 0.  1.
</event>
<event>
 5   0  0.1276517E-05  0.2692008E+04  0.7818609E-02  0.8337603E-01
       -2   -1    0    0    0  501  0.00000000000E+00  0.00000000000E+00  0.13464632199E+04  0.13464632199E+04  0.25500000920E-02 0.  1.
        2   -1    0    0  501    0  0.00000000000E+00  0.00000000000E+00 -0.13455447330E+04  0.13455447330E+04  0.25500000920E-02 0. -1.
    10030    2    1    2    0    0  0.00000000000E+00  0.00000000000E+00  0.91848689838E+00  0.26920079528E+04  0.26920077962E+04 0.  0.
        1    1    3    3  502    0  0.80582888742E+03  0.10774068402E+04 -0.39047700518E+02  0.13459904970E+04  0.50400001928E-02 0.  1.
       -1    1    3    3    0  502 -0.80582888742E+03 -0.10774068402E+04  0.39966187417E+02  0.13460174558E+04  0.50400001928E-02 0. -1.
</event>
<event>
 5   0  0.1286641E-05  0.2690843E+04  0.7818609E-02  0.8337982E-01
       -2   -1    0    0    0  501  0.00000000000E+00  0.00000000000E+00  0.78961521920E+03  0.78961521920E+03  0.25500000920E-02 0.  1.
        2   -1    0    0  501    0  0.00000000000E+00  0.00000000000E+00 -0.22924570483E+04  0.22924570483E+04  0.25500000920E-02 0. -1.
    10030    2    1    2    0    0  0.00000000000E+00  0.00000000000E+00 -0.15028418291E+04  0.30820722675E+04  0.26908429718E+04 0.  0.
        4    1    3    3  502    0 -0.36106733345E+03 -0.12954390300E+04 -0.79759974044E+03  0.15635532797E+04  0.12699999809E+01 0. -1.
       -4    1    3    3    0  502  0.36106733345E+03  0.12954390300E+04 -0.70524208868E+03  0.15185189878E+04  0.12699999809E+01 0.  1.
</event>
<event>
 5   0  0.4826140E-06  0.2662838E+04  0.7818609E-02  0.8347164E-01
        1   -1    0    0  501    0  0.00000000000E+00  0.00000000000E+00  0.11530545565E+04  0.11530545565E+04  0.50400001928E-02 0.  1.
       -1   -1    0    0    0  501  0.00000000000E+00  0.00000000000E+00 -0.15373747130E+04  0.15373747130E+04  0.50400001928E-02 0. -1.
    10030    2    1    2    0    0  0.00000000000E+00  0.00000000000E+00 -0.38432015651E+03  0.26904292695E+04  0.26628382736E+04 0.  0.
        1    1    3    3  502    0  0.80205914720E+03  0.75021335717E+03 -0.95265962880E+03  0.14538498290E+04  0.50400001928E-02 0. -1.
       -1    1    3    3    0  502 -0.80205914720E+03 -0.75021335717E+03  0.56833947229E+03  0.12365794405E+04  0.50400001928E-02 0.  1.
</event>
<event>
 5   0  0.1276517E-05  0.2704097E+04  0.7818609E-02  0.8333677E-01
       -2   -1    0    0    0  501  0.00000000000E+00  0.00000000000E+00  0.13241649128E+04  0.13241649128E+04  0.25500000920E-02 0.  1.
        2   -1    0    0  501    0  0.00000000000E+00  0.00000000000E+00 -0.13805190520E+04  0.13805190520E+04  0.25500000920E-02 0. -1.
    10030    2    1    2    0    0  0.00000000000E+00  0.00000000000E+00 -0.56354139237E+02  0.27046839647E+04  0.27040968104E+04 0.  0.
        1    1    3    3  502    0  0.73676354218E+03 -0.45918685422E+03 -0.10649163907E+04  0.13739432315E+04  0.50400001928E-02 0. -1.
       -1    1    3    3    0  502 -0.73676354218E+03  0.45918685422E+03  0.10085622514E+04  0.13307407333E+04  0.50400001928E-02 0.  1.
</event>
<event>
 5   0  0.1286641E-05  0.2691304E+04  0.7818609E-02  0.8337832E-01
        2   -1    0    0  501    0  0.00000000000E+00  0.00000000000E+00  0.17104688866E+04  0.17104688866E+04  0.25500000920E-02 0. -1.
       -2   -1    0    0    0  501  0.00000000000E+00  0.00000000000E+00 -0.10586453008E+04  0.10586453008E+04  0.25500000920E-02 0.  1.
    10030    2    1    2    0    0  0.00000000000E+00  0.00000000000E+00  0.65182358582E+03  0.27691141875E+04  0.26913044042E+04 0.  0.
        4    1    3    3  502    0 -0.27351458436E+01 -0.32299452834E+03  0.16699890332E+04  0.17009403077E+04  0.12699999809E+01 0. -1.
       -4    1    3    3    0  502  0.27351458436E+01  0.32299452834E+03 -0.10181654474E+04  0.10681738798E+04  0.12699999809E+01 0.  1.
</event>
<event>
 5   0  0.1261364E-05  0.2737798E+04  0.7818609E-02  0.8322844E-01
        2   -1    0    0  501    0  0.00000000000E+00  0.00000000000E+00  0.17326536642E+04  0.17326536642E+04  0.25500000920E-02 0.  1.
       -2   -1    0    0    0  501  0.00000000000E+00  0.00000000000E+00 -0.10815115742E+04  0.10815115742E+04  0.25500000920E-02 0. -1.
    10030    2    1    2    0    0  0.00000000000E+00  0.00000000000E+00  0.65114209000E+03  0.28141652385E+04  0.27377983797E+04 0.  0.
        5    1    3    3  502    0  0.86072316113E+02 -0.93890328661E+03 -0.69454017621E+03  0.11710490902E+04  0.46999998093E+01 0. -1.
       -5    1    3    3    0  502 -0.86072316113E+02  0.93890328661E+03  0.13456822662E+04  0.16431161483E+04  0.46999998093E+01 0.  1.
</event>
<event>
 5   0  0.1276517E-05  0.2705377E+04  0.7818609E-02  0.8333262E-01
        2   -1    0    0  501    0  0.00000000000E+00  0.00000000000E+00  0.24080757555E+04  0.24080757555E+04  0.25500000920E-02 0. -1.
       -2   -1    0    0    0  501  0.00000000000E+00  0.00000000000E+00 -0.75984575117E+03  0.75984575118E+03  0.25500000920E-02 0.  1.
    10030    2    1    2    0    0  0.00000000000E+00  0.00000000000E+00  0.16482300043E+04  0.31679215067E+04  0.27053769655E+04 0.  0.
        1    1    3    3  502    0 -0.43250351876E+02 -0.57994384614E+03 -0.60598723645E+03  0.83989641527E+03  0.50400001928E-02 0.  1.
       -1    1    3    3    0  502  0.43250351876E+02  0.57994384614E+03  0.22542172408E+04  0.23280250914E+04  0.50400001928E-02 0. -1.
</event>
<event>
 5   0  0.1261364E-05  0.2643410E+04  0.7818609E-02  0.8353604E-01
        2   -1    0    0  501    0  0.00000000000E+00  0.00000000000E+00  0.12453080064E+04  0.12453080064E+04  0.25500000920E-02 0. -1.
       -2   -1    0    0    0  501  0.00000000000E+00  0.00000000000E+00 -0.14027889441E+04  0.14027889442E+04  0.25500000920E-02 0.  1.
    10030    2    1    2    0    0  0.00000000000E+00  0.00000000000E+00 -0.15748093776E+03  0.26480969505E+04  0.26434101486E+04 0.  0.
        5    1    3    3  502    0  0.13119086884E+02 -0.13194623680E+04 -0.29150371540E+01  0.13195391766E+04  0.46999998093E+01 0.  1.
       -5    1    3    3    0  502 -0.13119086884E+02  0.13194623680E+04 -0.15456590061E+03  0.13285577740E+04  0.46999998093E+01 0. -1.
</event>
<event>
 5   0  0.1276517E-05  0.2745660E+04  0.7818609E-02  0.8320340E-01
       -2   -1    0    0    0  501  0.00000000000E+00  0.00000000000E+00  0.10208438416E+04  0.10208438416E+04  0.25500000920E-02 0.  1.
        2   -1    0    0  501    0  0.00000000000E+00  0.00000000000E+00 -0.18461808355E+04  0.18461808355E+04  0.25500000920E-02 0. -1.
    10030    2    1    2    0    0  0.00000000000E+00  0.00000000000E+00 -0.82533699393E+03  0.28670246771E+04  0.27456600928E+04 0.  0.
        1    1    3    3  502    0 -0.11043934298E+04 -0.28218579014E+03 -0.12115676798E+04  0.16634932854E+04  0.50400001928E-02 0. -1.
       -1    1    3    3    0  502  0.11043934298E+04  0.28218579014E+03  0.38623068590E+03  0.12035313916E+04  0.50400001928E-02 0.  1.
</event>
<event>
 5   0  0.4756800E-06  0.2666649E+04  0.7818609E-02  0.8345908E-01
        1   -1    0    0  501    0  0.00000000000E+00  0.00000000000E+00  0.16050376835E+04  0.16050376835E+04  0.50400001928E-02 0. -1.
       -1   -1    0    0    0  501  0.00000000000E+00  0.00000000000E+00 -0.11076091276E+04  0.11076091276E+04  0.50400001928E-02 0.  1.
    10030    2    1    2    0    0  0.00000000000E+00  0.00000000000E+00  0.49742855590E+03  0.27126468112E+04  0.26666491246E+04 0.  0.
        4    1    3    3  502    0  0.10177146704E+04  0.85585068734E+03  0.34801586587E+03  0.13745327225E+04  0.12699999809E+01 0. -1.
       -4    1    3    3    0  502 -0.10177146704E+04 -0.85585068734E+03  0.14941269002E+03  0.13381140887E+04  0.12699999809E+01 0.  1.
</event>
<event>
 5   0  0.5152288E-06  0.2719988E+04  0.7818609E-02  0.8328549E-01
       -1   -1    0    0    0  501  0.00000000000E+00  0.00000000000E+00  0.22001776777E+04  0.22001776777E+04  0.50400001928E-02 0. -1.
        1   -1    0    0  501    0  0.00000000000E+00  0.00000000000E+00 -0.84065192830E+03  0.84065192831E+03  0.50400001928E-02 0.  1.
    10030    2    1    2    0    0  0.00000000000E+00  0.00000000000E+00  0.13595257494E+04  0.30408296060E+04  0.27199879466E+04 0.  0.
        3    1    3    3  502    0 -0.47631202919E+03  0.11552034174E+04  0.12799460011E+04  0.17887509219E+04  0.10100000352E+00 0. -1.
       -3    1    3    3    0  502  0.47631202919E+03 -0.11552034174E+04  0.79579748328E+02  0.12520786841E+04  0.10100000352E+00 0.  1.
</event>
<event>
 5   0  0.1276517E-05  0.2564865E+04  0.7818609E-02  0.8380235E-01
       -2   -1    0    0    0  501  0.00000000000E+00  0.00000000000E+00  0.10603039004E+04  0.10603039004E+04  0.25500000920E-02 0.  1.
        2   -1    0    0  501    0  0.00000000000E+00  0.00000000000E+00 -0.15510954613E+04  0.15510954613E+04  0.25500000920E-02 0. -1.
    10030    2    1    2    0    0  0.00000000000E+00  0.00000000000E+00 -0.49079156088E+03  0.26113993617E+04  0.25648645715E+04 0.  0.
        1    1    3    3  502    0  0.70641560873E+03 -0.59617442352E+03 -0.11504475331E+04  0.14757968973E+04  0.50400001928E-02 0. -1.
       -1    1    3    3    0  502 -0.70641560873E+03  0.59617442352E+03  0.65965597223E+03  0.11356024644E+04  0.50400001928E-02 0.  1.
</event>
<event>
 5   0  0.4846214E-06  0.2697421E+04  0.7818609E-02  0.8335842E-01
        1   -1    0    0  501    0  0.00000000000E+00  0.00000000000E+00  0.19851453603E+04  0.19851453603E+04  0.50400001928E-02 0. -1.
       -1   -1    0    0    0  501  0.00000000000E+00  0.00000000000E+00 -0.91631562059E+03  0.91631562060E+03  0.50400001928E-02 0.  1.
    10030    2    1    2    0    0  0.00000000000E+00  0.00000000000E+00  0.10688297397E+04  0.29014609809E+04  0.26974207701E+04 0.  0.
        2    1    3    3  502    0  0.52756929374E+03  0.49411170990E+03 -0.69037521137E+03  0.99954673429E+03  0.25500000920E-02 0.  1.
       -2    1    3    3    0  502 -0.52756929374E+03 -0.49411170990E+03  0.17592049511E+04  0.19019142466E+04  0.25500000920E-02 0. -1.
</event>
<event>
 5   0  0.1220908E-05  0.2515492E+04  0.7818609E-02  0.8397487E-01
        2   -1    0    0  501    0  0.00000000000E+00  0.00000000000E+00  0.14182206184E+04  0.14182206184E+04  0.25500000920E-02 0. -1.
       -2   -1    0    0    0  501  0.00000000000E+00  0.00000000000E+00 -0.11154298493E+04  0.11154298493E+04  0.25500000920E-02 0.  1.
    10030    2    1    2    0    0  0.00000000000E+00  0.00000000000E+00  0.30279076912E+03  0.25336504676E+04  0.25154924850E+04 0.  0.
        2    1    3    3  502    0  0.83574242203E+03 -0.45684414914E+03  0.97875876391E+03  0.13657015379E+04  0.25500000920E-02 0. -1.
       -2    1    3    3    0  502 -0.83574242203E+03  0.45684414914E+03 -0.67596799479E+03  0.11679489298E+04  0.25500000920E-02 0.  1.
</event>
<event>
 5   0  0.4756800E-06  0.2665678E+04  0.7818609E-02  0.8346228E-01
       -1   -1    0    0    0  501  0.00000000000E+00  0.00000000000E+00  0.80998031107E+03  0.80998031109E+03  0.50400001928E-02 0.  1.
        1   -1    0    0  501    0  0.00000000000E+00  0.00000000000E+00 -0.21932139365E+04  0.21932139365E+04  0.50400001928E-02 0. -1.
    10030    2    1    2    0    0  0.00000000000E+00  0.00000000000E+00 -0.13832336255E+04  0.30031942476E+04  0.26656782301E+04 0.  0.
        4    1    3    3  502    0 -0.15277428694E+02  0.41247168124E+03  0.73616200807E+03  0.84398009614E+03  0.12699999809E+01 0.  1.
       -4    1    3    3    0  502  0.15277428694E+02 -0.41247168124E+03 -0.21193956335E+04  0.21592141515E+04  0.12699999809E+01 0. -1.
</event>
<event>
 5   0  0.1261364E-05  0.2686714E+04  0.7818609E-02  0.8339329E-01
       -2   -1    0    0    0  501  0.00000000000E+00  0.00000000000E+00  0.83411634978E+03  0.83411634978E+03  0.25500000920E-02 0. -1.
        2   -1    0    0  501    0  0.00000000000E+00  0.00000000000E+00 -0.21634970198E+04  0.21634970198E+04  0.25500000920E-02 0.  1.
    10030    2    1    2    0    0  0.00000000000E+00  0.00000000000E+00 -0.13293806700E+04  0.29976133696E+04  0.26867141544E+04 0.  0.
        5    1    3    3  502    0 -0.32407896016E+03 -0.11316045702E+04 -0.13869223721E+04  0.18191019301E+04  0.46999998093E+01 0.  1.
       -5    1    3    3    0  502  0.32407896016E+03  0.11316045702E+04  0.57541702108E+02  0.11785114395E+04  0.46999998093E+01 0. -1.
</event>
<event>
 5   0  0.4756800E-06  0.2760152E+04  0.7818609E-02  0.8315747E-01
       -1   -1    0    0    0  501  0.00000000000E+00  0.00000000000E+00  0.10878519698E+04  0.10878519698E+04  0.50400001928E-02 0.  1.
        1   -1    0    0  501    0  0.00000000000E+00  0.00000000000E+00 -0.17507987318E+04  0.17507987318E+04  0.50400001928E-02 0. -1.
    10030    2    1    2    0    0  0.00000000000E+00  0.00000000000E+00 -0.66294676201E+03  0.28386507016E+04  0.27601520604E+04 0.  0.
        4    1    3    3  502    0  0.12506083535E+04 -0.25437553829E+03  0.20870737578E+03  0.12931699618E+04  0.12699999809E+01 0.  1.
       -4    1    3    3    0  502 -0.12506083535E+04  0.25437553829E+03 -0.87165413779E+03  0.15454807398E+04  0.12699999809E+01 0. -1.
</event>
<event>
 5   0  0.1276517E-05  0.2673483E+04  0.7818609E-02  0.8343660E-01
        2   -1    0    0  501    0  0.00000000000E+00  0.00000000000E+00  0.84402680878E+03  0.84402680878E+03  0.25500000920E-02 0.  1.
       -2   -1    0    0    0  501  0.00000000000E+00  0.00000000000E+00 -0.21170870071E+04  0.21170870071E+04  0.25500000920E-02 0. -1.
    10030    2    1    2    0    0  0.00000000000E+00  0.00000000000E+00 -0.12730601983E+04  0.29611138159E+04  0.26734832639E+04 0.  0.
        1    1    3    3  502    0  0.51357229239E+03 -0.12002628137E+04 -0.95464247885E+03  0.16173217317E+04  0.50400001928E-02 0. -1.
       -1    1    3    3    0  502 -0.51357229239E+03  0.12002628137E+04 -0.31841771949E+03  0.13437920842E+04  0.50400001928E-02 0.  1.
</event>
<event>
 5   0  0.4846214E-06  0.2690794E+04  0.7818609E-02  0.8337998E-01
        1   -1    0    0  501    0  0.00000000000E+00  0.00000000000E+00  0.14873120991E+04  0.14873120991E+04  0.50400001928E-02 0.  1.
       -1   -1    0    0    0  501  0.00000000000E+00  0.00000000000E+00 -0.12170230297E+04  0.12170230297E+04  0.50400001928E-02 0. -1.
    10030    2    1    2    0    0  0.00000000000E+00  0.00000000000E+00  0.27028906938E+03  0.27043351288E+04  0.26907939920E+04 0.  0.
        2    1    3    3  502    0 -0.27203062397E+03  0.30733076521E+03 -0.11525683813E+04  0.12234650519E+04  0.25500000920E-02 0. -1.
       -2    1    3    3    0  502  0.27203062397E+03 -0.30733076521E+03  0.14228574507E+04  0.14808700769E+04  0.25500000920E-02 0.  1.
</event>
<event>
 5   0  0.4846214E-06  0.2686660E+04  0.7818609E-02  0.8339346E-01
       -1   -1    0    0    0  501  0.00000000000E+00  0.00000000000E+00  0.94177388687E+03  0.94177388689E+03  0.50400001928E-02 0.  1.
        1   -1    0    0  501    0  0.00000000000E+00  0.00000000000E+00 -0.19161019972E+04  0.19161019973E+04  0.50400001928E-02 0. -1.
    10030    2    1    2    0    0  0.00000000000E+00  0.00000000000E+00 -0.97432811038E+03  0.28578758841E+04  0.26866595062E+04 0.  0.
        2    1    3    3  502    0 -0.88337950103E+03 -0.51891871945E+03 -0.14113835280E+04  0.17440296567E+04  0.25500000920E-02 0. -1.
       -2    1    3    3    0  502  0.88337950103E+03  0.51891871945E+03  0.43705541767E+03  0.11138462274E+04  0.25500000920E-02 0.  1.
</event>
<event>
 5   0  0.4824715E-06  0.2659636E+04  0.7818609E-02  0.8348222E-01
       -1   -1    0    0    0  501  0.00000000000E+00  0.00000000000E+00  0.63245662796E+03  0.63245662799E+03  0.50400001928E-02 0. -1.
        1   -1    0    0  501    0  0.00000000000E+00  0.00000000000E+00 -0.27961066000E+04  0.27961066000E+04  0.50400001928E-02 0.  1.
    10030    2    1    2    0    0  0.00000000000E+00  0.00000000000E+00 -0.21636499721E+04  0.34285632280E+04  0.26596361794E+04 0.  0.
        5    1    3    3  502    0  0.34176013744E+03  0.69240700646E+03 -0.24775009634E+04  0.25950453884E+04  0.46999998093E+01 0.  1.
       -5    1    3    3    0  502 -0.34176013744E+03 -0.69240700646E+03  0.31385099137E+03  0.83351783960E+03  0.46999998093E+01 0. -1.
</event>
<event>
 5   0  0.4824715E-06  0.2597520E+04  0.7818609E-02  0.8369044E-01
       -1   -1    0    0    0  501  0.00000000000E+00  0.00000000000E+00  0.67896433554E+03  0.67896433556E+03  0.50400001928E-02 0. -1.
        1   -1    0    0  501    0  0.00000000000E+00  0.00000000000E+00 -0.24843387617E+04  0.24843387617E+04  0.50400001928E-02 0.  1.
    10030    2    1    2    0    0  0.00000000000E+00  0.00000000000E+00 -0.18053744261E+04  0.31633030972E+04  0.25975199069E+04 0.  0.
        5    1    3    3  502    0 -0.32871301034E+02  0.12640252476E+04 -0.12637754634E+04  0.17877334424E+04  0.46999998093E+01 0. -1.
       -5    1    3    3    0  502  0.32871301034E+02 -0.12640252476E+04 -0.54159896273E+03  0.13755696549E+04  0.46999998093E+01 0.  1.
</event>
<event>
 5   0  0.4756800E-06  0.2543378E+04  0.7818609E-02  0.8387693E-01
       -1   -1    0    0    0  501  0.00000000000E+00  0.00000000000E+00  0.12106507160E+04  0.12106507160E+04  0.50400001928E-02 0.  1.
        1   -1    0    0  501    0  0.00000000000E+00  0.00000000000E+00 -0.13358050942E+04  0.13358050943E+04  0.50400001928E-02 0. -1.
    10030    2    1    2    0    0  0.00000000000E+00  0.00000000000E+00 -0.12515437827E+03  0.25464558102E+04  0.25433783783E+04 0.  0.
        4    1    3    3  502    0  0.11693434893E+04  0.49214533341E+03 -0.14997860993E+03  0.12775235502E+04  0.12699999809E+01 0. -1.
       -4    1    3    3    0  502 -0.11693434893E+04 -0.49214533341E+03  0.24824231659E+02  0.12689322600E+04  0.12699999809E+01 0.  1.
</event>
<event>
 5   0  0.1286641E-05  0.2412235E+04  0.7818609E-02  0.8434937E-01
        2   -1    0    0  501    0  0.00000000000E+00  0.00000000000E+00  0.90713487930E+03  0.90713487930E+03  0.25500000920E-02 0. -1.
       -2   -1    0    0    0  501  0.00000000000E+00  0.00000000000E+00 -0.16036419069E+04  0.16036419069E+04  0.25500000920E-02 0.  1.
    10030    2    1    2    0    0  0.00000000000E+00  0.00000000000E+00 -0.69650702758E+03  0.25107767862E+04  0.24122350695E+04 0.  0.
        4    1    3    3  502    0  0.48944429836E+03 -0.32320074159E+03  0.74869827043E+03  0.95108630187E+03  0.12699999809E+01 0. -1.
       -4    1    3    3    0  502 -0.48944429836E+03  0.32320074159E+03 -0.14452052980E+04  0.15596904843E+04  0.12699999809E+01 0.  1.
</event>
<event>
 5   0  0.1276517E-05  0.2690761E+04  0.7818609E-02  0.8338009E-01
       -2   -1    0    0    0  501  0.00000000000E+00  0.00000000000E+00  0.86646711156E+03  0.86646711157E+03  0.25500000920E-02 0. -1.
        2   -1    0    0  501    0  0.00000000000E+00  0.00000000000E+00 -0.20889980974E+04  0.20889980974E+04  0.25500000920E-02 0.  1.
    10030    2    1    2    0    0  0.00000000000E+00  0.00000000000E+00 -0.12225309858E+04  0.29554652090E+04  0.26907605970E+04 0.  0.
        1    1    3    3  502    0  0.11885399492E+04 -0.59487778256E+02 -0.13006062184E+04  0.17628790492E+04  0.50400001928E-02 0.  1.
       -1    1    3    3    0  502 -0.11885399492E+04  0.59487778256E+02  0.78075232548E+02  0.11925861598E+04  0.50400001928E-02 0. -1.
</event>
<event>
 5   0  0.1261364E-05  0.2688426E+04  0.7818609E-02  0.8338770E-01
       -2   -1    0    0    0  501  0.00000000000E+00  0.00000000000E+00  0.76112462388E+03  0.76112462388E+03  0.25500000920E-02 0. -1.
        2   -1    0    0  501    0  0.00000000000E+00  0.00000000000E+00 -0.23739984054E+04  0.23739984054E+04  0.25500000920E-02 0.  1.
    10030    2    1    2    0    0  0.00000000000E+00  0.00000000000E+00 -0.16128737815E+04  0.31351230293E+04  0.26884260402E+04 0.  0.
        5    1    3    3  502    0 -0.73695816822E+03 -0.22364086592E+03  0.47832787131E+03  0.90661029174E+03  0.46999998093E+01 0. -1.
       -5    1    3    3    0  502  0.73695816822E+03  0.22364086592E+03 -0.20912016528E+04  0.22285127376E+04  0.46999998093E+01 0.  1.
</event>
<event>
 5   0  0.1220908E-05  0.2702764E+04  0.7818609E-02  0.8334109E-01
        2   -1    0    0  501    0  0.00000000000E+00  0.00000000000E+00  0.12686753563E+04  0.12686753563E+04  0.25500000920E-02 0.  1.
       -2   -1    0    0    0  501  0.00000000000E+00  0.00000000000E+00 -0.14394799269E+04  0.14394799269E+04  0.25500000920E-02 0. -1.
    10030    2    1    2    0    0  0.00000000000E+00  0.00000000000E+00 -0.17080457056E+03  0.27081552832E+04  0.27027635554E+04 0.  0.
        2    1    3    3  502    0  0.13473885279E+03  0.11177095077E+04  0.66362063771E+03  0.13068364293E+04  0.25500000920E-02 0.  1.
       -2    1    3    3    0  502 -0.13473885279E+03 -0.11177095077E+04 -0.83442520827E+03  0.14013188539E+04  0.25500000920E-02 0. -1.
</event>
<event>
 5   0  0.4846214E-06  0.2734359E+04  0.7818609E-02  0.8323942E-01
       -1   -1    0    0    0  501  0.00000000000E+00  0.00000000000E+00  0.17549435527E+04  0.17549435527E+04  0.50400001928E-02 0.  1.
        1   -1    0    0  501    0  0.00000000000E+00  0.00000000000E+00 -0.10650940534E+04  0.10650940534E+04  0.50400001928E-02 0. -1.
    10030    2    1    2    0    0  0.00000000000E+00  0.00000000000E+00  0.68984949930E+03  0.28200376061E+04  0.27343591147E+04 0.  0.
        2    1    3    3  502    0  0.13070128893E+03 -0.10916312546E+04 -0.49321315084E+03  0.12049899731E+04  0.25500000920E-02 0. -1.
       -2    1    3    3    0  502 -0.13070128893E+03  0.10916312546E+04  0.11830626501E+04  0.16150476331E+04  0.25500000920E-02 0.  1.
</event>
<event>
 5   0  0.4826140E-06  0.2695515E+04  0.7818609E-02  0.8336462E-01
       -1   -1    0    0    0  501  0.00000000000E+00  0.00000000000E+00  0.10226295295E+04  0.10226295295E+04  0.50400001928E-02 0. -1.
        1   -1    0    0  501    0  0.00000000000E+00  0.00000000000E+00 -0.17762540903E+04  0.17762540904E+04  0.50400001928E-02 0.  1.
    10030    2    1    2    0    0  0.00000000000E+00  0.00000000000E+00 -0.75362456088E+03  0.27988836198E+04  0.26955147076E+04 0.  0.
        1    1    3    3  502    0  0.12267248602E+04 -0.44271651949E+03 -0.72984784253E+03  0.14944998068E+04  0.50400001928E-02 0.  1.
       -1    1    3    3    0  502 -0.12267248602E+04  0.44271651949E+03 -0.23776718343E+02  0.13043838130E+04  0.50400001928E-02 0. -1.
</event>
<event>
 5   0  0.1261364E-05  0.2626659E+04  0.7818609E-02  0.8359202E-01
        2   -1    0    0  501    0  0.00000000000E+00  0.00000000000E+00  0.21052331476E+04  0.21052331476E+04  0.25500000920E-02 0. -1.
       -2   -1    0    0    0  501  0.00000000000E+00  0.00000000000E+00 -0.81930816328E+03  0.81930816328E+03  0.25500000920E-02 0.  1.
    10030    2    1    2    0    0  0.00000000000E+00  0.00000000000E+00  0.12859249844E+04  0.29245413109E+04  0.26266592497E+04 0.  0.
        5    1    3    3  502    0 -0.74027721383E+03  0.28754908236E+03  0.18075873698E+04  0.19743578747E+04  0.46999998093E+01 0. -1.
       -5    1    3    3    0  502  0.74027721383E+03 -0.28754908236E+03 -0.52166238542E+03  0.95018343620E+03  0.46999998093E+01 0.  1.
</event>
<event>
 5   0  0.1276517E-05  0.2537801E+04  0.7818609E-02  0.8389641E-01
       -2   -1    0    0    0  501  0.00000000000E+00  0.00000000000E+00  0.10802340728E+04  0.10802340728E+04  0.25500000920E-02 0.  1.
        2   -1    0    0  501    0  0.00000000000E+00  0.00000000000E+00 -0.14905182456E+04  0.14905182456E+04  0.25500000920E-02 0. -1.
    10030    2    1    2    0    0  0.00000000000E+00  0.00000000000E+00 -0.41028417283E+03  0.25707523184E+04  0.25378010915E+04 0.  0.
        1    1    3    3  502    0  0.51572927352E+03 -0.13256242975E+03  0.96157607998E+03  0.10991715239E+04  0.50400001928E-02 0.  1.
       -1    1    3    3    0  502 -0.51572927352E+03  0.13256242975E+03 -0.13718602528E+04  0.14715807945E+04  0.50400001928E-02 0. -1.
</event>
<event>
 5   0  0.4824715E-06  0.2697750E+04  0.7818609E-02  0.8335735E-01
       -1   -1    0    0    0  501  0.00000000000E+00  0.00000000000E+00  0.15345403322E+04  0.15345403322E+04  0.50400001928E-02 0.  1.
        1   -1    0    0  501    0  0.00000000000E+00  0.00000000000E+00 -0.11856737476E+04  0.11856737477E+04  0.50400001928E-02 0. -1.
    10030    2    1    2    0    0  0.00000000000E+00  0.00000000000E+00  0.34886658453E+03  0.27202140798E+04  0.26977503121E+04 0.  0.
        5    1    3    3  502    0  0.12618837529E+04  0.36987630811E+03 -0.12853999668E+03  0.13212508126E+04  0.46999998093E+01 0. -1.
       -5    1    3    3    0  502 -0.12618837529E+04 -0.36987630811E+03  0.47740658122E+03  0.13989632672E+04  0.46999998093E+01 0.  1.
</event>
<event>
 5   0  0.5152288E-06  0.2671514E+04  0.7818609E-02  0.8344307E-01
       -1   -1    0    0    0  501  0.00000000000E+00  0.00000000000E+00  0.10042898369E+04  0.10042898369E+04  0.50400001928E-02 0.  1.
        1   -1    0    0  501    0  0.00000000000E+00  0.00000000000E+00 -0.17766251979E+04  0.17766251979E+04  0.50400001928E-02 0. -1.
    10030    2    1    2    0    0  0.00000000000E+00  0.00000000000E+00 -0.77233536097E+03  0.27809150348E+04  0.26715139006E+04 0.  0.
        3    1    3    3  502    0 -0.25791904985E+03 -0.10787136526E+03  0.97349449281E+03  0.10128425373E+04  0.10100000352E+00 0.  1.
       -3    1    3    3    0  502  0.25791904985E+03  0.10787136526E+03 -0.17458298538E+04  0.17680724975E+04  0.10100000352E+00 0. -1.
</event>
<event>
 5   0  0.1261364E-05  0.2708424E+04  0.7818609E-02  0.8332277E-01
       -2   -1    0    0    0  501  0.00000000000E+00  0.00000000000E+00  0.16286752580E+04  0.16286752580E+04  0.25500000920E-02 0. -1.
        2   -1    0    0  501    0  0.00000000000E+00  0.00000000000E+00 -0.11260013846E+04  0.11260013846E+04  0.25500000920E-02 0.  1.
    10030    2    1    2    0    0  0.00000000000E+00  0.00000000000E+00  0.50267387338E+03  0.27546766426E+04  0.27084243357E+04 0.  0.
        5    1    3    3  502    0  0.40406595736E+03 -0.59889957543E+03 -0.91361323145E+03  0.11647580118E+04  0.46999998093E+01 0.  1.
       -5    1    3    3    0  502 -0.40406595736E+03  0.59889957543E+03  0.14162871048E+04  0.15899186308E+04  0.46999998093E+01 0. -1.
</event>
<event>
 5   0  0.5152288E-06  0.2830673E+04  0.7818609E-02  0.8293809E-01
       -1   -1    0    0    0  501  0.00000000000E+00  0.00000000000E+00  0.21255670404E+04  0.21255670405E+04  0.50400001928E-02 0. -1.
        1   -1    0    0  501    0  0.00000000000E+00  0.00000000000E+00 -0.94241995475E+03  0.94241995476E+03  0.50400001928E-02 0.  1.
    10030    2    1    2    0    0  0.00000000000E+00  0.00000000000E+00  0.11831470857E+04  0.30679869952E+04  0.28306725661E+04 0.  0.
        3    1    3    3  502    0  0.48147800767E+03  0.96272853371E+03  0.15875891499E+04  0.19180997421E+04  0.10100000352E+00 0. -1.
       -3    1    3    3    0  502 -0.48147800767E+03 -0.96272853371E+03 -0.40444206418E+03  0.11498872532E+04  0.10100000352E+00 0.  1.
</event>
<event>
 5   0  0.1261364E-05  0.2801575E+04  0.7818609E-02  0.8302780E-01
        2   -1    0    0  501    0  0.00000000000E+00  0.00000000000E+00  0.11025309165E+04  0.11025309165E+04  0.25500000920E-02 0.  1.
       -2   -1    0    0    0  501  0.00000000000E+00  0.00000000000E+00 -0.17797283836E+04  0.17797283836E+04  0.25500000920E-02 0. -1.
    10030    2    1    2    0    0  0.00000000000E+00  0.00000000000E+00 -0.67719746714E+03  0.28822593001E+04  0.28015749613E+04 0.  0.
        5    1    3    3  502    0  0.36066963093E+03  0.34168479527E+03 -0.16860326609E+04  0.17577142275E+04  0.46999998093E+01 0. -1.
       -5    1    3    3    0  502 -0.36066963093E+03 -0.34168479527E+03  0.10088351938E+04  0.11245450726E+04  0.46999998093E+01 0.  1.
</event>
<event>
 5   0  0.4846214E-06  0.2691404E+04  0.7818609E-02  0.8337799E-01
       -1   -1    0    0    0  501  0.00000000000E+00  0.00000000000E+00  0.13334271092E+04  0.13334271093E+04  0.50400001928E-02 0. -1.
        1   -1    0    0  501    0  0.00000000000E+00  0.00000000000E+00 -0.13580902763E+04  0.13580902763E+04  0.50400001928E-02 0.  1.
    10030    2    1    2    0    0  0.00000000000E+00  0.00000000000E+00 -0.24663167006E+02  0.26915173855E+04  0.26914043852E+04 0.  0.
        2    1    3    3  502    0  0.12984216496E+04 -0.34522090314E+03  0.64079340721E+02  0.13450585169E+04  0.25500000920E-02 0. -1.
       -2    1    3    3    0  502 -0.12984216496E+04  0.34522090314E+03 -0.88742507726E+02  0.13464588686E+04  0.25500000920E-02 0.  1.
</event>
<event>
 5   0  0.1276517E-05  0.2726435E+04  0.7818609E-02  0.8326478E-01
        2   -1    0    0  501    0  0.00000000000E+00  0.00000000000E+00  0.21600510815E+04  0.21600510815E+04  0.25500000920E-02 0. -1.
       -2   -1    0    0    0  501  0.00000000000E+00  0.00000000000E+00 -0.86033253236E+03  0.86033253236E+03  0.25500000920E-02 0.  1.
    10030    2    1    2    0    0  0.00000000000E+00  0.00000000000E+00  0.12997185492E+04  0.30203836139E+04  0.27264351942E+04 0.  0.
        1    1    3    3  502    0 -0.12021088403E+04  0.75447261228E+02  0.13571309818E+04  0.18145419408E+04  0.50400001928E-02 0. -1.
       -1    1    3    3    0  502  0.12021088403E+04 -0.75447261228E+02 -0.57412432696E+02  0.12058416731E+04  0.50400001928E-02 0.  1.
</event>
<event>
 5   0  0.4846214E-06  0.2655621E+04  0.7818609E-02  0.8349550E-01
       -1   -1    0    0    0  501  0.00000000000E+00  0.00000000000E+00  0.12883618650E+04  0.12883618650E+04  0.50400001928E-02 0. -1.
        1   -1    0    0  501    0  0.00000000000E+00  0.00000000000E+00 -0.13684669129E+04  0.13684669129E+04  0.50400001928E-02 0.  1.
    10030    2    1    2    0    0  0.00000000000E+00  0.00000000000E+00 -0.80105047897E+02  0.26568287779E+04  0.26556208947E+04 0.  0.
        2    1    3    3  502    0 -0.72041860634E+03 -0.98795091647E+03  0.47789967460E+03  0.13127978065E+04  0.25500000920E-02 0.  1.
       -2    1    3    3    0  502  0.72041860634E+03  0.98795091647E+03 -0.55800472250E+03  0.13440309714E+04  0.25500000920E-02 0. -1.
</event>
<event>
 5   0  0.1286641E-05  0.2697975E+04  0.7818609E-02  0.8335662E-01
        2   -1    0    0  501    0  0.00000000000E+00  0.00000000000E+00  0.25129874648E+04  0.25129874648E+04  0.25500000920E-02 0.  1.
       -2   -1    0    0    0  501  0.00000000000E+00  0.00000000000E+00 -0.72414519426E+03  0.72414519426E+03  0.25500000920E-02 0. -1.
    10030    2    1    2    0    0  0.00000000000E+00  0.00000000000E+00  0.17888422705E+04  0.32371326591E+04  0.26979753860E+04 0.  0.
        4    1    3    3  502    0  0.36899809013E+02 -0.13455172514E+04  0.78718548642E+03  0.15593078184E+04  0.12699999809E+01 0. -1.
       -4    1    3    3    0  502 -0.36899809013E+02  0.13455172514E+04  0.10016567841E+04  0.16778248406E+04  0.12699999809E+01 0.  1.
</event>
<event>
 5   0  0.4756800E-06  0.2713873E+04  0.7818609E-02  0.8330518E-01
       -1   -1    0    0    0  501  0.00000000000E+00  0.00000000000E+00  0.16156046808E+04  0.16156046808E+04  0.50400001928E-02 0.  1.
        1   -1    0    0  501    0  0.00000000000E+00  0.00000000000E+00 -0.11396824306E+04  0.11396824307E+04  0.50400001928E-02 0. -1.
    10030    2    1    2    0    0  0.00000000000E+00  0.00000000000E+00  0.47592225019E+03  0.27552871115E+04  0.27138727086E+04 0.  0.
        4    1    3    3  502    0 -0.10824412206E+03 -0.46854120090E+02  0.16103896884E+04  0.16147038923E+04  0.12699999809E+01 0.  1.
       -4    1    3    3    0  502  0.10824412206E+03  0.46854120090E+02 -0.11344674382E+04  0.11405832192E+04  0.12699999809E+01 0. -1.
</event>
<event>
 5   0  0.4846214E-06  0.2684036E+04  0.7818609E-02  0.8340203E-01
        1   -1    0    0  501    0  0.00000000000E+00  0.00000000000E+00  0.28907477809E+04  0.28907477809E+04  0.50400001928E-02 0.  1.
       -1   -1    0    0    0  501  0.00000000000E+00  0.00000000000E+00 -0.62302658012E+03  0.62302658014E+03  0.50400001928E-02 0. -1.
    10030    2    1    2    0    0  0.00000000000E+00  0.00000000000E+00  0.22677212007E+04  0.35137743610E+04  0.26840362918E+04 0.  0.
        2    1    3    3  502    0  0.78528342800E+03 -0.17879929239E+03  0.25392028684E+04  0.26638675749E+04  0.25500000920E-02 0.  1.
       -2    1    3    3    0  502 -0.78528342800E+03  0.17879929239E+03 -0.27148166770E+03  0.84990678615E+03  0.25500000920E-02 0. -1.
</event>
<event>
 5   0  0.4824715E-06  0.2702339E+04  0.7818609E-02  0.8334246E-01
        1   -1    0    0  501    0  0.00000000000E+00  0.00000000000E+00  0.12512615541E+04  0.12512615541E+04  0.50400001928E-02 0.  1.
       -1   -1    0    0    0  501  0.00000000000E+00  0.00000000000E+00 -0.14590547658E+04  0.14590547658E+04  0.50400001928E-02 0. -1.
    10030    2    1    2    0    0  0.00000000000E+00  0.00000000000E+00 -0.20779321168E+03  0.27103163199E+04  0.27023390859E+04 0.  0.
        5    1    3    3  502    0 -0.26720154850E+03 -0.13201056673E+04 -0.21173798073E+03  0.13634260900E+04  0.46999998093E+01 0.  1.
       -5    1    3    3    0  502  0.26720154850E+03  0.13201056673E+04  0.39447690480E+01  0.13468902300E+04  0.46999998093E+01 0. -1.
</event>
<event>
 5   0  0.4846214E-06  0.2689553E+04  0.7818609E-02  0.8338403E-01
       -1   -1    0    0    0  501  0.00000000000E+00  0.00000000000E+00  0.12566179108E+04  0.12566179108E+04  0.50400001928E-02 0. -1.
        1   -1    0    0  501    0  0.00000000000E+00  0.00000000000E+00 -0.14391199742E+04  0.14391199742E+04  0.50400001928E-02 0.  1.
    10030    2    1    2    0    0  0.00000000000E+00  0.00000000000E+00 -0.18250206339E+03  0.26957378850E+04  0.26895530746E+04 0.  0.
        2    1    3    3  502    0  0.35830957063E+03 -0.39697129767E+02  0.12072830176E+04  0.12599578942E+04  0.25500000920E-02 0. -1.
       -2    1    3    3    0  502 -0.35830957063E+03  0.39697129767E+02 -0.13897850810E+04  0.14357799908E+04  0.25500000920E-02 0.  1.
</event>
<event>
 5   0  0.5152288E-06  0.2703942E+04  0.7818609E-02  0.8333727E-01
       -1   -1    0    0    0  501  0.00000000000E+00  0.00000000000E+00  0.12825077398E+04  0.12825077399E+04  0.50400001928E-02 0. -1.
        1   -1    0    0  501    0  0.00000000000E+00  0.00000000000E+00 -0.14251967252E+04  0.14251967252E+04  0.50400001928E-02 0.  1.
    10030    2    1    2    0    0  0.00000000000E+00  0.00000000000E+00 -0.14268898536E+03  0.27077044651E+04  0.27039421820E+04 0.  0.
        3    1    3    3  502    0  0.11815253591E+04 -0.39392892535E+03 -0.59804557626E+03  0.13816080102E+04  0.10100000352E+00 0.  1.
       -3    1    3    3    0  502 -0.11815253591E+04  0.39392892535E+03  0.45535659090E+03  0.13260964548E+04  0.10100000352E+00 0. -1.
</event>
<event>
 5   0  0.4824715E-06  0.2705507E+04  0.7818609E-02  0.8333220E-01
        1   -1    0    0  501    0  0.00000000000E+00  0.00000000000E+00  0.23236224062E+04  0.23236224062E+04  0.50400001928E-02 0.  1.
       -1   -1    0    0    0  501  0.00000000000E+00  0.00000000000E+00 -0.78753855855E+03  0.78753855856E+03  0.50400001928E-02 0. -1.
    10030    2    1    2    0    0  0.00000000000E+00  0.00000000000E+00  0.15360838477E+04  0.31111609648E+04  0.27055071543E+04 0.  0.
        5    1    3    3  502    0 -0.80780605802E+03  0.35835853837E+03  0.19457859636E+04  0.21370719631E+04  0.46999998093E+01 0.  1.
       -5    1    3    3    0  502  0.80780605802E+03 -0.35835853837E+03 -0.40970211592E+03  0.97408900167E+03  0.46999998093E+01 0. -1.
</event>
<event>
 5   0  0.4824715E-06  0.2600271E+04  0.7818609E-02  0.8368109E-01
       -1   -1    0    0    0  501  0.00000000000E+00  0.00000000000E+00  0.20081401163E+04  0.20081401163E+04  0.50400001928E-02 0. -1.
        1   -1    0    0  501    0  0.00000000000E+00  0.00000000000E+00 -0.84175021915E+03  0.84175021917E+03  0.50400001928E-02 0.  1.
    10030    2    1    2    0    0  0.00000000000E+00  0.00000000000E+00  0.11663898971E+04  0.28498903355E+04  0.26002710497E+04 0.  0.
        5    1    3    3  502    0 -0.44714605998E+03  0.80671962044E+03  0.15874504725E+04  0.18359622103E+04  0.46999998093E+01 0.  1.
       -5    1    3    3    0  502  0.44714605998E+03 -0.80671962044E+03 -0.42106057535E+03  0.10139281252E+04  0.46999998093E+01 0. -1.
</event>
<event>
 5   0  0.4824715E-06  0.2662871E+04  0.7818609E-02  0.8347154E-01
       -1   -1    0    0    0  501  0.00000000000E+00  0.00000000000E+00  0.12480678596E+04  0.12480678596E+04  0.50400001928E-02 0.  1.
        1   -1    0    0  501    0  0.00000000000E+00  0.00000000000E+00 -0.14203714563E+04  0.14203714564E+04  0.50400001928E-02 0. -1.
    10030    2    1    2    0    0  0.00000000000E+00  0.00000000000E+00 -0.17230359673E+03  0.26684393160E+04  0.26628706040E+04 0.  0.
        5    1    3    3  502    0  0.25308082205E+03 -0.13050290929E+04 -0.11517609074E+02  0.13294004593E+04  0.46999998093E+01 0.  1.
       -5    1    3    3    0  502 -0.25308082205E+03  0.13050290929E+04 -0.16078598766E+03  0.13390388567E+04  0.46999998093E+01 0. -1.
</event>
<event>
 5   0  0.1286641E-05  0.2668796E+04  0.7818609E-02  0.8345201E-01
        2   -1    0    0  501    0  0.00000000000E+00  0.00000000000E+00  0.25006094847E+04  0.25006094847E+04  0.25500000920E-02 0. -1.
       -2   -1    0    0    0  501  0.00000000000E+00  0.00000000000E+00 -0.71207342377E+03  0.71207342377E+03  0.25500000920E-02 0.  1.
    10030    2    1    2    0    0  0.00000000000E+00  0.00000000000E+00  0.17885360610E+04  0.32126829085E+04  0.26687956515E+04 0.  0.
        4    1    3    3  502    0 -0.51079766741E+03 -0.81991313470E+03  0.20024423500E+04  0.22232743383E+04  0.12699999809E+01 0. -1.
       -4    1    3    3    0  502  0.51079766741E+03  0.81991313470E+03 -0.21390628899E+03  0.98940857023E+03  0.12699999809E+01 0.  1.
</event>
<event>
 5   0  0.4756800E-06  0.2653735E+04  0.7818609E-02  0.8350174E-01
        1   -1    0    0  501    0  0.00000000000E+00  0.00000000000E+00  0.16223008682E+04  0.16223008682E+04  0.50400001928E-02 0.  1.
       -1   -1    0    0    0  501  0.00000000000E+00  0.00000000000E+00 -0.10852348022E+04  0.10852348022E+04  0.50400001928E-02 0. -1.
    10030    2    1    2    0    0  0.00000000000E+00  0.00000000000E+00  0.53706606599E+03  0.27075356704E+04  0.26537349994E+04 0.  0.
        4    1    3    3  502    0 -0.11688680517E+04  0.29257642908E+03 -0.29835933080E+03  0.12413192145E+04  0.12699999809E+01 0. -1.
       -4    1    3    3    0  502  0.11688680517E+04 -0.29257642908E+03  0.83542539679E+03  0.14662164559E+04  0.12699999809E+01 0.  1.
</event>
<event>
 5   0  0.1232559E-05  0.2705360E+04  0.7818609E-02  0.8333268E-01
       -2   -1    0    0    0  501  0.00000000000E+00  0.00000000000E+00  0.12200759304E+04  0.12200759304E+04  0.25500000920E-02 0.  1.
        2   -1    0    0  501    0  0.00000000000E+00  0.00000000000E+00 -0.14996966736E+04  0.14996966736E+04  0.25500000920E-02 0. -1.
    10030    2    1    2    0    0  0.00000000000E+00  0.00000000000E+00 -0.27962074313E+03  0.27197726040E+04  0.27053604672E+04 0.  0.
        3    1    3    3  502    0 -0.90329408409E+03 -0.64525744993E+03 -0.91687463898E+03  0.14397765427E+04  0.10100000352E+00 0. -1.
       -3    1    3    3    0  502  0.90329408409E+03  0.64525744993E+03  0.63725389586E+03  0.12799960613E+04  0.10100000352E+00 0.  1.
</event>
<event>
 5   0  0.1276517E-05  0.2731410E+04  0.7818609E-02  0.8324885E-01
       -2   -1    0    0    0  501  0.00000000000E+00  0.00000000000E+00  0.20597182007E+04  0.20597182007E+04  0.25500000920E-02 0. -1.
        2   -1    0    0  501    0  0.00000000000E+00  0.00000000000E+00 -0.90553676315E+03  0.90553676316E+03  0.25500000920E-02 0.  1.
    10030    2    1    2    0    0  0.00000000000E+00  0.00000000000E+00  0.11541814376E+04  0.29652549639E+04  0.27314102969E+04 0.  0.
        1    1    3    3  502    0 -0.97552118398E+03  0.57869861993E+03  0.14028826758E+04  0.18040547318E+04  0.50400001928E-02 0. -1.
       -1    1    3    3    0  502  0.97552118398E+03 -0.57869861993E+03 -0.24870123825E+03  0.11612002321E+04  0.50400001928E-02 0.  1.
</event>
<event>
 5   0  0.4756800E-06  0.2714195E+04  0.7818609E-02  0.8330414E-01
        1   -1    0    0  501    0  0.00000000000E+00  0.00000000000E+00  0.16105052802E+04  0.16105052802E+04  0.50400001928E-02 0.  1.
       -1   -1    0    0    0  501  0.00000000000E+00  0.00000000000E+00 -0.11435625229E+04  0.11435625229E+04  0.50400001928E-02 0. -1.
    10030    2    1    2    0    0  0.00000000000E+00  0.00000000000E+00  0.46694275732E+03  0.27540678032E+04  0.27141948946E+04 0.  0.
        4    1    3    3  502    0 -0.12630296586E+04  0.47484524357E+03  0.38047879519E+03  0.14019585052E+04  0.12699999809E+01 0.  1.
       -4    1    3    3    0  502  0.12630296586E+04 -0.47484524357E+03  0.86463962133E+02  0.13521092979E+04  0.12699999809E+01 0. -1.
</event>
<event>
 5   0  0.1276517E-05  0.2709304E+04  0.7818609E-02  0.8331992E-01
       -2   -1    0    0    0  501  0.00000000000E+00  0.00000000000E+00  0.13589672438E+04  0.13589672438E+04  0.25500000920E-02 0. -1.
        2   -1    0    0  501    0  0.00000000000E+00  0.00000000000E+00 -0.13503507355E+04  0.13503507355E+04  0.25500000920E-02 0.  1.
    10030    2    1    2    0    0  0.00000000000E+00  0.00000000000E+00  0.86165083347E+01  0.27093179793E+04  0.27093042776E+04 0.  0.
        1    1    3    3  502    0  0.96273137762E+03  0.56571428201E+03 -0.76263634106E+03  0.13522198575E+04  0.50400001928E-02 0.  1.
       -1    1    3    3    0  502 -0.96273137762E+03 -0.56571428201E+03  0.77125284940E+03  0.13570981218E+04  0.50400001928E-02 0. -1.
</event>
<event>
 5   0  0.1232559E-05  0.2713185E+04  0.7818609E-02  0.8330740E-01
        2   -1    0    0  501    0  0.00000000000E+00  0.00000000000E+00  0.17034682572E+04  0.17034682572E+04  0.25500000920E-02 0. -1.
       -2   -1    0    0    0  501  0.00000000000E+00  0.00000000000E+00 -0.10803505496E+04  0.10803505496E+04  0.25500000920E-02 0.  1.
    10030    2    1    2    0    0  0.00000000000E+00  0.00000000000E+00  0.62311770757E+03  0.27838188068E+04  0.27131847470E+04 0.  0.
        3    1    3    3  502    0 -0.96121424949E+03 -0.37831379658E+03 -0.59070265066E+03  0.11899511729E+04  0.10100000352E+00 0.  1.
       -3    1    3    3    0  502  0.96121424949E+03  0.37831379658E+03  0.12138203582E+04  0.15938676339E+04  0.10100000352E+00 0. -1.
</event>
<event>
 5   0  0.4846214E-06  0.2711233E+04  0.7818609E-02  0.8331369E-01
       -1   -1    0    0    0  501  0.00000000000E+00  0.00000000000E+00  0.13588562656E+04  0.13588562657E+04  0.50400001928E-02 0. -1.
        1   -1    0    0  501    0  0.00000000000E+00  0.00000000000E+00 -0.13523846346E+04  0.13523846346E+04  0.50400001928E-02 0.  1.
    10030    2    1    2    0    0  0.00000000000E+00  0.00000000000E+00  0.64716310412E+01  0.27112409003E+04  0.27112331765E+04 0.  0.
        2    1    3    3  502    0 -0.66992941975E+03 -0.97962703418E+03 -0.65191624799E+03  0.13540566266E+04  0.25500000920E-02 0.  1.
       -2    1    3    3    0  502  0.66992941975E+03  0.97962703418E+03  0.65838787903E+03  0.13571842737E+04  0.25500000920E-02 0. -1.
</event>
<event>
 5   0  0.1232559E-05  0.2711573E+04  0.7818609E-02  0.8331260E-01
       -2   -1    0    0    0  501  0.00000000000E+00  0.00000000000E+00  0.92109199049E+03  0.92109199050E+03  0.25500000920E-02 0. -1.
        2   -1    0    0  501    0  0.00000000000E+00  0.00000000000E+00 -0.19956277793E+04  0.19956277793E+04  0.25500000920E-02 0.  1.
    10030    2    1    2    0    0  0.00000000000E+00  0.00000000000E+00 -0.10745357888E+04  0.29167197698E+04  0.27115728008E+04 0.  0.
        3    1    3    3  502    0  0.11752670113E+04  0.30437746969E+03  0.11193182060E+03  0.12191910984E+04  0.10100000352E+00 0. -1.
       -3    1    3    3    0  502 -0.11752670113E+04 -0.30437746969E+03 -0.11864676094E+04  0.16975286714E+04  0.10100000352E+00 0.  1.
</event>
<event>
 5   0  0.4756800E-06  0.2678437E+04  0.7818609E-02  0.8342035E-01
        1   -1    0    0  501    0  0.00000000000E+00  0.00000000000E+00  0.18025739563E+04  0.18025739563E+04  0.50400001928E-02 0.  1.
       -1   -1    0    0    0  501  0.00000000000E+00  0.00000000000E+00 -0.99496965114E+03  0.99496965115E+03  0.50400001928E-02 0. -1.
    10030    2    1    2    0    0  0.00000000000E+00  0.00000000000E+00  0.80760430517E+03  0.27975436075E+04  0.26784371417E+04 0.  0.
        4    1    3    3  502    0  0.81796449792E+03  0.81609068235E+03 -0.30338476320E+03  0.11946187045E+04  0.12699999809E+01 0. -1.
       -4    1    3    3    0  502 -0.81796449792E+03 -0.81609068235E+03  0.11109890684E+04  0.16029249030E+04  0.12699999809E+01 0.  1.
</event>
<event>
 5   0  0.4846214E-06  0.2707765E+04  0.7818609E-02  0.8332490E-01
        1   -1    0    0  501    0  0.00000000000E+00  0.00000000000E+00  0.18948889193E+04  0.18948889193E+04  0.50400001928E-02 0. -1.
       -1   -1    0    0    0  501  0.00000000000E+00  0.00000000000E+00 -0.96733780210E+03  0.96733780212E+03  0.50400001928E-02 0.  1.
    10030    2    1    2    0    0  0.00000000000E+00  0.00000000000E+00  0.92755111721E+03  0.28622267214E+04  0.27077648956E+04 0.  0.
        2    1    3    3  502    0  0.11644163972E+04  0.49427376054E+03 -0.46269366533E+02  0.12658250079E+04  0.25500000920E-02 0.  1.
       -2    1    3    3    0  502 -0.11644163972E+04 -0.49427376054E+03  0.97382048374E+03  0.15964017135E+04  0.25500000920E-02 0. -1.
</event>
<event>
 5   0  0.4826140E-06  0.2713565E+04  0.7818609E-02  0.8330617E-01
        1   -1    0    0  501    0  0.00000000000E+00  0.00000000000E+00  0.14658668118E+04  0.14658668118E+04  0.50400001928E-02 0.  1.
       -1   -1    0    0    0  501  0.00000000000E+00  0.00000000000E+00 -0.12558158585E+04  0.12558158585E+04  0.50400001928E-02 0. -1.
    10030    2    1    2    0    0  0.00000000000E+00  0.00000000000E+00  0.21005095335E+03  0.27216826703E+04  0.27135650268E+04 0.  0.
        1    1    3    3  502    0  0.11983029105E+04  0.36237893800E+03 -0.41961715521E+03  0.13203510582E+04  0.50400001928E-02 0.  1.
       -1    1    3    3    0  502 -0.11983029105E+04 -0.36237893800E+03  0.62966810856E+03  0.14013316121E+04  0.50400001928E-02 0. -1.
</event>
<event>
 5   0  0.1276517E-05  0.2692204E+04  0.7818609E-02  0.8337539E-01
       -2   -1    0    0    0  501  0.00000000000E+00  0.00000000000E+00  0.13185611272E+04  0.13185611272E+04  0.25500000920E-02 0. -1.
        2   -1    0    0  501    0  0.00000000000E+00  0.00000000000E+00 -0.13742181131E+04  0.13742181131E+04  0.25500000920E-02 0.  1.
    10030    2    1    2    0    0  0.00000000000E+00  0.00000000000E+00 -0.55656985896E+02  0.26927792403E+04  0.26922039925E+04 0.  0.
        1    1    3    3  502    0  0.46328996133E+03 -0.11108537122E+04  0.57509133664E+03  0.13339278855E+04  0.50400001928E-02 0. -1.
       -1    1    3    3    0  502 -0.46328996133E+03  0.11108537122E+04 -0.63074832253E+03  0.13588513548E+04  0.50400001928E-02 0.  1.
</event>
<event>
 5   0  0.4826140E-06  0.2725592E+04  0.7818609E-02  0.8326749E-01
       -1   -1    0    0    0  501  0.00000000000E+00  0.00000000000E+00  0.10472443723E+04  0.10472443723E+04  0.50400001928E-02 0. -1.
        1   -1    0    0  501    0  0.00000000000E+00  0.00000000000E+00 -0.17734288167E+04  0.17734288167E+04  0.50400001928E-02 0.  1.
    10030    2    1    2    0    0  0.00000000000E+00  0.00000000000E+00 -0.72618444432E+03  0.28206731890E+04  0.27255923011E+04 0.  0.
        1    1    3    3  502    0  0.30519759768E+03 -0.49890585545E+03  0.91076639239E+03  0.10823807314E+04  0.50400001928E-02 0. -1.
       -1    1    3    3    0  502 -0.30519759768E+03  0.49890585545E+03 -0.16369508367E+04  0.17382924576E+04  0.50400001928E-02 0.  1.
</event>
<event>
 5   0  0.4756800E-06  0.2708348E+04  0.7818609E-02  0.8332301E-01
       -1   -1    0    0    0  501  0.00000000000E+00  0.00000000000E+00  0.13520880599E+04  0.13520880599E+04  0.50400001928E-02 0. -1.
        1   -1    0    0  501    0  0.00000000000E+00  0.00000000000E+00 -0.13562636256E+04  0.13562636256E+04  0.50400001928E-02 0.  1.
    10030    2    1    2    0    0  0.00000000000E+00  0.00000000000E+00 -0.41755656843E+01  0.27083516856E+04  0.27083484668E+04 0.  0.
        4    1    3    3  502    0 -0.24892884691E+03  0.31248460147E+03 -0.12959880974E+04  0.13561706966E+04  0.12699999809E+01 0.  1.
       -4    1    3    3    0  502  0.24892884691E+03 -0.31248460147E+03  0.12918125317E+04  0.13521809889E+04  0.12699999809E+01 0. -1.
</event>
<event>
 5   0  0.1220908E-05  0.2688066E+04  0.7818609E-02  0.8338888E-01
        2   -1    0    0  501    0  0.00000000000E+00  0.00000000000E+00  0.17656509943E+04  0.17656509943E+04  0.25500000920E-02 0.  1.
       -2   -1    0    0    0  501  0.00000000000E+00  0.00000000000E+00 -0.10230926057E+04  0.10230926057E+04  0.25500000920E-02 0. -1.
    10030    2    1    2    0    0  0.00000000000E+00  0.00000000000E+00  0.74255838851E+03  0.27887436000E+04  0.26880658300E+04 0.  0.
        2    1    3    3  502    0  0.78720273236E+03  0.54759404377E+03  0.13482923382E+04  0.16545209603E+04  0.25500000920E-02 0.  1.
       -2    1    3    3    0  502 -0.78720273236E+03 -0.54759404377E+03 -0.60573394973E+03  0.11342226397E+04  0.25500000920E-02 0. -1.
</event>
<event>
 5   0  0.1220908E-05  0.2700430E+04  0.7818609E-02  0.8334865E-01
        2   -1    0    0  501    0  0.00000000000E+00  0.00000000000E+00  0.15779217532E+04  0.15779217532E+04  0.25500000920E-02 0.  1.
       -2   -1    0    0    0  501  0.00000000000E+00  0.00000000000E+00 -0.11553685615E+04  0.11553685615E+04  0.25500000920E-02 0. -1.
    10030    2    1    2    0    0  0.00000000000E+00  0.00000000000E+00  0.42255319167E+03  0.27332903147E+04  0.27004304740E+04 0.  0.
        2    1    3    3  502    0  0.38364306349E+03 -0.10480547827E+04 -0.55789169287E+03  0.12477355364E+04  0.25500000920E-02 0. -1.
       -2    1    3    3    0  502 -0.38364306349E+03  0.10480547827E+04  0.98044488453E+03  0.14855547783E+04  0.25500000920E-02 0.  1.
</event>
<event>
 5   0  0.4188000E-06  0.2688341E+04  0.7818609E-02  0.8338798E-01
        4   -1    0    0  501    0  0.00000000000E+00  0.00000000000E+00  0.18240733633E+04  0.18240738054E+04  0.12699999809E+01 0.  1.
       -4   -1    0    0    0  501  0.00000000000E+00  0.00000000000E+00 -0.99052643159E+03  0.99052724576E+03  0.12699999809E+01 0. -1.
    10030    2    1    2    0    0  0.00000000000E+00  0.00000000000E+00  0.83354693174E+03  0.28146010512E+04  0.26883412339E+04 0.  0.
        1    1    3    3  502    0 -0.95559043782E+03  0.55805410111E+03  0.12156413488E+04  0.16438860525E+04  0.50400001928E-02 0.  1.
       -1    1    3    3    0  502  0.95559043782E+03 -0.55805410111E+03 -0.38209441707E+03  0.11707149987E+04  0.50400001928E-02 0. -1.
</event>
<event>
 5   0  0.1276517E-05  0.2668178E+04  0.7818609E-02  0.8345405E-01
       -2   -1    0    0    0  501  0.00000000000E+00  0.00000000000E+00  0.11107020278E+04  0.11107020278E+04  0.25500000920E-02 0. -1.
        2   -1    0    0  501    0  0.00000000000E+00  0.00000000000E+00 -0.16024036553E+04  0.16024036553E+04  0.25500000920E-02 0.  1.
    10030    2    1    2    0    0  0.00000000000E+00  0.00000000000E+00 -0.49170162751E+03  0.27131056830E+04  0.26681776472E+04 0.  0.
        1    1    3    3  502    0 -0.92006919424E+03 -0.79167941873E+03 -0.80880602496E+03  0.14585783525E+04  0.50400001928E-02 0.  1.
       -1    1    3    3    0  502  0.92006919424E+03  0.79167941873E+03  0.31710439746E+03  0.12545273306E+04  0.50400001928E-02 0. -1.
</event>
<event>
 5   0  0.5152288E-06  0.2652053E+04  0.7818609E-02  0.8350732E-01
        1   -1    0    0  501    0  0.00000000000E+00  0.00000000000E+00  0.10464342992E+04  0.10464342993E+04  0.50400001928E-02 0. -1.
       -1   -1    0    0    0  501  0.00000000000E+00  0.00000000000E+00 -0.16803215639E+04  0.16803215639E+04  0.50400001928E-02 0.  1.
    10030    2    1    2    0    0  0.00000000000E+00  0.00000000000E+00 -0.63388726468E+03  0.27267558632E+04  0.26520528790E+04 0.  0.
        3    1    3    3  502    0  0.92815416352E+03 -0.88745805995E+03  0.22965264616E+02  0.12843595186E+04  0.10100000352E+00 0. -1.
       -3    1    3    3    0  502 -0.92815416352E+03  0.88745805995E+03 -0.65685252929E+03  0.14423963446E+04  0.10100000352E+00 0.  1.
</event>
<event>
 5   0  0.1286641E-05  0.2763622E+04  0.7818609E-02  0.8314652E-01
       -2   -1    0    0    0  501  0.00000000000E+00  0.00000000000E+00  0.96295017147E+03  0.96295017147E+03  0.25500000920E-02 0. -1.
        2   -1    0    0  501    0  0.00000000000E+00  0.00000000000E+00 -0.19828658820E+04  0.19828658820E+04  0.25500000920E-02 0.  1.
    10030    2    1    2    0    0  0.00000000000E+00  0.00000000000E+00 -0.10199157105E+04  0.29458160534E+04  0.27636215667E+04 0.  0.
        4    1    3    3  502    0 -0.11948117237E+04 -0.50365265845E+03 -0.80843138640E+00  0.12966276728E+04  0.12699999809E+01 0. -1.
       -4    1    3    3    0  502  0.11948117237E+04  0.50365265845E+03 -0.10191072791E+04  0.16491883806E+04  0.12699999809E+01 0.  1.
</event>
<event>
 5   0  0.1261364E-05  0.2688674E+04  0.7818609E-02  0.8338689E-01
        2   -1    0    0  501    0  0.00000000000E+00  0.00000000000E+00  0.17092426017E+04  0.17092426017E+04  0.25500000920E-02 0.  1.
       -2   -1    0    0    0  501  0.00000000000E+00  0.00000000000E+00 -0.10573353003E+04  0.10573353003E+04  0.25500000920E-02 0. -1.
    10030    2    1    2    0    0  0.00000000000E+00  0.00000000000E+00  0.65190730138E+03  0.27665779021E+04  0.26886744241E+04 0.  0.
        5    1    3    3  502    0  0.29093670314E+03 -0.12342702220E+04  0.78515001933E+03  0.14914924704E+04  0.46999998093E+01 0.  1.
       -5    1    3    3    0  502 -0.29093670314E+03  0.12342702220E+04 -0.13324271795E+03  0.12750854317E+04  0.46999998093E+01 0. -1.
</event>
<event>
 5   0  0.1232559E-05  0.2698221E+04  0.7818609E-02  0.8335583E-01
        2   -1    0    0  501    0  0.00000000000E+00  0.00000000000E+00  0.10368463787E+04  0.10368463787E+04  0.25500000920E-02 0.  1.
       -2   -1    0    0    0  501  0.00000000000E+00  0.00000000000E+00 -0.17554177011E+04  0.17554177011E+04  0.25500000920E-02 0. -1.
    10030    2    1    2    0    0  0.00000000000E+00  0.00000000000E+00 -0.71857132241E+03  0.27922640798E+04  0.26982205147E+04 0.  0.
        3    1    3    3  502    0 -0.94454818863E+03  0.30228733347E+03  0.58722364444E+03  0.11525539169E+04  0.10100000352E+00 0.  1.
       -3    1    3    3    0  502  0.94454818863E+03 -0.30228733347E+03 -0.13057949668E+04  0.16397101629E+04  0.10100000352E+00 0. -1.
</event>
<event>
 5   0  0.4826140E-06  0.2714450E+04  0.7818609E-02  0.8330332E-01
        1   -1    0    0  501    0  0.00000000000E+00  0.00000000000E+00  0.14610885907E+04  0.14610885908E+04  0.50400001928E-02 0.  1.
       -1   -1    0    0    0  501  0.00000000000E+00  0.00000000000E+00 -0.12607449683E+04  0.12607449683E+04  0.50400001928E-02 0. -1.
    10030    2    1    2    0    0  0.00000000000E+00  0.00000000000E+00  0.20034362246E+03  0.27218335590E+04  0.27144502862E+04 0.  0.
        1    1    3    3  502    0  0.13450918845E+04 -0.17737922018E+03  0.13666480754E+03  0.13636028876E+04  0.50400001928E-02 0.  1.
       -1    1    3    3    0  502 -0.13450918845E+04  0.17737922018E+03  0.63678814914E+02  0.13582306715E+04  0.50400001928E-02 0. -1.
</event>
<event>
 5   0  0.4846214E-06  0.2355341E+04  0.7818609E-02  0.8456415E-01
        1   -1    0    0  501    0  0.00000000000E+00  0.00000000000E+00  0.16489836539E+04  0.16489836540E+04  0.50400001928E-02 0.  1.
       -1   -1    0    0    0  501  0.00000000000E+00  0.00000000000E+00 -0.84106823613E+03  0.84106823615E+03  0.50400001928E-02 0. -1.
    10030    2    1    2    0    0  0.00000000000E+00  0.00000000000E+00  0.80791541782E+03  0.24900518901E+04  0.23553409717E+04 0.  0.
        2    1    3    3  502    0 -0.83469671702E+03  0.16976726628E+03  0.12637158129E+04  0.15239807052E+04  0.25500000920E-02 0.  1.
       -2    1    3    3    0  502  0.83469671702E+03 -0.16976726628E+03 -0.45580039508E+03  0.96607118489E+03  0.25500000920E-02 0. -1.
</event>
<event>
 5   0  0.4846214E-06  0.2203345E+04  0.7818609E-02  0.8517037E-01
       -1   -1    0    0    0  501  0.00000000000E+00  0.00000000000E+00  0.85304660351E+03  0.85304660352E+03  0.50400001928E-02 0. -1.
        1   -1    0    0  501    0  0.00000000000E+00  0.00000000000E+00 -0.14227613666E+04  0.14227613666E+04  0.50400001928E-02 0.  1.
    10030    2    1    2    0    0  0.00000000000E+00  0.00000000000E+00 -0.56971476310E+03  0.22758079701E+04  0.22033445045E+04 0.  0.
        2    1    3    3  502    0  0.99748345553E+03  0.24944533469E+03 -0.69344979930E+03  0.12401890353E+04  0.25500000920E-02 0.  1.
       -2    1    3    3    0  502 -0.99748345553E+03 -0.24944533469E+03  0.12373503621E+03  0.10356189349E+04  0.25500000920E-02 0. -1.
</event>
<event>
 5   0  0.1220908E-05  0.2706674E+04  0.7818609E-02  0.8332843E-01
       -2   -1    0    0    0  501  0.00000000000E+00  0.00000000000E+00  0.11997477827E+04  0.11997477827E+04  0.25500000920E-02 0. -1.
        2   -1    0    0  501    0  0.00000000000E+00  0.00000000000E+00 -0.15265882013E+04  0.15265882013E+04  0.25500000920E-02 0.  1.
    10030    2    1    2    0    0  0.00000000000E+00  0.00000000000E+00 -0.32684041867E+03  0.27263359840E+04  0.27066738330E+04 0.  0.
        2    1    3    3  502    0 -0.49245919738E+03 -0.94383651490E+02 -0.14295704836E+04  0.15149574589E+04  0.25500000920E-02 0.  1.
       -2    1    3    3    0  502  0.49245919738E+03  0.94383651490E+02  0.11027300650E+04  0.12113785250E+04  0.25500000920E-02 0. -1.
</event>
<event>
 5   0  0.1286641E-05  0.2728647E+04  0.7818609E-02  0.8325769E-01
        2   -1    0    0  501    0  0.00000000000E+00  0.00000000000E+00  0.13190636380E+04  0.13190636380E+04  0.25500000920E-02 0.  1.
       -2   -1    0    0    0  501  0.00000000000E+00  0.00000000000E+00 -0.14111366307E+04  0.14111366307E+04  0.25500000920E-02 0. -1.
    10030    2    1    2    0    0  0.00000000000E+00  0.00000000000E+00 -0.92072992664E+02  0.27302002687E+04  0.27286472970E+04 0.  0.
        4    1    3    3  502    0  0.84584034393E+03  0.10515865106E+04 -0.24639363466E+03  0.13718569579E+04  0.12699999809E+01 0. -1.
       -4    1    3    3    0  502 -0.84584034393E+03 -0.10515865106E+04  0.15432064199E+03  0.13583433109E+04  0.12699999809E+01 0.  1.
</event>
<event>
 5   0  0.1261364E-05  0.2665545E+04  0.7818609E-02  0.8346272E-01
       -2   -1    0    0    0  501  0.00000000000E+00  0.00000000000E+00  0.13796312374E+04  0.13796312374E+04  0.25500000920E-02 0.  1.
        2   -1    0    0  501    0  0.00000000000E+00  0.00000000000E+00 -0.12875055350E+04  0.12875055350E+04  0.25500000920E-02 0. -1.
    10030    2    1    2    0    0  0.00000000000E+00  0.00000000000E+00  0.92125702355E+02  0.26671367724E+04  0.26655452383E+04 0.  0.
        5    1    3    3  502    0  0.53611092948E+03 -0.50086471020E+03 -0.10672471491E+04  0.12951134908E+04  0.46999998093E+01 0. -1.
       -5    1    3    3    0  502 -0.53611092948E+03  0.50086471020E+03  0.11593728515E+04  0.13720232816E+04  0.46999998093E+01 0.  1.
</event>
<event>
 5   0  0.4826140E-06  0.2636655E+04  0.7818609E-02  0.8355856E-01
       -1   -1    0    0    0  501  0.00000000000E+00  0.00000000000E+00  0.87687350673E+03  0.87687350674E+03  0.50400001928E-02 0. -1.
        1   -1    0    0  501    0  0.00000000000E+00  0.00000000000E+00 -0.19820280577E+04  0.19820280577E+04  0.50400001928E-02 0.  1.
    10030    2    1    2    0    0  0.00000000000E+00  0.00000000000E+00 -0.11051545509E+04  0.28589015644E+04  0.26366553763E+04 0.  0.
        1    1    3    3  502    0 -0.23439552563E+02  0.27212709168E+02 -0.19814974861E+04  0.19818229566E+04  0.50400001928E-02 0.  1.
       -1    1    3    3    0  502  0.23439552563E+02 -0.27212709168E+02  0.87634293515E+03  0.87707860775E+03  0.50400001928E-02 0. -1.
</event>
<event>
 5   0  0.4756800E-06  0.2710325E+04  0.7818609E-02  0.8331663E-01
       -1   -1    0    0    0  501  0.00000000000E+00  0.00000000000E+00  0.11418323278E+04  0.11418323278E+04  0.50400001928E-02 0.  1.
        1   -1    0    0  501    0  0.00000000000E+00  0.00000000000E+00 -0.16083492373E+04  0.16083492373E+04  0.50400001928E-02 0. -1.
    10030    2    1    2    0    0  0.00000000000E+00  0.00000000000E+00 -0.46651690949E+03  0.27501815651E+04  0.27103248171E+04 0.  0.
        4    1    3    3  502    0  0.31982879946E+03 -0.93165296891E+03 -0.11776412532E+04  0.15352876765E+04  0.12699999809E+01 0. -1.
       -4    1    3    3    0  502 -0.31982879946E+03  0.93165296891E+03  0.71112434369E+03  0.12148938886E+04  0.12699999809E+01 0.  1.
</event>
<event>
 5   0  0.1220908E-05  0.2698209E+04  0.7818609E-02  0.8335586E-01
        2   -1    0    0  501    0  0.00000000000E+00  0.00000000000E+00  0.19165866901E+04  0.19165866901E+04  0.25500000920E-02 0.  1.
       -2   -1    0    0    0  501  0.00000000000E+00  0.00000000000E+00 -0.94964842186E+03  0.94964842187E+03  0.25500000920E-02 0. -1.
    10030    2    1    2    0    0  0.00000000000E+00  0.00000000000E+00  0.96693826824E+03  0.28662351120E+04  0.26982094253E+04 0.  0.
        2    1    3    3  502    0 -0.77694101426E+03 -0.10962783120E+04  0.61191217055E+03  0.14764484351E+04  0.25500000920E-02 0. -1.
       -2    1    3    3    0  502  0.77694101426E+03  0.10962783120E+04  0.35502609769E+03  0.13897866769E+04  0.25500000920E-02 0.  1.
</event>
<event>
 5   0  0.1276517E-05  0.2737601E+04  0.7818609E-02  0.8322907E-01
       -2   -1    0    0    0  501  0.00000000000E+00  0.00000000000E+00  0.22646488364E+04  0.22646488364E+04  0.25500000920E-02 0. -1.
        2   -1    0    0  501    0  0.00000000000E+00  0.00000000000E+00 -0.82733117853E+03  0.82733117853E+03  0.25500000920E-02 0.  1.
    10030    2    1    2    0    0  0.00000000000E+00  0.00000000000E+00  0.14373176579E+04  0.30919800150E+04  0.27376008407E+04 0.  0.
        1    1    3    3  502    0  0.32375096615E+03  0.49642253663E+03  0.21122195164E+04  0.21937915372E+04  0.50400001928E-02 0. -1.
       -1    1    3    3    0  502 -0.32375096615E+03 -0.49642253663E+03 -0.67490185853E+03  0.89818847779E+03  0.50400001928E-02 0.  1.
</event>
<event>
 5   0  0.1276517E-05  0.2684983E+04  0.7818609E-02  0.8339894E-01
       -2   -1    0    0    0  501  0.00000000000E+00  0.00000000000E+00  0.67402172852E+03  0.67402172852E+03  0.25500000920E-02 0. -1.
        2   -1    0    0  501    0  0.00000000000E+00  0.00000000000E+00 -0.26739239416E+04  0.26739239416E+04  0.25500000920E-02 0.  1.
    10030    2    1    2    0    0  0.00000000000E+00  0.00000000000E+00 -0.19999022131E+04  0.33479456701E+04  0.26849825601E+04 0.  0.
        1    1    3    3  502    0  0.75043654496E+03  0.92176329764E+03 -0.17781303701E+04  0.21388198143E+04  0.50400001928E-02 0.  1.
       -1    1    3    3    0  502 -0.75043654496E+03 -0.92176329764E+03 -0.22177184298E+03  0.12091258558E+04  0.50400001928E-02 0. -1.
</event>
<event>
 5   0  0.4846214E-06  0.2701475E+04  0.7818609E-02  0.8334527E-01
        1   -1    0    0  501    0  0.00000000000E+00  0.00000000000E+00  0.11546436644E+04  0.11546436644E+04  0.50400001928E-02 0.  1.
       -1   -1    0    0    0  501  0.00000000000E+00  0.00000000000E+00 -0.15801339754E+04  0.15801339754E+04  0.50400001928E-02 0. -1.
    10030    2    1    2    0    0  0.00000000000E+00  0.00000000000E+00 -0.42549031093E+03  0.27347776398E+04  0.27014749184E+04 0.  0.
        2    1    3    3  502    0  0.21598640763E+03  0.12082721976E+04 -0.78353981913E+03  0.14561958934E+04  0.25500000920E-02 0. -1.
       -2    1    3    3    0  502 -0.21598640763E+03 -0.12082721976E+04  0.35804950820E+03  0.12785817464E+04  0.25500000920E-02 0.  1.
</event>
<event>
 5   0  0.1261364E-05  0.2719312E+04  0.7818609E-02  0.8328766E-01
        2   -1    0    0  501    0  0.00000000000E+00  0.00000000000E+00  0.15836651422E+04  0.15836651422E+04  0.25500000920E-02 0. -1.
       -2   -1    0    0    0  501  0.00000000000E+00  0.00000000000E+00 -0.11673332966E+04  0.11673332966E+04  0.25500000920E-02 0.  1.
    10030    2    1    2    0    0  0.00000000000E+00  0.00000000000E+00  0.41633184554E+03  0.27509984388E+04  0.27193124507E+04 0.  0.
        5    1    3    3  502    0 -0.15952571042E+03 -0.94251369549E+03 -0.76998324355E+03  0.12274676386E+04  0.46999998093E+01 0.  1.
       -5    1    3    3    0  502  0.15952571042E+03  0.94251369549E+03  0.11863150891E+04  0.15235308002E+04  0.46999998093E+01 0. -1.
</event>
<event>
 5   0  0.4756800E-06  0.2701606E+04  0.7818609E-02  0.8334484E-01
       -1   -1    0    0    0  501  0.00000000000E+00  0.00000000000E+00  0.68556383510E+03  0.68556383512E+03  0.50400001928E-02 0. -1.
        1   -1    0    0  501    0  0.00000000000E+00  0.00000000000E+00 -0.26615599366E+04  0.26615599366E+04  0.50400001928E-02 0.  1.
    10030    2    1    2    0    0  0.00000000000E+00  0.00000000000E+00 -0.19759961015E+04  0.33471237717E+04  0.27016063648E+04 0.  0.
        4    1    3    3  502    0 -0.64793184959E+03 -0.48206042661E+03  0.35353233301E+03  0.88158077338E+03  0.12699999809E+01 0. -1.
       -4    1    3    3    0  502  0.64793184959E+03  0.48206042661E+03 -0.23295284345E+04  0.24655429984E+04  0.12699999809E+01 0.  1.
</event>
<event>
 5   0  0.4826140E-06  0.2731263E+04  0.7818609E-02  0.8324932E-01
       -1   -1    0    0    0  501  0.00000000000E+00  0.00000000000E+00  0.13831289504E+04  0.13831289504E+04  0.50400001928E-02 0. -1.
        1   -1    0    0  501    0  0.00000000000E+00  0.00000000000E+00 -0.13483551307E+04  0.13483551307E+04  0.50400001928E-02 0.  1.
    10030    2    1    2    0    0  0.00000000000E+00  0.00000000000E+00  0.34773819760E+02  0.27314840811E+04  0.27312627239E+04 0.  0.
        1    1    3    3  502    0  0.59184263579E+03  0.11940890971E+03  0.12423995782E+04  0.13813373611E+04  0.50400001928E-02 0. -1.
       -1    1    3    3    0  502 -0.59184263579E+03 -0.11940890971E+03 -0.12076257584E+04  0.13501467201E+04  0.50400001928E-02 0.  1.
</event>
<event>
 5   0  0.4826140E-06  0.2685050E+04  0.7818609E-02  0.8339872E-01
       -1   -1    0    0    0  501  0.00000000000E+00  0.00000000000E+00  0.68272382710E+03  0.68272382712E+03  0.50400001928E-02 0. -1.
        1   -1    0    0  501    0  0.00000000000E+00  0.00000000000E+00 -0.26399741807E+04  0.26399741808E+04  0.50400001928E-02 0.  1.
    10030    2    1    2    0    0  0.00000000000E+00  0.00000000000E+00 -0.19572503536E+04  0.33226980079E+04  0.26850499259E+04 0.  0.
        1    1    3    3  502    0 -0.80013129889E+03 -0.71369346232E+03 -0.19784644295E+04  0.22503088571E+04  0.50400001928E-02 0.  1.
       -1    1    3    3    0  502  0.80013129889E+03  0.71369346232E+03  0.21214075845E+02  0.10723891508E+04  0.50400001928E-02 0. -1.
</event>
<event>
 5   0  0.4846214E-06  0.2635044E+04  0.7818609E-02  0.8356394E-01
       -1   -1    0    0    0  501  0.00000000000E+00  0.00000000000E+00  0.18124869061E+04  0.18124869062E+04  0.50400001928E-02 0. -1.
        1   -1    0    0  501    0  0.00000000000E+00  0.00000000000E+00 -0.95772525417E+03  0.95772525419E+03  0.50400001928E-02 0.  1.
    10030    2    1    2    0    0  0.00000000000E+00  0.00000000000E+00  0.85476165197E+03  0.27702121603E+04  0.26350441992E+04 0.  0.
        2    1    3    3  502    0 -0.26711869035E+03 -0.54286378565E+03 -0.80304503780E+03  0.10054525435E+04  0.25500000920E-02 0.  1.
       -2    1    3    3    0  502  0.26711869035E+03  0.54286378565E+03  0.16578066898E+04  0.17647596168E+04  0.25500000920E-02 0. -1.
</event>
<event>
 5   0  0.5152288E-06  0.2718632E+04  0.7818609E-02  0.8328985E-01
        1   -1    0    0  501    0  0.00000000000E+00  0.00000000000E+00  0.17604227929E+04  0.17604227929E+04  0.50400001928E-02 0.  1.
       -1   -1    0    0    0  501  0.00000000000E+00  0.00000000000E+00 -0.10496004269E+04  0.10496004269E+04  0.50400001928E-02 0. -1.
    10030    2    1    2    0    0  0.00000000000E+00  0.00000000000E+00  0.71082236595E+03  0.28100232198E+04  0.27186323878E+04 0.  0.
        3    1    3    3  502    0  0.40029354964E+03  0.96238931079E+02  0.16944307644E+04  0.17437294754E+04  0.10100000352E+00 0.  1.
       -3    1    3    3    0  502 -0.40029354964E+03 -0.96238931079E+02 -0.98360839844E+03  0.10662937444E+04  0.10100000352E+00 0. -1.
</event>
<event>
 5   0  0.1232559E-05  0.2689284E+04  0.7818609E-02  0.8338490E-01
       -2   -1    0    0    0  501  0.00000000000E+00  0.00000000000E+00  0.13428037485E+04  0.13428037485E+04  0.25500000920E-02 0. -1.
        2   -1    0    0  501    0  0.00000000000E+00  0.00000000000E+00 -0.13464828145E+04  0.13464828145E+04  0.25500000920E-02 0.  1.
    10030    2    1    2    0    0  0.00000000000E+00  0.00000000000E+00 -0.36790659459E+01  0.26892865630E+04  0.26892840465E+04 0.  0.
        3    1    3    3  502    0 -0.30543595263E+03 -0.11034803346E+04  0.70321586970E+03  0.13436787338E+04  0.10100000352E+00 0. -1.
       -3    1    3    3    0  502  0.30543595263E+03  0.11034803346E+04 -0.70689493564E+03  0.13456078293E+04  0.10100000352E+00 0.  1.
</event>
<event>
 5   0  0.5152288E-06  0.2699399E+04  0.7818609E-02  0.8335200E-01
       -1   -1    0    0    0  501  0.00000000000E+00  0.00000000000E+00  0.10500521839E+04  0.10500521839E+04  0.50400001928E-02 0. -1.
        1   -1    0    0  501    0  0.00000000000E+00  0.00000000000E+00 -0.17348549255E+04  0.17348549255E+04  0.50400001928E-02 0.  1.
    10030    2    1    2    0    0  0.00000000000E+00  0.00000000000E+00 -0.68480274158E+03  0.27849071094E+04  0.26993986021E+04 0.  0.
        3    1    3    3  502    0  0.17058622444E+03  0.89228750053E+03  0.68742277814E+03  0.11392219844E+04  0.10100000352E+00 0. -1.
       -3    1    3    3    0  502 -0.17058622444E+03 -0.89228750053E+03 -0.13722255197E+04  0.16456851250E+04  0.10100000352E+00 0.  1.
</event>
<event>
 5   0  0.1286641E-05  0.2720349E+04  0.7818609E-02  0.8328433E-01
        2   -1    0    0  501    0  0.00000000000E+00  0.00000000000E+00  0.15234233641E+04  0.15234233641E+04  0.25500000920E-02 0.  1.
       -2   -1    0    0    0  501  0.00000000000E+00  0.00000000000E+00 -0.12144190097E+04  0.12144190097E+04  0.25500000920E-02 0. -1.
    10030    2    1    2    0    0  0.00000000000E+00  0.00000000000E+00  0.30900435437E+03  0.27378423738E+04  0.27203487227E+04 0.  0.
        4    1    3    3  502    0  0.44479450077E+03  0.11346867322E+04  0.76230343941E+03  0.14375201824E+04  0.12699999809E+01 0.  1.
       -4    1    3    3    0  502 -0.44479450077E+03 -0.11346867322E+04 -0.45329908504E+03  0.13003221914E+04  0.12699999809E+01 0. -1.
</event>
<event>
 5   0  0.1232559E-05  0.2693726E+04  0.7818609E-02  0.8337044E-01
       -2   -1    0    0    0  501  0.00000000000E+00  0.00000000000E+00  0.70610287825E+03  0.70610287825E+03  0.25500000920E-02 0. -1.
        2   -1    0    0  501    0  0.00000000000E+00  0.00000000000E+00 -0.25690869676E+04  0.25690869676E+04  0.25500000920E-02 0.  1.
    10030    2    1    2    0    0  0.00000000000E+00  0.00000000000E+00 -0.18629840894E+04  0.32751898459E+04  0.26937258230E+04 0.  0.
        3    1    3    3  502    0 -0.46379484148E+03 -0.12110859954E+04 -0.13735778975E+04  0.18890609291E+04  0.10100000352E+00 0. -1.
       -3    1    3    3    0  502  0.46379484148E+03  0.12110859954E+04 -0.48940619189E+03  0.13861289168E+04  0.10100000352E+00 0.  1.
</event>
<event>
 5   0  0.1220908E-05  0.2700938E+04  0.7818609E-02  0.8334701E-01
       -2   -1    0    0    0  501  0.00000000000E+00  0.00000000000E+00  0.15561738807E+04  0.15561738807E+04  0.25500000920E-02 0. -1.
        2   -1    0    0  501    0  0.00000000000E+00  0.00000000000E+00 -0.11719554152E+04  0.11719554152E+04  0.25500000920E-02 0.  1.
    10030    2    1    2    0    0  0.00000000000E+00  0.00000000000E+00  0.38421846547E+03  0.27281292959E+04  0.27009379159E+04 0.  0.
        2    1    3    3  502    0  0.54539227625E+03  0.71363715169E+03 -0.82652541432E+03  0.12206043502E+04  0.25500000920E-02 0.  1.
       -2    1    3    3    0  502 -0.54539227625E+03 -0.71363715169E+03  0.12107438798E+04  0.15075249456E+04  0.25500000920E-02 0. -1.
</event>
<event>
 5   0  0.4824715E-06  0.2709264E+04  0.7818609E-02  0.8332005E-01
       -1   -1    0    0    0  501  0.00000000000E+00  0.00000000000E+00  0.69317192313E+03  0.69317192315E+03  0.50400001928E-02 0. -1.
        1   -1    0    0  501    0  0.00000000000E+00  0.00000000000E+00 -0.26472916526E+04  0.26472916526E+04  0.50400001928E-02 0.  1.
    10030    2    1    2    0    0  0.00000000000E+00  0.00000000000E+00 -0.19541197295E+04  0.33404635758E+04  0.27092642883E+04 0.  0.
        5    1    3    3  502    0  0.54162587025E+03 -0.43420677351E+03 -0.24113012468E+04  0.25092409009E+04  0.46999998093E+01 0.  1.
       -5    1    3    3    0  502 -0.54162587025E+03  0.43420677351E+03  0.45718151736E+03  0.83122267492E+03  0.46999998093E+01 0. -1.
</event>
<event>
 5   0  0.4826140E-06  0.2751345E+04  0.7818609E-02  0.8318535E-01
        1   -1    0    0  501    0  0.00000000000E+00  0.00000000000E+00  0.10262782429E+04  0.10262782429E+04  0.50400001928E-02 0.  1.
       -1   -1    0    0    0  501  0.00000000000E+00  0.00000000000E+00 -0.18440171541E+04  0.18440171541E+04  0.50400001928E-02 0. -1.
    10030    2    1    2    0    0  0.00000000000E+00  0.00000000000E+00 -0.81773891121E+03  0.28702953970E+04  0.27513448964E+04 0.  0.
        1    1    3    3  502    0  0.43126105121E+03 -0.79670596318E+03 -0.14888798632E+04  0.17428395603E+04  0.50400001928E-02 0. -1.
       -1    1    3    3    0  502 -0.43126105121E+03  0.79670596318E+03  0.67114095198E+03  0.11274558366E+04  0.50400001928E-02 0.  1.
</event>
<event>
 5   0  0.1286641E-05  0.2679502E+04  0.7818609E-02  0.8341686E-01
        2   -1    0    0  501    0  0.00000000000E+00  0.00000000000E+00  0.16173495258E+04  0.16173495258E+04  0.25500000920E-02 0. -1.
       -2   -1    0    0    0  501  0.00000000000E+00  0.00000000000E+00 -0.11097992559E+04  0.11097992559E+04  0.25500000920E-02 0.  1.
    10030    2    1    2    0    0  0.00000000000E+00  0.00000000000E+00  0.50755026996E+03  0.27271487817E+04  0.26795024166E+04 0.  0.
        4    1    3    3  502    0  0.99088608604E+02 -0.36758709689E+03  0.15611366950E+04  0.16068877433E+04  0.12699999809E+01 0. -1.
       -4    1    3    3    0  502 -0.99088608604E+02  0.36758709689E+03 -0.10535864250E+04  0.11202610384E+04  0.12699999809E+01 0.  1.
</event>
<event>
 5   0  0.1286641E-05  0.2676889E+04  0.7818609E-02  0.8342543E-01
        2   -1    0    0  501    0  0.00000000000E+00  0.00000000000E+00  0.14544835842E+04  0.14544835842E+04  0.25500000920E-02 0. -1.
       -2   -1    0    0    0  501  0.00000000000E+00  0.00000000000E+00 -0.12316627676E+04  0.12316627676E+04  0.25500000920E-02 0.  1.
    10030    2    1    2    0    0  0.00000000000E+00  0.00000000000E+00  0.22282081657E+03  0.26861463518E+04  0.26768886990E+04 0.  0.
        4    1    3    3  502    0 -0.11354326880E+04 -0.30283623681E+03  0.75434027585E+03  0.13964053996E+04  0.12699999809E+01 0. -1.
       -4    1    3    3    0  502  0.11354326880E+04  0.30283623681E+03 -0.53151945928E+03  0.12897409522E+04  0.12699999809E+01 0.  1.
</event>
<event>
 5   0  0.1261364E-05  0.2546809E+04  0.7818609E-02  0.8386497E-01
       -2   -1    0    0    0  501  0.00000000000E+00  0.00000000000E+00  0.11462738831E+04  0.11462738831E+04  0.25500000920E-02 0. -1.
        2   -1    0    0  501    0  0.00000000000E+00  0.00000000000E+00 -0.14146345088E+04  0.14146345088E+04  0.25500000920E-02 0.  1.
    10030    2    1    2    0    0  0.00000000000E+00  0.00000000000E+00 -0.26836062574E+03  0.25609083919E+04  0.25468086631E+04 0.  0.
        5    1    3    3  502    0  0.23776795564E+03  0.12296646962E+04 -0.36551404905E+03  0.13046959324E+04  0.46999998093E+01 0.  1.
       -5    1    3    3    0  502 -0.23776795564E+03 -0.12296646962E+04  0.97153423312E+02  0.12562124595E+04  0.46999998093E+01 0. -1.
</event>
<event>
 5   0  0.1232559E-05  0.2506322E+04  0.7818609E-02  0.8400737E-01
        2   -1    0    0  501    0  0.00000000000E+00  0.00000000000E+00  0.15793077429E+04  0.15793077429E+04  0.25500000920E-02 0.  1.
       -2   -1    0    0    0  501  0.00000000000E+00  0.00000000000E+00 -0.99436785509E+03  0.99436785510E+03  0.25500000920E-02 0. -1.
    10030    2    1    2    0    0  0.00000000000E+00  0.00000000000E+00  0.58493988782E+03  0.25736755980E+04  0.25063222880E+04 0.  0.
        3    1    3    3  502    0  0.99785213529E+02  0.11480710556E+02  0.15751675246E+04  0.15783667623E+04  0.10100000352E+00 0.  1.
       -3    1    3    3    0  502 -0.99785213529E+02 -0.11480710556E+02 -0.99022763680E+03  0.99530883570E+03  0.10100000352E+00 0. -1.
</event>
<event>
 5   0  0.1286641E-05  0.2715848E+04  0.7818609E-02  0.8329881E-01
       -2   -1    0    0    0  501  0.00000000000E+00  0.00000000000E+00  0.13605244376E+04  0.13605244376E+04  0.25500000920E-02 0.  1.
        2   -1    0    0  501    0  0.00000000000E+00  0.00000000000E+00 -0.13553285092E+04  0.13553285092E+04  0.25500000920E-02 0. -1.
    10030    2    1    2    0    0  0.00000000000E+00  0.00000000000E+00  0.51959284625E+01  0.27158529468E+04  0.27158479764E+04 0.  0.
        4    1    3    3  502    0 -0.89248073884E+03  0.81775871474E+03 -0.61279308725E+03  0.13567491166E+04  0.12699999809E+01 0. -1.
       -4    1    3    3    0  502  0.89248073884E+03 -0.81775871474E+03  0.61798901572E+03  0.13591038302E+04  0.12699999809E+01 0.  1.
</event>
<event>
 5   0  0.4824715E-06  0.2608861E+04  0.7818609E-02  0.8365198E-01
        1   -1    0    0  501    0  0.00000000000E+00  0.00000000000E+00  0.17774268447E+04  0.17774268447E+04  0.50400001928E-02 0. -1.
       -1   -1    0    0    0  501  0.00000000000E+00  0.00000000000E+00 -0.95730455959E+03  0.95730455961E+03  0.50400001928E-02 0.  1.
    10030    2    1    2    0    0  0.00000000000E+00  0.00000000000E+00  0.82012228513E+03  0.27347314043E+04  0.26088609184E+04 0.  0.
        5    1    3    3  502    0 -0.30146496341E+03 -0.58385012025E+03  0.15912617352E+04  0.17215975392E+04  0.46999998093E+01 0. -1.
       -5    1    3    3    0  502  0.30146496341E+03  0.58385012025E+03 -0.77113945012E+03  0.10131338651E+04  0.46999998093E+01 0.  1.
</event>
<event>
 5   0  0.4846214E-06  0.2669583E+04  0.7818609E-02  0.8344942E-01
        1   -1    0    0  501    0  0.00000000000E+00  0.00000000000E+00  0.12955165899E+04  0.12955165899E+04  0.50400001928E-02 0. -1.
       -1   -1    0    0    0  501  0.00000000000E+00  0.00000000000E+00 -0.13752566258E+04  0.13752566258E+04  0.50400001928E-02 0.  1.
    10030    2    1    2    0    0  0.00000000000E+00  0.00000000000E+00 -0.79740035877E+02  0.26707732157E+04  0.26695825696E+04 0.  0.
        2    1    3    3  502    0 -0.12109539476E+04 -0.29134692995E+02 -0.60084238726E+03  0.13521352994E+04  0.25500000920E-02 0.  1.
       -2    1    3    3    0  502  0.12109539476E+04  0.29134692995E+02  0.52110235138E+03  0.13186379163E+04  0.25500000920E-02 0. -1.
</event>
<event>
 5   0  0.1286641E-05  0.2697709E+04  0.7818609E-02  0.8335749E-01
        2   -1    0    0  501    0  0.00000000000E+00  0.00000000000E+00  0.24379468957E+04  0.24379468957E+04  0.25500000920E-02 0. -1.
       -2   -1    0    0    0  501  0.00000000000E+00  0.00000000000E+00 -0.74628722783E+03  0.74628722783E+03  0.25500000920E-02 0.  1.
    10030    2    1    2    0    0  0.00000000000E+00  0.00000000000E+00  0.16916596678E+04  0.31842341235E+04  0.26977091247E+04 0.  0.
        4    1    3    3  502    0  0.54871397858E+03  0.80816766235E+03  0.19437338307E+04  0.21753907277E+04  0.12699999809E+01 0. -1.
       -4    1    3    3    0  502 -0.54871397858E+03 -0.80816766235E+03 -0.25207416284E+03  0.10088433958E+04  0.12699999809E+01 0.  1.
</event>
<event>
 5   0  0.1232559E-05  0.2608418E+04  0.7818609E-02  0.8365347E-01
        2   -1    0    0  501    0  0.00000000000E+00  0.00000000000E+00  0.11483999852E+04  0.11483999852E+04  0.25500000920E-02 0. -1.
       -2   -1    0    0    0  501  0.00000000000E+00  0.00000000000E+00 -0.14811574897E+04  0.14811574897E+04  0.25500000920E-02 0.  1.
    10030    2    1    2    0    0  0.00000000000E+00  0.00000000000E+00 -0.33275750457E+03  0.26295574749E+04  0.26084180947E+04 0.  0.
        3    1    3    3  502    0  0.11623701631E+03  0.40265583886E+03 -0.14114256964E+04  0.14723332759E+04  0.10100000352E+00 0.  1.
       -3    1    3    3    0  502 -0.11623701631E+03 -0.40265583886E+03  0.10786681918E+04  0.11572241990E+04  0.10100000352E+00 0. -1.
</event>
<event>
 5   0  0.4188000E-06  0.2727009E+04  0.7818609E-02  0.8326294E-01
        3   -1    0    0  501    0  0.00000000000E+00  0.00000000000E+00  0.12486525788E+04  0.12486525829E+04  0.10100000352E+00 0. -1.
       -3   -1    0    0    0  501  0.00000000000E+00  0.00000000000E+00 -0.14889209410E+04  0.14889209444E+04  0.10100000352E+00 0.  1.
    10030    2    1    2    0    0  0.00000000000E+00  0.00000000000E+00 -0.24026836220E+03  0.27375735273E+04  0.27270093384E+04 0.  0.
        1    1    3    3  502    0  0.83988684903E+03  0.10349684192E+04 -0.40860680351E+03  0.13941051136E+04  0.50400001928E-02 0.  1.
       -1    1    3    3    0  502 -0.83988684903E+03 -0.10349684192E+04  0.16833844131E+03  0.13434684137E+04  0.50400001928E-02 0. -1.
</event>
<event>
 5   0  0.1220908E-05  0.2953339E+04  0.7818609E-02  0.8257182E-01
       -2   -1    0    0    0  501  0.00000000000E+00  0.00000000000E+00  0.13427661760E+04  0.13427661760E+04  0.25500000920E-02 0.  1.
        2   -1    0    0  501    0  0.00000000000E+00  0.00000000000E+00 -0.16239260381E+04  0.16239260381E+04  0.25500000920E-02 0. -1.
    10030    2    1    2    0    0  0.00000000000E+00  0.00000000000E+00 -0.28115986212E+03  0.29666922141E+04  0.29533390975E+04 0.  0.
        2    1    3    3  502    0 -0.71128514967E+02  0.13400825273E+04 -0.75954159889E+03  0.15420064481E+04  0.25500000920E-02 0.  1.
       -2    1    3    3    0  502  0.71128514967E+02 -0.13400825273E+04  0.47838173677E+03  0.14246857659E+04  0.25500000920E-02 0. -1.
</event>
<event>
 5   0  0.1286641E-05  0.2723630E+04  0.7818609E-02  0.8327378E-01
        2   -1    0    0  501    0  0.00000000000E+00  0.00000000000E+00  0.14599767812E+04  0.14599767812E+04  0.25500000920E-02 0. -1.
       -2   -1    0    0    0  501  0.00000000000E+00  0.00000000000E+00 -0.12702536079E+04  0.12702536079E+04  0.25500000920E-02 0.  1.
    10030    2    1    2    0    0  0.00000000000E+00  0.00000000000E+00  0.18972317335E+03  0.27302303891E+04  0.27236304990E+04 0.  0.
        4    1    3    3  502    0 -0.74061403120E+03  0.59616822865E+03  0.10722182708E+04  0.14330315185E+04  0.12699999809E+01 0. -1.
       -4    1    3    3    0  502  0.74061403120E+03 -0.59616822865E+03 -0.88249509740E+03  0.12971988706E+04  0.12699999809E+01 0.  1.
</event>
<event>
 5   0  0.4826140E-06  0.2687408E+04  0.7818609E-02  0.8339102E-01
       -1   -1    0    0    0  501  0.00000000000E+00  0.00000000000E+00  0.11111329082E+04  0.11111329082E+04  0.50400001928E-02 0.  1.
        1   -1    0    0  501    0  0.00000000000E+00  0.00000000000E+00 -0.16249549271E+04  0.16249549271E+04  0.50400001928E-02 0. -1.
    10030    2    1    2    0    0  0.00000000000E+00  0.00000000000E+00 -0.51382201897E+03  0.27360878353E+04  0.26874083380E+04 0.  0.
        1    1    3    3  502    0  0.45129222885E+03  0.10774459593E+04 -0.93300797108E+03  0.14950111522E+04  0.50400001928E-02 0. -1.
       -1    1    3    3    0  502 -0.45129222885E+03 -0.10774459593E+04  0.41918595212E+03  0.12410766831E+04  0.50400001928E-02 0.  1.
</event>
<event>
 5   0  0.1220908E-05  0.2677266E+04  0.7818609E-02  0.8342419E-01
        2   -1    0    0  501    0  0.00000000000E+00  0.00000000000E+00  0.12970147869E+04  0.12970147869E+04  0.25500000920E-02 0. -1.
       -2   -1    0    0    0  501  0.00000000000E+00  0.00000000000E+00 -0.13815864824E+04  0.13815864824E+04  0.25500000920E-02 0.  1.
    10030    2    1    2    0    0  0.00000000000E+00  0.00000000000E+00 -0.84571695539E+02  0.26786012693E+04  0.26772658419E+04 0.  0.
        2    1    3    3  502    0 -0.60715040516E+03 -0.11887755675E+04  0.58358228369E+02  0.13361229911E+04  0.25500000920E-02 0. -1.
       -2    1    3    3    0  502  0.60715040516E+03  0.11887755675E+04 -0.14292992391E+03  0.13424782783E+04  0.25500000920E-02 0.  1.
</event>
<event>
 5   0  0.4824715E-06  0.2692952E+04  0.7818609E-02  0.8337295E-01
        1   -1    0    0  501    0  0.00000000000E+00  0.00000000000E+00  0.20252304927E+04  0.20252304928E+04  0.50400001928E-02 0.  1.
       -1   -1    0    0    0  501  0.00000000000E+00  0.00000000000E+00 -0.89520539345E+03  0.89520539346E+03  0.50400001928E-02 0. -1.
    10030    2    1    2    0    0  0.00000000000E+00  0.00000000000E+00  0.11300250993E+04  0.29204358862E+04  0.26929517338E+04 0.  0.
        5    1    3    3  502    0 -0.12449453993E+04  0.50108168786E+03  0.68382687425E+03  0.15061916176E+04  0.46999998093E+01 0. -1.
       -5    1    3    3    0  502  0.12449453993E+04 -0.50108168786E+03  0.44619822505E+03  0.14142442686E+04  0.46999998093E+01 0.  1.
</event>
<event>
 5   0  0.5152288E-06  0.2691996E+04  0.7818609E-02  0.8337607E-01
       -1   -1    0    0    0  501  0.00000000000E+00  0.00000000000E+00  0.67649644349E+03  0.67649644351E+03  0.50400001928E-02 0. -1.
        1   -1    0    0  501    0  0.00000000000E+00  0.00000000000E+00 -0.26780794532E+04  0.26780794533E+04  0.50400001928E-02 0.  1.
    10030    2    1    2    0    0  0.00000000000E+00  0.00000000000E+00 -0.20015830098E+04  0.33545758968E+04  0.26919964529E+04 0.  0.
        3    1    3    3  502    0  0.63598239683E+03 -0.61774327544E+03  0.26120652535E+03  0.92428849528E+03  0.10100000352E+00 0. -1.
       -3    1    3    3    0  502 -0.63598239683E+03  0.61774327544E+03 -0.22627895351E+04  0.24302874015E+04  0.10100000352E+00 0.  1.
</event>
<event>
 5   0  0.1261364E-05  0.2399790E+04  0.7818609E-02  0.8439582E-01
       -2   -1    0    0    0  501  0.00000000000E+00  0.00000000000E+00  0.71356480061E+03  0.71356480062E+03  0.25500000920E-02 0. -1.
        2   -1    0    0  501    0  0.00000000000E+00  0.00000000000E+00 -0.20176833373E+04  0.20176833373E+04  0.25500000920E-02 0.  1.
    10030    2    1    2    0    0  0.00000000000E+00  0.00000000000E+00 -0.13041185367E+04  0.27312481379E+04  0.23997898310E+04 0.  0.
        5    1    3    3  502    0 -0.49057839964E+03  0.48615601069E+03 -0.17687576602E+04  0.18988261067E+04  0.46999998093E+01 0.  1.
       -5    1    3    3    0  502  0.49057839964E+03 -0.48615601069E+03  0.46463912354E+03  0.83242203121E+03  0.46999998093E+01 0. -1.
</event>
<event>
 5   0  0.4824715E-06  0.2724847E+04  0.7818609E-02  0.8326988E-01
       -1   -1    0    0    0  501  0.00000000000E+00  0.00000000000E+00  0.10633281909E+04  0.10633281909E+04  0.50400001928E-02 0.  1.
        1   -1    0    0  501    0  0.00000000000E+00  0.00000000000E+00 -0.17456491556E+04  0.17456491556E+04  0.50400001928E-02 0. -1.
    10030    2    1    2    0    0  0.00000000000E+00  0.00000000000E+00 -0.68232096472E+03  0.28089773465E+04  0.27248471212E+04 0.  0.
        5    1    3    3  502    0  0.10407688675E+03 -0.13400728124E+04 -0.11169236654E+03  0.13487492041E+04  0.46999998093E+01 0.  1.
       -5    1    3    3    0  502 -0.10407688675E+03  0.13400728124E+04 -0.57062859818E+03  0.14602281424E+04  0.46999998093E+01 0. -1.
</event>
<event>
 5   0  0.1232559E-05  0.2576871E+04  0.7818609E-02  0.8376100E-01
        2   -1    0    0  501    0  0.00000000000E+00  0.00000000000E+00  0.17288711284E+04  0.17288711284E+04  0.25500000920E-02 0.  1.
       -2   -1    0    0    0  501  0.00000000000E+00  0.00000000000E+00 -0.96020229793E+03  0.96020229793E+03  0.25500000920E-02 0. -1.
    10030    2    1    2    0    0  0.00000000000E+00  0.00000000000E+00  0.76866883051E+03  0.26890734264E+04  0.25768709943E+04 0.  0.
        3    1    3    3  502    0 -0.17712722109E+03 -0.93351022195E+03  0.12924263250E+04  0.16041138372E+04  0.10100000352E+00 0.  1.
       -3    1    3    3    0  502  0.17712722109E+03  0.93351022195E+03 -0.52375749448E+03  0.10849595892E+04  0.10100000352E+00 0. -1.
</event>
<event>
 5   0  0.4826140E-06  0.2696351E+04  0.7818609E-02  0.8336190E-01
       -1   -1    0    0    0  501  0.00000000000E+00  0.00000000000E+00  0.65857984285E+03  0.65857984287E+03  0.50400001928E-02 0.  1.
        1   -1    0    0  501    0  0.00000000000E+00  0.00000000000E+00 -0.27598441218E+04  0.27598441218E+04  0.50400001928E-02 0. -1.
    10030    2    1    2    0    0  0.00000000000E+00  0.00000000000E+00 -0.21012642789E+04  0.34184239646E+04  0.26963513925E+04 0.  0.
        1    1    3    3  502    0 -0.26440829738E+03  0.11825228717E+04 -0.17999260796E+04  0.21697939953E+04  0.50400001928E-02 0. -1.
       -1    1    3    3    0  502  0.26440829738E+03 -0.11825228717E+04 -0.30133819929E+03  0.12486299693E+04  0.50400001928E-02 0.  1.
</event>
<event>
 5   0  0.4824715E-06  0.2706041E+04  0.7818609E-02  0.8333048E-01
        1   -1    0    0  501    0  0.00000000000E+00  0.00000000000E+00  0.16722702259E+04  0.16722702259E+04  0.50400001928E-02 0.  1.
       -1   -1    0    0    0  501  0.00000000000E+00  0.00000000000E+00 -0.10947177862E+04  0.10947177862E+04  0.50400001928E-02 0. -1.
    10030    2    1    2    0    0  0.00000000000E+00  0.00000000000E+00  0.57755243968E+03  0.27669880121E+04  0.27060406203E+04 0.  0.
        5    1    3    3  502    0 -0.12515054889E+04  0.37222867233E+03  0.65147887452E+03  0.14592008043E+04  0.46999998093E+01 0. -1.
       -5    1    3    3    0  502  0.12515054889E+04 -0.37222867233E+03 -0.73926434839E+02  0.13077872078E+04  0.46999998093E+01 0.  1.
</event>
<event>
 5   0  0.1232559E-05  0.2666330E+04  0.7818609E-02  0.8346013E-01
       -2   -1    0    0    0  501  0.00000000000E+00  0.00000000000E+00  0.80616300759E+03  0.80616300760E+03  0.25500000920E-02 0. -1.
        2   -1    0    0  501    0  0.00000000000E+00  0.00000000000E+00 -0.22046765842E+04  0.22046765842E+04  0.25500000920E-02 0.  1.
    10030    2    1    2    0    0  0.00000000000E+00  0.00000000000E+00 -0.13985135766E+04  0.30108395918E+04  0.26663298415E+04 0.  0.
        3    1    3    3  502    0  0.97358566187E+03  0.90025962026E+03 -0.54363794165E+03  0.14331359484E+04  0.10100000352E+00 0. -1.
       -3    1    3    3    0  502 -0.97358566187E+03 -0.90025962026E+03 -0.85487563497E+03  0.15777036434E+04  0.10100000352E+00 0.  1.
</event>
<event>
 5   0  0.1261364E-05  0.2671537E+04  0.7818609E-02  0.8344300E-01
        2   -1    0    0  501    0  0.00000000000E+00  0.00000000000E+00  0.19341214508E+04  0.19341214508E+04  0.25500000920E-02 0.  1.
       -2   -1    0    0    0  501  0.00000000000E+00  0.00000000000E+00 -0.92252634039E+03  0.92252634040E+03  0.25500000920E-02 0. -1.
    10030    2    1    2    0    0  0.00000000000E+00  0.00000000000E+00  0.10115951105E+04  0.28566477912E+04  0.26715373731E+04 0.  0.
        5    1    3    3  502    0 -0.40724945000E+03  0.87726519577E+02 -0.85127738052E+03  0.94775699699E+03  0.46999998093E+01 0. -1.
       -5    1    3    3    0  502  0.40724945000E+03 -0.87726519577E+02  0.18628724910E+04  0.19088907943E+04  0.46999998093E+01 0.  1.
</event>
<event>
 5   0  0.1261364E-05  0.2771560E+04  0.7818609E-02  0.8312153E-01
       -2   -1    0    0    0  501  0.00000000000E+00  0.00000000000E+00  0.10740030274E+04  0.10740030274E+04  0.25500000920E-02 0. -1.
        2   -1    0    0  501    0  0.00000000000E+00  0.00000000000E+00 -0.17880640212E+04  0.17880640212E+04  0.25500000920E-02 0.  1.
    10030    2    1    2    0    0  0.00000000000E+00  0.00000000000E+00 -0.71406099380E+03  0.28620670487E+04  0.27715599738E+04 0.  0.
        5    1    3    3  502    0  0.96616414126E+03 -0.71583670502E+03  0.35428018049E+03  0.12535676577E+04  0.46999998093E+01 0.  1.
       -5    1    3    3    0  502 -0.96616414126E+03  0.71583670502E+03 -0.10683411743E+04  0.16084993910E+04  0.46999998093E+01 0. -1.
</event>
<event>
 5   0  0.4756800E-06  0.2697251E+04  0.7818609E-02  0.8335898E-01
       -1   -1    0    0    0  501  0.00000000000E+00  0.00000000000E+00  0.98805854669E+03  0.98805854670E+03  0.50400001928E-02 0. -1.
        1   -1    0    0  501    0  0.00000000000E+00  0.00000000000E+00 -0.18407719514E+04  0.18407719514E+04  0.50400001928E-02 0.  1.
    10030    2    1    2    0    0  0.00000000000E+00  0.00000000000E+00 -0.85271340467E+03  0.28288304981E+04  0.26972507922E+04 0.  0.
        4    1    3    3  502    0 -0.11379117995E+04 -0.21930906652E+03  0.29711280234E+03  0.11963349699E+04  0.12699999809E+01 0.  1.
       -4    1    3    3    0  502  0.11379117995E+04  0.21930906652E+03 -0.11498262070E+04  0.16324955281E+04  0.12699999809E+01 0. -1.
</event>
<event>
 5   0  0.4188000E-06  0.2202768E+04  0.7818609E-02  0.8517277E-01
        3   -1    0    0  501    0  0.00000000000E+00  0.00000000000E+00  0.10110687128E+04  0.10110687179E+04  0.10100000352E+00 0. -1.
       -3   -1    0    0    0  501  0.00000000000E+00  0.00000000000E+00 -0.11997669684E+04  0.11997669726E+04  0.10100000352E+00 0.  1.
    10030    2    1    2    0    0  0.00000000000E+00  0.00000000000E+00 -0.18869825552E+03  0.22108356905E+04  0.22027681264E+04 0.  0.
        2    1    3    3  502    0  0.39210502607E+03 -0.10280911117E+04 -0.14278735161E+03  0.11095521228E+04  0.25500000920E-02 0. -1.
       -2    1    3    3    0  502 -0.39210502607E+03  0.10280911117E+04 -0.45910903913E+02  0.11012835677E+04  0.25500000920E-02 0.  1.
</event>
<event>
 5   0  0.4756800E-06  0.2710556E+04  0.7818609E-02  0.8331588E-01
       -1   -1    0    0    0  501  0.00000000000E+00  0.00000000000E+00  0.16256366828E+04  0.16256366828E+04  0.50400001928E-02 0.  1.
        1   -1    0    0  501    0  0.00000000000E+00  0.00000000000E+00 -0.11298828209E+04  0.11298828209E+04  0.50400001928E-02 0. -1.
    10030    2    1    2    0    0  0.00000000000E+00  0.00000000000E+00  0.49575386193E+03  0.27555195037E+04  0.27105563716E+04 0.  0.
        4    1    3    3  502    0 -0.13235694936E+04  0.27497300377E+03  0.34607635094E+03  0.13954271070E+04  0.12699999809E+01 0.  1.
       -4    1    3    3    0  502  0.13235694936E+04 -0.27497300377E+03  0.14967751098E+03  0.13600923967E+04  0.12699999809E+01 0. -1.
</event>
<event>
 5   0  0.5152288E-06  0.2708705E+04  0.7818609E-02  0.8332186E-01
       -1   -1    0    0    0  501  0.00000000000E+00  0.00000000000E+00  0.94377685553E+03  0.94377685554E+03  0.50400001928E-02 0.  1.
        1   -1    0    0  501    0  0.00000000000E+00  0.00000000000E+00 -0.19435432059E+04  0.19435432059E+04  0.50400001928E-02 0. -1.
    10030    2    1    2    0    0  0.00000000000E+00  0.00000000000E+00 -0.99976635041E+03  0.28873200615E+04  0.27087052963E+04 0.  0.
        3    1    3    3  502    0  0.88122451229E+03  0.93043680539E+03 -0.32809042107E+02  0.12819304713E+04  0.10100000352E+00 0.  1.
       -3    1    3    3    0  502 -0.88122451229E+03 -0.93043680539E+03 -0.96695730830E+03  0.16053895901E+04  0.10100000352E+00 0. -1.
</event>
<event>
 5   0  0.4826140E-06  0.2556855E+04  0.7818609E-02  0.8383006E-01
       -1   -1    0    0    0  501  0.00000000000E+00  0.00000000000E+00  0.10581045331E+04  0.10581045331E+04  0.50400001928E-02 0. -1.
        1   -1    0    0  501    0  0.00000000000E+00  0.00000000000E+00 -0.15446266530E+04  0.15446266530E+04  0.50400001928E-02 0.  1.
    10030    2    1    2    0    0  0.00000000000E+00  0.00000000000E+00 -0.48652211994E+03  0.26027311861E+04  0.25568546799E+04 0.  0.
        1    1    3    3  502    0  0.11810697039E+04  0.48140009228E+03 -0.15390930572E+03  0.12846632900E+04  0.50400001928E-02 0. -1.
       -1    1    3    3    0  502 -0.11810697039E+04 -0.48140009228E+03 -0.33261281423E+03  0.13180678961E+04  0.50400001928E-02 0.  1.
</event>
<event>
 5   0  0.1232559E-05  0.2598015E+04  0.7818609E-02  0.8368876E-01
        2   -1    0    0  501    0  0.00000000000E+00  0.00000000000E+00  0.12145008978E+04  0.12145008978E+04  0.25500000920E-02 0.  1.
       -2   -1    0    0    0  501  0.00000000000E+00  0.00000000000E+00 -0.13893936608E+04  0.13893936608E+04  0.25500000920E-02 0. -1.
    10030    2    1    2    0    0  0.00000000000E+00  0.00000000000E+00 -0.17489276302E+03  0.26038945587E+04  0.25980145100E+04 0.  0.
        3    1    3    3  502    0 -0.10711860479E+04 -0.66517310992E+03 -0.40044314900E+03  0.13229699699E+04  0.10100000352E+00 0. -1.
       -3    1    3    3    0  502  0.10711860479E+04  0.66517310992E+03  0.22555038597E+03  0.12809245888E+04  0.10100000352E+00 0.  1.
</event>
<event>
 5   0  0.1261364E-05  0.2712000E+04  0.7818609E-02  0.8331122E-01
        2   -1    0    0  501    0  0.00000000000E+00  0.00000000000E+00  0.10566590577E+04  0.10566590577E+04  0.25500000920E-02 0. -1.
       -2   -1    0    0    0  501  0.00000000000E+00  0.00000000000E+00 -0.17401418044E+04  0.17401418044E+04  0.25500000920E-02 0.  1.
    10030    2    1    2    0    0  0.00000000000E+00  0.00000000000E+00 -0.68348274669E+03  0.27968008620E+04  0.27120004419E+04 0.  0.
        5    1    3    3  502    0  0.37325603250E+03  0.11112094271E+04  0.36119360602E+03  0.12266170420E+04  0.46999998093E+01 0. -1.
       -5    1    3    3    0  502 -0.37325603250E+03 -0.11112094271E+04 -0.10446763527E+04  0.15701838200E+04  0.46999998093E+01 0.  1.
</event>
<event>
 5   0  0.1261364E-05  0.2711214E+04  0.7818609E-02  0.8331376E-01
        2   -1    0    0  501    0  0.00000000000E+00  0.00000000000E+00  0.30609832946E+04  0.30609832946E+04  0.25500000920E-02 0.  1.
       -2   -1    0    0    0  501  0.00000000000E+00  0.00000000000E+00 -0.60035291705E+03  0.60035291705E+03  0.25500000920E-02 0. -1.
    10030    2    1    2    0    0  0.00000000000E+00  0.00000000000E+00  0.24606303776E+04  0.36613362117E+04  0.27112139347E+04 0.  0.
        5    1    3    3  502    0  0.97765872837E+02 -0.85020616105E+03 -0.18940911669E+03  0.87653099526E+03  0.46999998093E+01 0. -1.
       -5    1    3    3    0  502 -0.97765872837E+02  0.85020616105E+03  0.26500394943E+04  0.27848052164E+04  0.46999998093E+01 0.  1.
</event>
<event>
 5   0  0.4826140E-06  0.2617534E+04  0.7818609E-02  0.8362270E-01
       -1   -1    0    0    0  501  0.00000000000E+00  0.00000000000E+00  0.15205377298E+04  0.15205377298E+04  0.50400001928E-02 0.  1.
        1   -1    0    0  501    0  0.00000000000E+00  0.00000000000E+00 -0.11264905770E+04  0.11264905770E+04  0.50400001928E-02 0. -1.
    10030    2    1    2    0    0  0.00000000000E+00  0.00000000000E+00  0.39404715272E+03  0.26470283068E+04  0.26175342784E+04 0.  0.
        1    1    3    3  502    0 -0.22268415773E+03  0.80313529586E+03 -0.82343383894E+03  0.11716048074E+04  0.50400001928E-02 0. -1.
       -1    1    3    3    0  502  0.22268415773E+03 -0.80313529586E+03  0.12174809917E+04  0.14754234994E+04  0.50400001928E-02 0.  1.
</event>
<event>
 5   0  0.1276517E-05  0.2491835E+04  0.7818609E-02  0.8405900E-01
        2   -1    0    0  501    0  0.00000000000E+00  0.00000000000E+00  0.13921845189E+04  0.13921845189E+04  0.25500000920E-02 0. -1.
       -2   -1    0    0    0  501  0.00000000000E+00  0.00000000000E+00 -0.11150177294E+04  0.11150177294E+04  0.25500000920E-02 0.  1.
    10030    2    1    2    0    0  0.00000000000E+00  0.00000000000E+00  0.27716678957E+03  0.25072022483E+04  0.24918350035E+04 0.  0.
        1    1    3    3  502    0 -0.53604631461E+03 -0.34395387318E+03  0.12160095474E+04  0.13727086863E+04  0.50400001928E-02 0. -1.
       -1    1    3    3    0  502  0.53604631461E+03  0.34395387318E+03 -0.93884275779E+03  0.11344935620E+04  0.50400001928E-02 0.  1.
</event>
<event>
 5   0  0.1276517E-05  0.2707703E+04  0.7818609E-02  0.8332510E-01
       -2   -1    0    0    0  501  0.00000000000E+00  0.00000000000E+00  0.90137223275E+03  0.90137223276E+03  0.25500000920E-02 0. -1.
        2   -1    0    0  501    0  0.00000000000E+00  0.00000000000E+00 -0.20334709594E+04  0.20334709594E+04  0.25500000920E-02 0.  1.
    10030    2    1    2    0    0  0.00000000000E+00  0.00000000000E+00 -0.11320987267E+04  0.29348431922E+04  0.27077032769E+04 0.  0.
        1    1    3    3  502    0  0.44535999676E+03 -0.78297245654E+03 -0.16615380007E+04  0.18899999794E+04  0.50400001928E-02 0.  1.
       -1    1    3    3    0  502 -0.44535999676E+03  0.78297245654E+03  0.52943927400E+03  0.10448432128E+04  0.50400001928E-02 0. -1.
</event>
<event>
 5   0  0.5152288E-06  0.2912053E+04  0.7818609E-02  0.8269300E-01
       -1   -1    0    0    0  501  0.00000000000E+00  0.00000000000E+00  0.14624998816E+04  0.14624998816E+04  0.50400001928E-02 0.  1.
        1   -1    0    0  501    0  0.00000000000E+00  0.00000000000E+00 -0.14495819915E+04  0.14495819915E+04  0.50400001928E-02 0. -1.
    10030    2    1    2    0    0  0.00000000000E+00  0.00000000000E+00  0.12917890078E+02  0.29120818731E+04  0.29120532214E+04 0.  0.
        3    1    3    3  502    0 -0.60275109808E+03  0.14326718737E+03  0.13241134037E+04  0.14618860042E+04  0.10100000352E+00 0.  1.
       -3    1    3    3    0  502  0.60275109808E+03 -0.14326718737E+03 -0.13111955136E+04  0.14501958690E+04  0.10100000352E+00 0. -1.
</event>
<event>
 5   0  0.1286641E-05  0.2684097E+04  0.7818609E-02  0.8340184E-01
       -2   -1    0    0    0  501  0.00000000000E+00  0.00000000000E+00  0.93363054381E+03  0.93363054381E+03  0.25500000920E-02 0. -1.
        2   -1    0    0  501    0  0.00000000000E+00  0.00000000000E+00 -0.19291290713E+04  0.19291290713E+04  0.25500000920E-02 0.  1.
    10030    2    1    2    0    0  0.00000000000E+00  0.00000000000E+00 -0.99549852751E+03  0.28627596151E+04  0.26840967374E+04 0.  0.
        4    1    3    3  502    0  0.89835719471E+02  0.11853374448E+04  0.16660670890E+03  0.12003560817E+04  0.12699999809E+01 0. -1.
       -4    1    3    3    0  502 -0.89835719471E+02 -0.11853374448E+04 -0.11621052364E+04  0.16624035334E+04  0.12699999809E+01 0.  1.
</event>
<event>
 5   0  0.4846214E-06  0.2713525E+04  0.7818609E-02  0.8330630E-01
        1   -1    0    0  501    0  0.00000000000E+00  0.00000000000E+00  0.16562180788E+04  0.16562180788E+04  0.50400001928E-02 0. -1.
       -1   -1    0    0    0  501  0.00000000000E+00  0.00000000000E+00 -0.11114502037E+04  0.11114502037E+04  0.50400001928E-02 0.  1.
    10030    2    1    2    0    0  0.00000000000E+00  0.00000000000E+00  0.54476787516E+03  0.27676682825E+04  0.27135245870E+04 0.  0.
        2    1    3    3  502    0  0.37127378002E+03 -0.12962623194E+04  0.42593247610E+03  0.14140575288E+04  0.25500000920E-02 0.  1.
       -2    1    3    3    0  502 -0.37127378002E+03  0.12962623194E+04  0.11883539906E+03  0.13536107537E+04  0.25500000920E-02 0. -1.
</event>
<event>
 5   0  0.1220908E-05  0.2689626E+04  0.7818609E-02  0.8338379E-01
       -2   -1    0    0    0  501  0.00000000000E+00  0.00000000000E+00  0.97786708030E+03  0.97786708030E+03  0.25500000920E-02 0. -1.
        2   -1    0    0  501    0  0.00000000000E+00  0.00000000000E+00 -0.18494562920E+04  0.18494562920E+04  0.25500000920E-02 0.  1.
    10030    2    1    2    0    0  0.00000000000E+00  0.00000000000E+00 -0.87158921172E+03  0.28273233723E+04  0.26896263119E+04 0.  0.
        2    1    3    3  502    0 -0.10431497589E+04 -0.71346654638E+03  0.47442762642E+02  0.12646923531E+04  0.25500000920E-02 0. -1.
       -2    1    3    3    0  502  0.10431497589E+04  0.71346654638E+03 -0.91903197436E+03  0.15626310192E+04  0.25500000920E-02 0.  1.
</event>
<event>
 5   0  0.4826140E-06  0.2688319E+04  0.7818609E-02  0.8338805E-01
        1   -1    0    0  501    0  0.00000000000E+00  0.00000000000E+00  0.16483458316E+04  0.16483458316E+04  0.50400001928E-02 0.  1.
       -1   -1    0    0    0  501  0.00000000000E+00  0.00000000000E+00 -0.10961075203E+04  0.10961075203E+04  0.50400001928E-02 0. -1.
    10030    2    1    2    0    0  0.00000000000E+00  0.00000000000E+00  0.55223831127E+03  0.27444533519E+04  0.26883186285E+04 0.  0.
        1    1    3    3  502    0  0.18778479252E+02 -0.12006991353E+04 -0.34042299162E+03  0.12481661981E+04  0.50400001928E-02 0. -1.
       -1    1    3    3    0  502 -0.18778479252E+02  0.12006991353E+04  0.89266130290E+03  0.14962871538E+04  0.50400001928E-02 0.  1.
</event>
<event>
 5   0  0.1220908E-05  0.2735479E+04  0.7818609E-02  0.8323584E-01
        2   -1    0    0  501    0  0.00000000000E+00  0.00000000000E+00  0.19545384562E+04  0.19545384562E+04  0.25500000920E-02 0. -1.
       -2   -1    0    0    0  501  0.00000000000E+00  0.00000000000E+00 -0.95711182894E+03  0.95711182895E+03  0.25500000920E-02 0.  1.
    10030    2    1    2    0    0  0.00000000000E+00  0.00000000000E+00  0.99742662721E+03  0.29116502851E+04  0.27354793924E+04 0.  0.
        2    1    3    3  502    0 -0.13407768626E+04  0.20425108905E+03  0.68705769336E+03  0.15203451505E+04  0.25500000920E-02 0.  1.
       -2    1    3    3    0  502  0.13407768626E+04 -0.20425108905E+03  0.31036893385E+03  0.13913051346E+04  0.25500000920E-02 0. -1.
</event>
<event>
 5   0  0.1261364E-05  0.2687986E+04  0.7818609E-02  0.8338914E-01
        2   -1    0    0  501    0  0.00000000000E+00  0.00000000000E+00  0.26409035755E+04  0.26409035755E+04  0.25500000920E-02 0.  1.
       -2   -1    0    0    0  501  0.00000000000E+00  0.00000000000E+00 -0.68397674759E+03  0.68397674759E+03  0.25500000920E-02 0. -1.
    10030    2    1    2    0    0  0.00000000000E+00  0.00000000000E+00  0.19569268280E+04  0.33248803231E+04  0.26879855939E+04 0.  0.
        5    1    3    3  502    0  0.26621360641E+03  0.77846413207E+02 -0.64818010979E+03  0.70504559641E+03  0.46999998093E+01 0. -1.
       -5    1    3    3    0  502 -0.26621360641E+03 -0.77846413207E+02  0.26051069377E+04  0.26198347267E+04  0.46999998093E+01 0.  1.
</event>
<event>
 5   0  0.1261364E-05  0.2692593E+04  0.7818609E-02  0.8337412E-01
       -2   -1    0    0    0  501  0.00000000000E+00  0.00000000000E+00  0.78356020759E+03  0.78356020759E+03  0.25500000920E-02 0.  1.
        2   -1    0    0  501    0  0.00000000000E+00  0.00000000000E+00 -0.23131774848E+04  0.23131774848E+04  0.25500000920E-02 0. -1.
    10030    2    1    2    0    0  0.00000000000E+00  0.00000000000E+00 -0.15296172772E+04  0.30967376924E+04  0.26925926763E+04 0.  0.
        5    1    3    3  502    0  0.94391103028E+03  0.32201995166E+03  0.27526585123E+03  0.10346295285E+04  0.46999998093E+01 0.  1.
       -5    1    3    3    0  502 -0.94391103028E+03 -0.32201995166E+03 -0.18048831284E+04  0.20621081639E+04  0.46999998093E+01 0. -1.
</event>
<event>
 5   0  0.4188000E-06  0.2681568E+04  0.7818609E-02  0.8341010E-01
       -4   -1    0    0    0  501  0.00000000000E+00  0.00000000000E+00  0.12287881611E+04  0.12287888174E+04  0.12699999809E+01 0. -1.
        4   -1    0    0  501    0  0.00000000000E+00  0.00000000000E+00 -0.14629866285E+04  0.14629871797E+04  0.12699999809E+01 0.  1.
    10030    2    1    2    0    0  0.00000000000E+00  0.00000000000E+00 -0.23419846742E+03  0.26917759971E+04  0.26815684024E+04 0.  0.
        1    1    3    3  502    0 -0.13056788462E+04  0.30379327590E+03 -0.92212316505E+02  0.13437227077E+04  0.50400001928E-02 0.  1.
       -1    1    3    3    0  502  0.13056788462E+04 -0.30379327590E+03 -0.14198615092E+03  0.13480532894E+04  0.50400001928E-02 0. -1.
</event>
<event>
 5   0  0.4826140E-06  0.2728414E+04  0.7818609E-02  0.8325844E-01
       -1   -1    0    0    0  501  0.00000000000E+00  0.00000000000E+00  0.11664778322E+04  0.11664778322E+04  0.50400001928E-02 0. -1.
        1   -1    0    0  501    0  0.00000000000E+00  0.00000000000E+00 -0.15954531567E+04  0.15954531567E+04  0.50400001928E-02 0.  1.
    10030    2    1    2    0    0  0.00000000000E+00  0.00000000000E+00 -0.42897532454E+03  0.27619309889E+04  0.27284140006E+04 0.  0.
        1    1    3    3  502    0 -0.16334469158E+03 -0.31803354838E+03  0.11182084859E+04  0.11739748908E+04  0.50400001928E-02 0. -1.
       -1    1    3    3    0  502  0.16334469158E+03  0.31803354838E+03 -0.15471838105E+04  0.15879560981E+04  0.50400001928E-02 0.  1.
</event>
<event>
 5   0  0.5152288E-06  0.2701377E+04  0.7818609E-02  0.8334558E-01
        1   -1    0    0  501    0  0.00000000000E+00  0.00000000000E+00  0.94093241608E+03  0.94093241609E+03  0.50400001928E-02 0. -1.
       -1   -1    0    0    0  501  0.00000000000E+00  0.00000000000E+00 -0.19388845899E+04  0.19388845899E+04  0.50400001928E-02 0.  1.
    10030    2    1    2    0    0  0.00000000000E+00  0.00000000000E+00 -0.99795217382E+03  0.28798170060E+04  0.27013769538E+04 0.  0.
        3    1    3    3  502    0 -0.12241950029E+04  0.97632241723E+02  0.10045975089E+03  0.12321840899E+04  0.10100000352E+00 0. -1.
       -3    1    3    3    0  502  0.12241950029E+04 -0.97632241723E+02 -0.10984119247E+04  0.16476329161E+04  0.10100000352E+00 0.  1.
</event>
<event>
 5   0  0.5152288E-06  0.2699470E+04  0.7818609E-02  0.8335177E-01
        1   -1    0    0  501    0  0.00000000000E+00  0.00000000000E+00  0.10294065570E+04  0.10294065570E+04  0.50400001928E-02 0. -1.
       -1   -1    0    0    0  501  0.00000000000E+00  0.00000000000E+00 -0.17697426406E+04  0.17697426406E+04  0.50400001928E-02 0.  1.
    10030    2    1    2    0    0  0.00000000000E+00  0.00000000000E+00 -0.74033608365E+03  0.27991491976E+04  0.26994700802E+04 0.  0.
        3    1    3    3  502    0  0.13163306489E+02 -0.73320572730E+03 -0.15451563669E+04  0.17103426907E+04  0.10100000352E+00 0.  1.
       -3    1    3    3    0  502 -0.13163306489E+02  0.73320572730E+03  0.80482028322E+03  0.10888065070E+04  0.10100000352E+00 0. -1.
</event>
<event>
 5   0  0.1276517E-05  0.2700677E+04  0.7818609E-02  0.8334785E-01
        2   -1    0    0  501    0  0.00000000000E+00  0.00000000000E+00  0.12259494400E+04  0.12259494400E+04  0.25500000920E-02 0. -1.
       -2   -1    0    0    0  501  0.00000000000E+00  0.00000000000E+00 -0.14873487683E+04  0.14873487683E+04  0.25500000920E-02 0.  1.
    10030    2    1    2    0    0  0.00000000000E+00  0.00000000000E+00 -0.26139932833E+03  0.27132982082E+04  0.27006772406E+04 0.  0.
        1    1    3    3  502    0 -0.13407067729E+04  0.16082075666E+03 -0.12315304983E+03  0.13559220628E+04  0.50400001928E-02 0. -1.
       -1    1    3    3    0  502  0.13407067729E+04 -0.16082075666E+03 -0.13824627850E+03  0.13573761454E+04  0.50400001928E-02 0.  1.
</event>
<event>
 5   0  0.4824715E-06  0.2619561E+04  0.7818609E-02  0.8361587E-01
        1   -1    0    0  501    0  0.00000000000E+00  0.00000000000E+00  0.12802807283E+04  0.12802807283E+04  0.50400001928E-02 0.  1.
       -1   -1    0    0    0  501  0.00000000000E+00  0.00000000000E+00 -0.13399604058E+04  0.13399604058E+04  0.50400001928E-02 0. -1.
    10030    2    1    2    0    0  0.00000000000E+00  0.00000000000E+00 -0.59679677516E+02  0.26202411341E+04  0.26195614017E+04 0.  0.
        5    1    3    3  502    0 -0.40176886009E+03  0.73306774844E+03  0.97873566844E+03  0.12871488412E+04  0.46999998093E+01 0.  1.
       -5    1    3    3    0  502  0.40176886009E+03 -0.73306774844E+03 -0.10384153460E+04  0.13330922929E+04  0.46999998093E+01 0. -1.
</event>
<event>
 5   0  0.1276517E-05  0.2726575E+04  0.7818609E-02  0.8326434E-01
        2   -1    0    0  501    0  0.00000000000E+00  0.00000000000E+00  0.16667394659E+04  0.16667394659E+04  0.25500000920E-02 0.  1.
       -2   -1    0    0    0  501  0.00000000000E+00  0.00000000000E+00 -0.11150826054E+04  0.11150826054E+04  0.25500000920E-02 0. -1.
    10030    2    1    2    0    0  0.00000000000E+00  0.00000000000E+00  0.55165686051E+03  0.27818220713E+04  0.27265745441E+04 0.  0.
        1    1    3    3  502    0 -0.11131214918E+04 -0.70737822320E+03  0.62797245210E+03  0.14607439224E+04  0.50400001928E-02 0.  1.
       -1    1    3    3    0  502  0.11131214918E+04  0.70737822320E+03 -0.76315591584E+02  0.13210781490E+04  0.50400001928E-02 0. -1.
</event>
<event>
 5   0  0.1232559E-05  0.2691791E+04  0.7818609E-02  0.8337674E-01
        2   -1    0    0  501    0  0.00000000000E+00  0.00000000000E+00  0.18089329761E+04  0.18089329761E+04  0.25500000920E-02 0. -1.
       -2   -1    0    0    0  501  0.00000000000E+00  0.00000000000E+00 -0.10013826367E+04  0.10013826367E+04  0.25500000920E-02 0.  1.
    10030    2    1    2    0    0  0.00000000000E+00  0.00000000000E+00  0.80755033939E+03  0.28103156128E+04  0.26917905366E+04 0.  0.
        3    1    3    3  502    0 -0.65691882949E+03  0.10413048618E+04 -0.16383261606E+03  0.12420544674E+04  0.10100000352E+00 0.  1.
       -3    1    3    3    0  502  0.65691882949E+03 -0.10413048618E+04  0.97138295546E+03  0.15682611454E+04  0.10100000352E+00 0. -1.
</event>
<event>
 5   0  0.1220908E-05  0.2686417E+04  0.7818609E-02  0.8339426E-01
        2   -1    0    0  501    0  0.00000000000E+00  0.00000000000E+00  0.12569940220E+04  0.12569940220E+04  0.25500000920E-02 0.  1.
       -2   -1    0    0    0  501  0.00000000000E+00  0.00000000000E+00 -0.14353366106E+04  0.14353366106E+04  0.25500000920E-02 0. -1.
    10030    2    1    2    0    0  0.00000000000E+00  0.00000000000E+00 -0.17834258865E+03  0.26923306326E+04  0.26864173459E+04 0.  0.
        2    1    3    3  502    0  0.76578418592E+03 -0.78801317430E+03  0.68507005149E+03  0.12948788197E+04  0.25500000920E-02 0.  1.
       -2    1    3    3    0  502 -0.76578418592E+03  0.78801317430E+03 -0.86341264014E+03  0.13974518129E+04  0.25500000920E-02 0. -1.
</event>
<event>
 5   0  0.4846214E-06  0.2685424E+04  0.7818609E-02  0.8339750E-01
        1   -1    0    0  501    0  0.00000000000E+00  0.00000000000E+00  0.19063661509E+04  0.19063661509E+04  0.50400001928E-02 0. -1.
       -1   -1    0    0    0  501  0.00000000000E+00  0.00000000000E+00 -0.94571323500E+03  0.94571323501E+03  0.50400001928E-02 0.  1.
    10030    2    1    2    0    0  0.00000000000E+00  0.00000000000E+00  0.96065291588E+03  0.28520793859E+04  0.26854241376E+04 0.  0.
        2    1    3    3  502    0  0.11566111151E+04  0.67675107334E+03  0.57003376869E+03  0.14562553981E+04  0.25500000920E-02 0. -1.
       -2    1    3    3    0  502 -0.11566111151E+04 -0.67675107334E+03  0.39061914719E+03  0.13958239879E+04  0.25500000920E-02 0.  1.
</event>
<event>
 5   0  0.1261364E-05  0.2687654E+04  0.7818609E-02  0.8339022E-01
       -2   -1    0    0    0  501  0.00000000000E+00  0.00000000000E+00  0.11068819306E+04  0.11068819306E+04  0.25500000920E-02 0. -1.
        2   -1    0    0  501    0  0.00000000000E+00  0.00000000000E+00 -0.16314933547E+04  0.16314933547E+04  0.25500000920E-02 0.  1.
    10030    2    1    2    0    0  0.00000000000E+00  0.00000000000E+00 -0.52461142411E+03  0.27383752853E+04  0.26876536341E+04 0.  0.
        5    1    3    3  502    0 -0.91654744373E+03  0.62308747850E+03  0.51200436850E+03  0.12208471591E+04  0.46999998093E+01 0. -1.
       -5    1    3    3    0  502  0.91654744373E+03 -0.62308747850E+03 -0.10366157926E+04  0.15175281263E+04  0.46999998093E+01 0.  1.
</event>
<event>
 5   0  0.4188000E-06  0.2741712E+04  0.7818609E-02  0.8321596E-01
        3   -1    0    0  501    0  0.00000000000E+00  0.00000000000E+00  0.22050368892E+04  0.22050368915E+04  0.10100000352E+00 0. -1.
       -3   -1    0    0    0  501  0.00000000000E+00  0.00000000000E+00 -0.85225142624E+03  0.85225143222E+03  0.10100000352E+00 0.  1.
    10030    2    1    2    0    0  0.00000000000E+00  0.00000000000E+00  0.13527854630E+04  0.30572883238E+04  0.27417117620E+04 0.  0.
        5    1    3    3  502    0  0.77031958603E+03 -0.35830876823E+03 -0.52328619863E+03  0.99781159228E+03  0.46999998093E+01 0.  1.
       -5    1    3    3    0  502 -0.77031958603E+03  0.35830876823E+03  0.18760716616E+04  0.20594767315E+04  0.46999998093E+01 0. -1.
</event>
<event>
 5   0  0.1261364E-05  0.2718451E+04  0.7818609E-02  0.8329043E-01
       -2   -1    0    0    0  501  0.00000000000E+00  0.00000000000E+00  0.15284662090E+04  0.15284662090E+04  0.25500000920E-02 0.  1.
        2   -1    0    0  501    0  0.00000000000E+00  0.00000000000E+00 -0.12087237925E+04  0.12087237925E+04  0.25500000920E-02 0. -1.
    10030    2    1    2    0    0  0.00000000000E+00  0.00000000000E+00  0.31974241649E+03  0.27371900016E+04  0.27184506418E+04 0.  0.
        5    1    3    3  502    0  0.40914966792E+03 -0.56471026402E+03  0.13346056912E+04  0.15058205650E+04  0.46999998093E+01 0.  1.
       -5    1    3    3    0  502 -0.40914966792E+03  0.56471026402E+03 -0.10148632747E+04  0.12313694366E+04  0.46999998093E+01 0. -1.
</event>
<event>
 5   0  0.1276517E-05  0.2723480E+04  0.7818609E-02  0.8327426E-01
       -2   -1    0    0    0  501  0.00000000000E+00  0.00000000000E+00  0.10177138360E+04  0.10177138360E+04  0.25500000920E-02 0. -1.
        2   -1    0    0  501    0  0.00000000000E+00  0.00000000000E+00 -0.18220606858E+04  0.18220606858E+04  0.25500000920E-02 0.  1.
    10030    2    1    2    0    0  0.00000000000E+00  0.00000000000E+00 -0.80434684975E+03  0.28397745218E+04  0.27234803983E+04 0.  0.
        1    1    3    3  502    0  0.10859232979E+04 -0.73261224615E+03 -0.14285654276E+02  0.13100206839E+04  0.50400001928E-02 0. -1.
       -1    1    3    3    0  502 -0.10859232979E+04  0.73261224615E+03 -0.79006119548E+03  0.15297538380E+04  0.50400001928E-02 0.  1.
</event>
<event>
 5   0  0.1286641E-05  0.2619593E+04  0.7818609E-02  0.8361576E-01
       -2   -1    0    0    0  501  0.00000000000E+00  0.00000000000E+00  0.12247029545E+04  0.12247029545E+04  0.25500000920E-02 0. -1.
        2   -1    0    0  501    0  0.00000000000E+00  0.00000000000E+00 -0.14008025445E+04  0.14008025445E+04  0.25500000920E-02 0.  1.
    10030    2    1    2    0    0  0.00000000000E+00  0.00000000000E+00 -0.17609959003E+03  0.26255054990E+04  0.26195931095E+04 0.  0.
        4    1    3    3  502    0 -0.49873884218E+03  0.85455127705E+03  0.77212209591E+03  0.12550587483E+04  0.12699999809E+01 0. -1.
       -4    1    3    3    0  502  0.49873884218E+03 -0.85455127705E+03 -0.94822168594E+03  0.13704467507E+04  0.12699999809E+01 0.  1.
</event>
<event>
 5   0  0.4846214E-06  0.2688873E+04  0.7818609E-02  0.8338624E-01
       -1   -1    0    0    0  501  0.00000000000E+00  0.00000000000E+00  0.85717144874E+03  0.85717144875E+03  0.50400001928E-02 0. -1.
        1   -1    0    0  501    0  0.00000000000E+00  0.00000000000E+00 -0.21086913935E+04  0.21086913935E+04  0.50400001928E-02 0.  1.
    10030    2    1    2    0    0  0.00000000000E+00  0.00000000000E+00 -0.12515199448E+04  0.29658628423E+04  0.26888734122E+04 0.  0.
        2    1    3    3  502    0  0.10835873016E+03 -0.13397969408E+04 -0.65520443156E+03  0.14953562465E+04  0.25500000920E-02 0.  1.
       -2    1    3    3    0  502 -0.10835873016E+03  0.13397969408E+04 -0.59631551320E+03  0.14705065958E+04  0.25500000920E-02 0. -1.
</event>
<event>
 5   0  0.4846214E-06  0.2904358E+04  0.7818609E-02  0.8271582E-01
       -1   -1    0    0    0  501  0.00000000000E+00  0.00000000000E+00  0.10087788974E+04  0.10087788974E+04  0.50400001928E-02 0. -1.
        1   -1    0    0  501    0  0.00000000000E+00  0.00000000000E+00 -0.20904715024E+04  0.20904715024E+04  0.50400001928E-02 0.  1.
    10030    2    1    2    0    0  0.00000000000E+00  0.00000000000E+00 -0.10816926051E+04  0.30992503998E+04  0.29043577860E+04 0.  0.
        2    1    3    3  502    0  0.14209560621E+03 -0.23172917690E+03  0.98138872252E+03  0.10183385476E+04  0.25500000920E-02 0. -1.
       -2    1    3    3    0  502 -0.14209560621E+03  0.23172917690E+03 -0.20630813276E+04  0.20809118523E+04  0.25500000920E-02 0.  1.
</event>
<event>
 5   0  0.1261364E-05  0.2701266E+04  0.7818609E-02  0.8334594E-01
        2   -1    0    0  501    0  0.00000000000E+00  0.00000000000E+00  0.23153898699E+04  0.23153898699E+04  0.25500000920E-02 0.  1.
       -2   -1    0    0    0  501  0.00000000000E+00  0.00000000000E+00 -0.78786278837E+03  0.78786278837E+03  0.25500000920E-02 0. -1.
    10030    2    1    2    0    0  0.00000000000E+00  0.00000000000E+00  0.15275270816E+04  0.31032526583E+04  0.27012660136E+04 0.  0.
        5    1    3    3  502    0  0.41179894818E+03  0.79587869814E+03  0.19246833994E+04  0.21230707840E+04  0.46999998093E+01 0.  1.
       -5    1    3    3    0  502 -0.41179894818E+03 -0.79587869814E+03 -0.39715631786E+03  0.98018187429E+03  0.46999998093E+01 0. -1.
</event>
<event>
 5   0  0.1232559E-05  0.2721339E+04  0.7818609E-02  0.8328114E-01
       -2   -1    0    0    0  501  0.00000000000E+00  0.00000000000E+00  0.11281141261E+04  0.11281141261E+04  0.25500000920E-02 0. -1.
        2   -1    0    0  501    0  0.00000000000E+00  0.00000000000E+00 -0.16411647491E+04  0.16411647491E+04  0.25500000920E-02 0.  1.
    10030    2    1    2    0    0  0.00000000000E+00  0.00000000000E+00 -0.51305062306E+03  0.27692788752E+04  0.27213387417E+04 0.  0.
        3    1    3    3  502    0  0.16161615253E+03  0.95730786665E+03  0.71361220297E+03  0.12049068506E+04  0.10100000352E+00 0. -1.
       -3    1    3    3    0  502 -0.16161615253E+03 -0.95730786665E+03 -0.12266628260E+04  0.15643720246E+04  0.10100000352E+00 0.  1.
</event>
<event>
 5   0  0.4846214E-06  0.2752530E+04  0.7818609E-02  0.8318159E-01
        1   -1    0    0  501    0  0.00000000000E+00  0.00000000000E+00  0.18613986554E+04  0.18613986554E+04  0.50400001928E-02 0.  1.
       -1   -1    0    0    0  501  0.00000000000E+00  0.00000000000E+00 -0.10175708046E+04  0.10175708046E+04  0.50400001928E-02 0. -1.
    10030    2    1    2    0    0  0.00000000000E+00  0.00000000000E+00  0.84382785077E+03  0.28789694600E+04  0.27525296928E+04 0.  0.
        2    1    3    3  502    0  0.93411976389E+03 -0.67979087069E+03 -0.36038005730E+03  0.12101938468E+04  0.25500000920E-02 0.  1.
       -2    1    3    3    0  502 -0.93411976389E+03  0.67979087069E+03  0.12042079081E+04  0.16687756131E+04  0.25500000920E-02 0. -1.
</event>
<event>
 5   0  0.1286641E-05  0.2706256E+04  0.7818609E-02  0.8332978E-01
        2   -1    0    0  501    0  0.00000000000E+00  0.00000000000E+00  0.16734291924E+04  0.16734291924E+04  0.25500000920E-02 0.  1.
       -2   -1    0    0    0  501  0.00000000000E+00  0.00000000000E+00 -0.10941341700E+04  0.10941341700E+04  0.25500000920E-02 0. -1.
    10030    2    1    2    0    0  0.00000000000E+00  0.00000000000E+00  0.57929502241E+03  0.27675633625E+04  0.27062564997E+04 0.  0.
        4    1    3    3  502    0  0.11985506989E+04 -0.31386820415E+03 -0.26665866553E+03  0.12673379519E+04  0.12699999809E+01 0. -1.
       -4    1    3    3    0  502 -0.11985506989E+04  0.31386820415E+03  0.84595368794E+03  0.15002254106E+04  0.12699999809E+01 0.  1.
</event>
<event>
 5   0  0.4756800E-06  0.2795601E+04  0.7818609E-02  0.8304635E-01
        1   -1    0    0  501    0  0.00000000000E+00  0.00000000000E+00  0.10925495528E+04  0.10925495528E+04  0.50400001928E-02 0. -1.
       -1   -1    0    0    0  501  0.00000000000E+00  0.00000000000E+00 -0.17883365698E+04  0.17883365698E+04  0.50400001928E-02 0.  1.
    10030    2    1    2    0    0  0.00000000000E+00  0.00000000000E+00 -0.69578701695E+03  0.28808861226E+04  0.27956010585E+04 0.  0.
        4    1    3    3  502    0  0.57565021079E+03  0.11274850904E+04 -0.95863635578E+03  0.15879486987E+04  0.12699999809E+01 0.  1.
       -4    1    3    3    0  502 -0.57565021079E+03 -0.11274850904E+04  0.26284933884E+03  0.12929374239E+04  0.12699999809E+01 0. -1.
</event>
<event>
 5   0  0.5152288E-06  0.2637373E+04  0.7818609E-02  0.8355616E-01
       -1   -1    0    0    0  501  0.00000000000E+00  0.00000000000E+00  0.10687475150E+04  0.10687475150E+04  0.50400001928E-02 0.  1.
        1   -1    0    0  501    0  0.00000000000E+00  0.00000000000E+00 -0.16270764661E+04  0.16270764661E+04  0.50400001928E-02 0. -1.
    10030    2    1    2    0    0  0.00000000000E+00  0.00000000000E+00 -0.55832895111E+03  0.26958239811E+04  0.26373728821E+04 0.  0.
        3    1    3    3  502    0  0.19127260923E+03 -0.57116939348E+03  0.91991298429E+03  0.10995724605E+04  0.10100000352E+00 0.  1.
       -3    1    3    3    0  502 -0.19127260923E+03  0.57116939348E+03 -0.14782419354E+04  0.15962515206E+04  0.10100000352E+00 0. -1.
</event>
<event>
 5   0  0.1276517E-05  0.2686405E+04  0.7818609E-02  0.8339430E-01
        2   -1    0    0  501    0  0.00000000000E+00  0.00000000000E+00  0.12622708834E+04  0.12622708834E+04  0.25500000920E-02 0. -1.
       -2   -1    0    0    0  501  0.00000000000E+00  0.00000000000E+00 -0.14293227793E+04  0.14293227793E+04  0.25500000920E-02 0.  1.
    10030    2    1    2    0    0  0.00000000000E+00  0.00000000000E+00 -0.16705189586E+03  0.26915936627E+04  0.26864046808E+04 0.  0.
        1    1    3    3  502    0 -0.12480870564E+04  0.46439118334E+03  0.92346739002E+02  0.13348814149E+04  0.50400001928E-02 0. -1.
       -1    1    3    3    0  502  0.12480870564E+04 -0.46439118334E+03 -0.25939863487E+03  0.13567122478E+04  0.50400001928E-02 0.  1.
</event>
<event>
 5   0  0.4846214E-06  0.2663054E+04  0.7818609E-02  0.8347093E-01
       -1   -1    0    0    0  501  0.00000000000E+00  0.00000000000E+00  0.14029069097E+04  0.14029069097E+04  0.50400001928E-02 0. -1.
        1   -1    0    0  501    0  0.00000000000E+00  0.00000000000E+00 -0.12637784679E+04  0.12637784679E+04  0.50400001928E-02 0.  1.
    10030    2    1    2    0    0  0.00000000000E+00  0.00000000000E+00  0.13912844184E+03  0.26666853776E+04  0.26630535443E+04 0.  0.
        2    1    3    3  502    0  0.52007573827E+03  0.39155472507E+03  0.12326859401E+04  0.13940260052E+04  0.25500000920E-02 0. -1.
       -2    1    3    3    0  502 -0.52007573827E+03 -0.39155472507E+03 -0.10935574982E+04  0.12726593724E+04  0.25500000920E-02 0.  1.
</event>
<event>
 5   0  0.1276517E-05  0.2716806E+04  0.7818609E-02  0.8329573E-01
        2   -1    0    0  501    0  0.00000000000E+00  0.00000000000E+00  0.92367149139E+03  0.92367149139E+03  0.25500000920E-02 0.  1.
       -2   -1    0    0    0  501  0.00000000000E+00  0.00000000000E+00 -0.19977432516E+04  0.19977432516E+04  0.25500000920E-02 0. -1.
    10030    2    1    2    0    0  0.00000000000E+00  0.00000000000E+00 -0.10740717602E+04  0.29214147429E+04  0.27168058367E+04 0.  0.
        1    1    3    3  502    0  0.34066594948E+03 -0.12709445398E+04 -0.17411968844E+03  0.13272795404E+04  0.50400001928E-02 0.  1.
       -1    1    3    3    0  502 -0.34066594948E+03  0.12709445398E+04 -0.89995207173E+03  0.15941352025E+04  0.50400001928E-02 0. -1.
</event>
<event>
 5   0  0.1232559E-05  0.2708865E+04  0.7818609E-02  0.8332134E-01
       -2   -1    0    0    0  501  0.00000000000E+00  0.00000000000E+00  0.10321275137E+04  0.10321275137E+04  0.25500000920E-02 0. -1.
        2   -1    0    0  501    0  0.00000000000E+00  0.00000000000E+00 -0.17773841171E+04  0.17773841171E+04  0.25500000920E-02 0.  1.
    10030    2    1    2    0    0  0.00000000000E+00  0.00000000000E+00 -0.74525660341E+03  0.28095116308E+04  0.27088647435E+04 0.  0.
        3    1    3    3  502    0 -0.22890150386E+03 -0.49111151413E+03  0.91482305349E+03  0.10632439265E+04  0.10100000352E+00 0. -1.
       -3    1    3    3    0  502  0.22890150386E+03  0.49111151413E+03 -0.16600796569E+04  0.17462677043E+04  0.10100000352E+00 0.  1.
</event>
<event>
 5   0  0.4826140E-06  0.2701617E+04  0.7818609E-02  0.8334480E-01
        1   -1    0    0  501    0  0.00000000000E+00  0.00000000000E+00  0.15673749781E+04  0.15673749781E+04  0.50400001928E-02 0. -1.
       -1   -1    0    0    0  501  0.00000000000E+00  0.00000000000E+00 -0.11641655720E+04  0.11641655720E+04  0.50400001928E-02 0.  1.
    10030    2    1    2    0    0  0.00000000000E+00  0.00000000000E+00  0.40320940613E+03  0.27315405501E+04  0.27016172845E+04 0.  0.
        1    1    3    3  502    0  0.28873729456E+03 -0.59246132089E+02 -0.11312545902E+04  0.11690236428E+04  0.50400001928E-02 0.  1.
       -1    1    3    3    0  502 -0.28873729456E+03  0.59246132089E+02  0.15344639964E+04  0.15625169073E+04  0.50400001928E-02 0. -1.
</event>
<event>
 5   0  0.4826140E-06  0.2663439E+04  0.7818609E-02  0.8346966E-01
       -1   -1    0    0    0  501  0.00000000000E+00  0.00000000000E+00  0.10660518969E+04  0.10660518969E+04  0.50400001928E-02 0. -1.
        1   -1    0    0  501    0  0.00000000000E+00  0.00000000000E+00 -0.16635932989E+04  0.16635932989E+04  0.50400001928E-02 0.  1.
    10030    2    1    2    0    0  0.00000000000E+00  0.00000000000E+00 -0.59754140195E+03  0.27296451958E+04  0.26634389739E+04 0.  0.
        1    1    3    3  502    0  0.58882890091E+03 -0.10610723017E+04  0.26339221637E+03  0.12417605903E+04  0.50400001928E-02 0. -1.
       -1    1    3    3    0  502 -0.58882890091E+03  0.10610723017E+04 -0.86093361832E+03  0.14878846055E+04  0.50400001928E-02 0.  1.
</event>
<event>
 5   0  0.1276517E-05  0.2698172E+04  0.7818609E-02  0.8335598E-01
        2   -1    0    0  501    0  0.00000000000E+00  0.00000000000E+00  0.20173579250E+04  0.20173579250E+04  0.25500000920E-02 0.  1.
       -2   -1    0    0    0  501  0.00000000000E+00  0.00000000000E+00 -0.90218634670E+03  0.90218634671E+03  0.25500000920E-02 0. -1.
    10030    2    1    2    0    0  0.00000000000E+00  0.00000000000E+00  0.11151715783E+04  0.29195442717E+04  0.26981718080E+04 0.  0.
        1    1    3    3  502    0  0.75144172981E+03  0.46132866094E+03 -0.54723708000E+03  0.10377654978E+04  0.50400001928E-02 0. -1.
       -1    1    3    3    0  502 -0.75144172981E+03 -0.46132866094E+03  0.16624086583E+04  0.18817787739E+04  0.50400001928E-02 0.  1.
</event>
<event>
 5   0  0.4846214E-06  0.2735088E+04  0.7818609E-02  0.8323709E-01
        1   -1    0    0  501    0  0.00000000000E+00  0.00000000000E+00  0.22296411140E+04  0.22296411140E+04  0.50400001928E-02 0.  1.
       -1   -1    0    0    0  501  0.00000000000E+00  0.00000000000E+00 -0.83877915364E+03  0.83877915366E+03  0.50400001928E-02 0. -1.
    10030    2    1    2    0    0  0.00000000000E+00  0.00000000000E+00  0.13908619604E+04  0.30684202677E+04  0.27350879230E+04 0.  0.
        2    1    3    3  502    0  0.35894749817E+03 -0.50404430957E+03  0.20635970846E+04  0.21543762207E+04  0.25500000920E-02 0.  1.
       -2    1    3    3    0  502 -0.35894749817E+03  0.50404430957E+03 -0.67273512426E+03  0.91404404701E+03  0.25500000920E-02 0. -1.
</event>
<event>
 5   0  0.4826140E-06  0.2721833E+04  0.7818609E-02  0.8327956E-01
       -1   -1    0    0    0  501  0.00000000000E+00  0.00000000000E+00  0.10299445122E+04  0.10299445122E+04  0.50400001928E-02 0. -1.
        1   -1    0    0  501    0  0.00000000000E+00  0.00000000000E+00 -0.17982460339E+04  0.17982460339E+04  0.50400001928E-02 0.  1.
    10030    2    1    2    0    0  0.00000000000E+00  0.00000000000E+00 -0.76830152168E+03  0.28281905460E+04  0.27218329369E+04 0.  0.
        1    1    3    3  502    0  0.74802460543E+03 -0.10151434496E+04  0.14774702113E+03  0.12696008097E+04  0.50400001928E-02 0.  1.
       -1    1    3    3    0  502 -0.74802460543E+03  0.10151434496E+04 -0.91604854280E+03  0.15585897364E+04  0.50400001928E-02 0. -1.
</event>
<event>
 5   0  0.1232559E-05  0.2710905E+04  0.7818609E-02  0.8331475E-01
        2   -1    0    0  501    0  0.00000000000E+00  0.00000000000E+00  0.18960057872E+04  0.18960057872E+04  0.25500000920E-02 0. -1.
       -2   -1    0    0    0  501  0.00000000000E+00  0.00000000000E+00 -0.96901163675E+03  0.96901163675E+03  0.25500000920E-02 0.  1.
    10030    2    1    2    0    0  0.00000000000E+00  0.00000000000E+00  0.92699415047E+03  0.28650174240E+04  0.27109051412E+04 0.  0.
        3    1    3    3  502    0  0.68004802536E+03  0.11641308961E+04  0.31559257212E+03  0.13846532930E+04  0.10100000352E+00 0. -1.
       -3    1    3    3    0  502 -0.68004802536E+03 -0.11641308961E+04  0.61140157835E+03  0.14803641310E+04  0.10100000352E+00 0.  1.
</event>
<event>
 5   0  0.4756800E-06  0.2719247E+04  0.7818609E-02  0.8328787E-01
        1   -1    0    0  501    0  0.00000000000E+00  0.00000000000E+00  0.16005142009E+04  0.16005142009E+04  0.50400001928E-02 0. -1.
       -1   -1    0    0    0  501  0.00000000000E+00  0.00000000000E+00 -0.11549885436E+04  0.11549885436E+04  0.50400001928E-02 0.  1.
    10030    2    1    2    0    0  0.00000000000E+00  0.00000000000E+00  0.44552565728E+03  0.27555027445E+04  0.27192466353E+04 0.  0.
        4    1    3    3  502    0 -0.82620499863E+03  0.66366831307E+03  0.10858845397E+04  0.15173058940E+04  0.12699999809E+01 0. -1.
       -4    1    3    3    0  502  0.82620499863E+03 -0.66366831307E+03 -0.64035888239E+03  0.12381968505E+04  0.12699999809E+01 0.  1.
</event>
<event>
 5   0  0.4826140E-06  0.2700566E+04  0.7818609E-02  0.8334821E-01
       -1   -1    0    0    0  501  0.00000000000E+00  0.00000000000E+00  0.12232033563E+04  0.12232033563E+04  0.50400001928E-02 0. -1.
        1   -1    0    0  501    0  0.00000000000E+00  0.00000000000E+00 -0.14905652033E+04  0.14905652033E+04  0.50400001928E-02 0.  1.
    10030    2    1    2    0    0  0.00000000000E+00  0.00000000000E+00 -0.26736184695E+03  0.27137685596E+04  0.27005661328E+04 0.  0.
        1    1    3    3  502    0  0.12739918534E+04 -0.26615427284E+03  0.22775930733E+03  0.13212750060E+04  0.50400001928E-02 0. -1.
       -1    1    3    3    0  502 -0.12739918534E+04  0.26615427284E+03 -0.49512115428E+03  0.13924935536E+04  0.50400001928E-02 0.  1.
</event>
<event>
 5   0  0.4826140E-06  0.2719071E+04  0.7818609E-02  0.8328843E-01
       -1   -1    0    0    0  501  0.00000000000E+00  0.00000000000E+00  0.10939097243E+04  0.10939097243E+04  0.50400001928E-02 0. -1.
        1   -1    0    0  501    0  0.00000000000E+00  0.00000000000E+00 -0.16896612722E+04  0.16896612722E+04  0.50400001928E-02 0.  1.
    10030    2    1    2    0    0  0.00000000000E+00  0.00000000000E+00 -0.59575154788E+03  0.27835709966E+04  0.27190710888E+04 0.  0.
        1    1    3    3  502    0 -0.10641677324E+04 -0.61753975979E+02  0.56598389990E+03  0.12068986251E+04  0.50400001928E-02 0. -1.
       -1    1    3    3    0  502  0.10641677324E+04  0.61753975979E+02 -0.11617354478E+04  0.15766723715E+04  0.50400001928E-02 0.  1.
</event>
<event>
 5   0  0.1220908E-05  0.2810682E+04  0.7818609E-02  0.8299960E-01
       -2   -1    0    0    0  501  0.00000000000E+00  0.00000000000E+00  0.13657981613E+04  0.13657981613E+04  0.25500000920E-02 0.  1.
        2   -1    0    0  501    0  0.00000000000E+00  0.00000000000E+00 -0.14460284996E+04  0.14460284996E+04  0.25500000920E-02 0. -1.
    10030    2    1    2    0    0  0.00000000000E+00  0.00000000000E+00 -0.80230338335E+02  0.28118266609E+04  0.28106818147E+04 0.  0.
        2    1    3    3  502    0  0.35734064970E+03  0.12940771696E+03  0.13134120401E+04  0.13672929036E+04  0.25500000920E-02 0.  1.
       -2    1    3    3    0  502 -0.35734064970E+03 -0.12940771696E+03 -0.13936423784E+04  0.14445337573E+04  0.25500000920E-02 0. -1.
</event>
<event>
 5   0  0.1286641E-05  0.2700858E+04  0.7818609E-02  0.8334727E-01
       -2   -1    0    0    0  501  0.00000000000E+00  0.00000000000E+00  0.14072422970E+04  0.14072422970E+04  0.25500000920E-02 0. -1.
        2   -1    0    0  501    0  0.00000000000E+00  0.00000000000E+00 -0.12959096502E+04  0.12959096502E+04  0.25500000920E-02 0.  1.
    10030    2    1    2    0    0  0.00000000000E+00  0.00000000000E+00  0.11133264683E+03  0.27031519473E+04  0.27008582880E+04 0.  0.
        4    1    3    3  502    0 -0.11523686527E+03 -0.13230403674E+04 -0.18937196681E+03  0.13414837694E+04  0.12699999809E+01 0.  1.
       -4    1    3    3    0  502  0.11523686527E+03  0.13230403674E+04  0.30070461364E+03  0.13616681778E+04  0.12699999809E+01 0. -1.
</event>
<event>
 5   0  0.1232559E-05  0.2690236E+04  0.7818609E-02  0.8338180E-01
       -2   -1    0    0    0  501  0.00000000000E+00  0.00000000000E+00  0.10294866586E+04  0.10294866586E+04  0.25500000920E-02 0. -1.
        2   -1    0    0  501    0  0.00000000000E+00  0.00000000000E+00 -0.17575189531E+04  0.17575189531E+04  0.25500000920E-02 0.  1.
    10030    2    1    2    0    0  0.00000000000E+00  0.00000000000E+00 -0.72803229452E+03  0.27870056117E+04  0.26902359112E+04 0.  0.
        3    1    3    3  502    0  0.34080464131E+03 -0.67087041472E+03  0.79104584846E+03  0.10917730815E+04  0.10100000352E+00 0. -1.
       -3    1    3    3    0  502 -0.34080464131E+03  0.67087041472E+03 -0.15190781430E+04  0.16952325302E+04  0.10100000352E+00 0.  1.
</event>
<event>
 5   0  0.5152288E-06  0.2693489E+04  0.7818609E-02  0.8337121E-01
       -1   -1    0    0    0  501  0.00000000000E+00  0.00000000000E+00  0.88875672973E+03  0.88875672974E+03  0.50400001928E-02 0.  1.
        1   -1    0    0  501    0  0.00000000000E+00  0.00000000000E+00 -0.20407386122E+04  0.20407386122E+04  0.50400001928E-02 0. -1.
    10030    2    1    2    0    0  0.00000000000E+00  0.00000000000E+00 -0.11519818825E+04  0.29294953420E+04  0.26934885745E+04 0.  0.
        3    1    3    3  502    0  0.39322503374E+03  0.14962422131E+03  0.81544469374E+03  0.91758563280E+03  0.10100000352E+00 0.  1.
       -3    1    3    3    0  502 -0.39322503374E+03 -0.14962422131E+03 -0.19674265762E+04  0.20119097092E+04  0.10100000352E+00 0. -1.
</event>
<event>
 5   0  0.1261364E-05  0.2690298E+04  0.7818609E-02  0.8338160E-01
        2   -1    0    0  501    0  0.00000000000E+00  0.00000000000E+00  0.13030368109E+04  0.13030368109E+04  0.25500000920E-02 0. -1.
       -2   -1    0    0    0  501  0.00000000000E+00  0.00000000000E+00 -0.13886220514E+04  0.13886220514E+04  0.25500000920E-02 0.  1.
    10030    2    1    2    0    0  0.00000000000E+00  0.00000000000E+00 -0.85585240484E+02  0.26916588624E+04  0.26902978642E+04 0.  0.
        5    1    3    3  502    0  0.41156522011E+03 -0.12238263848E+04  0.33458065400E+03  0.13338302946E+04  0.46999998093E+01 0. -1.
       -5    1    3    3    0  502 -0.41156522011E+03  0.12238263848E+04 -0.42016589448E+03  0.13578285678E+04  0.46999998093E+01 0.  1.
</event>
<event>
 5   0  0.1220908E-05  0.2706072E+04  0.7818609E-02  0.8333037E-01
       -2   -1    0    0    0  501  0.00000000000E+00  0.00000000000E+00  0.17218874470E+04  0.17218874470E+04  0.25500000920E-02 0. -1.
        2   -1    0    0  501    0  0.00000000000E+00  0.00000000000E+00 -0.10631977380E+04  0.10631977380E+04  0.25500000920E-02 0.  1.
    10030    2    1    2    0    0  0.00000000000E+00  0.00000000000E+00  0.65868970902E+03  0.27850851850E+04  0.27060723114E+04 0.  0.
        2    1    3    3  502    0  0.26672259289E+03 -0.10250318461E+04 -0.53718614318E+03  0.11876027027E+04  0.25500000920E-02 0.  1.
       -2    1    3    3    0  502 -0.26672259289E+03  0.10250318461E+04  0.11958758522E+04  0.15974824822E+04  0.25500000920E-02 0. -1.
</event>
<event>
 5   0  0.5152288E-06  0.2731094E+04  0.7818609E-02  0.8324986E-01
        1   -1    0    0  501    0  0.00000000000E+00  0.00000000000E+00  0.93344736048E+03  0.93344736050E+03  0.50400001928E-02 0. -1.
       -1   -1    0    0    0  501  0.00000000000E+00  0.00000000000E+00 -0.19976691963E+04  0.19976691964E+04  0.50400001928E-02 0.  1.
    10030    2    1    2    0    0  0.00000000000E+00  0.00000000000E+00 -0.10642218359E+04  0.29311165568E+04  0.27310943144E+04 0.  0.
        3    1    3    3  502    0  0.74612628993E+02  0.17839941388E+03 -0.19829002842E+04  0.19923069399E+04  0.10100000352E+00 0.  1.
       -3    1    3    3    0  502 -0.74612628993E+02 -0.17839941388E+03  0.91867844835E+03  0.93880961699E+03  0.10100000352E+00 0. -1.
</event>
<event>
 5   0  0.1261364E-05  0.2678316E+04  0.7818609E-02  0.8342075E-01
        2   -1    0    0  501    0  0.00000000000E+00  0.00000000000E+00  0.25425394309E+04  0.25425394309E+04  0.25500000920E-02 0. -1.
       -2   -1    0    0    0  501  0.00000000000E+00  0.00000000000E+00 -0.70533579256E+03  0.70533579256E+03  0.25500000920E-02 0.  1.
    10030    2    1    2    0    0  0.00000000000E+00  0.00000000000E+00  0.18372036383E+04  0.32478752235E+04  0.26783159370E+04 0.  0.
        5    1    3    3  502    0 -0.18704785644E+03  0.11112986609E+04  0.41330776178E+02  0.11276976268E+04  0.46999998093E+01 0.  1.
       -5    1    3    3    0  502  0.18704785644E+03 -0.11112986609E+04  0.17958728622E+04  0.21201775967E+04  0.46999998093E+01 0. -1.
</event>
<event>
 5   0  0.4188000E-06  0.2697639E+04  0.7818609E-02  0.8335771E-01
       -3   -1    0    0    0  501  0.00000000000E+00  0.00000000000E+00  0.23896355469E+04  0.23896355491E+04  0.10100000352E+00 0. -1.
        3   -1    0    0  501    0  0.00000000000E+00  0.00000000000E+00 -0.76133560464E+03  0.76133561134E+03  0.10100000352E+00 0.  1.
    10030    2    1    2    0    0  0.00000000000E+00  0.00000000000E+00  0.16282999423E+04  0.31509711604E+04  0.26976394406E+04 0.  0.
        4    1    3    3  502    0  0.30870937930E+03 -0.10179837716E+04 -0.15449925894E+03  0.10749251481E+04  0.12699999809E+01 0.  1.
       -4    1    3    3    0  502 -0.30870937930E+03  0.10179837716E+04  0.17827992012E+04  0.20760460122E+04  0.12699999809E+01 0. -1.
</event>
<event>
 5   0  0.1261364E-05  0.2661110E+04  0.7818609E-02  0.8347735E-01
       -2   -1    0    0    0  501  0.00000000000E+00  0.00000000000E+00  0.13492513147E+04  0.13492513147E+04  0.25500000920E-02 0.  1.
        2   -1    0    0  501    0  0.00000000000E+00  0.00000000000E+00 -0.13121177625E+04  0.13121177625E+04  0.25500000920E-02 0. -1.
    10030    2    1    2    0    0  0.00000000000E+00  0.00000000000E+00  0.37133552212E+02  0.26613690772E+04  0.26611100060E+04 0.  0.
        5    1    3    3  502    0 -0.95915715230E+03 -0.62509138392E+03  0.69659505282E+03  0.13401449320E+04  0.46999998093E+01 0.  1.
       -5    1    3    3    0  502  0.95915715230E+03  0.62509138392E+03 -0.65946150061E+03  0.13212241452E+04  0.46999998093E+01 0. -1.
</event>
<event>
 5   0  0.1276517E-05  0.2784316E+04  0.7818609E-02  0.8308154E-01
       -2   -1    0    0    0  501  0.00000000000E+00  0.00000000000E+00  0.11756174696E+04  0.11756174696E+04  0.25500000920E-02 0. -1.
        2   -1    0    0  501    0  0.00000000000E+00  0.00000000000E+00 -0.16485837666E+04  0.16485837666E+04  0.25500000920E-02 0.  1.
    10030    2    1    2    0    0  0.00000000000E+00  0.00000000000E+00 -0.47296629695E+03  0.28242012362E+04  0.27843159850E+04 0.  0.
        1    1    3    3  502    0 -0.67076020089E+03 -0.74456709867E+03 -0.12166614655E+04  0.15762501493E+04  0.50400001928E-02 0.  1.
       -1    1    3    3    0  502  0.67076020089E+03  0.74456709867E+03  0.74369516857E+03  0.12479510869E+04  0.50400001928E-02 0. -1.
</event>
<event>
 5   0  0.1286641E-05  0.2707438E+04  0.7818609E-02  0.8332596E-01
        2   -1    0    0  501    0  0.00000000000E+00  0.00000000000E+00  0.18149986212E+04  0.18149986212E+04  0.25500000920E-02 0.  1.
       -2   -1    0    0    0  501  0.00000000000E+00  0.00000000000E+00 -0.10096731711E+04  0.10096731711E+04  0.25500000920E-02 0. -1.
    10030    2    1    2    0    0  0.00000000000E+00  0.00000000000E+00  0.80532545009E+03  0.28246717923E+04  0.27074382087E+04 0.  0.
        4    1    3    3  502    0  0.89053265563E+03 -0.88028286333E+03  0.93933664372E+03  0.15653438195E+04  0.12699999809E+01 0.  1.
       -4    1    3    3    0  502 -0.89053265563E+03  0.88028286333E+03 -0.13401119363E+03  0.12593279728E+04  0.12699999809E+01 0. -1.
</event>
<event>
 5   0  0.5152288E-06  0.2698241E+04  0.7818609E-02  0.8335576E-01
        1   -1    0    0  501    0  0.00000000000E+00  0.00000000000E+00  0.16755592255E+04  0.16755592255E+04  0.50400001928E-02 0. -1.
       -1   -1    0    0    0  501  0.00000000000E+00  0.00000000000E+00 -0.10862801520E+04  0.10862801520E+04  0.50400001928E-02 0.  1.
    10030    2    1    2    0    0  0.00000000000E+00  0.00000000000E+00  0.58927907356E+03  0.27618393775E+04  0.26982414497E+04 0.  0.
        3    1    3    3  502    0  0.11398947232E+04  0.34796052684E+03  0.94175140376E+03  0.15189905283E+04  0.10100000352E+00 0. -1.
       -3    1    3    3    0  502 -0.11398947232E+04 -0.34796052684E+03 -0.35247233020E+03  0.12428488492E+04  0.10100000352E+00 0.  1.
</event>
<event>
 5   0  0.4756800E-06  0.2705218E+04  0.7818609E-02  0.8333314E-01
       -1   -1    0    0    0  501  0.00000000000E+00  0.00000000000E+00  0.10597708279E+04  0.10597708279E+04  0.50400001928E-02 0. -1.
        1   -1    0    0  501    0  0.00000000000E+00  0.00000000000E+00 -0.17263651262E+04  0.17263651262E+04  0.50400001928E-02 0.  1.
    10030    2    1    2    0    0  0.00000000000E+00  0.00000000000E+00 -0.66659429826E+03  0.27861359541E+04  0.27052182160E+04 0.  0.
        4    1    3    3  502    0 -0.32147010823E+01 -0.14016734506E+03 -0.17188605395E+04  0.17245696235E+04  0.12699999809E+01 0.  1.
       -4    1    3    3    0  502  0.32147010823E+01  0.14016734506E+03  0.10522662413E+04  0.10615663306E+04  0.12699999809E+01 0. -1.
</event>
<event>
 5   0  0.1276517E-05  0.2421810E+04  0.7818609E-02  0.8431383E-01
        2   -1    0    0  501    0  0.00000000000E+00  0.00000000000E+00  0.98909739241E+03  0.98909739241E+03  0.25500000920E-02 0.  1.
       -2   -1    0    0    0  501  0.00000000000E+00  0.00000000000E+00 -0.14824532437E+04  0.14824532437E+04  0.25500000920E-02 0. -1.
    10030    2    1    2    0    0  0.00000000000E+00  0.00000000000E+00 -0.49335585127E+03  0.24715506361E+04  0.24218097677E+04 0.  0.
        1    1    3    3  502    0  0.42332482445E+03 -0.10039658801E+04 -0.78586557263E+03  0.13434046649E+04  0.50400001928E-02 0. -1.
       -1    1    3    3    0  502 -0.42332482445E+03  0.10039658801E+04  0.29250972135E+03  0.11281459712E+04  0.50400001928E-02 0.  1.
</event>
<event>
 5   0  0.4826140E-06  0.2707600E+04  0.7818609E-02  0.8332543E-01
        1   -1    0    0  501    0  0.00000000000E+00  0.00000000000E+00  0.17481202002E+04  0.17481202002E+04  0.50400001928E-02 0.  1.
       -1   -1    0    0    0  501  0.00000000000E+00  0.00000000000E+00 -0.10484258993E+04  0.10484258993E+04  0.50400001928E-02 0. -1.
    10030    2    1    2    0    0  0.00000000000E+00  0.00000000000E+00  0.69969430094E+03  0.27965460995E+04  0.27076000391E+04 0.  0.
        1    1    3    3  502    0  0.44009707671E+02 -0.13523908791E+04  0.39458935629E+03  0.14094675251E+04  0.50400001928E-02 0. -1.
       -1    1    3    3    0  502 -0.44009707671E+02  0.13523908791E+04  0.30510494464E+03  0.13870785744E+04  0.50400001928E-02 0.  1.
</event>
<event>
 5   0  0.1286641E-05  0.2393626E+04  0.7818609E-02  0.8441894E-01
        2   -1    0    0  501    0  0.00000000000E+00  0.00000000000E+00  0.12837754229E+04  0.12837754229E+04  0.25500000920E-02 0.  1.
       -2   -1    0    0    0  501  0.00000000000E+00  0.00000000000E+00 -0.11157415566E+04  0.11157415566E+04  0.25500000920E-02 0. -1.
    10030    2    1    2    0    0  0.00000000000E+00  0.00000000000E+00  0.16803386626E+03  0.23995169795E+04  0.23936261936E+04 0.  0.
        4    1    3    3  502    0 -0.10244555118E+04 -0.27457720447E+03 -0.47183685062E+03  0.11608330472E+04  0.12699999809E+01 0. -1.
       -4    1    3    3    0  502  0.10244555118E+04  0.27457720447E+03  0.63987071687E+03  0.12386839323E+04  0.12699999809E+01 0.  1.
</event>
<event>
 5   0  0.1261364E-05  0.2793689E+04  0.7818609E-02  0.8305230E-01
        2   -1    0    0  501    0  0.00000000000E+00  0.00000000000E+00  0.25659811693E+04  0.25659811693E+04  0.25500000920E-02 0. -1.
       -2   -1    0    0    0  501  0.00000000000E+00  0.00000000000E+00 -0.76040111833E+03  0.76040111834E+03  0.25500000920E-02 0.  1.
    10030    2    1    2    0    0  0.00000000000E+00  0.00000000000E+00  0.18055800509E+04  0.33263822876E+04  0.27936892818E+04 0.  0.
        5    1    3    3  502    0  0.11813110916E+04 -0.74494091479E+03  0.93473922799E+03  0.16805333606E+04  0.46999998093E+01 0.  1.
       -5    1    3    3    0  502 -0.11813110916E+04  0.74494091479E+03  0.87084082295E+03  0.16458489270E+04  0.46999998093E+01 0. -1.
</event>
<event>
 5   0  0.1261364E-05  0.2709402E+04  0.7818609E-02  0.8331961E-01
       -2   -1    0    0    0  501  0.00000000000E+00  0.00000000000E+00  0.14666492480E+04  0.14666492480E+04  0.25500000920E-02 0. -1.
        2   -1    0    0  501    0  0.00000000000E+00  0.00000000000E+00 -0.12512980904E+04  0.12512980904E+04  0.25500000920E-02 0.  1.
    10030    2    1    2    0    0  0.00000000000E+00  0.00000000000E+00  0.21535115762E+03  0.27179473384E+04  0.27094024458E+04 0.  0.
        5    1    3    3  502    0 -0.48233664810E+03  0.53569220342E+03 -0.10429284985E+04  0.12678078411E+04  0.46999998093E+01 0.  1.
       -5    1    3    3    0  502  0.48233664810E+03 -0.53569220342E+03  0.12582796561E+04  0.14501394974E+04  0.46999998093E+01 0. -1.
</event>
<event>
 5   0  0.4756800E-06  0.2660723E+04  0.7818609E-02  0.8347863E-01
        1   -1    0    0  501    0  0.00000000000E+00  0.00000000000E+00  0.18388294831E+04  0.18388294831E+04  0.50400001928E-02 0.  1.
       -1   -1    0    0    0  501  0.00000000000E+00  0.00000000000E+00 -0.96249352625E+03  0.96249352626E+03  0.50400001928E-02 0. -1.
    10030    2    1    2    0    0  0.00000000000E+00  0.00000000000E+00  0.87633595687E+03  0.28013230094E+04  0.26607228141E+04 0.  0.
        4    1    3    3  502    0 -0.13211235290E+04  0.15648954852E+03  0.43619749575E+03  0.14000450799E+04  0.12699999809E+01 0.  1.
       -4    1    3    3    0  502  0.13211235290E+04 -0.15648954852E+03  0.44013846112E+03  0.14012779294E+04  0.12699999809E+01 0. -1.
</event>
<event>
 5   0  0.4756800E-06  0.2721924E+04  0.7818609E-02  0.8327926E-01
        1   -1    0    0  501    0  0.00000000000E+00  0.00000000000E+00  0.22625753199E+04  0.22625753199E+04  0.50400001928E-02 0.  1.
       -1   -1    0    0    0  501  0.00000000000E+00  0.00000000000E+00 -0.81863271770E+03  0.81863271772E+03  0.50400001928E-02 0. -1.
    10030    2    1    2    0    0  0.00000000000E+00  0.00000000000E+00  0.14439426022E+04  0.30812080376E+04  0.27219244539E+04 0.  0.
        4    1    3    3  502    0  0.12282563242E+03  0.16817121267E+03 -0.80048942102E+03  0.82713518775E+03  0.12699999809E+01 0. -1.
       -4    1    3    3    0  502 -0.12282563242E+03 -0.16817121267E+03  0.22444320232E+04  0.22540728498E+04  0.12699999809E+01 0.  1.
</event>
<event>
 5   0  0.4826140E-06  0.2697685E+04  0.7818609E-02  0.8335756E-01
       -1   -1    0    0    0  501  0.00000000000E+00  0.00000000000E+00  0.15985359269E+04  0.15985359269E+04  0.50400001928E-02 0.  1.
        1   -1    0    0  501    0  0.00000000000E+00  0.00000000000E+00 -0.11381516497E+04  0.11381516497E+04  0.50400001928E-02 0. -1.
    10030    2    1    2    0    0  0.00000000000E+00  0.00000000000E+00  0.46038427718E+03  0.27366875766E+04  0.26976851576E+04 0.  0.
        1    1    3    3  502    0 -0.19222949950E+03 -0.30569806564E+03  0.15485863509E+04  0.15901330680E+04  0.50400001928E-02 0.  1.
       -1    1    3    3    0  502  0.19222949950E+03  0.30569806564E+03 -0.10882020737E+04  0.11465545086E+04  0.50400001928E-02 0. -1.
</event>
<event>
 5   0  0.1261364E-05  0.2731301E+04  0.7818609E-02  0.8324920E-01
        2   -1    0    0  501    0  0.00000000000E+00  0.00000000000E+00  0.19816177713E+04  0.19816177713E+04  0.25500000920E-02 0.  1.
       -2   -1    0    0    0  501  0.00000000000E+00  0.00000000000E+00 -0.94115092552E+03  0.94115092552E+03  0.25500000920E-02 0. -1.
    10030    2    1    2    0    0  0.00000000000E+00  0.00000000000E+00  0.10404668458E+04  0.29227686968E+04  0.27313010815E+04 0.  0.
        5    1    3    3  502    0  0.24794742293E+03  0.98663004548E+03 -0.45471193937E+03  0.11143167454E+04  0.46999998093E+01 0. -1.
       -5    1    3    3    0  502 -0.24794742293E+03 -0.98663004548E+03  0.14951787851E+04  0.18084519515E+04  0.46999998093E+01 0.  1.
</event>
<event>
 5   0  0.1286641E-05  0.2607367E+04  0.7818609E-02  0.8365703E-01
        2   -1    0    0  501    0  0.00000000000E+00  0.00000000000E+00  0.14735659497E+04  0.14735659497E+04  0.25500000920E-02 0. -1.
       -2   -1    0    0    0  501  0.00000000000E+00  0.00000000000E+00 -0.11533860210E+04  0.11533860210E+04  0.25500000920E-02 0.  1.
    10030    2    1    2    0    0  0.00000000000E+00  0.00000000000E+00  0.32017992875E+03  0.26269519707E+04  0.26073667693E+04 0.  0.
        4    1    3    3  502    0  0.31087656657E+02 -0.10609932163E+04 -0.60250752447E+03  0.12205285648E+04  0.12699999809E+01 0.  1.
       -4    1    3    3    0  502 -0.31087656657E+02  0.10609932163E+04  0.92268745321E+03  0.14064234059E+04  0.12699999809E+01 0. -1.
</event>
<event>
 5   0  0.1276517E-05  0.2683429E+04  0.7818609E-02  0.8340402E-01
        2   -1    0    0  501    0  0.00000000000E+00  0.00000000000E+00  0.18592199774E+04  0.18592199774E+04  0.25500000920E-02 0.  1.
       -2   -1    0    0    0  501  0.00000000000E+00  0.00000000000E+00 -0.96825462073E+03  0.96825462073E+03  0.25500000920E-02 0. -1.
    10030    2    1    2    0    0  0.00000000000E+00  0.00000000000E+00  0.89096535665E+03  0.28274745981E+04  0.26834293984E+04 0.  0.
        1    1    3    3  502    0 -0.11352457617E+04  0.71509705173E+03  0.45305168034E+03  0.14161223668E+04  0.50400001928E-02 0.  1.
       -1    1    3    3    0  502  0.11352457617E+04 -0.71509705173E+03  0.43791367631E+03  0.14113522313E+04  0.50400001928E-02 0. -1.
</event>
<event>
 5   0  0.1276517E-05  0.2705163E+04  0.7818609E-02  0.8333332E-01
       -2   -1    0    0    0  501  0.00000000000E+00  0.00000000000E+00  0.14735401273E+04  0.14735401273E+04  0.25500000920E-02 0. -1.
        2   -1    0    0  501    0  0.00000000000E+00  0.00000000000E+00 -0.12415517372E+04  0.12415517372E+04  0.25500000920E-02 0.  1.
    10030    2    1    2    0    0  0.00000000000E+00  0.00000000000E+00  0.23198839008E+03  0.27150918645E+04  0.27051626974E+04 0.  0.
        1    1    3    3  502    0 -0.12857603748E+04 -0.36624328941E+02  0.53580594824E+03  0.13934163402E+04  0.50400001928E-02 0. -1.
       -1    1    3    3    0  502  0.12857603748E+04  0.36624328941E+02 -0.30381755815E+03  0.13216755243E+04  0.50400001928E-02 0.  1.
</event>
<event>
 5   0  0.4846214E-06  0.2693614E+04  0.7818609E-02  0.8337080E-01
       -1   -1    0    0    0  501  0.00000000000E+00  0.00000000000E+00  0.11633574972E+04  0.11633574972E+04  0.50400001928E-02 0.  1.
        1   -1    0    0  501    0  0.00000000000E+00  0.00000000000E+00 -0.15591842325E+04  0.15591842325E+04  0.50400001928E-02 0. -1.
    10030    2    1    2    0    0  0.00000000000E+00  0.00000000000E+00 -0.39582673530E+03  0.27225417297E+04  0.26936136816E+04 0.  0.
        2    1    3    3  502    0 -0.11084324388E+04 -0.73846634904E+03 -0.39989353096E+03  0.13906364932E+04  0.25500000920E-02 0. -1.
       -2    1    3    3    0  502  0.11084324388E+04  0.73846634904E+03  0.40667956597E+01  0.13319052365E+04  0.25500000920E-02 0.  1.
</event>
<event>
 5   0  0.4824715E-06  0.2737875E+04  0.7818609E-02  0.8322820E-01
        1   -1    0    0  501    0  0.00000000000E+00  0.00000000000E+00  0.19744966198E+04  0.19744966198E+04  0.50400001928E-02 0. -1.
       -1   -1    0    0    0  501  0.00000000000E+00  0.00000000000E+00 -0.94909725206E+03  0.94909725208E+03  0.50400001928E-02 0.  1.
    10030    2    1    2    0    0  0.00000000000E+00  0.00000000000E+00  0.10253993677E+04  0.29235938719E+04  0.27378745889E+04 0.  0.
        5    1    3    3  502    0  0.80431907992E+03  0.12479587979E+03  0.16880267955E+04  0.18740223441E+04  0.46999998093E+01 0. -1.
       -5    1    3    3    0  502 -0.80431907992E+03 -0.12479587979E+03 -0.66262742775E+03  0.10495715278E+04  0.46999998093E+01 0.  1.
</event>
<event>
 5   0  0.1261364E-05  0.2728411E+04  0.7818609E-02  0.8325845E-01
       -2   -1    0    0    0  501  0.00000000000E+00  0.00000000000E+00  0.77194347279E+03  0.77194347280E+03  0.25500000920E-02 0. -1.
        2   -1    0    0  501    0  0.00000000000E+00  0.00000000000E+00 -0.24108712869E+04  0.24108712869E+04  0.25500000920E-02 0.  1.
    10030    2    1    2    0    0  0.00000000000E+00  0.00000000000E+00 -0.16389278141E+04  0.31828147597E+04  0.27284107855E+04 0.  0.
        5    1    3    3  502    0 -0.55359664987E+03 -0.59854158695E+03  0.45645776282E+03  0.93439662954E+03  0.46999998093E+01 0. -1.
       -5    1    3    3    0  502  0.55359664987E+03  0.59854158695E+03 -0.20953855769E+04  0.22484181301E+04  0.46999998093E+01 0.  1.
</event>
<event>
 5   0  0.4756800E-06  0.2660943E+04  0.7818609E-02  0.8347790E-01
        1   -1    0    0  501    0  0.00000000000E+00  0.00000000000E+00  0.13509608317E+04  0.13509608317E+04  0.50400001928E-02 0.  1.
       -1   -1    0    0    0  501  0.00000000000E+00  0.00000000000E+00 -0.13102924342E+04  0.13102924342E+04  0.50400001928E-02 0. -1.
    10030    2    1    2    0    0  0.00000000000E+00  0.00000000000E+00  0.40668397491E+02  0.26612532659E+04  0.26609425072E+04 0.  0.
        4    1    3    3  502    0  0.68550767295E+03 -0.11740534883E+01  0.11607436466E+04  0.13480539952E+04  0.12699999809E+01 0.  1.
       -4    1    3    3    0  502 -0.68550767295E+03  0.11740534883E+01 -0.11200752491E+04  0.13131992707E+04  0.12699999809E+01 0. -1.
</event>
<event>
 5   0  0.1220908E-05  0.2374080E+04  0.7818609E-02  0.8449272E-01
        2   -1    0    0  501    0  0.00000000000E+00  0.00000000000E+00  0.13228247823E+04  0.13228247823E+04  0.25500000920E-02 0.  1.
       -2   -1    0    0    0  501  0.00000000000E+00  0.00000000000E+00 -0.10651934240E+04  0.10651934240E+04  0.25500000920E-02 0. -1.
    10030    2    1    2    0    0  0.00000000000E+00  0.00000000000E+00  0.25763135829E+03  0.23880182062E+04  0.23740802506E+04 0.  0.
        2    1    3    3  502    0 -0.75807523835E+03 -0.38219595649E+03  0.96333241093E+03  0.12840409456E+04  0.25500000920E-02 0.  1.
       -2    1    3    3    0  502  0.75807523835E+03  0.38219595649E+03 -0.70570105264E+03  0.11039772606E+04  0.25500000920E-02 0. -1.
</event>
<event>
 5   0  0.4826140E-06  0.2667959E+04  0.7818609E-02  0.8345477E-01
       -1   -1    0    0    0  501  0.00000000000E+00  0.00000000000E+00  0.13368004960E+04  0.13368004960E+04  0.50400001928E-02 0.  1.
        1   -1    0    0  501    0  0.00000000000E+00  0.00000000000E+00 -0.13311645719E+04  0.13311645719E+04  0.50400001928E-02 0. -1.
    10030    2    1    2    0    0  0.00000000000E+00  0.00000000000E+00  0.56359241328E+01  0.26679650679E+04  0.26679591151E+04 0.  0.
        1    1    3    3  502    0 -0.28742820093E+03  0.11236573974E+04  0.66181908527E+03  0.13353746362E+04  0.50400001928E-02 0. -1.
       -1    1    3    3    0  502  0.28742820093E+03 -0.11236573974E+04 -0.65618316114E+03  0.13325904316E+04  0.50400001928E-02 0.  1.
</event>
<event>
 5   0  0.1232559E-05  0.2677655E+04  0.7818609E-02  0.8342292E-01
        2   -1    0    0  501    0  0.00000000000E+00  0.00000000000E+00  0.28651948603E+04  0.28651948603E+04  0.25500000920E-02 0. -1.
       -2   -1    0    0    0  501  0.00000000000E+00  0.00000000000E+00 -0.62559763093E+03  0.62559763093E+03  0.25500000920E-02 0.  1.
    10030    2    1    2    0    0  0.00000000000E+00  0.00000000000E+00  0.22395972293E+04  0.34907924912E+04  0.26776550314E+04 0.  0.
        3    1    3    3  502    0  0.12506901332E+04 -0.40409613790E+03  0.78757978724E+03  0.15322537093E+04  0.10100000352E+00 0. -1.
       -3    1    3    3    0  502 -0.12506901332E+04  0.40409613790E+03  0.14520174421E+04  0.19585387819E+04  0.10100000352E+00 0.  1.
</event>
<event>
 5   0  0.1261364E-05  0.2703580E+04  0.7818609E-02  0.8333844E-01
        2   -1    0    0  501    0  0.00000000000E+00  0.00000000000E+00  0.13504324724E+04  0.13504324724E+04  0.25500000920E-02 0.  1.
       -2   -1    0    0    0  501  0.00000000000E+00  0.00000000000E+00 -0.13531490583E+04  0.13531490583E+04  0.25500000920E-02 0. -1.
    10030    2    1    2    0    0  0.00000000000E+00  0.00000000000E+00 -0.27165858671E+01  0.27035815307E+04  0.27035801659E+04 0.  0.
        5    1    3    3  502    0 -0.69837141661E+03 -0.39254459115E+03  0.10874491481E+04  0.13506967207E+04  0.46999998093E+01 0.  1.
       -5    1    3    3    0  502  0.69837141661E+03  0.39254459115E+03 -0.10901657340E+04  0.13528848100E+04  0.46999998093E+01 0. -1.
</event>
<event>
 5   0  0.4826140E-06  0.2585903E+04  0.7818609E-02  0.8373005E-01
        1   -1    0    0  501    0  0.00000000000E+00  0.00000000000E+00  0.10985860932E+04  0.10985860932E+04  0.50400001928E-02 0.  1.
       -1   -1    0    0    0  501  0.00000000000E+00  0.00000000000E+00 -0.15217046585E+04  0.15217046585E+04  0.50400001928E-02 0. -1.
    10030    2    1    2    0    0  0.00000000000E+00  0.00000000000E+00 -0.42311856524E+03  0.26202907517E+04  0.25859029957E+04 0.  0.
        1    1    3    3  502    0  0.11908948102E+04 -0.49027705826E+03 -0.32763183683E+03  0.13288885068E+04  0.50400001928E-02 0. -1.
       -1    1    3    3    0  502 -0.11908948102E+04  0.49027705826E+03 -0.95486728406E+02  0.12914022449E+04  0.50400001928E-02 0.  1.
</event>
<event>
 5   0  0.4756800E-06  0.2679118E+04  0.7818609E-02  0.8341812E-01
        1   -1    0    0  501    0  0.00000000000E+00  0.00000000000E+00  0.15771436093E+04  0.15771436093E+04  0.50400001928E-02 0. -1.
       -1   -1    0    0    0  501  0.00000000000E+00  0.00000000000E+00 -0.11377646137E+04  0.11377646137E+04  0.50400001928E-02 0.  1.
    10030    2    1    2    0    0  0.00000000000E+00  0.00000000000E+00  0.43937899561E+03  0.27149082229E+04  0.26791179066E+04 0.  0.
        4    1    3    3  502    0  0.92286516049E+03  0.50330151028E+03 -0.62171832252E+03  0.12212812126E+04  0.12699999809E+01 0.  1.
       -4    1    3    3    0  502 -0.92286516049E+03 -0.50330151028E+03  0.10610973181E+04  0.14936270104E+04  0.12699999809E+01 0. -1.
</event>
<event>
 5   0  0.4188000E-06  0.2702315E+04  0.7818609E-02  0.8334254E-01
        3   -1    0    0  501    0  0.00000000000E+00  0.00000000000E+00  0.94242461150E+03  0.94242461692E+03  0.10100000352E+00 0. -1.
       -3   -1    0    0    0  501  0.00000000000E+00  0.00000000000E+00 -0.19371594272E+04  0.19371594298E+04  0.10100000352E+00 0.  1.
    10030    2    1    2    0    0  0.00000000000E+00  0.00000000000E+00 -0.99473481568E+03  0.28795840467E+04  0.27023151054E+04 0.  0.
        4    1    3    3  502    0  0.18345196211E+03  0.11131741490E+04 -0.12896556523E+04  0.17134831843E+04  0.12699999809E+01 0.  1.
       -4    1    3    3    0  502 -0.18345196211E+03 -0.11131741490E+04  0.29492083664E+03  0.11661008624E+04  0.12699999809E+01 0. -1.
</event>
<event>
 5   0  0.4824715E-06  0.2663939E+04  0.7818609E-02  0.8346801E-01
        1   -1    0    0  501    0  0.00000000000E+00  0.00000000000E+00  0.13941280935E+04  0.13941280935E+04  0.50400001928E-02 0.  1.
       -1   -1    0    0    0  501  0.00000000000E+00  0.00000000000E+00 -0.12725823148E+04  0.12725823148E+04  0.50400001928E-02 0. -1.
    10030    2    1    2    0    0  0.00000000000E+00  0.00000000000E+00  0.12154577868E+03  0.26667104084E+04  0.26639390056E+04 0.  0.
        5    1    3    3  502    0  0.22721130682E+03  0.12351724578E+04 -0.38336050481E+03  0.13131120840E+04  0.46999998093E+01 0.  1.
       -5    1    3    3    0  502 -0.22721130682E+03 -0.12351724578E+04  0.50490628349E+03  0.13535983243E+04  0.46999998093E+01 0. -1.
</event>
<event>
 5   0  0.1261364E-05  0.2639803E+04  0.7818609E-02  0.8354805E-01
        2   -1    0    0  501    0  0.00000000000E+00  0.00000000000E+00  0.12999851949E+04  0.12999851949E+04  0.25500000920E-02 0.  1.
       -2   -1    0    0    0  501  0.00000000000E+00  0.00000000000E+00 -0.13401228584E+04  0.13401228584E+04  0.25500000920E-02 0. -1.
    10030    2    1    2    0    0  0.00000000000E+00  0.00000000000E+00 -0.40137663505E+02  0.26401080534E+04  0.26398029285E+04 0.  0.
        5    1    3    3  502    0  0.18915581964E+03  0.26715821017E+03 -0.12988738726E+04  0.13394957485E+04  0.46999998093E+01 0. -1.
       -5    1    3    3    0  502 -0.18915581964E+03 -0.26715821017E+03  0.12587362091E+04  0.13006123048E+04  0.46999998093E+01 0.  1.
</event>
<event>
 5   0  0.1261364E-05  0.2758194E+04  0.7818609E-02  0.8316366E-01
       -2   -1    0    0    0  501  0.00000000000E+00  0.00000000000E+00  0.13951907635E+04  0.13951907635E+04  0.25500000920E-02 0. -1.
        2   -1    0    0  501    0  0.00000000000E+00  0.00000000000E+00 -0.13631884303E+04  0.13631884303E+04  0.25500000920E-02 0.  1.
    10030    2    1    2    0    0  0.00000000000E+00  0.00000000000E+00  0.32002333196E+02  0.27583791937E+04  0.27581935441E+04 0.  0.
        5    1    3    3  502    0 -0.11198529434E+04 -0.20108980618E+03  0.79539827835E+03  0.13882320542E+04  0.46999998093E+01 0.  1.
       -5    1    3    3    0  502  0.11198529434E+04  0.20108980618E+03 -0.76339594515E+03  0.13701471396E+04  0.46999998093E+01 0. -1.
</event>
<event>
 5   0  0.1232559E-05  0.2686735E+04  0.7818609E-02  0.8339322E-01
       -2   -1    0    0    0  501  0.00000000000E+00  0.00000000000E+00  0.15580597735E+04  0.15580597735E+04  0.25500000920E-02 0. -1.
        2   -1    0    0  501    0  0.00000000000E+00  0.00000000000E+00 -0.11582589782E+04  0.11582589782E+04  0.25500000920E-02 0.  1.
    10030    2    1    2    0    0  0.00000000000E+00  0.00000000000E+00  0.39980079530E+03  0.27163187518E+04  0.26867353582E+04 0.  0.
        3    1    3    3  502    0  0.28205601305E+03  0.17634119148E+03 -0.11159623993E+04  0.11644843912E+04  0.10100000352E+00 0.  1.
       -3    1    3    3    0  502 -0.28205601305E+03 -0.17634119148E+03  0.15157631946E+04  0.15518343606E+04  0.10100000352E+00 0. -1.
</event>
<event>
 5   0  0.1261364E-05  0.2745392E+04  0.7818609E-02  0.8320425E-01
       -2   -1    0    0    0  501  0.00000000000E+00  0.00000000000E+00  0.10022700261E+04  0.10022700261E+04  0.25500000920E-02 0. -1.
        2   -1    0    0  501    0  0.00000000000E+00  0.00000000000E+00 -0.18800269725E+04  0.18800269725E+04  0.25500000920E-02 0.  1.
    10030    2    1    2    0    0  0.00000000000E+00  0.00000000000E+00 -0.87775694635E+03  0.28822969986E+04  0.27453922728E+04 0.  0.
        5    1    3    3  502    0  0.67762434123E+03 -0.12433287108E+03 -0.16853670531E+04  0.18207464415E+04  0.46999998093E+01 0.  1.
       -5    1    3    3    0  502 -0.67762434123E+03  0.12433287108E+03  0.80761010678E+03  0.10615505571E+04  0.46999998093E+01 0. -1.
</event>
<event>
 5   0  0.4846214E-06  0.2696415E+04  0.7818609E-02  0.8336169E-01
        1   -1    0    0  501    0  0.00000000000E+00  0.00000000000E+00  0.11788964446E+04  0.11788964446E+04  0.50400001928E-02 0.  1.
       -1   -1    0    0    0  501  0.00000000000E+00  0.00000000000E+00 -0.15418344863E+04  0.15418344863E+04  0.50400001928E-02 0. -1.
    10030    2    1    2    0    0  0.00000000000E+00  0.00000000000E+00 -0.36293804170E+03  0.27207309309E+04  0.26964148005E+04 0.  0.
        2    1    3    3  502    0 -0.44131046065E+03 -0.12733603175E+04 -0.22004695001E+03  0.13655116554E+04  0.25500000920E-02 0.  1.
       -2    1    3    3    0  502  0.44131046065E+03  0.12733603175E+04 -0.14289109169E+03  0.13552192756E+04  0.25500000920E-02 0. -1.
</event>
<event>
 5   0  0.1232559E-05  0.2695781E+04  0.7818609E-02  0.8336375E-01
        2   -1    0    0  501    0  0.00000000000E+00  0.00000000000E+00  0.15009720187E+04  0.15009720187E+04  0.25500000920E-02 0. -1.
       -2   -1    0    0    0  501  0.00000000000E+00  0.00000000000E+00 -0.12104215202E+04  0.12104215202E+04  0.25500000920E-02 0.  1.
    10030    2    1    2    0    0  0.00000000000E+00  0.00000000000E+00  0.29055049850E+03  0.27113935389E+04  0.26957810242E+04 0.  0.
        3    1    3    3  502    0 -0.17006923255E+02  0.21979666096E+03 -0.11921660970E+04  0.12123777550E+04  0.10100000352E+00 0.  1.
       -3    1    3    3    0  502  0.17006923255E+02 -0.21979666096E+03  0.14827165955E+04  0.14990157839E+04  0.10100000352E+00 0. -1.
</event>
<event>
 5   0  0.1220908E-05  0.2564336E+04  0.7818609E-02  0.8380417E-01
       -2   -1    0    0    0  501  0.00000000000E+00  0.00000000000E+00  0.13845131270E+04  0.13845131270E+04  0.25500000920E-02 0.  1.
        2   -1    0    0  501    0  0.00000000000E+00  0.00000000000E+00 -0.11873883047E+04  0.11873883047E+04  0.25500000920E-02 0. -1.
    10030    2    1    2    0    0  0.00000000000E+00  0.00000000000E+00  0.19712482232E+03  0.25719014317E+04  0.25643359333E+04 0.  0.
        2    1    3    3  502    0  0.40188811066E+03  0.20086920126E+03 -0.11058519266E+04  0.11936377059E+04  0.25500000920E-02 0. -1.
       -2    1    3    3    0  502 -0.40188811066E+03 -0.20086920126E+03  0.13029767489E+04  0.13782637258E+04  0.25500000920E-02 0.  1.
</event>
<event>
 5   0  0.1232559E-05  0.2698954E+04  0.7818609E-02  0.8335345E-01
        2   -1    0    0  501    0  0.00000000000E+00  0.00000000000E+00  0.17541510793E+04  0.17541510793E+04  0.25500000920E-02 0. -1.
       -2   -1    0    0    0  501  0.00000000000E+00  0.00000000000E+00 -0.10381590024E+04  0.10381590024E+04  0.25500000920E-02 0.  1.
    10030    2    1    2    0    0  0.00000000000E+00  0.00000000000E+00  0.71599207691E+03  0.27923100818E+04  0.26989536748E+04 0.  0.
        3    1    3    3  502    0 -0.51368600373E+03  0.75286271684E+03  0.13876141949E+04  0.16601652764E+04  0.10100000352E+00 0. -1.
       -3    1    3    3    0  502  0.51368600373E+03 -0.75286271684E+03 -0.67162211798E+03  0.11321448054E+04  0.10100000352E+00 0.  1.
</event>
<event>
 5   0  0.4846214E-06  0.2701543E+04  0.7818609E-02  0.8334504E-01
       -1   -1    0    0    0  501  0.00000000000E+00  0.00000000000E+00  0.15049813010E+04  0.15049813010E+04  0.50400001928E-02 0. -1.
        1   -1    0    0  501    0  0.00000000000E+00  0.00000000000E+00 -0.12123630687E+04  0.12123630687E+04  0.50400001928E-02 0.  1.
    10030    2    1    2    0    0  0.00000000000E+00  0.00000000000E+00  0.29261823232E+03  0.27173443698E+04  0.27015430765E+04 0.  0.
        2    1    3    3  502    0  0.65218151741E+03 -0.40549826082E+03  0.12640305698E+04  0.14790344325E+04  0.25500000920E-02 0. -1.
       -2    1    3    3    0  502 -0.65218151741E+03  0.40549826082E+03 -0.97141233750E+03  0.12383099372E+04  0.25500000920E-02 0.  1.
</event>
<event>
 5   0  0.1220908E-05  0.2685329E+04  0.7818609E-02  0.8339781E-01
        2   -1    0    0  501    0  0.00000000000E+00  0.00000000000E+00  0.17388754020E+04  0.17388754020E+04  0.25500000920E-02 0.  1.
       -2   -1    0    0    0  501  0.00000000000E+00  0.00000000000E+00 -0.10367322746E+04  0.10367322746E+04  0.25500000920E-02 0. -1.
    10030    2    1    2    0    0  0.00000000000E+00  0.00000000000E+00  0.70214312739E+03  0.27756076767E+04  0.26853292169E+04 0.  0.
        2    1    3    3  502    0  0.43578633835E+03 -0.54500093471E+03 -0.83458127840E+03  0.10878702412E+04  0.25500000920E-02 0. -1.
       -2    1    3    3    0  502 -0.43578633835E+03  0.54500093471E+03  0.15367244058E+04  0.16877374354E+04  0.25500000920E-02 0.  1.
</event>
<event>
 5   0  0.4756800E-06  0.2727129E+04  0.7818609E-02  0.8326256E-01
       -1   -1    0    0    0  501  0.00000000000E+00  0.00000000000E+00  0.98310551427E+03  0.98310551429E+03  0.50400001928E-02 0.  1.
        1   -1    0    0  501    0  0.00000000000E+00  0.00000000000E+00 -0.18912606350E+04  0.18912606350E+04  0.50400001928E-02 0. -1.
    10030    2    1    2    0    0  0.00000000000E+00  0.00000000000E+00 -0.90815512074E+03  0.28743661493E+04  0.27271294500E+04 0.  0.
        4    1    3    3  502    0  0.11958056842E+04  0.23233814846E+03 -0.10998343026E+04  0.16412097232E+04  0.12699999809E+01 0. -1.
       -4    1    3    3    0  502 -0.11958056842E+04 -0.23233814846E+03  0.19167918185E+03  0.12331564261E+04  0.12699999809E+01 0.  1.
</event>
<event>
 5   0  0.4756800E-06  0.2666640E+04  0.7818609E-02  0.8345911E-01
       -1   -1    0    0    0  501  0.00000000000E+00  0.00000000000E+00  0.87827249545E+03  0.87827249546E+03  0.50400001928E-02 0. -1.
        1   -1    0    0  501    0  0.00000000000E+00  0.00000000000E+00 -0.20241357420E+04  0.20241357420E+04  0.50400001928E-02 0.  1.
    10030    2    1    2    0    0  0.00000000000E+00  0.00000000000E+00 -0.11458632466E+04  0.29024082375E+04  0.26666403952E+04 0.  0.
        4    1    3    3  502    0 -0.44865169447E+03  0.10803118229E+04 -0.12693286511E+04  0.17261398597E+04  0.12699999809E+01 0.  1.
       -4    1    3    3    0  502  0.44865169447E+03 -0.10803118229E+04  0.12346540455E+03  0.11762683778E+04  0.12699999809E+01 0. -1.
</event>
<event>
 5   0  0.1286641E-05  0.2712709E+04  0.7818609E-02  0.8330893E-01
        2   -1    0    0  501    0  0.00000000000E+00  0.00000000000E+00  0.28082264668E+04  0.28082264668E+04  0.25500000920E-02 0.  1.
       -2   -1    0    0    0  501  0.00000000000E+00  0.00000000000E+00 -0.65511027020E+03  0.65511027020E+03  0.25500000920E-02 0. -1.
    10030    2    1    2    0    0  0.00000000000E+00  0.00000000000E+00  0.21531161966E+04  0.34633367370E+04  0.27127093464E+04 0.  0.
        4    1    3    3  502    0  0.29378890203E+03  0.12964505970E+04  0.14205598981E+04  0.19455302892E+04  0.12699999809E+01 0.  1.
       -4    1    3    3    0  502 -0.29378890203E+03 -0.12964505970E+04  0.73255629852E+03  0.15178064478E+04  0.12699999809E+01 0. -1.
</event>
<event>
 5   0  0.5152288E-06  0.2618828E+04  0.7818609E-02  0.8361834E-01
       -1   -1    0    0    0  501  0.00000000000E+00  0.00000000000E+00  0.10757076784E+04  0.10757076784E+04  0.50400001928E-02 0. -1.
        1   -1    0    0  501    0  0.00000000000E+00  0.00000000000E+00 -0.15938945980E+04  0.15938945981E+04  0.50400001928E-02 0.  1.
    10030    2    1    2    0    0  0.00000000000E+00  0.00000000000E+00 -0.51818691962E+03  0.26696022765E+04  0.26188277207E+04 0.  0.
        3    1    3    3  502    0  0.87455663725E+03 -0.36082412475E+03  0.66373239571E+03  0.11556747224E+04  0.10100000352E+00 0. -1.
       -3    1    3    3    0  502 -0.87455663725E+03  0.36082412475E+03 -0.11819193153E+04  0.15139275541E+04  0.10100000352E+00 0.  1.
</event>
<event>
 5   0  0.4846214E-06  0.2711529E+04  0.7818609E-02  0.8331274E-01
        1   -1    0    0  501    0  0.00000000000E+00  0.00000000000E+00  0.25801327313E+04  0.25801327313E+04  0.50400001928E-02 0.  1.
       -1   -1    0    0    0  501  0.00000000000E+00  0.00000000000E+00 -0.71240403438E+03  0.71240403440E+03  0.50400001928E-02 0. -1.
    10030    2    1    2    0    0  0.00000000000E+00  0.00000000000E+00  0.18677286970E+04  0.32925367657E+04  0.27115286958E+04 0.  0.
        2    1    3    3  502    0  0.73322516530E+03  0.10854296968E+04  0.13585479725E+04  0.18871749690E+04  0.25500000920E-02 0. -1.
       -2    1    3    3    0  502 -0.73322516530E+03 -0.10854296968E+04  0.50918072440E+03  0.14053617968E+04  0.25500000920E-02 0.  1.
</event>
<event>
 5   0  0.1232559E-05  0.2670881E+04  0.7818609E-02  0.8344515E-01
       -2   -1    0    0    0  501  0.00000000000E+00  0.00000000000E+00  0.97977279076E+03  0.97977279077E+03  0.25500000920E-02 0. -1.
        2   -1    0    0  501    0  0.00000000000E+00  0.00000000000E+00 -0.18202190091E+04  0.18202190091E+04  0.25500000920E-02 0.  1.
    10030    2    1    2    0    0  0.00000000000E+00  0.00000000000E+00 -0.84044621835E+03  0.27999917999E+04  0.26708807973E+04 0.  0.
        3    1    3    3  502    0  0.19515186316E+03  0.74500359037E+03  0.72351870392E+03  0.10566900797E+04  0.10100000352E+00 0. -1.
       -3    1    3    3    0  502 -0.19515186316E+03 -0.74500359037E+03 -0.15639649223E+04  0.17433017202E+04  0.10100000352E+00 0.  1.
</event>
<event>
 5   0  0.1232559E-05  0.2704574E+04  0.7818609E-02  0.8333522E-01
        2   -1    0    0  501    0  0.00000000000E+00  0.00000000000E+00  0.16245684613E+04  0.16245684613E+04  0.25500000920E-02 0. -1.
       -2   -1    0    0    0  501  0.00000000000E+00  0.00000000000E+00 -0.11256405061E+04  0.11256405061E+04  0.25500000920E-02 0.  1.
    10030    2    1    2    0    0  0.00000000000E+00  0.00000000000E+00  0.49892795524E+03  0.27502089674E+04  0.27045739516E+04 0.  0.
        3    1    3    3  502    0 -0.61699334719E+02 -0.56564723504E+03  0.14969136346E+04  0.16014100168E+04  0.10100000352E+00 0. -1.
       -3    1    3    3    0  502  0.61699334719E+02  0.56564723504E+03 -0.99798567935E+03  0.11487989506E+04  0.10100000352E+00 0.  1.
</event>
<event>
 5   0  0.1220908E-05  0.2664239E+04  0.7818609E-02  0.8346702E-01
        2   -1    0    0  501    0  0.00000000000E+00  0.00000000000E+00  0.15850784729E+04  0.15850784729E+04  0.25500000920E-02 0.  1.
       -2   -1    0    0    0  501  0.00000000000E+00  0.00000000000E+00 -0.11195296951E+04  0.11195296951E+04  0.25500000920E-02 0. -1.
    10030    2    1    2    0    0  0.00000000000E+00  0.00000000000E+00  0.46554877784E+03  0.27046081680E+04  0.26642390429E+04 0.  0.
        2    1    3    3  502    0  0.23433278663E+03 -0.11987505085E+04  0.77245720854E+03  0.14452006004E+04  0.25500000920E-02 0.  1.
       -2    1    3    3    0  502 -0.23433278663E+03  0.11987505085E+04 -0.30690843070E+03  0.12594075676E+04  0.25500000920E-02 0. -1.
</event>
<event>
 5   0  0.4826140E-06  0.2767516E+04  0.7818609E-02  0.8313425E-01
        1   -1    0    0  501    0  0.00000000000E+00  0.00000000000E+00  0.15823879987E+04  0.15823879987E+04  0.50400001928E-02 0.  1.
       -1   -1    0    0    0  501  0.00000000000E+00  0.00000000000E+00 -0.12100609056E+04  0.12100609056E+04  0.50400001928E-02 0. -1.
    10030    2    1    2    0    0  0.00000000000E+00  0.00000000000E+00  0.37232709314E+03  0.27924489043E+04  0.27675157486E+04 0.  0.
        1    1    3    3  502    0 -0.68000833008E+03 -0.64801528733E+01 -0.10298213124E+04  0.12340928883E+04  0.50400001928E-02 0. -1.
       -1    1    3    3    0  502  0.68000833008E+03  0.64801528733E+01  0.14021484056E+04  0.15583560160E+04  0.50400001928E-02 0.  1.
</event>
<event>
 5   0  0.1286641E-05  0.2610922E+04  0.7818609E-02  0.8364501E-01
        2   -1    0    0  501    0  0.00000000000E+00  0.00000000000E+00  0.22540847242E+04  0.22540847242E+04  0.25500000920E-02 0.  1.
       -2   -1    0    0    0  501  0.00000000000E+00  0.00000000000E+00 -0.75606248345E+03  0.75606248345E+03  0.25500000920E-02 0. -1.
    10030    2    1    2    0    0  0.00000000000E+00  0.00000000000E+00  0.14980222408E+04  0.30101472077E+04  0.26109223615E+04 0.  0.
        4    1    3    3  502    0  0.58177919190E+03 -0.10887366132E+04  0.25931405762E+03  0.12613722030E+04  0.12699999809E+01 0.  1.
       -4    1    3    3    0  502 -0.58177919190E+03  0.10887366132E+04  0.12387081831E+04  0.17487750047E+04  0.12699999809E+01 0. -1.
</event>
<event>
 5   0  0.5152288E-06  0.2702316E+04  0.7818609E-02  0.8334254E-01
       -1   -1    0    0    0  501  0.00000000000E+00  0.00000000000E+00  0.94887675406E+03  0.94887675407E+03  0.50400001928E-02 0. -1.
        1   -1    0    0  501    0  0.00000000000E+00  0.00000000000E+00 -0.19239885154E+04  0.19239885154E+04  0.50400001928E-02 0.  1.
    10030    2    1    2    0    0  0.00000000000E+00  0.00000000000E+00 -0.97511176132E+03  0.28728652695E+04  0.27023160269E+04 0.  0.
        3    1    3    3  502    0  0.13778174151E+03  0.12163303362E+04 -0.10956567118E+04  0.16428350299E+04  0.10100000352E+00 0. -1.
       -3    1    3    3    0  502 -0.13778174151E+03 -0.12163303362E+04  0.12054495050E+03  0.12300302396E+04  0.10100000352E+00 0.  1.
</event>
<event>
 5   0  0.1232559E-05  0.2286390E+04  0.7818609E-02  0.8483307E-01
       -2   -1    0    0    0  501  0.00000000000E+00  0.00000000000E+00  0.13110228299E+04  0.13110228299E+04  0.25500000920E-02 0.  1.
        2   -1    0    0  501    0  0.00000000000E+00  0.00000000000E+00 -0.99685109841E+03  0.99685109841E+03  0.25500000920E-02 0. -1.
    10030    2    1    2    0    0  0.00000000000E+00  0.00000000000E+00  0.31417173147E+03  0.23078739283E+04  0.22863897726E+04 0.  0.
        3    1    3    3  502    0  0.75169835021E+03 -0.55432215202E+03  0.82250030837E+03  0.12445200783E+04  0.10100000352E+00 0.  1.
       -3    1    3    3    0  502 -0.75169835021E+03  0.55432215202E+03 -0.50832857689E+03  0.10633538500E+04  0.10100000352E+00 0. -1.
</event>
<event>
 5   0  0.1232559E-05  0.2795388E+04  0.7818609E-02  0.8304701E-01
       -2   -1    0    0    0  501  0.00000000000E+00  0.00000000000E+00  0.89409157625E+03  0.89409157625E+03  0.25500000920E-02 0. -1.
        2   -1    0    0  501    0  0.00000000000E+00  0.00000000000E+00 -0.21849542159E+04  0.21849542159E+04  0.25500000920E-02 0.  1.
    10030    2    1    2    0    0  0.00000000000E+00  0.00000000000E+00 -0.12908626397E+04  0.30790457922E+04  0.27953884588E+04 0.  0.
        3    1    3    3  502    0 -0.80743392886E+03  0.19917070389E+03 -0.18827789218E+04  0.20582699039E+04  0.10100000352E+00 0.  1.
       -3    1    3    3    0  502  0.80743392886E+03 -0.19917070389E+03  0.59191628214E+03  0.10207758883E+04  0.10100000352E+00 0. -1.
</event>
<event>
 5   0  0.4826140E-06  0.2701698E+04  0.7818609E-02  0.8334454E-01
        1   -1    0    0  501    0  0.00000000000E+00  0.00000000000E+00  0.25011104129E+04  0.25011104129E+04  0.50400001928E-02 0. -1.
       -1   -1    0    0    0  501  0.00000000000E+00  0.00000000000E+00 -0.72959300864E+03  0.72959300866E+03  0.50400001928E-02 0.  1.
    10030    2    1    2    0    0  0.00000000000E+00  0.00000000000E+00  0.17715174043E+04  0.32307034216E+04  0.27016977412E+04 0.  0.
        1    1    3    3  502    0  0.54558308314E+03  0.85218960376E+03  0.19559236931E+04  0.22021638255E+04  0.50400001928E-02 0. -1.
       -1    1    3    3    0  502 -0.54558308314E+03 -0.85218960376E+03 -0.18440628875E+03  0.10285395961E+04  0.50400001928E-02 0.  1.
</event>
<event>
 5   0  0.4826140E-06  0.2793551E+04  0.7818609E-02  0.8305273E-01
        1   -1    0    0  501    0  0.00000000000E+00  0.00000000000E+00  0.13911468396E+04  0.13911468397E+04  0.50400001928E-02 0.  1.
       -1   -1    0    0    0  501  0.00000000000E+00  0.00000000000E+00 -0.14024269985E+04  0.14024269985E+04  0.50400001928E-02 0. -1.
    10030    2    1    2    0    0  0.00000000000E+00  0.00000000000E+00 -0.11280158825E+02  0.27935738381E+04  0.27935510640E+04 0.  0.
        1    1    3    3  502    0  0.12358030133E+04 -0.63521622861E+03 -0.14802502410E+03  0.13973618546E+04  0.50400001928E-02 0. -1.
       -1    1    3    3    0  502 -0.12358030133E+04  0.63521622861E+03  0.13674486528E+03  0.13962119836E+04  0.50400001928E-02 0.  1.
</event>
<event>
 5   0  0.1276517E-05  0.2760453E+04  0.7818609E-02  0.8315652E-01
       -2   -1    0    0    0  501  0.00000000000E+00  0.00000000000E+00  0.19684424979E+04  0.19684424979E+04  0.25500000920E-02 0.  1.
        2   -1    0    0  501    0  0.00000000000E+00  0.00000000000E+00 -0.96778267800E+03  0.96778267800E+03  0.25500000920E-02 0. -1.
    10030    2    1    2    0    0  0.00000000000E+00  0.00000000000E+00  0.10006598199E+04  0.29362251759E+04  0.27604525369E+04 0.  0.
        1    1    3    3  502    0 -0.12345651242E+04 -0.97523078414E+02 -0.14786892562E+03  0.12472076875E+04  0.50400001928E-02 0. -1.
       -1    1    3    3    0  502  0.12345651242E+04  0.97523078414E+02  0.11485287455E+04  0.16890174883E+04  0.50400001928E-02 0.  1.
</event>
<event>
 5   0  0.4756800E-06  0.2753800E+04  0.7818609E-02  0.8317757E-01
       -1   -1    0    0    0  501  0.00000000000E+00  0.00000000000E+00  0.13244664445E+04  0.13244664445E+04  0.50400001928E-02 0.  1.
        1   -1    0    0  501    0  0.00000000000E+00  0.00000000000E+00 -0.14314088840E+04  0.14314088840E+04  0.50400001928E-02 0. -1.
    10030    2    1    2    0    0  0.00000000000E+00  0.00000000000E+00 -0.10694243953E+03  0.27558753285E+04  0.27537995826E+04 0.  0.
        4    1    3    3  502    0  0.15221764851E+03 -0.11717543995E+04  0.65393700957E+03  0.13504865089E+04  0.12699999809E+01 0.  1.
       -4    1    3    3    0  502 -0.15221764851E+03  0.11717543995E+04 -0.76087944910E+03  0.14053888196E+04  0.12699999809E+01 0. -1.
</event>
<event>
 5   0  0.1261364E-05  0.2293172E+04  0.7818609E-02  0.8480618E-01
        2   -1    0    0  501    0  0.00000000000E+00  0.00000000000E+00  0.23010801499E+04  0.23010801499E+04  0.25500000920E-02 0.  1.
       -2   -1    0    0    0  501  0.00000000000E+00  0.00000000000E+00 -0.57132277780E+03  0.57132277780E+03  0.25500000920E-02 0. -1.
    10030    2    1    2    0    0  0.00000000000E+00  0.00000000000E+00  0.17297573721E+04  0.28724029277E+04  0.22931720417E+04 0.  0.
        5    1    3    3  502    0  0.11132366957E+04  0.23807046984E+03  0.69375497122E+03  0.13331509815E+04  0.46999998093E+01 0.  1.
       -5    1    3    3    0  502 -0.11132366957E+04 -0.23807046984E+03  0.10360024008E+04  0.15392519462E+04  0.46999998093E+01 0. -1.
</event>
<event>
 5   0  0.4846214E-06  0.2657784E+04  0.7818609E-02  0.8348834E-01
        1   -1    0    0  501    0  0.00000000000E+00  0.00000000000E+00  0.12591013926E+04  0.12591013927E+04  0.50400001928E-02 0.  1.
       -1   -1    0    0    0  501  0.00000000000E+00  0.00000000000E+00 -0.14025513302E+04  0.14025513303E+04  0.50400001928E-02 0. -1.
    10030    2    1    2    0    0  0.00000000000E+00  0.00000000000E+00 -0.14344993760E+03  0.26616527229E+04  0.26577842901E+04 0.  0.
        2    1    3    3  502    0  0.87356908286E+03  0.98127890801E+03  0.12837349920E+03  0.13200420422E+04  0.25500000920E-02 0. -1.
       -2    1    3    3    0  502 -0.87356908286E+03 -0.98127890801E+03 -0.27182343680E+03  0.13416106807E+04  0.25500000920E-02 0.  1.
</event>
<event>
 5   0  0.4824715E-06  0.2688537E+04  0.7818609E-02  0.8338734E-01
        1   -1    0    0  501    0  0.00000000000E+00  0.00000000000E+00  0.12133199345E+04  0.12133199345E+04  0.50400001928E-02 0. -1.
       -1   -1    0    0    0  501  0.00000000000E+00  0.00000000000E+00 -0.14893499840E+04  0.14893499840E+04  0.50400001928E-02 0.  1.
    10030    2    1    2    0    0  0.00000000000E+00  0.00000000000E+00 -0.27603004958E+03  0.27026699185E+04  0.26885371673E+04 0.  0.
        5    1    3    3  502    0 -0.12368492722E+04  0.51676496218E+03 -0.36520004460E+02  0.13409690336E+04  0.46999998093E+01 0. -1.
       -5    1    3    3    0  502  0.12368492722E+04 -0.51676496218E+03 -0.23951004512E+03  0.13617008849E+04  0.46999998093E+01 0.  1.
</event>
<event>
 5   0  0.4826140E-06  0.2756823E+04  0.7818609E-02  0.8316800E-01
        1   -1    0    0  501    0  0.00000000000E+00  0.00000000000E+00  0.18445746971E+04  0.18445746971E+04  0.50400001928E-02 0.  1.
       -1   -1    0    0    0  501  0.00000000000E+00  0.00000000000E+00 -0.10300577978E+04  0.10300577978E+04  0.50400001928E-02 0. -1.
    10030    2    1    2    0    0  0.00000000000E+00  0.00000000000E+00  0.81451689924E+03  0.28746324949E+04  0.27568232083E+04 0.  0.
        1    1    3    3  502    0  0.66471102275E+03 -0.12014888359E+04  0.28125417081E+03  0.14016133830E+04  0.50400001928E-02 0. -1.
       -1    1    3    3    0  502 -0.66471102275E+03  0.12014888359E+04  0.53326272843E+03  0.14730191120E+04  0.50400001928E-02 0.  1.
</event>
<event>
 5   0  0.1261364E-05  0.2741056E+04  0.7818609E-02  0.8321805E-01
       -2   -1    0    0    0  501  0.00000000000E+00  0.00000000000E+00  0.82178956955E+03  0.82178956956E+03  0.25500000920E-02 0. -1.
        2   -1    0    0  501    0  0.00000000000E+00  0.00000000000E+00 -0.22856792878E+04  0.22856792878E+04  0.25500000920E-02 0.  1.
    10030    2    1    2    0    0  0.00000000000E+00  0.00000000000E+00 -0.14638897183E+04  0.31074688574E+04  0.27410562913E+04 0.  0.
        5    1    3    3  502    0 -0.74352088512E+03 -0.94962188447E+03  0.60077196150E+01  0.12060941973E+04  0.46999998093E+01 0. -1.
       -5    1    3    3    0  502  0.74352088512E+03  0.94962188447E+03 -0.14698974379E+04  0.19013746601E+04  0.46999998093E+01 0.  1.
</event>
<event>
 5   0  0.4846214E-06  0.2707766E+04  0.7818609E-02  0.8332489E-01
       -1   -1    0    0    0  501  0.00000000000E+00  0.00000000000E+00  0.13506593749E+04  0.13506593749E+04  0.50400001928E-02 0.  1.
        1   -1    0    0  501    0  0.00000000000E+00  0.00000000000E+00 -0.13571146352E+04  0.13571146352E+04  0.50400001928E-02 0. -1.
    10030    2    1    2    0    0  0.00000000000E+00  0.00000000000E+00 -0.64552603722E+01  0.27077740101E+04  0.27077663155E+04 0.  0.
        2    1    3    3  502    0  0.65824802438E+03  0.83391158466E+03 -0.84245621348E+03  0.13558877034E+04  0.25500000920E-02 0. -1.
       -2    1    3    3    0  502 -0.65824802438E+03 -0.83391158466E+03  0.83600095311E+03  0.13518863067E+04  0.25500000920E-02 0.  1.
</event>
<event>
 5   0  0.5152288E-06  0.2573951E+04  0.7818609E-02  0.8377103E-01
        1   -1    0    0  501    0  0.00000000000E+00  0.00000000000E+00  0.13959543654E+04  0.13959543654E+04  0.50400001928E-02 0. -1.
       -1   -1    0    0    0  501  0.00000000000E+00  0.00000000000E+00 -0.11865047712E+04  0.11865047712E+04  0.50400001928E-02 0.  1.
    10030    2    1    2    0    0  0.00000000000E+00  0.00000000000E+00  0.20944959421E+03  0.25824591366E+04  0.25739514486E+04 0.  0.
        3    1    3    3  502    0  0.90831340849E+03  0.91140760160E+03  0.12949324253E+03  0.12932384059E+04  0.10100000352E+00 0. -1.
       -3    1    3    3    0  502 -0.90831340849E+03 -0.91140760160E+03  0.79956351679E+02  0.12892207308E+04  0.10100000352E+00 0.  1.
</event>
<event>
 5   0  0.1232559E-05  0.2705799E+04  0.7818609E-02  0.8333126E-01
        2   -1    0    0  501    0  0.00000000000E+00  0.00000000000E+00  0.99910551542E+03  0.99910551542E+03  0.25500000920E-02 0.  1.
       -2   -1    0    0    0  501  0.00000000000E+00  0.00000000000E+00 -0.18319754121E+04  0.18319754121E+04  0.25500000920E-02 0. -1.
    10030    2    1    2    0    0  0.00000000000E+00  0.00000000000E+00 -0.83286989669E+03  0.28310809275E+04  0.27057987644E+04 0.  0.
        3    1    3    3  502    0  0.12411515238E+04  0.37093608236E+03 -0.82474196672E+03  0.15356594688E+04  0.10100000352E+00 0. -1.
       -3    1    3    3    0  502 -0.12411515238E+04 -0.37093608236E+03 -0.81279299763E+01  0.12954214587E+04  0.10100000352E+00 0.  1.
</event>
<event>
 5   0  0.1261364E-05  0.2710286E+04  0.7818609E-02  0.8331675E-01
        2   -1    0    0  501    0  0.00000000000E+00  0.00000000000E+00  0.20563599783E+04  0.20563599783E+04  0.25500000920E-02 0.  1.
       -2   -1    0    0    0  501  0.00000000000E+00  0.00000000000E+00 -0.89304036625E+03  0.89304036626E+03  0.25500000920E-02 0. -1.
    10030    2    1    2    0    0  0.00000000000E+00  0.00000000000E+00  0.11633196120E+04  0.29494003445E+04  0.27102859393E+04 0.  0.
        5    1    3    3  502    0  0.93083813230E+03 -0.95704106267E+03  0.32877183202E+03  0.13749546290E+04  0.46999998093E+01 0. -1.
       -5    1    3    3    0  502 -0.93083813230E+03  0.95704106267E+03  0.83454778000E+03  0.15744457156E+04  0.46999998093E+01 0.  1.
</event>
<event>
 5   0  0.1276517E-05  0.2720163E+04  0.7818609E-02  0.8328492E-01
       -2   -1    0    0    0  501  0.00000000000E+00  0.00000000000E+00  0.10075324159E+04  0.10075324159E+04  0.25500000920E-02 0.  1.
        2   -1    0    0  501    0  0.00000000000E+00  0.00000000000E+00 -0.18359921150E+04  0.18359921151E+04  0.25500000920E-02 0. -1.
    10030    2    1    2    0    0  0.00000000000E+00  0.00000000000E+00 -0.82845969918E+03  0.28435245309E+04  0.27201629151E+04 0.  0.
        1    1    3    3  502    0 -0.45016924295E+03  0.96583599991E+03  0.46928025817E+03  0.11643519600E+04  0.50400001928E-02 0. -1.
       -1    1    3    3    0  502  0.45016924295E+03 -0.96583599991E+03 -0.12977399574E+04  0.16791725709E+04  0.50400001928E-02 0.  1.
</event>
<event>
 5   0  0.4756800E-06  0.2663790E+04  0.7818609E-02  0.8346850E-01
        1   -1    0    0  501    0  0.00000000000E+00  0.00000000000E+00  0.15013563684E+04  0.15013563684E+04  0.50400001928E-02 0.  1.
       -1   -1    0    0    0  501  0.00000000000E+00  0.00000000000E+00 -0.11815612886E+04  0.11815612886E+04  0.50400001928E-02 0. -1.
    10030    2    1    2    0    0  0.00000000000E+00  0.00000000000E+00  0.31979507978E+03  0.26829176570E+04  0.26637902059E+04 0.  0.
        4    1    3    3  502    0  0.80216572105E+03  0.68980015525E+03 -0.65501599664E+03  0.12443237790E+04  0.12699999809E+01 0.  1.
       -4    1    3    3    0  502 -0.80216572105E+03 -0.68980015525E+03  0.97481107641E+03  0.14385938780E+04  0.12699999809E+01 0. -1.
</event>
<event>
 5   0  0.4824715E-06  0.2714097E+04  0.7818609E-02  0.8330446E-01
        1   -1    0    0  501    0  0.00000000000E+00  0.00000000000E+00  0.12882761943E+04  0.12882761943E+04  0.50400001928E-02 0.  1.
       -1   -1    0    0    0  501  0.00000000000E+00  0.00000000000E+00 -0.14294917724E+04  0.14294917724E+04  0.50400001928E-02 0. -1.
    10030    2    1    2    0    0  0.00000000000E+00  0.00000000000E+00 -0.14121557813E+03  0.27177679668E+04  0.27140966972E+04 0.  0.
        5    1    3    3  502    0 -0.98227561622E+03 -0.91879702397E+03 -0.25114246351E+03  0.13682645886E+04  0.46999998093E+01 0. -1.
       -5    1    3    3    0  502  0.98227561622E+03  0.91879702397E+03  0.10992688538E+03  0.13495033781E+04  0.46999998093E+01 0.  1.
</event>
<event>
 5   0  0.4826140E-06  0.2706816E+04  0.7818609E-02  0.8332797E-01
       -1   -1    0    0    0  501  0.00000000000E+00  0.00000000000E+00  0.16047220457E+04  0.16047220457E+04  0.50400001928E-02 0.  1.
        1   -1    0    0  501    0  0.00000000000E+00  0.00000000000E+00 -0.11414520545E+04  0.11414520545E+04  0.50400001928E-02 0. -1.
    10030    2    1    2    0    0  0.00000000000E+00  0.00000000000E+00  0.46326999126E+03  0.27461741002E+04  0.27068160454E+04 0.  0.
        1    1    3    3  502    0  0.28714783498E+03  0.94502228861E+03 -0.70712586870E+03  0.12147213670E+04  0.50400001928E-02 0. -1.
       -1    1    3    3    0  502 -0.28714783498E+03 -0.94502228861E+03  0.11703958600E+04  0.15314527332E+04  0.50400001928E-02 0.  1.
</event>
<event>
 5   0  0.1220908E-05  0.2670946E+04  0.7818609E-02  0.8344494E-01
       -2   -1    0    0    0  501  0.00000000000E+00  0.00000000000E+00  0.63612922019E+03  0.63612922020E+03  0.25500000920E-02 0.  1.
        2   -1    0    0  501    0  0.00000000000E+00  0.00000000000E+00 -0.28036560841E+04  0.28036560841E+04  0.25500000920E-02 0. -1.
    10030    2    1    2    0    0  0.00000000000E+00  0.00000000000E+00 -0.21675268639E+04  0.34397853043E+04  0.26709455693E+04 0.  0.
        2    1    3    3  502    0  0.62156796255E+03 -0.62090035777E+03  0.21155268494E+03  0.90366947767E+03  0.25500000920E-02 0.  1.
       -2    1    3    3    0  502 -0.62156796255E+03  0.62090035777E+03 -0.23790795489E+04  0.25361158266E+04  0.25500000920E-02 0. -1.
</event>
<event>
 5   0  0.5152288E-06  0.2705141E+04  0.7818609E-02  0.8333339E-01
        1   -1    0    0  501    0  0.00000000000E+00  0.00000000000E+00  0.24413906098E+04  0.24413906098E+04  0.50400001928E-02 0. -1.
       -1   -1    0    0    0  501  0.00000000000E+00  0.00000000000E+00 -0.74934651952E+03  0.74934651954E+03  0.50400001928E-02 0.  1.
    10030    2    1    2    0    0  0.00000000000E+00  0.00000000000E+00  0.16920440902E+04  0.31907371293E+04  0.27051414427E+04 0.  0.
        3    1    3    3  502    0  0.75828526207E+03 -0.10585599296E+04  0.12776349190E+04  0.18242523564E+04  0.10100000352E+00 0. -1.
       -3    1    3    3    0  502 -0.75828526207E+03  0.10585599296E+04  0.41440917120E+03  0.13664847729E+04  0.10100000352E+00 0.  1.
</event>
<event>
 5   0  0.4846214E-06  0.2697851E+04  0.7818609E-02  0.8335703E-01
        1   -1    0    0  501    0  0.00000000000E+00  0.00000000000E+00  0.14798843462E+04  0.14798843462E+04  0.50400001928E-02 0.  1.
       -1   -1    0    0    0  501  0.00000000000E+00  0.00000000000E+00 -0.12295553963E+04  0.12295553963E+04  0.50400001928E-02 0. -1.
    10030    2    1    2    0    0  0.00000000000E+00  0.00000000000E+00  0.25032894990E+03  0.27094397424E+04  0.26978508363E+04 0.  0.
        2    1    3    3  502    0 -0.56644945876E+03 -0.81415416836E+03 -0.79303185419E+03  0.12698864205E+04  0.25500000920E-02 0. -1.
       -2    1    3    3    0  502  0.56644945876E+03  0.81415416836E+03  0.10433608041E+04  0.14395533219E+04  0.25500000920E-02 0.  1.
</event>
<event>
 5   0  0.4756800E-06  0.2719054E+04  0.7818609E-02  0.8328849E-01
        1   -1    0    0  501    0  0.00000000000E+00  0.00000000000E+00  0.11734547152E+04  0.11734547153E+04  0.50400001928E-02 0. -1.
       -1   -1    0    0    0  501  0.00000000000E+00  0.00000000000E+00 -0.15751040560E+04  0.15751040560E+04  0.50400001928E-02 0.  1.
    10030    2    1    2    0    0  0.00000000000E+00  0.00000000000E+00 -0.40164934072E+03  0.27485587712E+04  0.27190537189E+04 0.  0.
        4    1    3    3  502    0  0.12678853066E+04 -0.13553892400E+03  0.27589400656E+03  0.13046160609E+04  0.12699999809E+01 0.  1.
       -4    1    3    3    0  502 -0.12678853066E+04  0.13553892400E+03 -0.67754334728E+03  0.14439427104E+04  0.12699999809E+01 0. -1.
</event>
<event>
 5   0  0.1232559E-05  0.2660641E+04  0.7818609E-02  0.8347890E-01
        2   -1    0    0  501    0  0.00000000000E+00  0.00000000000E+00  0.61098473644E+03  0.61098473645E+03  0.25500000920E-02 0. -1.
       -2   -1    0    0    0  501  0.00000000000E+00  0.00000000000E+00 -0.28965569845E+04  0.28965569846E+04  0.25500000920E-02 0.  1.
    10030    2    1    2    0    0  0.00000000000E+00  0.00000000000E+00 -0.22855722481E+04  0.35075417210E+04  0.26606406039E+04 0.  0.
        3    1    3    3  502    0 -0.28343931878E+03  0.23762044407E+03  0.54183862728E+03  0.65604148580E+03  0.10100000352E+00 0. -1.
       -3    1    3    3    0  502  0.28343931878E+03 -0.23762044407E+03 -0.28274108754E+04  0.28515002352E+04  0.10100000352E+00 0.  1.
</event>
<event>
 5   0  0.1232559E-05  0.2921769E+04  0.7818609E-02  0.8266430E-01
       -2   -1    0    0    0  501  0.00000000000E+00  0.00000000000E+00  0.17161247665E+04  0.17161247665E+04  0.25500000920E-02 0.  1.
        2   -1    0    0  501    0  0.00000000000E+00  0.00000000000E+00 -0.12436064360E+04  0.12436064360E+04  0.25500000920E-02 0. -1.
    10030    2    1    2    0    0  0.00000000000E+00  0.00000000000E+00  0.47251833056E+03  0.29597312025E+04  0.29217691932E+04 0.  0.
        3    1    3    3  502    0 -0.23984340648E+03  0.62744045422E+03  0.15504108885E+04  0.16896687002E+04  0.10100000352E+00 0.  1.
       -3    1    3    3    0  502  0.23984340648E+03 -0.62744045422E+03 -0.10778925579E+04  0.12700625023E+04  0.10100000352E+00 0. -1.
</event>
<event>
 5   0  0.4846214E-06  0.2232463E+04  0.7818609E-02  0.8505036E-01
       -1   -1    0    0    0  501  0.00000000000E+00  0.00000000000E+00  0.59536510253E+03  0.59536510255E+03  0.50400001928E-02 0. -1.
        1   -1    0    0  501    0  0.00000000000E+00  0.00000000000E+00 -0.20927883916E+04  0.20927883916E+04  0.50400001928E-02 0.  1.
    10030    2    1    2    0    0  0.00000000000E+00  0.00000000000E+00 -0.14974232890E+04  0.26881534941E+04  0.22324633707E+04 0.  0.
        2    1    3    3  502    0 -0.59592244611E+03  0.54816230429E+03 -0.16739018285E+04  0.18594495974E+04  0.25500000920E-02 0.  1.
       -2    1    3    3    0  502  0.59592244611E+03 -0.54816230429E+03  0.17647853947E+03  0.82870389677E+03  0.25500000920E-02 0. -1.
</event>
<event>
 5   0  0.4824715E-06  0.2679002E+04  0.7818609E-02  0.8341850E-01
        1   -1    0    0  501    0  0.00000000000E+00  0.00000000000E+00  0.13650230722E+04  0.13650230722E+04  0.50400001928E-02 0.  1.
       -1   -1    0    0    0  501  0.00000000000E+00  0.00000000000E+00 -0.13144565801E+04  0.13144565801E+04  0.50400001928E-02 0. -1.
    10030    2    1    2    0    0  0.00000000000E+00  0.00000000000E+00  0.50566492116E+02  0.26794796522E+04  0.26790024704E+04 0.  0.
        5    1    3    3  502    0  0.37445850203E+03  0.94395946042E+03 -0.84834977608E+03  0.13232528350E+04  0.46999998093E+01 0. -1.
       -5    1    3    3    0  502 -0.37445850203E+03 -0.94395946042E+03  0.89891626820E+03  0.13562268173E+04  0.46999998093E+01 0.  1.
</event>
<event>
 5   0  0.1261364E-05  0.2692640E+04  0.7818609E-02  0.8337397E-01
       -2   -1    0    0    0  501  0.00000000000E+00  0.00000000000E+00  0.65600842097E+03  0.65600842098E+03  0.25500000920E-02 0. -1.
        2   -1    0    0  501    0  0.00000000000E+00  0.00000000000E+00 -0.27630390439E+04  0.27630390439E+04  0.25500000920E-02 0.  1.
    10030    2    1    2    0    0  0.00000000000E+00  0.00000000000E+00 -0.21070306229E+04  0.34190474649E+04  0.26926395082E+04 0.  0.
        5    1    3    3  502    0  0.73227485243E+03  0.10666841104E+04 -0.15260924583E+04  0.20007552904E+04  0.46999998093E+01 0.  1.
       -5    1    3    3    0  502 -0.73227485243E+03 -0.10666841104E+04 -0.58093816461E+03  0.14182921744E+04  0.46999998093E+01 0. -1.
</event>
<event>
 5   0  0.1276517E-05  0.2701300E+04  0.7818609E-02  0.8334583E-01
       -2   -1    0    0    0  501  0.00000000000E+00  0.00000000000E+00  0.12662515389E+04  0.12662515389E+04  0.25500000920E-02 0. -1.
        2   -1    0    0  501    0  0.00000000000E+00  0.00000000000E+00 -0.14406739280E+04  0.14406739280E+04  0.25500000920E-02 0.  1.
    10030    2    1    2    0    0  0.00000000000E+00  0.00000000000E+00 -0.17442238912E+03  0.27069254669E+04  0.27013001154E+04 0.  0.
        1    1    3    3  502    0  0.58005555112E+03 -0.92496284645E+03 -0.88399900760E+03  0.14048042409E+04  0.50400001928E-02 0.  1.
       -1    1    3    3    0  502 -0.58005555112E+03  0.92496284645E+03  0.70957661848E+03  0.13021212260E+04  0.50400001928E-02 0. -1.
</event>
<event>
 5   0  0.4188000E-06  0.2760345E+04  0.7818609E-02  0.8315686E-01
       -3   -1    0    0    0  501  0.00000000000E+00  0.00000000000E+00  0.19108908720E+04  0.19108908747E+04  0.10100000352E+00 0. -1.
        3   -1    0    0  501    0  0.00000000000E+00  0.00000000000E+00 -0.99685243009E+03  0.99685243521E+03  0.10100000352E+00 0.  1.
    10030    2    1    2    0    0  0.00000000000E+00  0.00000000000E+00  0.91403844192E+03  0.29077433099E+04  0.27603450659E+04 0.  0.
        4    1    3    3  502    0 -0.11867415537E+04  0.81720589944E+02 -0.28023995064E+03  0.12221169391E+04  0.12699999809E+01 0.  1.
       -4    1    3    3    0  502  0.11867415537E+04 -0.81720589944E+02  0.11942783926E+04  0.16856263708E+04  0.12699999809E+01 0. -1.
</event>
<event>
 5   0  0.4756800E-06  0.2702217E+04  0.7818609E-02  0.8334286E-01
        1   -1    0    0  501    0  0.00000000000E+00  0.00000000000E+00  0.14280604905E+04  0.14280604905E+04  0.50400001928E-02 0. -1.
       -1   -1    0    0    0  501  0.00000000000E+00  0.00000000000E+00 -0.12783027882E+04  0.12783027882E+04  0.50400001928E-02 0.  1.
    10030    2    1    2    0    0  0.00000000000E+00  0.00000000000E+00  0.14975770231E+03  0.27063632787E+04  0.27022166507E+04 0.  0.
        4    1    3    3  502    0  0.93801743035E+03  0.26302495234E+03  0.10124955937E+04  0.14050650395E+04  0.12699999809E+01 0. -1.
       -4    1    3    3    0  502 -0.93801743035E+03 -0.26302495234E+03 -0.86273789138E+03  0.13012982392E+04  0.12699999809E+01 0.  1.
</event>
<event>
 5   0  0.1286641E-05  0.2727060E+04  0.7818609E-02  0.8326278E-01
        2   -1    0    0  501    0  0.00000000000E+00  0.00000000000E+00  0.18004491095E+04  0.18004491095E+04  0.25500000920E-02 0.  1.
       -2   -1    0    0    0  501  0.00000000000E+00  0.00000000000E+00 -0.10326391515E+04  0.10326391515E+04  0.25500000920E-02 0. -1.
    10030    2    1    2    0    0  0.00000000000E+00  0.00000000000E+00  0.76780995792E+03  0.28330882610E+04  0.27270601319E+04 0.  0.
        4    1    3    3  502    0  0.64545979989E+03 -0.44219120457E+03  0.15440419745E+04  0.17309588806E+04  0.12699999809E+01 0.  1.
       -4    1    3    3    0  502 -0.64545979989E+03  0.44219120457E+03 -0.77623201654E+03  0.11021293804E+04  0.12699999809E+01 0. -1.
</event>
<event>
 5   0  0.1232559E-05  0.2726244E+04  0.7818609E-02  0.8326540E-01
       -2   -1    0    0    0  501  0.00000000000E+00  0.00000000000E+00  0.82205367511E+03  0.82205367512E+03  0.25500000920E-02 0.  1.
        2   -1    0    0  501    0  0.00000000000E+00  0.00000000000E+00 -0.22603167299E+04  0.22603167299E+04  0.25500000920E-02 0. -1.
    10030    2    1    2    0    0  0.00000000000E+00  0.00000000000E+00 -0.14382630548E+04  0.30823704051E+04  0.27262440645E+04 0.  0.
        3    1    3    3  502    0 -0.46317964245E+01  0.73950195679E+03 -0.20137964751E+04  0.21452880578E+04  0.10100000352E+00 0. -1.
       -3    1    3    3    0  502  0.46317964245E+01 -0.73950195679E+03  0.57553342022E+03  0.93708234730E+03  0.10100000352E+00 0.  1.
</event>
<event>
 5   0  0.1261364E-05  0.2562605E+04  0.7818609E-02  0.8381016E-01
       -2   -1    0    0    0  501  0.00000000000E+00  0.00000000000E+00  0.21263340037E+04  0.21263340037E+04  0.25500000920E-02 0.  1.
        2   -1    0    0  501    0  0.00000000000E+00  0.00000000000E+00 -0.77209682882E+03  0.77209682882E+03  0.25500000920E-02 0. -1.
    10030    2    1    2    0    0  0.00000000000E+00  0.00000000000E+00  0.13542371749E+04  0.28984308325E+04  0.25626047227E+04 0.  0.
        5    1    3    3  502    0 -0.81700712432E+03 -0.98702228269E+03  0.67729212922E+03  0.14492965004E+04  0.46999998093E+01 0.  1.
       -5    1    3    3    0  502  0.81700712432E+03  0.98702228269E+03  0.67694504563E+03  0.14491343321E+04  0.46999998093E+01 0. -1.
</event>
<event>
 5   0  0.1261364E-05  0.2746968E+04  0.7818609E-02  0.8319925E-01
       -2   -1    0    0    0  501  0.00000000000E+00  0.00000000000E+00  0.93623432381E+03  0.93623432382E+03  0.25500000920E-02 0. -1.
        2   -1    0    0  501    0  0.00000000000E+00  0.00000000000E+00 -0.20149418951E+04  0.20149418951E+04  0.25500000920E-02 0.  1.
    10030    2    1    2    0    0  0.00000000000E+00  0.00000000000E+00 -0.10787075713E+04  0.29511762189E+04  0.27469676101E+04 0.  0.
        5    1    3    3  502    0  0.91988079579E+03 -0.49078867079E+03 -0.14999008383E+04  0.18266851980E+04  0.46999998093E+01 0.  1.
       -5    1    3    3    0  502 -0.91988079579E+03  0.49078867079E+03  0.42119326705E+03  0.11244910209E+04  0.46999998093E+01 0. -1.
</event>
<event>
 5   0  0.1261364E-05  0.2729462E+04  0.7818609E-02  0.8325508E-01
       -2   -1    0    0    0  501  0.00000000000E+00  0.00000000000E+00  0.12966934073E+04  0.12966934073E+04  0.25500000920E-02 0. -1.
        2   -1    0    0  501    0  0.00000000000E+00  0.00000000000E+00 -0.14363386965E+04  0.14363386965E+04  0.25500000920E-02 0.  1.
    10030    2    1    2    0    0  0.00000000000E+00  0.00000000000E+00 -0.13964528917E+03  0.27330321037E+04  0.27294621582E+04 0.  0.
        5    1    3    3  502    0 -0.64516455134E+03  0.50566183114E+02  0.11332789768E+04  0.13050431282E+04  0.46999998093E+01 0. -1.
       -5    1    3    3    0  502  0.64516455134E+03 -0.50566183114E+02 -0.12729242660E+04  0.14279889755E+04  0.46999998093E+01 0.  1.
</event>
<event>
 5   0  0.4824715E-06  0.2711715E+04  0.7818609E-02  0.8331214E-01
        1   -1    0    0  501    0  0.00000000000E+00  0.00000000000E+00  0.14668052567E+04  0.14668052567E+04  0.50400001928E-02 0. -1.
       -1   -1    0    0    0  501  0.00000000000E+00  0.00000000000E+00 -0.12533014304E+04  0.12533014304E+04  0.50400001928E-02 0.  1.
    10030    2    1    2    0    0  0.00000000000E+00  0.00000000000E+00  0.21350382636E+03  0.27201066871E+04  0.27117146799E+04 0.  0.
        5    1    3    3  502    0 -0.34352181123E+03  0.11710735225E+04 -0.48575925708E+03  0.13135465640E+04  0.46999998093E+01 0.  1.
       -5    1    3    3    0  502  0.34352181123E+03 -0.11710735225E+04  0.69926308343E+03  0.14065601231E+04  0.46999998093E+01 0. -1.
</event>
<event>
 5   0  0.1276517E-05  0.2705147E+04  0.7818609E-02  0.8333337E-01
        2   -1    0    0  501    0  0.00000000000E+00  0.00000000000E+00  0.14784297477E+04  0.14784297477E+04  0.25500000920E-02 0. -1.
       -2   -1    0    0    0  501  0.00000000000E+00  0.00000000000E+00 -0.12374313740E+04  0.12374313740E+04  0.25500000920E-02 0.  1.
    10030    2    1    2    0    0  0.00000000000E+00  0.00000000000E+00  0.24099837374E+03  0.27158611216E+04  0.27051472078E+04 0.  0.
        1    1    3    3  502    0  0.73627759314E+03  0.67994601836E+03 -0.79140658554E+03  0.12770104407E+04  0.50400001928E-02 0.  1.
       -1    1    3    3    0  502 -0.73627759314E+03 -0.67994601836E+03  0.10324049593E+04  0.14388506809E+04  0.50400001928E-02 0. -1.
</event>
<event>
 5   0  0.4846214E-06  0.2700630E+04  0.7818609E-02  0.8334801E-01
        1   -1    0    0  501    0  0.00000000000E+00  0.00000000000E+00  0.13422340397E+04  0.13422340397E+04  0.50400001928E-02 0. -1.
       -1   -1    0    0    0  501  0.00000000000E+00  0.00000000000E+00 -0.13584444615E+04  0.13584444616E+04  0.50400001928E-02 0.  1.
    10030    2    1    2    0    0  0.00000000000E+00  0.00000000000E+00 -0.16210421838E+02  0.27006785013E+04  0.27006298505E+04 0.  0.
        2    1    3    3  502    0 -0.53607672468E+03 -0.21386888982E-01 -0.12474709691E+04  0.13577783596E+04  0.25500000920E-02 0.  1.
       -2    1    3    3    0  502  0.53607672468E+03  0.21386888982E-01  0.12312605472E+04  0.13429001416E+04  0.25500000920E-02 0. -1.
</event>
<event>
 5   0  0.4756800E-06  0.2709887E+04  0.7818609E-02  0.8331804E-01
       -1   -1    0    0    0  501  0.00000000000E+00  0.00000000000E+00  0.14039010262E+04  0.14039010262E+04  0.50400001928E-02 0. -1.
        1   -1    0    0  501    0  0.00000000000E+00  0.00000000000E+00 -0.13076934356E+04  0.13076934356E+04  0.50400001928E-02 0.  1.
    10030    2    1    2    0    0  0.00000000000E+00  0.00000000000E+00  0.96207590591E+02  0.27115944618E+04  0.27098871978E+04 0.  0.
        4    1    3    3  502    0 -0.14868697378E+03 -0.26823890723E+03 -0.12725044107E+04  0.13089419451E+04  0.12699999809E+01 0.  1.
       -4    1    3    3    0  502  0.14868697378E+03  0.26823890723E+03  0.13687120012E+04  0.14026525168E+04  0.12699999809E+01 0. -1.
</event>
<event>
 5   0  0.5152288E-06  0.2730253E+04  0.7818609E-02  0.8325255E-01
        1   -1    0    0  501    0  0.00000000000E+00  0.00000000000E+00  0.11056658390E+04  0.11056658391E+04  0.50400001928E-02 0.  1.
       -1   -1    0    0    0  501  0.00000000000E+00  0.00000000000E+00 -0.16854736746E+04  0.16854736746E+04  0.50400001928E-02 0. -1.
    10030    2    1    2    0    0  0.00000000000E+00  0.00000000000E+00 -0.57980783557E+03  0.27911395137E+04  0.27302532224E+04 0.  0.
        3    1    3    3  502    0 -0.10275169611E+04  0.89876386154E+03 -0.29169525163E+03  0.13959418735E+04  0.10100000352E+00 0. -1.
       -3    1    3    3    0  502  0.10275169611E+04 -0.89876386154E+03 -0.28811258394E+03  0.13951976402E+04  0.10100000352E+00 0.  1.
</event>
<event>
 5   0  0.1276517E-05  0.2695702E+04  0.7818609E-02  0.8336401E-01
        2   -1    0    0  501    0  0.00000000000E+00  0.00000000000E+00  0.18649809098E+04  0.18649809098E+04  0.25500000920E-02 0. -1.
       -2   -1    0    0    0  501  0.00000000000E+00  0.00000000000E+00 -0.97411330316E+03  0.97411330317E+03  0.25500000920E-02 0.  1.
    10030    2    1    2    0    0  0.00000000000E+00  0.00000000000E+00  0.89086760666E+03  0.28390942130E+04  0.26957022940E+04 0.  0.
        1    1    3    3  502    0  0.93149207676E+03  0.71747289794E+03  0.11394693640E+04  0.16373256487E+04  0.50400001928E-02 0. -1.
       -1    1    3    3    0  502 -0.93149207676E+03 -0.71747289794E+03 -0.24860175734E+03  0.12017685643E+04  0.50400001928E-02 0.  1.
</event>
<event>
 5   0  0.4756800E-06  0.2716220E+04  0.7818609E-02  0.8329761E-01
        1   -1    0    0  501    0  0.00000000000E+00  0.00000000000E+00  0.18230031200E+04  0.18230031200E+04  0.50400001928E-02 0.  1.
       -1   -1    0    0    0  501  0.00000000000E+00  0.00000000000E+00 -0.10117717727E+04  0.10117717727E+04  0.50400001928E-02 0. -1.
    10030    2    1    2    0    0  0.00000000000E+00  0.00000000000E+00  0.81123134729E+03  0.28347748927E+04  0.27162202402E+04 0.  0.
        4    1    3    3  502    0  0.22135630161E+03  0.28275699556E+02  0.18037377537E+04  0.18174899242E+04  0.12699999809E+01 0.  1.
       -4    1    3    3    0  502 -0.22135630161E+03 -0.28275699556E+02 -0.99250640642E+03  0.10172849685E+04  0.12699999809E+01 0. -1.
</event>
<event>
 5   0  0.4756800E-06  0.2682250E+04  0.7818609E-02  0.8340787E-01
        1   -1    0    0  501    0  0.00000000000E+00  0.00000000000E+00  0.13187601986E+04  0.13187601986E+04  0.50400001928E-02 0.  1.
       -1   -1    0    0    0  501  0.00000000000E+00  0.00000000000E+00 -0.13638690701E+04  0.13638690701E+04  0.50400001928E-02 0. -1.
    10030    2    1    2    0    0  0.00000000000E+00  0.00000000000E+00 -0.45108871494E+02  0.26826292688E+04  0.26822499853E+04 0.  0.
        4    1    3    3  502    0  0.71390365882E+03  0.10787037345E+04  0.33154993602E+03  0.13353603086E+04  0.12699999809E+01 0. -1.
       -4    1    3    3    0  502 -0.71390365882E+03 -0.10787037345E+04 -0.37665880751E+03  0.13472689602E+04  0.12699999809E+01 0.  1.
</event>
<event>
 5   0  0.4824715E-06  0.2754236E+04  0.7818609E-02  0.8317619E-01
        1   -1    0    0  501    0  0.00000000000E+00  0.00000000000E+00  0.20039921025E+04  0.20039921025E+04  0.50400001928E-02 0. -1.
       -1   -1    0    0    0  501  0.00000000000E+00  0.00000000000E+00 -0.94633786521E+03  0.94633786522E+03  0.50400001928E-02 0.  1.
    10030    2    1    2    0    0  0.00000000000E+00  0.00000000000E+00  0.10576542373E+04  0.29503299677E+04  0.27542357257E+04 0.  0.
        5    1    3    3  502    0 -0.93438848515E+03  0.19230758831E+03 -0.53504359428E+03  0.10937814167E+04  0.46999998093E+01 0.  1.
       -5    1    3    3    0  502  0.93438848515E+03 -0.19230758831E+03  0.15926978316E+04  0.18565485511E+04  0.46999998093E+01 0. -1.
</event>
<event>
 5   0  0.1220908E-05  0.2668463E+04  0.7818609E-02  0.8345311E-01
       -2   -1    0    0    0  501  0.00000000000E+00  0.00000000000E+00  0.11456662826E+04  0.11456662826E+04  0.25500000920E-02 0.  1.
        2   -1    0    0  501    0  0.00000000000E+00  0.00000000000E+00 -0.15538322018E+04  0.15538322018E+04  0.25500000920E-02 0. -1.
    10030    2    1    2    0    0  0.00000000000E+00  0.00000000000E+00 -0.40816591922E+03  0.26994984843E+04  0.26684626003E+04 0.  0.
        2    1    3    3  502    0 -0.10483228224E+04 -0.10269555612E+03  0.62437152181E+03  0.12244863880E+04  0.25500000920E-02 0.  1.
       -2    1    3    3    0  502  0.10483228224E+04  0.10269555612E+03 -0.10325374410E+04  0.14750120963E+04  0.25500000920E-02 0. -1.
</event>
<event>
 5   0  0.1286641E-05  0.2692626E+04  0.7818609E-02  0.8337401E-01
        2   -1    0    0  501    0  0.00000000000E+00  0.00000000000E+00  0.13116324577E+04  0.13116324577E+04  0.25500000920E-02 0.  1.
       -2   -1    0    0    0  501  0.00000000000E+00  0.00000000000E+00 -0.13819106278E+04  0.13819106278E+04  0.25500000920E-02 0. -1.
    10030    2    1    2    0    0  0.00000000000E+00  0.00000000000E+00 -0.70278170120E+02  0.26935430854E+04  0.26926261032E+04 0.  0.
        4    1    3    3  502    0  0.21689179857E+03  0.13198205107E+04 -0.18877845754E+03  0.13507802011E+04  0.12699999809E+01 0.  1.
       -4    1    3    3    0  502 -0.21689179857E+03 -0.13198205107E+04  0.11850028742E+03  0.13427628844E+04  0.12699999809E+01 0. -1.
</event>
<event>
 5   0  0.1261364E-05  0.2694063E+04  0.7818609E-02  0.8336934E-01
        2   -1    0    0  501    0  0.00000000000E+00  0.00000000000E+00  0.15582407549E+04  0.15582407549E+04  0.25500000920E-02 0.  1.
       -2   -1    0    0    0  501  0.00000000000E+00  0.00000000000E+00 -0.11644503927E+04  0.11644503927E+04  0.25500000920E-02 0. -1.
    10030    2    1    2    0    0  0.00000000000E+00  0.00000000000E+00  0.39379036220E+03  0.27226911476E+04  0.26940631462E+04 0.  0.
        5    1    3    3  502    0  0.81272127085E+03 -0.10739269115E+04  0.22240411216E+03  0.13650350011E+04  0.46999998093E+01 0.  1.
       -5    1    3    3    0  502 -0.81272127085E+03  0.10739269115E+04  0.17138625004E+03  0.13576561464E+04  0.46999998093E+01 0. -1.
</event>
<event>
 5   0  0.1232559E-05  0.2668611E+04  0.7818609E-02  0.8345262E-01
        2   -1    0    0  501    0  0.00000000000E+00  0.00000000000E+00  0.23270746882E+04  0.23270746882E+04  0.25500000920E-02 0. -1.
       -2   -1    0    0    0  501  0.00000000000E+00  0.00000000000E+00 -0.76506822336E+03  0.76506822337E+03  0.25500000920E-02 0.  1.
    10030    2    1    2    0    0  0.00000000000E+00  0.00000000000E+00  0.15620064648E+04  0.30921429116E+04  0.26686107977E+04 0.  0.
        3    1    3    3  502    0  0.87844305347E+03 -0.98075239733E+03  0.53024668916E+03  0.14194009386E+04  0.10100000352E+00 0. -1.
       -3    1    3    3    0  502 -0.87844305347E+03  0.98075239733E+03  0.10317597757E+04  0.16727419729E+04  0.10100000352E+00 0.  1.
</event>
<event>
 5   0  0.1261364E-05  0.2690872E+04  0.7818609E-02  0.8337973E-01
        2   -1    0    0  501    0  0.00000000000E+00  0.00000000000E+00  0.14297651161E+04  0.14297651161E+04  0.25500000920E-02 0. -1.
       -2   -1    0    0    0  501  0.00000000000E+00  0.00000000000E+00 -0.12660808537E+04  0.12660808537E+04  0.25500000920E-02 0.  1.
    10030    2    1    2    0    0  0.00000000000E+00  0.00000000000E+00  0.16368426240E+03  0.26958459699E+04  0.26908721552E+04 0.  0.
        5    1    3    3  502    0 -0.38591664401E+02 -0.54122280925E+03  0.13152817804E+04  0.14228140067E+04  0.46999998093E+01 0. -1.
       -5    1    3    3    0  502  0.38591664401E+02  0.54122280925E+03 -0.11515975180E+04  0.12730319632E+04  0.46999998093E+01 0.  1.
</event>
<event>
 5   0  0.1220908E-05  0.2690857E+04  0.7818609E-02  0.8337978E-01
        2   -1    0    0  501    0  0.00000000000E+00  0.00000000000E+00  0.19463871014E+04  0.19463871014E+04  0.25500000920E-02 0.  1.
       -2   -1    0    0    0  501  0.00000000000E+00  0.00000000000E+00 -0.93001941821E+03  0.93001941822E+03  0.25500000920E-02 0. -1.
    10030    2    1    2    0    0  0.00000000000E+00  0.00000000000E+00  0.10163676832E+04  0.28764065196E+04  0.26908569636E+04 0.  0.
        2    1    3    3  502    0 -0.54647652745E+03 -0.88874161867E+03  0.14162800202E+04  0.17590757105E+04  0.25500000920E-02 0.  1.
       -2    1    3    3    0  502  0.54647652745E+03  0.88874161867E+03 -0.39991233694E+03  0.11173308091E+04  0.25500000920E-02 0. -1.
</event>
<event>
 5   0  0.4826140E-06  0.2776060E+04  0.7818609E-02  0.8310739E-01
       -1   -1    0    0    0  501  0.00000000000E+00  0.00000000000E+00  0.10641485116E+04  0.10641485116E+04  0.50400001928E-02 0.  1.
        1   -1    0    0  501    0  0.00000000000E+00  0.00000000000E+00 -0.18104878671E+04  0.18104878671E+04  0.50400001928E-02 0. -1.
    10030    2    1    2    0    0  0.00000000000E+00  0.00000000000E+00 -0.74633935550E+03  0.28746363787E+04  0.27760604957E+04 0.  0.
        1    1    3    3  502    0 -0.10263731543E+04  0.90081939341E+03 -0.63040680806E+03  0.15041044429E+04  0.50400001928E-02 0. -1.
       -1    1    3    3    0  502  0.10263731543E+04 -0.90081939341E+03 -0.11593254744E+03  0.13705319358E+04  0.50400001928E-02 0.  1.
</event>
<event>
 5   0  0.4756800E-06  0.2695496E+04  0.7818609E-02  0.8336468E-01
       -1   -1    0    0    0  501  0.00000000000E+00  0.00000000000E+00  0.99417083656E+03  0.99417083658E+03  0.50400001928E-02 0.  1.
        1   -1    0    0  501    0  0.00000000000E+00  0.00000000000E+00 -0.18270751899E+04  0.18270751899E+04  0.50400001928E-02 0. -1.
    10030    2    1    2    0    0  0.00000000000E+00  0.00000000000E+00 -0.83290435329E+03  0.28212460264E+04  0.26954961473E+04 0.  0.
        4    1    3    3  502    0  0.58209574494E+03  0.66078276269E+03  0.65141687920E+03  0.10953606160E+04  0.12699999809E+01 0.  1.
       -4    1    3    3    0  502 -0.58209574494E+03 -0.66078276269E+03 -0.14843212325E+04  0.17258854104E+04  0.12699999809E+01 0. -1.
</event>
<event>
 5   0  0.1286641E-05  0.2715473E+04  0.7818609E-02  0.8330002E-01
       -2   -1    0    0    0  501  0.00000000000E+00  0.00000000000E+00  0.82332500358E+03  0.82332500358E+03  0.25500000920E-02 0.  1.
        2   -1    0    0  501    0  0.00000000000E+00  0.00000000000E+00 -0.22390281058E+04  0.22390281058E+04  0.25500000920E-02 0. -1.
    10030    2    1    2    0    0  0.00000000000E+00  0.00000000000E+00 -0.14157031022E+04  0.30623531094E+04  0.27154725727E+04 0.  0.
        4    1    3    3  502    0  0.76458725543E+03  0.65653408414E+03 -0.17339207051E+04  0.20055207052E+04  0.12699999809E+01 0. -1.
       -4    1    3    3    0  502 -0.76458725543E+03 -0.65653408414E+03  0.31821760284E+03  0.10568324041E+04  0.12699999809E+01 0.  1.
</event>
<event>
 5   0  0.1286641E-05  0.2710237E+04  0.7818609E-02  0.8331691E-01
        2   -1    0    0  501    0  0.00000000000E+00  0.00000000000E+00  0.10321504843E+04  0.10321504843E+04  0.25500000920E-02 0.  1.
       -2   -1    0    0    0  501  0.00000000000E+00  0.00000000000E+00 -0.17791451192E+04  0.17791451192E+04  0.25500000920E-02 0. -1.
    10030    2    1    2    0    0  0.00000000000E+00  0.00000000000E+00 -0.74699463490E+03  0.28112956035E+04  0.27102365184E+04 0.  0.
        4    1    3    3  502    0  0.36741577113E+03  0.74576687186E+03  0.73653710326E+03  0.11106984710E+04  0.12699999809E+01 0.  1.
       -4    1    3    3    0  502 -0.36741577113E+03 -0.74576687186E+03 -0.14835317382E+04  0.17005971325E+04  0.12699999809E+01 0. -1.
</event>
<event>
 5   0  0.4846214E-06  0.2683660E+04  0.7818609E-02  0.8340326E-01
        1   -1    0    0  501    0  0.00000000000E+00  0.00000000000E+00  0.29485118585E+04  0.29485118585E+04  0.50400001928E-02 0. -1.
       -1   -1    0    0    0  501  0.00000000000E+00  0.00000000000E+00 -0.61064971100E+03  0.61064971102E+03  0.50400001928E-02 0.  1.
    10030    2    1    2    0    0  0.00000000000E+00  0.00000000000E+00  0.23378621475E+04  0.35591615695E+04  0.26836601233E+04 0.  0.
        2    1    3    3  502    0  0.11048147688E+04 -0.38671972696E+03  0.20389447817E+04  0.23510558571E+04  0.25500000920E-02 0. -1.
       -2    1    3    3    0  502 -0.11048147688E+04  0.38671972696E+03  0.29891736583E+03  0.12081057124E+04  0.25500000920E-02 0.  1.
</event>
<event>
 5   0  0.4846214E-06  0.2662218E+04  0.7818609E-02  0.8347369E-01
        1   -1    0    0  501    0  0.00000000000E+00  0.00000000000E+00  0.18807143377E+04  0.18807143377E+04  0.50400001928E-02 0.  1.
       -1   -1    0    0    0  501  0.00000000000E+00  0.00000000000E+00 -0.94211595760E+03  0.94211595761E+03  0.50400001928E-02 0. -1.
    10030    2    1    2    0    0  0.00000000000E+00  0.00000000000E+00  0.93859838009E+03  0.28228302953E+04  0.26622178643E+04 0.  0.
        2    1    3    3  502    0 -0.29344469043E+03  0.11720107935E+04  0.10616926514E+04  0.16083875070E+04  0.25500000920E-02 0.  1.
       -2    1    3    3    0  502  0.29344469043E+03 -0.11720107935E+04 -0.12309427131E+03  0.12144427883E+04  0.25500000920E-02 0. -1.
</event>
<event>
 5   0  0.1220908E-05  0.2670921E+04  0.7818609E-02  0.8344502E-01
       -2   -1    0    0    0  501  0.00000000000E+00  0.00000000000E+00  0.14063063465E+04  0.14063063465E+04  0.25500000920E-02 0.  1.
        2   -1    0    0  501    0  0.00000000000E+00  0.00000000000E+00 -0.12681840194E+04  0.12681840194E+04  0.25500000920E-02 0. -1.
    10030    2    1    2    0    0  0.00000000000E+00  0.00000000000E+00  0.13812232719E+03  0.26744903659E+04  0.26709213654E+04 0.  0.
        2    1    3    3  502    0 -0.11835171150E+04  0.31230886059E+03 -0.46569893827E+03  0.13096278430E+04  0.25500000920E-02 0. -1.
       -2    1    3    3    0  502  0.11835171150E+04 -0.31230886059E+03  0.60382126546E+03  0.13648625229E+04  0.25500000920E-02 0.  1.
</event>
<event>
 5   0  0.1232559E-05  0.2717390E+04  0.7818609E-02  0.8329384E-01
       -2   -1    0    0    0  501  0.00000000000E+00  0.00000000000E+00  0.98100913966E+03  0.98100913966E+03  0.25500000920E-02 0.  1.
        2   -1    0    0  501    0  0.00000000000E+00  0.00000000000E+00 -0.18817894177E+04  0.18817894177E+04  0.25500000920E-02 0. -1.
    10030    2    1    2    0    0  0.00000000000E+00  0.00000000000E+00 -0.90078027803E+03  0.28627985573E+04  0.27173903788E+04 0.  0.
        3    1    3    3  502    0  0.10452005712E+04  0.72794578414E+03  0.47891586978E+02  0.12746148097E+04  0.10100000352E+00 0.  1.
       -3    1    3    3    0  502 -0.10452005712E+04 -0.72794578414E+03 -0.94867186500E+03  0.15881837477E+04  0.10100000352E+00 0. -1.
</event>
<event>
 5   0  0.1220908E-05  0.2697240E+04  0.7818609E-02  0.8335901E-01
       -2   -1    0    0    0  501  0.00000000000E+00  0.00000000000E+00  0.11288642410E+04  0.11288642410E+04  0.25500000920E-02 0. -1.
        2   -1    0    0  501    0  0.00000000000E+00  0.00000000000E+00 -0.16111560473E+04  0.16111560473E+04  0.25500000920E-02 0.  1.
    10030    2    1    2    0    0  0.00000000000E+00  0.00000000000E+00 -0.48229180632E+03  0.27400202883E+04  0.26972404034E+04 0.  0.
        2    1    3    3  502    0 -0.23860243467E+03 -0.55972297511E+03  0.98150280784E+03  0.11548024474E+04  0.25500000920E-02 0. -1.
       -2    1    3    3    0  502  0.23860243467E+03  0.55972297511E+03 -0.14637946142E+04  0.15852178409E+04  0.25500000920E-02 0.  1.
</event>
<event>
 5   0  0.1276517E-05  0.2657632E+04  0.7818609E-02  0.8348884E-01
       -2   -1    0    0    0  501  0.00000000000E+00  0.00000000000E+00  0.12857362710E+04  0.12857362710E+04  0.25500000920E-02 0.  1.
        2   -1    0    0  501    0  0.00000000000E+00  0.00000000000E+00 -0.13733386951E+04  0.13733386951E+04  0.25500000920E-02 0. -1.
    10030    2    1    2    0    0  0.00000000000E+00  0.00000000000E+00 -0.87602424066E+02  0.26590749661E+04  0.26576315566E+04 0.  0.
        1    1    3    3  502    0 -0.10202170444E+04  0.27127791444E+03 -0.85128156781E+03  0.13561396802E+04  0.50400001928E-02 0. -1.
       -1    1    3    3    0  502  0.10202170444E+04 -0.27127791444E+03  0.76367914374E+03  0.13029352859E+04  0.50400001928E-02 0.  1.
</event>
<event>
 5   0  0.4824715E-06  0.2705915E+04  0.7818609E-02  0.8333088E-01
       -1   -1    0    0    0  501  0.00000000000E+00  0.00000000000E+00  0.12221149511E+04  0.12221149512E+04  0.50400001928E-02 0. -1.
        1   -1    0    0  501    0  0.00000000000E+00  0.00000000000E+00 -0.14978080859E+04  0.14978080859E+04  0.50400001928E-02 0.  1.
    10030    2    1    2    0    0  0.00000000000E+00  0.00000000000E+00 -0.27569313476E+03  0.27199230371E+04  0.27059147479E+04 0.  0.
        5    1    3    3  502    0  0.99657935229E+03  0.52177185092E+03  0.61774652782E+03  0.12833741202E+04  0.46999998093E+01 0. -1.
       -5    1    3    3    0  502 -0.99657935229E+03 -0.52177185092E+03 -0.89343966258E+03  0.14365489169E+04  0.46999998093E+01 0.  1.
</event>
<event>
 5   0  0.1261364E-05  0.2701976E+04  0.7818609E-02  0.8334364E-01
       -2   -1    0    0    0  501  0.00000000000E+00  0.00000000000E+00  0.11418383685E+04  0.11418383685E+04  0.25500000920E-02 0.  1.
        2   -1    0    0  501    0  0.00000000000E+00  0.00000000000E+00 -0.15984469726E+04  0.15984469726E+04  0.25500000920E-02 0. -1.
    10030    2    1    2    0    0  0.00000000000E+00  0.00000000000E+00 -0.45660860417E+03  0.27402853411E+04  0.27019756352E+04 0.  0.
        5    1    3    3  502    0 -0.71630673004E+03 -0.29637656347E+03 -0.13504328289E+04  0.15571208413E+04  0.46999998093E+01 0. -1.
       -5    1    3    3    0  502  0.71630673004E+03  0.29637656347E+03  0.89382422478E+03  0.11831644998E+04  0.46999998093E+01 0.  1.
</event>
<event>
 5   0  0.1286641E-05  0.2726130E+04  0.7818609E-02  0.8326576E-01
       -2   -1    0    0    0  501  0.00000000000E+00  0.00000000000E+00  0.20576651799E+04  0.20576651799E+04  0.25500000920E-02 0. -1.
        2   -1    0    0  501    0  0.00000000000E+00  0.00000000000E+00 -0.90293909183E+03  0.90293909184E+03  0.25500000920E-02 0.  1.
    10030    2    1    2    0    0  0.00000000000E+00  0.00000000000E+00  0.11547260881E+04  0.29606042717E+04  0.27261300988E+04 0.  0.
        4    1    3    3  502    0 -0.71656201366E+03  0.86402103546E+03  0.14171452565E+04  0.18078428472E+04  0.12699999809E+01 0. -1.
       -4    1    3    3    0  502  0.71656201366E+03 -0.86402103546E+03 -0.26241916842E+03  0.11527614246E+04  0.12699999809E+01 0.  1.
</event>
<event>
 5   0  0.1220908E-05  0.2680173E+04  0.7818609E-02  0.8341467E-01
       -2   -1    0    0    0  501  0.00000000000E+00  0.00000000000E+00  0.12052727160E+04  0.12052727160E+04  0.25500000920E-02 0.  1.
        2   -1    0    0  501    0  0.00000000000E+00  0.00000000000E+00 -0.14899793447E+04  0.14899793447E+04  0.25500000920E-02 0. -1.
    10030    2    1    2    0    0  0.00000000000E+00  0.00000000000E+00 -0.28470662876E+03  0.26952520607E+04  0.26801727195E+04 0.  0.
        2    1    3    3  502    0 -0.83864026630E+03  0.76140357507E+03  0.57776114257E+03  0.12715584290E+04  0.25500000920E-02 0.  1.
       -2    1    3    3    0  502  0.83864026630E+03 -0.76140357507E+03 -0.86246777133E+03  0.14236936317E+04  0.25500000920E-02 0. -1.
</event>
<event>
 5   0  0.4824715E-06  0.2700067E+04  0.7818609E-02  0.8334983E-01
        1   -1    0    0  501    0  0.00000000000E+00  0.00000000000E+00  0.17018306633E+04  0.17018306633E+04  0.50400001928E-02 0. -1.
       -1   -1    0    0    0  501  0.00000000000E+00  0.00000000000E+00 -0.10709588999E+04  0.10709588999E+04  0.50400001928E-02 0.  1.
    10030    2    1    2    0    0  0.00000000000E+00  0.00000000000E+00  0.63087176343E+03  0.27727895632E+04  0.27000671806E+04 0.  0.
        5    1    3    3  502    0 -0.53920315714E+03 -0.59771556032E+03 -0.79752732490E+03  0.11331707107E+04  0.46999998093E+01 0.  1.
       -5    1    3    3    0  502  0.53920315714E+03  0.59771556032E+03  0.14283990883E+04  0.16396188524E+04  0.46999998093E+01 0. -1.
</event>
<event>
 5   0  0.4824715E-06  0.2683940E+04  0.7818609E-02  0.8340235E-01
        1   -1    0    0  501    0  0.00000000000E+00  0.00000000000E+00  0.27404043780E+04  0.27404043780E+04  0.50400001928E-02 0.  1.
       -1   -1    0    0    0  501  0.00000000000E+00  0.00000000000E+00 -0.65715954371E+03  0.65715954372E+03  0.50400001928E-02 0. -1.
    10030    2    1    2    0    0  0.00000000000E+00  0.00000000000E+00  0.20832448343E+04  0.33975639218E+04  0.26839395602E+04 0.  0.
        5    1    3    3  502    0  0.36383027865E+03  0.12373450588E+04  0.15109670081E+04  0.19865645360E+04  0.46999998093E+01 0. -1.
       -5    1    3    3    0  502 -0.36383027865E+03 -0.12373450588E+04  0.57227782620E+03  0.14109993857E+04  0.46999998093E+01 0.  1.
</event>
<event>
 5   0  0.1276517E-05  0.2706377E+04  0.7818609E-02  0.8332939E-01
        2   -1    0    0  501    0  0.00000000000E+00  0.00000000000E+00  0.16965139511E+04  0.16965139511E+04  0.25500000920E-02 0.  1.
       -2   -1    0    0    0  501  0.00000000000E+00  0.00000000000E+00 -0.10793423566E+04  0.10793423566E+04  0.25500000920E-02 0. -1.
    10030    2    1    2    0    0  0.00000000000E+00  0.00000000000E+00  0.61717159447E+03  0.27758563077E+04  0.27063771843E+04 0.  0.
        1    1    3    3  502    0 -0.29889548050E+03  0.32337240176E+03 -0.10037984355E+04  0.10961384574E+04  0.50400001928E-02 0. -1.
       -1    1    3    3    0  502  0.29889548050E+03 -0.32337240176E+03  0.16209700300E+04  0.16797178503E+04  0.50400001928E-02 0.  1.
</event>
<event>
 5   0  0.1261364E-05  0.2540609E+04  0.7818609E-02  0.8388660E-01
       -2   -1    0    0    0  501  0.00000000000E+00  0.00000000000E+00  0.16031430089E+04  0.16031430089E+04  0.25500000920E-02 0.  1.
        2   -1    0    0  501    0  0.00000000000E+00  0.00000000000E+00 -0.10065685890E+04  0.10065685890E+04  0.25500000920E-02 0. -1.
    10030    2    1    2    0    0  0.00000000000E+00  0.00000000000E+00  0.59657441991E+03  0.26097115979E+04  0.25406089006E+04 0.  0.
        5    1    3    3  502    0  0.32967865622E+03  0.79929633408E+03  0.12542387488E+04  0.15233842506E+04  0.46999998093E+01 0.  1.
       -5    1    3    3    0  502 -0.32967865622E+03 -0.79929633408E+03 -0.65766432888E+03  0.10863273473E+04  0.46999998093E+01 0. -1.
</event>
<event>
 5   0  0.1261364E-05  0.2694402E+04  0.7818609E-02  0.8336824E-01
        2   -1    0    0  501    0  0.00000000000E+00  0.00000000000E+00  0.21800513163E+04  0.21800513163E+04  0.25500000920E-02 0.  1.
       -2   -1    0    0    0  501  0.00000000000E+00  0.00000000000E+00 -0.83252628610E+03  0.83252628611E+03  0.25500000920E-02 0. -1.
    10030    2    1    2    0    0  0.00000000000E+00  0.00000000000E+00  0.13475250302E+04  0.30125776024E+04  0.26944016225E+04 0.  0.
        5    1    3    3  502    0  0.46025389500E+03 -0.10613570358E+03 -0.73690344266E+03  0.87529835442E+03  0.46999998093E+01 0. -1.
       -5    1    3    3    0  502 -0.46025389500E+03  0.10613570358E+03  0.20844284728E+04  0.21372792480E+04  0.46999998093E+01 0.  1.
</event>
<event>
 5   0  0.4756800E-06  0.2741960E+04  0.7818609E-02  0.8321517E-01
        1   -1    0    0  501    0  0.00000000000E+00  0.00000000000E+00  0.10698202892E+04  0.10698202892E+04  0.50400001928E-02 0. -1.
       -1   -1    0    0    0  501  0.00000000000E+00  0.00000000000E+00 -0.17569176217E+04  0.17569176217E+04  0.50400001928E-02 0.  1.
    10030    2    1    2    0    0  0.00000000000E+00  0.00000000000E+00 -0.68709733251E+03  0.28267379109E+04  0.27419599692E+04 0.  0.
        4    1    3    3  502    0  0.18208576123E+03 -0.13496404264E+04 -0.50622489988E+03  0.14529107912E+04  0.12699999809E+01 0.  1.
       -4    1    3    3    0  502 -0.18208576123E+03  0.13496404264E+04 -0.18087243262E+03  0.13738271197E+04  0.12699999809E+01 0. -1.
</event>
<event>
 5   0  0.4756800E-06  0.2685514E+04  0.7818609E-02  0.8339721E-01
        1   -1    0    0  501    0  0.00000000000E+00  0.00000000000E+00  0.22963433200E+04  0.22963433200E+04  0.50400001928E-02 0. -1.
       -1   -1    0    0    0  501  0.00000000000E+00  0.00000000000E+00 -0.78515960807E+03  0.78515960809E+03  0.50400001928E-02 0.  1.
    10030    2    1    2    0    0  0.00000000000E+00  0.00000000000E+00  0.15111837119E+04  0.30815029281E+04  0.26855137469E+04 0.  0.
        4    1    3    3  502    0  0.19811609424E+03  0.10545356635E+04  0.16819069003E+04  0.19950207735E+04  0.12699999809E+01 0. -1.
       -4    1    3    3    0  502 -0.19811609424E+03 -0.10545356635E+04 -0.17072318834E+03  0.10864821546E+04  0.12699999809E+01 0.  1.
</event>
<event>
 5   0  0.4846214E-06  0.2616271E+04  0.7818609E-02  0.8362695E-01
        1   -1    0    0  501    0  0.00000000000E+00  0.00000000000E+00  0.16252671376E+04  0.16252671376E+04  0.50400001928E-02 0. -1.
       -1   -1    0    0    0  501  0.00000000000E+00  0.00000000000E+00 -0.10528842392E+04  0.10528842392E+04  0.50400001928E-02 0.  1.
    10030    2    1    2    0    0  0.00000000000E+00  0.00000000000E+00  0.57238289835E+03  0.26781513768E+04  0.26162707457E+04 0.  0.
        2    1    3    3  502    0  0.10151929777E+03  0.39828293998E+03  0.15574515813E+04  0.16107733845E+04  0.25500000920E-02 0. -1.
       -2    1    3    3    0  502 -0.10151929777E+03 -0.39828293998E+03 -0.98506868298E+03  0.10673779922E+04  0.25500000920E-02 0.  1.
</event>
<event>
 5   0  0.1276517E-05  0.2637674E+04  0.7818609E-02  0.8355516E-01
       -2   -1    0    0    0  501  0.00000000000E+00  0.00000000000E+00  0.10541099114E+04  0.10541099114E+04  0.25500000920E-02 0.  1.
        2   -1    0    0  501    0  0.00000000000E+00  0.00000000000E+00 -0.16500471745E+04  0.16500471745E+04  0.25500000920E-02 0. -1.
    10030    2    1    2    0    0  0.00000000000E+00  0.00000000000E+00 -0.59593726309E+03  0.27041570859E+04  0.26376740367E+04 0.  0.
        1    1    3    3  502    0 -0.41531373651E+03 -0.12200311577E+04 -0.58497034092E+03  0.14153274622E+04  0.50400001928E-02 0.  1.
       -1    1    3    3    0  502  0.41531373651E+03  0.12200311577E+04 -0.10966922170E+02  0.12888296237E+04  0.50400001928E-02 0. -1.
</event>
<event>
 5   0  0.1261364E-05  0.2690523E+04  0.7818609E-02  0.8338086E-01
       -2   -1    0    0    0  501  0.00000000000E+00  0.00000000000E+00  0.11995597026E+04  0.11995597026E+04  0.25500000920E-02 0.  1.
        2   -1    0    0  501    0  0.00000000000E+00  0.00000000000E+00 -0.15086607591E+04  0.15086607591E+04  0.25500000920E-02 0. -1.
    10030    2    1    2    0    0  0.00000000000E+00  0.00000000000E+00 -0.30910105644E+03  0.27082204617E+04  0.26905231101E+04 0.  0.
        5    1    3    3  502    0  0.12694980100E+04  0.28909591463E+03  0.18606100953E+03  0.13152347450E+04  0.46999998093E+01 0.  1.
       -5    1    3    3    0  502 -0.12694980100E+04 -0.28909591463E+03 -0.49516206598E+03  0.13929857167E+04  0.46999998093E+01 0. -1.
</event>
<event>
 5   0  0.1232559E-05  0.2737261E+04  0.7818609E-02  0.8323015E-01
       -2   -1    0    0    0  501  0.00000000000E+00  0.00000000000E+00  0.71579447233E+03  0.71579447233E+03  0.25500000920E-02 0. -1.
        2   -1    0    0  501    0  0.00000000000E+00  0.00000000000E+00 -0.26168823864E+04  0.26168823864E+04  0.25500000920E-02 0.  1.
    10030    2    1    2    0    0  0.00000000000E+00  0.00000000000E+00 -0.19010879141E+04  0.33326768587E+04  0.27372613663E+04 0.  0.
        3    1    3    3  502    0 -0.95933422588E+03 -0.68336794239E+03 -0.17991806388E+04  0.21504336500E+04  0.10100000352E+00 0.  1.
       -3    1    3    3    0  502  0.95933422588E+03  0.68336794239E+03 -0.10190727521E+03  0.11822432087E+04  0.10100000352E+00 0. -1.
</event>
<event>
 5   0  0.4756800E-06  0.2669741E+04  0.7818609E-02  0.8344890E-01
        1   -1    0    0  501    0  0.00000000000E+00  0.00000000000E+00  0.13298197993E+04  0.13298197993E+04  0.50400001928E-02 0. -1.
       -1   -1    0    0    0  501  0.00000000000E+00  0.00000000000E+00 -0.13399398840E+04  0.13399398840E+04  0.50400001928E-02 0.  1.
    10030    2    1    2    0    0  0.00000000000E+00  0.00000000000E+00 -0.10120084776E+02  0.26697596833E+04  0.26697405025E+04 0.  0.
        4    1    3    3  502    0  0.80009894232E+03  0.89104230031E+03  0.58465791845E+03  0.13326444361E+04  0.12699999809E+01 0. -1.
       -4    1    3    3    0  502 -0.80009894232E+03 -0.89104230031E+03 -0.59477800322E+03  0.13371152473E+04  0.12699999809E+01 0.  1.
</event>
<event>
 5   0  0.1276517E-05  0.2630652E+04  0.7818609E-02  0.8357863E-01
        2   -1    0    0  501    0  0.00000000000E+00  0.00000000000E+00  0.83223549712E+03  0.83223549712E+03  0.25500000920E-02 0. -1.
       -2   -1    0    0    0  501  0.00000000000E+00  0.00000000000E+00 -0.20788374901E+04  0.20788374901E+04  0.25500000920E-02 0.  1.
    10030    2    1    2    0    0  0.00000000000E+00  0.00000000000E+00 -0.12466019930E+04  0.29110729872E+04  0.26306518979E+04 0.  0.
        1    1    3    3  502    0 -0.51494670866E+03 -0.11460837388E+04 -0.10538859203E+04  0.16399248708E+04  0.50400001928E-02 0.  1.
       -1    1    3    3    0  502  0.51494670866E+03  0.11460837388E+04 -0.19271607267E+03  0.12711481164E+04  0.50400001928E-02 0. -1.
</event>
<event>
 5   0  0.4756800E-06  0.2377295E+04  0.7818609E-02  0.8448053E-01
       -1   -1    0    0    0  501  0.00000000000E+00  0.00000000000E+00  0.12482917018E+04  0.12482917018E+04  0.50400001928E-02 0. -1.
        1   -1    0    0  501    0  0.00000000000E+00  0.00000000000E+00 -0.11318535750E+04  0.11318535750E+04  0.50400001928E-02 0.  1.
    10030    2    1    2    0    0  0.00000000000E+00  0.00000000000E+00  0.11643812683E+03  0.23801452768E+04  0.23772954594E+04 0.  0.
        4    1    3    3  502    0 -0.70008272251E+03 -0.20808127030E+03  0.99714291193E+03  0.12360053532E+04  0.12699999809E+01 0. -1.
       -4    1    3    3    0  502  0.70008272251E+03  0.20808127030E+03 -0.88070478510E+03  0.11441399236E+04  0.12699999809E+01 0.  1.
</event>
<event>
 5   0  0.1232559E-05  0.2678494E+04  0.7818609E-02  0.8342017E-01
        2   -1    0    0  501    0  0.00000000000E+00  0.00000000000E+00  0.10515139458E+04  0.10515139458E+04  0.25500000920E-02 0.  1.
       -2   -1    0    0    0  501  0.00000000000E+00  0.00000000000E+00 -0.17057144495E+04  0.17057144495E+04  0.25500000920E-02 0. -1.
    10030    2    1    2    0    0  0.00000000000E+00  0.00000000000E+00 -0.65420050368E+03  0.27572283953E+04  0.26784940031E+04 0.  0.
        3    1    3    3  502    0 -0.12327183279E+04  0.48577316776E+03 -0.52779921821E+03  0.14262335262E+04  0.10100000352E+00 0. -1.
       -3    1    3    3    0  502  0.12327183279E+04 -0.48577316776E+03 -0.12640128546E+03  0.13309948691E+04  0.10100000352E+00 0.  1.
</event>
<event>
 5   0  0.1286641E-05  0.2715844E+04  0.7818609E-02  0.8329883E-01
       -2   -1    0    0    0  501  0.00000000000E+00  0.00000000000E+00  0.12816176137E+04  0.12816176137E+04  0.25500000920E-02 0.  1.
        2   -1    0    0  501    0  0.00000000000E+00  0.00000000000E+00 -0.14387690312E+04  0.14387690312E+04  0.25500000920E-02 0. -1.
    10030    2    1    2    0    0  0.00000000000E+00  0.00000000000E+00 -0.15715141752E+03  0.27203866450E+04  0.27158436866E+04 0.  0.
        4    1    3    3  502    0  0.11402272299E+04 -0.13561419427E+03 -0.80466118465E+03  0.14021378608E+04  0.12699999809E+01 0. -1.
       -4    1    3    3    0  502 -0.11402272299E+04  0.13561419427E+03  0.64750976713E+03  0.13182487842E+04  0.12699999809E+01 0.  1.
</event>
<event>
 5   0  0.4826140E-06  0.2690507E+04  0.7818609E-02  0.8338092E-01
        1   -1    0    0  501    0  0.00000000000E+00  0.00000000000E+00  0.18351478417E+04  0.18351478417E+04  0.50400001928E-02 0. -1.
       -1   -1    0    0    0  501  0.00000000000E+00  0.00000000000E+00 -0.98613680870E+03  0.98613680872E+03  0.50400001928E-02 0.  1.
    10030    2    1    2    0    0  0.00000000000E+00  0.00000000000E+00  0.84901103299E+03  0.28212846504E+04  0.26905068936E+04 0.  0.
        1    1    3    3  502    0  0.10490029003E+03 -0.13157718074E+04  0.69683529551E+03  0.14925947035E+04  0.50400001928E-02 0. -1.
       -1    1    3    3    0  502 -0.10490029003E+03  0.13157718074E+04  0.15217573748E+03  0.13286899469E+04  0.50400001928E-02 0.  1.
</event>
<event>
 5   0  0.1276517E-05  0.2703215E+04  0.7818609E-02  0.8333963E-01
        2   -1    0    0  501    0  0.00000000000E+00  0.00000000000E+00  0.18863761050E+04  0.18863761050E+04  0.25500000920E-02 0. -1.
       -2   -1    0    0    0  501  0.00000000000E+00  0.00000000000E+00 -0.96844017225E+03  0.96844017225E+03  0.25500000920E-02 0.  1.
    10030    2    1    2    0    0  0.00000000000E+00  0.00000000000E+00  0.91793593276E+03  0.28548162773E+04  0.27032146789E+04 0.  0.
        1    1    3    3  502    0  0.89382057623E+03  0.71158634882E+03  0.12216697827E+04  0.16726468283E+04  0.50400001928E-02 0. -1.
       -1    1    3    3    0  502 -0.89382057623E+03 -0.71158634882E+03 -0.30373384996E+03  0.11821694489E+04  0.50400001928E-02 0.  1.
</event>
<event>
 5   0  0.4824715E-06  0.2493155E+04  0.7818609E-02  0.8405428E-01
        1   -1    0    0  501    0  0.00000000000E+00  0.00000000000E+00  0.11072927920E+04  0.11072927921E+04  0.50400001928E-02 0. -1.
       -1   -1    0    0    0  501  0.00000000000E+00  0.00000000000E+00 -0.14033826780E+04  0.14033826780E+04  0.50400001928E-02 0.  1.
    10030    2    1    2    0    0  0.00000000000E+00  0.00000000000E+00 -0.29608988594E+03  0.25106754700E+04  0.24931550484E+04 0.  0.
        5    1    3    3  502    0  0.42116087330E+03  0.11622127663E+04 -0.30985528550E+03  0.12744204108E+04  0.46999998093E+01 0. -1.
       -5    1    3    3    0  502 -0.42116087330E+03 -0.11622127663E+04  0.13765399567E+02  0.12362550593E+04  0.46999998093E+01 0.  1.
</event>
<event>
 5   0  0.4824715E-06  0.2704293E+04  0.7818609E-02  0.8333613E-01
        1   -1    0    0  501    0  0.00000000000E+00  0.00000000000E+00  0.20514509168E+04  0.20514509168E+04  0.50400001928E-02 0.  1.
       -1   -1    0    0    0  501  0.00000000000E+00  0.00000000000E+00 -0.89122273565E+03  0.89122273567E+03  0.50400001928E-02 0. -1.
    10030    2    1    2    0    0  0.00000000000E+00  0.00000000000E+00  0.11602281812E+04  0.29426736525E+04  0.27042926603E+04 0.  0.
        5    1    3    3  502    0  0.73166136711E+03  0.71437646098E+02 -0.65475341769E+03  0.98445712014E+03  0.46999998093E+01 0. -1.
       -5    1    3    3    0  502 -0.73166136711E+03 -0.71437646098E+02  0.18149815989E+04  0.19582165324E+04  0.46999998093E+01 0.  1.
</event>
<event>
 5   0  0.4826140E-06  0.2494851E+04  0.7818609E-02  0.8404822E-01
       -1   -1    0    0    0  501  0.00000000000E+00  0.00000000000E+00  0.15165025477E+04  0.15165025477E+04  0.50400001928E-02 0. -1.
        1   -1    0    0  501    0  0.00000000000E+00  0.00000000000E+00 -0.10260915876E+04  0.10260915877E+04  0.50400001928E-02 0.  1.
    10030    2    1    2    0    0  0.00000000000E+00  0.00000000000E+00  0.49041096010E+03  0.25425941354E+04  0.24948511033E+04 0.  0.
        1    1    3    3  502    0  0.50486710297E+02 -0.85049875799E+03  0.11737801500E+04  0.14503988713E+04  0.50400001928E-02 0. -1.
       -1    1    3    3    0  502 -0.50486710297E+02  0.85049875799E+03 -0.68336918989E+03  0.10921952641E+04  0.50400001928E-02 0.  1.
</event>
<event>
 5   0  0.5152288E-06  0.2700955E+04  0.7818609E-02  0.8334695E-01
        1   -1    0    0  501    0  0.00000000000E+00  0.00000000000E+00  0.11530854894E+04  0.11530854894E+04  0.50400001928E-02 0.  1.
       -1   -1    0    0    0  501  0.00000000000E+00  0.00000000000E+00 -0.15816601515E+04  0.15816601515E+04  0.50400001928E-02 0. -1.
    10030    2    1    2    0    0  0.00000000000E+00  0.00000000000E+00 -0.42857466214E+03  0.27347456409E+04  0.27009549200E+04 0.  0.
        3    1    3    3  502    0 -0.52183847033E+03  0.12005700384E+04  0.12168554365E+03  0.13147209544E+04  0.10100000352E+00 0.  1.
       -3    1    3    3    0  502  0.52183847033E+03 -0.12005700384E+04 -0.55026020579E+03  0.14200246866E+04  0.10100000352E+00 0. -1.
</event>
<event>
 5   0  0.5152288E-06  0.2682589E+04  0.7818609E-02  0.8340676E-01
        1   -1    0    0  501    0  0.00000000000E+00  0.00000000000E+00  0.16309363440E+04  0.16309363440E+04  0.50400001928E-02 0. -1.
       -1   -1    0    0    0  501  0.00000000000E+00  0.00000000000E+00 -0.11030906865E+04  0.11030906865E+04  0.50400001928E-02 0.  1.
    10030    2    1    2    0    0  0.00000000000E+00  0.00000000000E+00  0.52784565748E+03  0.27340270305E+04  0.26825888178E+04 0.  0.
        3    1    3    3  502    0  0.12394531880E+04 -0.50914992454E+03  0.32501239600E+03  0.13788077889E+04  0.10100000352E+00 0.  1.
       -3    1    3    3    0  502 -0.12394531880E+04  0.50914992454E+03  0.20283326148E+03  0.13552192417E+04  0.10100000352E+00 0. -1.
</event>
<event>
 5   0  0.4756800E-06  0.2723823E+04  0.7818609E-02  0.8327316E-01
       -1   -1    0    0    0  501  0.00000000000E+00  0.00000000000E+00  0.12952490280E+04  0.12952490280E+04  0.50400001928E-02 0. -1.
        1   -1    0    0  501    0  0.00000000000E+00  0.00000000000E+00 -0.14320047161E+04  0.14320047161E+04  0.50400001928E-02 0.  1.
    10030    2    1    2    0    0  0.00000000000E+00  0.00000000000E+00 -0.13675568813E+03  0.27272537441E+04  0.27238228405E+04 0.  0.
        4    1    3    3  502    0  0.10227031313E+01  0.12065696316E+04 -0.70082985259E+03  0.13953406097E+04  0.12699999809E+01 0.  1.
       -4    1    3    3    0  502 -0.10227031313E+01 -0.12065696316E+04  0.56407416445E+03  0.13319131344E+04  0.12699999809E+01 0. -1.
</event>
<event>
 5   0  0.5152288E-06  0.2721412E+04  0.7818609E-02  0.8328091E-01
        1   -1    0    0  501    0  0.00000000000E+00  0.00000000000E+00  0.22861905993E+04  0.22861905993E+04  0.50400001928E-02 0.  1.
       -1   -1    0    0    0  501  0.00000000000E+00  0.00000000000E+00 -0.80987156399E+03  0.80987156400E+03  0.50400001928E-02 0. -1.
    10030    2    1    2    0    0  0.00000000000E+00  0.00000000000E+00  0.14763190353E+04  0.30960621633E+04  0.27214119543E+04 0.  0.
        3    1    3    3  502    0  0.56398803682E+02  0.60205661491E+03 -0.64861375409E+03  0.88676536063E+03  0.10100000352E+00 0. -1.
       -3    1    3    3    0  502 -0.56398803682E+02 -0.60205661491E+03  0.21249327894E+04  0.22092968027E+04  0.10100000352E+00 0.  1.
</event>
<event>
 5   0  0.4826140E-06  0.2681409E+04  0.7818609E-02  0.8341062E-01
       -1   -1    0    0    0  501  0.00000000000E+00  0.00000000000E+00  0.10620885329E+04  0.10620885329E+04  0.50400001928E-02 0.  1.
        1   -1    0    0  501    0  0.00000000000E+00  0.00000000000E+00 -0.16924090760E+04  0.16924090761E+04  0.50400001928E-02 0. -1.
    10030    2    1    2    0    0  0.00000000000E+00  0.00000000000E+00 -0.63032054315E+03  0.27544976090E+04  0.26814087884E+04 0.  0.
        1    1    3    3  502    0  0.14895221220E+03 -0.10994150906E+04 -0.10883980167E+04  0.15541912835E+04  0.50400001928E-02 0. -1.
       -1    1    3    3    0  502 -0.14895221220E+03  0.10994150906E+04  0.45807747354E+03  0.12003063254E+04  0.50400001928E-02 0.  1.
</event>
<event>
 5   0  0.4824715E-06  0.2678088E+04  0.7818609E-02  0.8342150E-01
       -1   -1    0    0    0  501  0.00000000000E+00  0.00000000000E+00  0.68289226558E+03  0.68289226559E+03  0.50400001928E-02 0.  1.
        1   -1    0    0  501    0  0.00000000000E+00  0.00000000000E+00 -0.26256535456E+04  0.26256535456E+04  0.50400001928E-02 0. -1.
    10030    2    1    2    0    0  0.00000000000E+00  0.00000000000E+00 -0.19427612800E+04  0.33085458112E+04  0.26780877494E+04 0.  0.
        5    1    3    3  502    0  0.49866465753E+03  0.35904572300E+03  0.49841680830E+03  0.79121531625E+03  0.46999998093E+01 0.  1.
       -5    1    3    3    0  502 -0.49866465753E+03 -0.35904572300E+03 -0.24411780883E+04  0.25173304949E+04  0.46999998093E+01 0. -1.
</event>
<event>
 5   0  0.1232559E-05  0.2707808E+04  0.7818609E-02  0.8332476E-01
        2   -1    0    0  501    0  0.00000000000E+00  0.00000000000E+00  0.11257429370E+04  0.11257429370E+04  0.25500000920E-02 0. -1.
       -2   -1    0    0    0  501  0.00000000000E+00  0.00000000000E+00 -0.16283080223E+04  0.16283080223E+04  0.25500000920E-02 0.  1.
    10030    2    1    2    0    0  0.00000000000E+00  0.00000000000E+00 -0.50256508525E+03  0.27540509593E+04  0.27078081582E+04 0.  0.
        3    1    3    3  502    0  0.10466885201E+04  0.71837546402E+03  0.22732360386E+03  0.12896884106E+04  0.10100000352E+00 0. -1.
       -3    1    3    3    0  502 -0.10466885201E+04 -0.71837546402E+03 -0.72988868911E+03  0.14643625487E+04  0.10100000352E+00 0.  1.
</event>
<event>
 5   0  0.1220908E-05  0.2693942E+04  0.7818609E-02  0.8336973E-01
       -2   -1    0    0    0  501  0.00000000000E+00  0.00000000000E+00  0.12998053286E+04  0.12998053286E+04  0.25500000920E-02 0. -1.
        2   -1    0    0  501    0  0.00000000000E+00  0.00000000000E+00 -0.13958483976E+04  0.13958483976E+04  0.25500000920E-02 0.  1.
    10030    2    1    2    0    0  0.00000000000E+00  0.00000000000E+00 -0.96043068992E+02  0.26956537262E+04  0.26939422304E+04 0.  0.
        2    1    3    3  502    0 -0.95818778249E+03 -0.64064162531E+03  0.64940452916E+03  0.13229783676E+04  0.25500000920E-02 0.  1.
       -2    1    3    3    0  502  0.95818778249E+03  0.64064162531E+03 -0.74544759815E+03  0.13726753586E+04  0.25500000920E-02 0. -1.
</event>
<event>
 5   0  0.4824715E-06  0.2685538E+04  0.7818609E-02  0.8339713E-01
        1   -1    0    0  501    0  0.00000000000E+00  0.00000000000E+00  0.22396277108E+04  0.22396277108E+04  0.50400001928E-02 0. -1.
       -1   -1    0    0    0  501  0.00000000000E+00  0.00000000000E+00 -0.80505750252E+03  0.80505750254E+03  0.50400001928E-02 0.  1.
    10030    2    1    2    0    0  0.00000000000E+00  0.00000000000E+00  0.14345702083E+04  0.30446852134E+04  0.26855383754E+04 0.  0.
        5    1    3    3  502    0  0.18556922826E+03  0.83781442984E+03  0.18881844686E+04  0.20740375201E+04  0.46999998093E+01 0. -1.
       -5    1    3    3    0  502 -0.18556922826E+03 -0.83781442984E+03 -0.45361426029E+03  0.97064769327E+03  0.46999998093E+01 0.  1.
</event>
<event>
 5   0  0.1232559E-05  0.2786449E+04  0.7818609E-02  0.8307488E-01
        2   -1    0    0  501    0  0.00000000000E+00  0.00000000000E+00  0.23529839808E+04  0.23529839808E+04  0.25500000920E-02 0.  1.
       -2   -1    0    0    0  501  0.00000000000E+00  0.00000000000E+00 -0.82494191081E+03  0.82494191082E+03  0.25500000920E-02 0. -1.
    10030    2    1    2    0    0  0.00000000000E+00  0.00000000000E+00  0.15280420700E+04  0.31779258916E+04  0.27864494262E+04 0.  0.
        3    1    3    3  502    0  0.68617517442E+03  0.74890434249E+03  0.18516118720E+04  0.21119092355E+04  0.10100000352E+00 0.  1.
       -3    1    3    3    0  502 -0.68617517442E+03 -0.74890434249E+03 -0.32356980201E+03  0.10660166561E+04  0.10100000352E+00 0. -1.
</event>
<event>
 5   0  0.1276517E-05  0.2769545E+04  0.7818609E-02  0.8312786E-01
        2   -1    0    0  501    0  0.00000000000E+00  0.00000000000E+00  0.23967154475E+04  0.23967154475E+04  0.25500000920E-02 0.  1.
       -2   -1    0    0    0  501  0.00000000000E+00  0.00000000000E+00 -0.80009303572E+03  0.80009303572E+03  0.25500000920E-02 0. -1.
    10030    2    1    2    0    0  0.00000000000E+00  0.00000000000E+00  0.15966224118E+04  0.31968084833E+04  0.27695453332E+04 0.  0.
        1    1    3    3  502    0 -0.10252927367E+04 -0.67346394739E+02 -0.27325770461E+03  0.10632170550E+04  0.50400001928E-02 0. -1.
       -1    1    3    3    0  502  0.10252927367E+04  0.67346394739E+02  0.18698801164E+04  0.21335914283E+04  0.50400001928E-02 0.  1.
</event>
<event>
 5   0  0.1286641E-05  0.2693712E+04  0.7818609E-02  0.8337048E-01
        2   -1    0    0  501    0  0.00000000000E+00  0.00000000000E+00  0.13390377121E+04  0.13390377121E+04  0.25500000920E-02 0. -1.
       -2   -1    0    0    0  501  0.00000000000E+00  0.00000000000E+00 -0.13547201783E+04  0.13547201783E+04  0.25500000920E-02 0.  1.
    10030    2    1    2    0    0  0.00000000000E+00  0.00000000000E+00 -0.15682466270E+02  0.26937578904E+04  0.26937122401E+04 0.  0.
        4    1    3    3  502    0  0.13449098407E+04  0.42678716746E+02 -0.66287434597E+02  0.13472192061E+04  0.12699999809E+01 0. -1.
       -4    1    3    3    0  502 -0.13449098407E+04 -0.42678716746E+02  0.50604968327E+02  0.13465386843E+04  0.12699999809E+01 0.  1.
</event>
<event>
 5   0  0.1220908E-05  0.2705794E+04  0.7818609E-02  0.8333128E-01
       -2   -1    0    0    0  501  0.00000000000E+00  0.00000000000E+00  0.13377317708E+04  0.13377317708E+04  0.25500000920E-02 0.  1.
        2   -1    0    0  501    0  0.00000000000E+00  0.00000000000E+00 -0.13682337643E+04  0.13682337643E+04  0.25500000920E-02 0. -1.
    10030    2    1    2    0    0  0.00000000000E+00  0.00000000000E+00 -0.30501993489E+02  0.27059655351E+04  0.27057936185E+04 0.  0.
        2    1    3    3  502    0  0.97853117776E+03  0.67553294356E+03 -0.66063047850E+03  0.13602575686E+04  0.25500000920E-02 0. -1.
       -2    1    3    3    0  502 -0.97853117776E+03 -0.67553294356E+03  0.63012848501E+03  0.13457079666E+04  0.25500000920E-02 0.  1.
</event>
<event>
 5   0  0.4824715E-06  0.2287113E+04  0.7818609E-02  0.8483020E-01
        1   -1    0    0  501    0  0.00000000000E+00  0.00000000000E+00  0.12035785463E+04  0.12035785463E+04  0.50400001928E-02 0.  1.
       -1   -1    0    0    0  501  0.00000000000E+00  0.00000000000E+00 -0.10865275598E+04  0.10865275599E+04  0.50400001928E-02 0. -1.
    10030    2    1    2    0    0  0.00000000000E+00  0.00000000000E+00  0.11705098643E+03  0.22901061061E+04  0.22871128184E+04 0.  0.
        5    1    3    3  502    0  0.44012395257E+03  0.77149535513E+03  0.77973545973E+03  0.11819152481E+04  0.46999998093E+01 0.  1.
       -5    1    3    3    0  502 -0.44012395257E+03 -0.77149535513E+03 -0.66268447331E+03  0.11081908580E+04  0.46999998093E+01 0. -1.
</event>
<event>
 5   0  0.1220908E-05  0.2715631E+04  0.7818609E-02  0.8329951E-01
        2   -1    0    0  501    0  0.00000000000E+00  0.00000000000E+00  0.20325322312E+04  0.20325322312E+04  0.25500000920E-02 0.  1.
       -2   -1    0    0    0  501  0.00000000000E+00  0.00000000000E+00 -0.90707680838E+03  0.90707680838E+03  0.25500000920E-02 0. -1.
    10030    2    1    2    0    0  0.00000000000E+00  0.00000000000E+00  0.11254554229E+04  0.29396090396E+04  0.27156309390E+04 0.  0.
        2    1    3    3  502    0  0.12264316884E+04 -0.16262546006E+03  0.11684133380E+04  0.17016966401E+04  0.25500000920E-02 0. -1.
       -2    1    3    3    0  502 -0.12264316884E+04  0.16262546006E+03 -0.42957915116E+02  0.12379123996E+04  0.25500000920E-02 0.  1.
</event>
<event>
 5   0  0.4824715E-06  0.2704917E+04  0.7818609E-02  0.8333411E-01
       -1   -1    0    0    0  501  0.00000000000E+00  0.00000000000E+00  0.30683622077E+04  0.30683622077E+04  0.50400001928E-02 0.  1.
        1   -1    0    0  501    0  0.00000000000E+00  0.00000000000E+00 -0.59613053216E+03  0.59613053218E+03  0.50400001928E-02 0. -1.
    10030    2    1    2    0    0  0.00000000000E+00  0.00000000000E+00  0.24722316755E+04  0.36644927399E+04  0.27049172969E+04 0.  0.
        5    1    3    3  502    0 -0.86871378553E+03  0.63142487453E+03  0.12244581306E+03  0.10809144649E+04  0.46999998093E+01 0. -1.
       -5    1    3    3    0  502  0.86871378553E+03 -0.63142487453E+03  0.23497858625E+04  0.25835782749E+04  0.46999998093E+01 0.  1.
</event>
<event>
 5   0  0.4756800E-06  0.2705532E+04  0.7818609E-02  0.8333212E-01
        1   -1    0    0  501    0  0.00000000000E+00  0.00000000000E+00  0.21604793857E+04  0.21604793857E+04  0.50400001928E-02 0. -1.
       -1   -1    0    0    0  501  0.00000000000E+00  0.00000000000E+00 -0.84702326048E+03  0.84702326050E+03  0.50400001928E-02 0.  1.
    10030    2    1    2    0    0  0.00000000000E+00  0.00000000000E+00  0.13134561253E+04  0.30075026462E+04  0.27055323273E+04 0.  0.
        4    1    3    3  502    0  0.74151046358E+03  0.10719315470E+04  0.10592171340E+04  0.16795289693E+04  0.12699999809E+01 0. -1.
       -4    1    3    3    0  502 -0.74151046358E+03 -0.10719315470E+04  0.25423899123E+03  0.13279736769E+04  0.12699999809E+01 0.  1.
</event>
<event>
 5   0  0.4846214E-06  0.2728647E+04  0.7818609E-02  0.8325769E-01
        1   -1    0    0  501    0  0.00000000000E+00  0.00000000000E+00  0.17381726625E+04  0.17381726625E+04  0.50400001928E-02 0.  1.
       -1   -1    0    0    0  501  0.00000000000E+00  0.00000000000E+00 -0.10708824205E+04  0.10708824205E+04  0.50400001928E-02 0. -1.
    10030    2    1    2    0    0  0.00000000000E+00  0.00000000000E+00  0.66729024200E+03  0.28090550829E+04  0.27286469526E+04 0.  0.
        2    1    3    3  502    0  0.45559401247E+03  0.70264106926E+02  0.16555702340E+04  0.17185504789E+04  0.25500000920E-02 0.  1.
       -2    1    3    3    0  502 -0.45559401247E+03 -0.70264106926E+02 -0.98827999196E+03  0.10905046040E+04  0.25500000920E-02 0. -1.
</event>
<event>
 5   0  0.4756800E-06  0.2698071E+04  0.7818609E-02  0.8335631E-01
        1   -1    0    0  501    0  0.00000000000E+00  0.00000000000E+00  0.17296695547E+04  0.17296695547E+04  0.50400001928E-02 0. -1.
       -1   -1    0    0    0  501  0.00000000000E+00  0.00000000000E+00 -0.10521640507E+04  0.10521640507E+04  0.50400001928E-02 0.  1.
    10030    2    1    2    0    0  0.00000000000E+00  0.00000000000E+00  0.67750550404E+03  0.27818336054E+04  0.26980705143E+04 0.  0.
        4    1    3    3  502    0  0.10663118321E+04  0.71545545154E+03  0.76510858386E+03  0.14947542221E+04  0.12699999809E+01 0. -1.
       -4    1    3    3    0  502 -0.10663118321E+04 -0.71545545154E+03 -0.87603079825E+02  0.12870793833E+04  0.12699999809E+01 0.  1.
</event>
<event>
 5   0  0.1276517E-05  0.2696362E+04  0.7818609E-02  0.8336186E-01
       -2   -1    0    0    0  501  0.00000000000E+00  0.00000000000E+00  0.92962424818E+03  0.92962424818E+03  0.25500000920E-02 0. -1.
        2   -1    0    0  501    0  0.00000000000E+00  0.00000000000E+00 -0.19551896614E+04  0.19551896614E+04  0.25500000920E-02 0.  1.
    10030    2    1    2    0    0  0.00000000000E+00  0.00000000000E+00 -0.10255654132E+04  0.28848139096E+04  0.26963617851E+04 0.  0.
        1    1    3    3  502    0  0.33503581208E+03 -0.10523946630E+04  0.31443643039E+03  0.11483265175E+04  0.50400001928E-02 0. -1.
       -1    1    3    3    0  502 -0.33503581208E+03  0.10523946630E+04 -0.13400018436E+04  0.17364873921E+04  0.50400001928E-02 0.  1.
</event>
<event>
 5   0  0.1286641E-05  0.2740066E+04  0.7818609E-02  0.8322121E-01
        2   -1    0    0  501    0  0.00000000000E+00  0.00000000000E+00  0.15672795240E+04  0.15672795240E+04  0.25500000920E-02 0. -1.
       -2   -1    0    0    0  501  0.00000000000E+00  0.00000000000E+00 -0.11976101589E+04  0.11976101589E+04  0.25500000920E-02 0.  1.
    10030    2    1    2    0    0  0.00000000000E+00  0.00000000000E+00  0.36966936509E+03  0.27648896828E+04  0.27400656048E+04 0.  0.
        4    1    3    3  502    0 -0.66307361690E+03  0.44725283878E+02 -0.10240681935E+04  0.12208129465E+04  0.12699999809E+01 0.  1.
       -4    1    3    3    0  502  0.66307361690E+03 -0.44725283878E+02  0.13937375586E+04  0.15440767363E+04  0.12699999809E+01 0. -1.
</event>
<event>
 5   0  0.5152288E-06  0.2704920E+04  0.7818609E-02  0.8333411E-01
        1   -1    0    0  501    0  0.00000000000E+00  0.00000000000E+00  0.11375963095E+04  0.11375963095E+04  0.50400001928E-02 0.  1.
       -1   -1    0    0    0  501  0.00000000000E+00  0.00000000000E+00 -0.16079055571E+04  0.16079055571E+04  0.50400001928E-02 0. -1.
    10030    2    1    2    0    0  0.00000000000E+00  0.00000000000E+00 -0.47030924760E+03  0.27455018667E+04  0.27049195388E+04 0.  0.
        3    1    3    3  502    0 -0.83976013280E+03  0.40499312291E+03 -0.12296147626E+04  0.15431036857E+04  0.10100000352E+00 0. -1.
       -3    1    3    3    0  502  0.83976013280E+03 -0.40499312291E+03  0.75930551500E+03  0.12023981810E+04  0.10100000352E+00 0.  1.
</event>
<event>
 5   0  0.1232559E-05  0.2663741E+04  0.7818609E-02  0.8346867E-01
       -2   -1    0    0    0  501  0.00000000000E+00  0.00000000000E+00  0.10830613277E+04  0.10830613277E+04  0.25500000920E-02 0.  1.
        2   -1    0    0  501    0  0.00000000000E+00  0.00000000000E+00 -0.16378379446E+04  0.16378379446E+04  0.25500000920E-02 0. -1.
    10030    2    1    2    0    0  0.00000000000E+00  0.00000000000E+00 -0.55477661695E+03  0.27208992723E+04  0.26637409325E+04 0.  0.
        3    1    3    3  502    0 -0.29642638834E+03  0.12223527623E+04  0.17003363837E+03  0.12692227258E+04  0.10100000352E+00 0. -1.
       -3    1    3    3    0  502  0.29642638834E+03 -0.12223527623E+04 -0.72481025532E+03  0.14516765465E+04  0.10100000352E+00 0.  1.
</event>
<event>
 5   0  0.5152288E-06  0.2677836E+04  0.7818609E-02  0.8342232E-01
        1   -1    0    0  501    0  0.00000000000E+00  0.00000000000E+00  0.16691291304E+04  0.16691291304E+04  0.50400001928E-02 0. -1.
       -1   -1    0    0    0  501  0.00000000000E+00  0.00000000000E+00 -0.10740338181E+04  0.10740338181E+04  0.50400001928E-02 0.  1.
    10030    2    1    2    0    0  0.00000000000E+00  0.00000000000E+00  0.59509531230E+03  0.27431629485E+04  0.26778357925E+04 0.  0.
        3    1    3    3  502    0 -0.78976531719E+03  0.10515188224E+04  0.39855611587E+02  0.13156783688E+04  0.10100000352E+00 0.  1.
       -3    1    3    3    0  502  0.78976531719E+03 -0.10515188224E+04  0.55523970072E+03  0.14274845798E+04  0.10100000352E+00 0. -1.
</event>
<event>
 5   0  0.4846214E-06  0.2704359E+04  0.7818609E-02  0.8333592E-01
        1   -1    0    0  501    0  0.00000000000E+00  0.00000000000E+00  0.16987460831E+04  0.16987460831E+04  0.50400001928E-02 0.  1.
       -1   -1    0    0    0  501  0.00000000000E+00  0.00000000000E+00 -0.10763169104E+04  0.10763169104E+04  0.50400001928E-02 0. -1.
    10030    2    1    2    0    0  0.00000000000E+00  0.00000000000E+00  0.62242917271E+03  0.27750629935E+04  0.27043588043E+04 0.  0.
        2    1    3    3  502    0  0.10552743120E+04 -0.74806042163E+02  0.11753655669E+04  0.15813551257E+04  0.25500000920E-02 0.  1.
       -2    1    3    3    0  502 -0.10552743120E+04  0.74806042163E+02 -0.55293639421E+03  0.11937078678E+04  0.25500000920E-02 0. -1.
</event>
<event>
 5   0  0.1220908E-05  0.2705558E+04  0.7818609E-02  0.8333204E-01
        2   -1    0    0  501    0  0.00000000000E+00  0.00000000000E+00  0.19060817853E+04  0.19060817853E+04  0.25500000920E-02 0. -1.
       -2   -1    0    0    0  501  0.00000000000E+00  0.00000000000E+00 -0.96009065135E+03  0.96009065135E+03  0.25500000920E-02 0.  1.
    10030    2    1    2    0    0  0.00000000000E+00  0.00000000000E+00  0.94599113391E+03  0.28661724366E+04  0.27055582069E+04 0.  0.
        2    1    3    3  502    0 -0.10466373059E+04  0.81483282280E+03  0.75449391067E+03  0.15259958193E+04  0.25500000920E-02 0. -1.
       -2    1    3    3    0  502  0.10466373059E+04 -0.81483282280E+03  0.19149722324E+03  0.13401766174E+04  0.25500000920E-02 0.  1.
</event>
<event>
 5   0  0.4824715E-06  0.2680502E+04  0.7818609E-02  0.8341359E-01
        1   -1    0    0  501    0  0.00000000000E+00  0.00000000000E+00  0.10145563863E+04  0.10145563863E+04  0.50400001928E-02 0. -1.
       -1   -1    0    0    0  501  0.00000000000E+00  0.00000000000E+00 -0.17705012313E+04  0.17705012314E+04  0.50400001928E-02 0.  1.
    10030    2    1    2    0    0  0.00000000000E+00  0.00000000000E+00 -0.75594484509E+03  0.27850576176E+04  0.26805024388E+04 0.  0.
        5    1    3    3  502    0  0.12886429600E+03  0.12242096244E+04  0.17275557614E+03  0.12430453694E+04  0.46999998093E+01 0. -1.
       -5    1    3    3    0  502 -0.12886429600E+03 -0.12242096244E+04 -0.92870042123E+03  0.15420122482E+04  0.46999998093E+01 0.  1.
</event>
<event>
 5   0  0.4826140E-06  0.2602246E+04  0.7818609E-02  0.8367439E-01
        1   -1    0    0  501    0  0.00000000000E+00  0.00000000000E+00  0.18486273351E+04  0.18486273352E+04  0.50400001928E-02 0. -1.
       -1   -1    0    0    0  501  0.00000000000E+00  0.00000000000E+00 -0.91577197001E+03  0.91577197002E+03  0.50400001928E-02 0.  1.
    10030    2    1    2    0    0  0.00000000000E+00  0.00000000000E+00  0.93285536514E+03  0.27643993052E+04  0.26022460272E+04 0.  0.
        1    1    3    3  502    0 -0.27831011348E+02  0.23602469810E+03 -0.89251867745E+03  0.92361886779E+03  0.50400001928E-02 0.  1.
       -1    1    3    3    0  502  0.27831011348E+02 -0.23602469810E+03  0.18253740426E+04  0.18407804374E+04  0.50400001928E-02 0. -1.
</event>
<event>
 5   0  0.1286641E-05  0.2703065E+04  0.7818609E-02  0.8334011E-01
       -2   -1    0    0    0  501  0.00000000000E+00  0.00000000000E+00  0.11868827010E+04  0.11868827010E+04  0.25500000920E-02 0.  1.
        2   -1    0    0  501    0  0.00000000000E+00  0.00000000000E+00 -0.15390235577E+04  0.15390235577E+04  0.25500000920E-02 0. -1.
    10030    2    1    2    0    0  0.00000000000E+00  0.00000000000E+00 -0.35214085664E+03  0.27259062587E+04  0.27030652505E+04 0.  0.
        4    1    3    3  502    0 -0.59224131407E+02  0.32858230798E+03 -0.14967800427E+04  0.15335664120E+04  0.12699999809E+01 0. -1.
       -4    1    3    3    0  502  0.59224131407E+02 -0.32858230798E+03  0.11446391861E+04  0.11923398467E+04  0.12699999809E+01 0.  1.
</event>
<event>
 5   0  0.4826140E-06  0.2702081E+04  0.7818609E-02  0.8334330E-01
       -1   -1    0    0    0  501  0.00000000000E+00  0.00000000000E+00  0.12292800705E+04  0.12292800705E+04  0.50400001928E-02 0. -1.
        1   -1    0    0  501    0  0.00000000000E+00  0.00000000000E+00 -0.14848608842E+04  0.14848608842E+04  0.50400001928E-02 0.  1.
    10030    2    1    2    0    0  0.00000000000E+00  0.00000000000E+00 -0.25558081376E+03  0.27141409547E+04  0.27020806001E+04 0.  0.
        1    1    3    3  502    0  0.42733470352E+03  0.31057014125E+03  0.11212391330E+04  0.12394538938E+04  0.50400001928E-02 0. -1.
       -1    1    3    3    0  502 -0.42733470352E+03 -0.31057014125E+03 -0.13768199468E+04  0.14746870608E+04  0.50400001928E-02 0.  1.
</event>
<event>
 5   0  0.1286641E-05  0.2741017E+04  0.7818609E-02  0.8321818E-01
       -2   -1    0    0    0  501  0.00000000000E+00  0.00000000000E+00  0.18787376833E+04  0.18787376833E+04  0.25500000920E-02 0.  1.
        2   -1    0    0  501    0  0.00000000000E+00  0.00000000000E+00 -0.99976387094E+03  0.99976387094E+03  0.25500000920E-02 0. -1.
    10030    2    1    2    0    0  0.00000000000E+00  0.00000000000E+00  0.87897381236E+03  0.28785015542E+04  0.27410173722E+04 0.  0.
        4    1    3    3  502    0 -0.44061700514E+02 -0.13544466276E+04  0.65425731692E+03  0.15048326652E+04  0.12699999809E+01 0.  1.
       -4    1    3    3    0  502  0.44061700514E+02  0.13544466276E+04  0.22471649543E+03  0.13736688891E+04  0.12699999809E+01 0. -1.
</event>
<event>
 5   0  0.1261364E-05  0.2697083E+04  0.7818609E-02  0.8335952E-01
        2   -1    0    0  501    0  0.00000000000E+00  0.00000000000E+00  0.11592048850E+04  0.11592048850E+04  0.25500000920E-02 0. -1.
       -2   -1    0    0    0  501  0.00000000000E+00  0.00000000000E+00 -0.15688029120E+04  0.15688029120E+04  0.25500000920E-02 0.  1.
    10030    2    1    2    0    0  0.00000000000E+00  0.00000000000E+00 -0.40959802704E+03  0.27280077970E+04  0.26970828680E+04 0.  0.
        5    1    3    3  502    0 -0.17445948284E+03  0.12693643784E+04  0.22052201365E+03  0.13001438708E+04  0.46999998093E+01 0.  1.
       -5    1    3    3    0  502  0.17445948284E+03 -0.12693643784E+04 -0.63012004069E+03  0.14278639263E+04  0.46999998093E+01 0. -1.
</event>
<event>
 5   0  0.4756800E-06  0.2714694E+04  0.7818609E-02  0.8330253E-01
        1   -1    0    0  501    0  0.00000000000E+00  0.00000000000E+00  0.15551665587E+04  0.15551665587E+04  0.50400001928E-02 0.  1.
       -1   -1    0    0    0  501  0.00000000000E+00  0.00000000000E+00 -0.11846906011E+04  0.11846906011E+04  0.50400001928E-02 0. -1.
    10030    2    1    2    0    0  0.00000000000E+00  0.00000000000E+00  0.37047595756E+03  0.27398571598E+04  0.27146942408E+04 0.  0.
        4    1    3    3  502    0 -0.84582790185E+03  0.10537864725E+04  0.31487632539E+03  0.13874579210E+04  0.12699999809E+01 0. -1.
       -4    1    3    3    0  502  0.84582790185E+03 -0.10537864725E+04  0.55599632174E+02  0.13523992389E+04  0.12699999809E+01 0.  1.
</event>
<event>
 5   0  0.1261364E-05  0.2687363E+04  0.7818609E-02  0.8339117E-01
       -2   -1    0    0    0  501  0.00000000000E+00  0.00000000000E+00  0.12188770582E+04  0.12188770582E+04  0.25500000920E-02 0.  1.
        2   -1    0    0  501    0  0.00000000000E+00  0.00000000000E+00 -0.14812654436E+04  0.14812654436E+04  0.25500000920E-02 0. -1.
    10030    2    1    2    0    0  0.00000000000E+00  0.00000000000E+00 -0.26238838535E+03  0.27001425018E+04  0.26873633668E+04 0.  0.
        5    1    3    3  502    0  0.70495722430E+03 -0.64890465633E+02 -0.12786770206E+04  0.14615787607E+04  0.46999998093E+01 0. -1.
       -5    1    3    3    0  502 -0.70495722430E+03  0.64890465633E+02  0.10162886353E+04  0.12385637411E+04  0.46999998093E+01 0.  1.
</event>
<event>
 5   0  0.4846214E-06  0.2655129E+04  0.7818609E-02  0.8349713E-01
        1   -1    0    0  501    0  0.00000000000E+00  0.00000000000E+00  0.18273149705E+04  0.18273149705E+04  0.50400001928E-02 0. -1.
       -1   -1    0    0    0  501  0.00000000000E+00  0.00000000000E+00 -0.96449029492E+03  0.96449029494E+03  0.50400001928E-02 0.  1.
    10030    2    1    2    0    0  0.00000000000E+00  0.00000000000E+00  0.86282467558E+03  0.27918052654E+04  0.26551290401E+04 0.  0.
        2    1    3    3  502    0 -0.54579419862E+03  0.64336142046E+03  0.15091741784E+04  0.17289915920E+04  0.25500000920E-02 0. -1.
       -2    1    3    3    0  502  0.54579419862E+03 -0.64336142046E+03 -0.64634950282E+03  0.10628136734E+04  0.25500000920E-02 0.  1.
</event>
<event>
 5   0  0.1220908E-05  0.2725863E+04  0.7818609E-02  0.8326662E-01
       -2   -1    0    0    0  501  0.00000000000E+00  0.00000000000E+00  0.12094133778E+04  0.12094133778E+04  0.25500000920E-02 0. -1.
        2   -1    0    0  501    0  0.00000000000E+00  0.00000000000E+00 -0.15359360528E+04  0.15359360528E+04  0.25500000920E-02 0.  1.
    10030    2    1    2    0    0  0.00000000000E+00  0.00000000000E+00 -0.32652267496E+03  0.27453494307E+04  0.27258625129E+04 0.  0.
        2    1    3    3  502    0 -0.58770987025E+03  0.38478242604E+03 -0.13395669313E+04  0.15125805666E+04  0.25500000920E-02 0.  1.
       -2    1    3    3    0  502  0.58770987025E+03 -0.38478242604E+03  0.10130442563E+04  0.12327688641E+04  0.25500000920E-02 0. -1.
</event>
<event>
 5   0  0.4824715E-06  0.2698153E+04  0.7818609E-02  0.8335605E-01
        1   -1    0    0  501    0  0.00000000000E+00  0.00000000000E+00  0.12467801588E+04  0.12467801588E+04  0.50400001928E-02 0.  1.
       -1   -1    0    0    0  501  0.00000000000E+00  0.00000000000E+00 -0.14597659752E+04  0.14597659752E+04  0.50400001928E-02 0. -1.
    10030    2    1    2    0    0  0.00000000000E+00  0.00000000000E+00 -0.21298581634E+03  0.27065461340E+04  0.26981528899E+04 0.  0.
        5    1    3    3  502    0 -0.20836866495E+03 -0.92947886061E+03  0.85179905590E+03  0.12778623457E+04  0.46999998093E+01 0.  1.
       -5    1    3    3    0  502  0.20836866495E+03  0.92947886061E+03 -0.10647848722E+04  0.14286837883E+04  0.46999998093E+01 0. -1.
</event>
</LesHouchesEvents>
