<LesHouchesEvents version="3.0">
<header>
<!--
#*********************************************************************
#                                                                    *
#                        MadGraph5_aMC@NLO                           *
#                                                                    *
#                           Going Beyond                             *
#                                                                    *
#                   http://madgraph.hep.uiuc.edu                     *
#                   http://madgraph.phys.ucl.ac.be                   *
#                   http://amcatnlo.cern.ch                          *
#                                                                    *
#                     The MadGraph5_aMC@NLO team                     *
#                                                                    *
#....................................................................*
#                                                                    *
# This file contains all the information necessary to reproduce      *
# the events generated:                                              *
#                                                                    *
# 1. software version                                                *
# 2. proc_card          : code generation info including model       *
# 3. param_card         : model primary parameters in the LH format  *
# 4. run_card           : running parameters (collider and cuts)     *
# 5. pythia_card        : present only if pythia has been run        *
# 6. pgs_card           : present only if pgs has been run           *
# 7. delphes_cards      : present only if delphes has been run       *
#                                                                    *
#                                                                    *
#*********************************************************************
-->
<MGVersion>
#5.2.2.3
</MGVersion>
<MG5ProcCard>
#************************************************************
#*                     MadGraph5_aMC@NLO                    *
#*                                                          *
#*                *                       *                 *
#*                  *        * *        *                   *
#*                    * * * * 5 * * * *                     *
#*                  *        * *        *                   *
#*                *                       *                 *
#*                                                          *
#*                                                          *
#*         VERSION 2.2.3                 2015-02-10         *
#*                                                          *
#*    The MadGraph5_aMC@NLO Development Team - Find us at   *
#*    https://server06.fynu.ucl.ac.be/projects/madgraph     *
#*                                                          *
#************************************************************
#*                                                          *
#*               Command File for MadGraph5_aMC@NLO         *
#*                                                          *
#*     run as ./bin/mg5_aMC  filename                       *
#*                                                          *
#************************************************************
set group_subprocesses Auto
set ignore_six_quark_processes False
set loop_optimized_output True
set gauge unitary
set complex_mass_scheme False
import model sm
define p = g u c d s u~ c~ d~ s~
define j = g u c d s u~ c~ d~ s~
define l+ = e+ mu+
define l- = e- mu-
define vl = ve vm vt
define vl~ = ve~ vm~ vt~
import model Zprime_UFO
generate p p > zph, zph > j j
add process p p > zph, zph > b b~
output Dijet_signal
</MG5ProcCard>
<MGProcCard>
#*********************************************************************
#                        MadGraph/MadEvent                           *
#                   http://madgraph.hep.uiuc.edu                     *
#                                                                    *
#                          proc_card.dat                             *
#*********************************************************************
#                                                                    *
#            This Files is generated by MADGRAPH 5                   *
#                                                                    *
# WARNING: This Files is generated for MADEVENT (compatibility issue)*
#          This files is NOT a valid MG4 proc_card.dat               *
#          Running this in MG4 will NEVER reproduce the result of MG5*
#                                                                    *
#*********************************************************************
#*********************************************************************
# Process(es) requested : mg2 input                                  *
#*********************************************************************
# Begin PROCESS # This is TAG. Do not modify this line
p p > zph , zph > j j           #Process
# Be carefull the coupling are here in MG5 convention
          
end_coup           # End the couplings input

done               # this tells MG there are no more procs
# End PROCESS  # This is TAG. Do not modify this line
#*********************************************************************
# Model information                                                  *
#*********************************************************************
# Begin MODEL  # This is TAG. Do not modify this line
Zprime_UFO
# End   MODEL  # This is TAG. Do not modify this line
#*********************************************************************
# Start multiparticle definitions                                    *
#*********************************************************************
# Begin MULTIPARTICLES # This is TAG. Do not modify this line

# End  MULTIPARTICLES # This is TAG. Do not modify this line
</MGProcCard>
<MGRunCard>
#*********************************************************************
#                       MadGraph5_aMC@NLO                            *
#                                                                    *
#                     run_card.dat MadEvent                          *
#                                                                    *
#  This file is used to set the parameters of the run.               *
#                                                                    *
#  Some notation/conventions:                                        *
#                                                                    *
#   Lines starting with a '# ' are info or comments                  *
#                                                                    *
#   mind the format:   value    = variable     ! comment             *
#*********************************************************************
#
#*******************                                                 
# Running parameters
#*******************                                                 
#                                                                    
#*********************************************************************
# Tag name for the run (one word)                                    *
#*********************************************************************
  tag_1     = run_tag ! name of the run 
#*********************************************************************
# Run to generate the grid pack                                      *
#*********************************************************************
  .false.     = gridpack  !True = setting up the grid pack
#*********************************************************************
# Number of events and rnd seed                                      *
# Warning: Do not generate more than 1M events in a single run       *
# If you want to run Pythia, avoid more than 50k events in a run.    *
#*********************************************************************
  2000 = nevents ! Number of unweighted events requested 
 1668 = iseed   ! rnd seed (0=assigned automatically=default))
#*********************************************************************
# Collider type and energy                                           *
# lpp: 0=No PDF, 1=proton, -1=antiproton, 2=photon from proton,      *
#                                         3=photon from electron     *
#*********************************************************************
        1     = lpp1    ! beam 1 type 
        1     = lpp2    ! beam 2 type
     4000     = ebeam1  ! beam 1 total energy in GeV
     4000     = ebeam2  ! beam 2 total energy in GeV
#*********************************************************************
# Beam polarization from -100 (left-handed) to 100 (right-handed)    *
#*********************************************************************
        0     = polbeam1 ! beam polarization for beam 1
        0     = polbeam2 ! beam polarization for beam 2
#*********************************************************************
# PDF CHOICE: this automatically fixes also alpha_s and its evol.    *
#*********************************************************************
 'nn23lo1'    = pdlabel     ! PDF set                                     
 230000    = lhaid     ! if pdlabel=lhapdf, this is the lhapdf number
#*********************************************************************
# Renormalization and factorization scales                           *
#*********************************************************************
 F        = fixed_ren_scale  ! if .true. use fixed ren scale
 F        = fixed_fac_scale  ! if .true. use fixed fac scale
 91.1880  = scale            ! fixed ren scale
 91.1880  = dsqrt_q2fact1    ! fixed fact scale for pdf1
 91.1880  = dsqrt_q2fact2    ! fixed fact scale for pdf2
 1        = scalefact        ! scale factor for event-by-event scales
#*********************************************************************
# Matching - Warning! ickkw > 1 is still beta
#*********************************************************************
 0        = ickkw            ! 0 no matching, 1 MLM, 2 CKKW matching
 1        = highestmult      ! for ickkw=2, highest mult group
 1        = ktscheme         ! for ickkw=1, 1 Durham kT, 2 Pythia pTE
 1        = alpsfact         ! scale factor for QCD emission vx
 F        = chcluster        ! cluster only according to channel diag
 T        = pdfwgt           ! for ickkw=1, perform pdf reweighting
 5        = asrwgtflavor     ! highest quark flavor for a_s reweight
 T        = clusinfo         ! include clustering tag in output
 3.0      = lhe_version       ! Change the way clustering information pass to shower.        
#*********************************************************************
#**********************************************************
#
#**********************************************************
# Automatic ptj and mjj cuts if xqcut > 0
# (turn off for VBF and single top processes)
#**********************************************************
   T  = auto_ptj_mjj  ! Automatic setting of ptj and mjj
#**********************************************************
#                                                                    
#**********************************
# BW cutoff (M+/-bwcutoff*Gamma)
#**********************************
  15  = bwcutoff      ! (M+/-bwcutoff*Gamma)
#**********************************************************
# Apply pt/E/eta/dr/mij cuts on decay products or not
# (note that etmiss/ptll/ptheavy/ht/sorted cuts always apply)
#**********************************************************
   T  = cut_decays    ! Cut decay products 
#*************************************************************
# Number of helicities to sum per event (0 = all helicities)
# 0 gives more stable result, but longer run time (needed for
# long decay chains e.g.).
# Use >=2 if most helicities contribute, e.g. pure QCD.
#*************************************************************
   0  = nhel          ! Number of helicities used per event
#*******************                                                 
# Standard Cuts
#*******************                                                 
#                                                                    
#*********************************************************************
# Minimum and maximum pt's (for max, -1 means no cut)                *
#*********************************************************************
 20  = ptj       ! minimum pt for the jets 
  0  = ptb       ! minimum pt for the b 
 10  = pta       ! minimum pt for the photons 
 10  = ptl       ! minimum pt for the charged leptons 
  0  = misset    ! minimum missing Et (sum of neutrino's momenta)
  0  = ptheavy   ! minimum pt for one heavy final state
 1.0 = ptonium   ! minimum pt for the quarkonium states
 -1  = ptjmax    ! maximum pt for the jets
 -1  = ptbmax    ! maximum pt for the b
 -1  = ptamax    ! maximum pt for the photons
 -1  = ptlmax    ! maximum pt for the charged leptons
 -1  = missetmax ! maximum missing Et (sum of neutrino's momenta)
#*********************************************************************
# Minimum and maximum E's (in the center of mass frame)              *
#*********************************************************************
  0  = ej     ! minimum E for the jets 
  0  = eb     ! minimum E for the b 
  0  = ea     ! minimum E for the photons 
  0  = el     ! minimum E for the charged leptons 
 -1   = ejmax ! maximum E for the jets
 -1   = ebmax ! maximum E for the b
 -1   = eamax ! maximum E for the photons
 -1   = elmax ! maximum E for the charged leptons
#*********************************************************************
# Maximum and minimum absolute rapidity (for max, -1 means no cut)   *
#*********************************************************************
   5  = etaj    ! max rap for the jets 
  -1  = etab    ! max rap for the b
 2.5  = etaa    ! max rap for the photons 
 2.5  = etal    ! max rap for the charged leptons 
 0.6  = etaonium ! max rap for the quarkonium states
   0  = etajmin ! min rap for the jets
   0  = etabmin ! min rap for the b
   0  = etaamin ! min rap for the photons
   0  = etalmin ! main rap for the charged leptons
#*********************************************************************
# Minimum and maximum DeltaR distance                                *
#*********************************************************************
 0.4 = drjj    ! min distance between jets 
 0   = drbb    ! min distance between b's 
 0.4 = drll    ! min distance between leptons 
 0.4 = draa    ! min distance between gammas 
 0   = drbj    ! min distance between b and jet 
 0.4 = draj    ! min distance between gamma and jet 
 0.4 = drjl    ! min distance between jet and lepton 
 0   = drab    ! min distance between gamma and b 
 0   = drbl    ! min distance between b and lepton 
 0.4 = dral    ! min distance between gamma and lepton 
 -1  = drjjmax ! max distance between jets
 -1  = drbbmax ! max distance between b's
 -1  = drllmax ! max distance between leptons
 -1  = draamax ! max distance between gammas
 -1  = drbjmax ! max distance between b and jet
 -1  = drajmax ! max distance between gamma and jet
 -1  = drjlmax ! max distance between jet and lepton
 -1  = drabmax ! max distance between gamma and b
 -1  = drblmax ! max distance between b and lepton
 -1  = dralmax ! maxdistance between gamma and lepton
#*********************************************************************
# Minimum and maximum invariant mass for pairs                       *
# WARNING: for four lepton final state mmll cut require to have      *
#          different lepton masses for each flavor!                  *           
#*********************************************************************
 0   = mmjj    ! min invariant mass of a jet pair 
 0   = mmbb    ! min invariant mass of a b pair 
 0   = mmaa    ! min invariant mass of gamma gamma pair
 0   = mmll    ! min invariant mass of l+l- (same flavour) lepton pair
 -1  = mmjjmax ! max invariant mass of a jet pair
 -1  = mmbbmax ! max invariant mass of a b pair
 -1  = mmaamax ! max invariant mass of gamma gamma pair
 -1  = mmllmax ! max invariant mass of l+l- (same flavour) lepton pair
#*********************************************************************
# Minimum and maximum invariant mass for all letpons                 *
#*********************************************************************
 0   = mmnl    ! min invariant mass for all letpons (l+- and vl) 
 -1  = mmnlmax ! max invariant mass for all letpons (l+- and vl) 
#*********************************************************************
# Minimum and maximum pt for 4-momenta sum of leptons                *
#*********************************************************************
 0   = ptllmin  ! Minimum pt for 4-momenta sum of leptons(l and vl)
 -1  = ptllmax  ! Maximum pt for 4-momenta sum of leptons(l and vl)
#*********************************************************************
# Inclusive cuts                                                     *
#*********************************************************************
 0  = xptj ! minimum pt for at least one jet  
 0  = xptb ! minimum pt for at least one b 
 0  = xpta ! minimum pt for at least one photon 
 0  = xptl ! minimum pt for at least one charged lepton 
#*********************************************************************
# Control the pt's of the jets sorted by pt                          *
#*********************************************************************
 0   = ptj1min ! minimum pt for the leading jet in pt
 0   = ptj2min ! minimum pt for the second jet in pt
 0   = ptj3min ! minimum pt for the third jet in pt
 0   = ptj4min ! minimum pt for the fourth jet in pt
 -1  = ptj1max ! maximum pt for the leading jet in pt 
 -1  = ptj2max ! maximum pt for the second jet in pt
 -1  = ptj3max ! maximum pt for the third jet in pt
 -1  = ptj4max ! maximum pt for the fourth jet in pt
 0   = cutuse  ! reject event if fails any (0) / all (1) jet pt cuts
#*********************************************************************
# Control the pt's of leptons sorted by pt                           *
#*********************************************************************
 0   = ptl1min ! minimum pt for the leading lepton in pt
 0   = ptl2min ! minimum pt for the second lepton in pt
 0   = ptl3min ! minimum pt for the third lepton in pt
 0   = ptl4min ! minimum pt for the fourth lepton in pt
 -1  = ptl1max ! maximum pt for the leading lepton in pt 
 -1  = ptl2max ! maximum pt for the second lepton in pt
 -1  = ptl3max ! maximum pt for the third lepton in pt
 -1  = ptl4max ! maximum pt for the fourth lepton in pt
#*********************************************************************
# Control the Ht(k)=Sum of k leading jets                            *
#*********************************************************************
 0   = htjmin ! minimum jet HT=Sum(jet pt)
 -1  = htjmax ! maximum jet HT=Sum(jet pt)
 0   = ihtmin  !inclusive Ht for all partons (including b)
 -1  = ihtmax  !inclusive Ht for all partons (including b)
 0   = ht2min ! minimum Ht for the two leading jets
 0   = ht3min ! minimum Ht for the three leading jets
 0   = ht4min ! minimum Ht for the four leading jets
 -1  = ht2max ! maximum Ht for the two leading jets
 -1  = ht3max ! maximum Ht for the three leading jets
 -1  = ht4max ! maximum Ht for the four leading jets
#***********************************************************************
# Photon-isolation cuts, according to hep-ph/9801442                   *
# When ptgmin=0, all the other parameters are ignored                  *
# When ptgmin>0, pta and draj are not going to be used                 *
#***********************************************************************
   0 = ptgmin ! Min photon transverse momentum
 0.4 = R0gamma ! Radius of isolation code
 1.0 = xn ! n parameter of eq.(3.4) in hep-ph/9801442
 1.0 = epsgamma ! epsilon_gamma parameter of eq.(3.4) in hep-ph/9801442
 .true. = isoEM ! isolate photons from EM energy (photons and leptons)
#*********************************************************************
# WBF cuts                                                           *
#*********************************************************************
 0   = xetamin ! minimum rapidity for two jets in the WBF case  
 0   = deltaeta ! minimum rapidity for two jets in the WBF case 
#*********************************************************************
# KT DURHAM CUT                                                      *
#*********************************************************************
 -1    =  ktdurham        
 0.4  =  dparameter 
#*********************************************************************
# maximal pdg code for quark to be considered as a light jet         *
# (otherwise b cuts are applied)                                     *
#*********************************************************************
 4 = maxjetflavor    ! Maximum jet pdg code
#*********************************************************************
# Jet measure cuts                                                   *
#*********************************************************************
 0   = xqcut   ! minimum kt jet measure between partons
#*********************************************************************
#
#*********************************************************************
# Store info for systematics studies                                 *
# WARNING: If use_syst is T, matched Pythia output is                *
#          meaningful ONLY if plotted taking matchscale              *
#          reweighting into account!                                 *
#*********************************************************************
   F  = use_syst      ! Enable systematics studies
#
#**************************************
# Parameter of the systematics study
#  will be used by SysCalc (if installed)
#**************************************                                  
#
0.5 1 2 = sys_scalefact  # factorization/renormalization scale factor
0.5 1 2 = sys_alpsfact  # \alpha_s emission scale factors
30 50 = sys_matchscale # variation of merging scale
# PDF sets and number of members (0 or none for all members).
CT10nlo.LHgrid = sys_pdf # matching scales
# MSTW2008nlo68cl.LHgrid 1  = sys_pdf
</MGRunCard>
<slha>
######################################################################
## PARAM_CARD AUTOMATICALY GENERATED BY MG5 FOLLOWING UFO MODEL   ####
######################################################################
##                                                                  ##
##  Width set on Auto will be computed following the information    ##
##        present in the decay.py files of the model.               ##
##        See  arXiv:1402.1178 for more details.                    ##
##                                                                  ##
######################################################################

###################################
## INFORMATION FOR CKMBLOCK
###################################
Block ckmblock 
    1 2.277360e-01 # cabi 

###################################
## INFORMATION FOR FRBLOCK
###################################
Block frblock 
    1 8.000000e-01 # gz 

###################################
## INFORMATION FOR MASS
###################################
Block mass 
    1 5.040000e-03 # MD 
    2 2.550000e-03 # MU 
    3 1.010000e-01 # MS 
    4 1.270000e+00 # MC 
    5 4.700000e+00 # MB 
    6 1.720000e+02 # MT 
   11 5.110000e-04 # Me 
   13 1.056600e-01 # MM 
   15 1.777000e+00 # MTA 
   23 9.118760e+01 # MZ 
   25 1.200000e+02 # MH 
  10030 2.700000e+03 # MZph 
  10031 3.000000e+02 # MZpl 
## Dependent parameters, given by model restrictions.
## Those values should be edited following the 
## analytical expression. MG5 ignores those values 
## but they are important for interfacing the output of MG5
## to external program such as Pythia.
  12 0.000000 # ve : 0.0 
  14 0.000000 # vm : 0.0 
  16 0.000000 # vt : 0.0 
  21 0.000000 # g : 0.0 
  22 0.000000 # a : 0.0 
  24 79.824360 # w+ : cmath.sqrt(MZ__exp__2/2. + cmath.sqrt(MZ__exp__4/4. - (aEW*cmath.pi*MZ__exp__2)/(Gf*sqrt__2))) 

###################################
## INFORMATION FOR SMINPUTS
###################################
Block sminputs 
    1 1.279000e+02 # aEWM1 
    2 1.166370e-05 # Gf 
    3 1.184000e-01 # aS 

###################################
## INFORMATION FOR YUKAWA
###################################
Block yukawa 
    1 5.040000e-03 # ymdo 
    2 2.550000e-03 # ymup 
    3 1.010000e-01 # yms 
    4 1.270000e+00 # ymc 
    5 4.700000e+00 # ymb 
    6 1.720000e+02 # ymt 
   11 5.110000e-04 # yme 
   13 1.056600e-01 # ymm 
   15 1.777000e+00 # ymtau 

###################################
## INFORMATION FOR DECAY
###################################
DECAY   6 1.508336e+00 # WT 
DECAY  23 2.495200e+00 # WZ 
DECAY  24 2.085000e+00 # WW 
DECAY  25 5.753088e-03 # WH 
## Dependent parameters, given by model restrictions.
## Those values should be edited following the 
## analytical expression. MG5 ignores those values 
## but they are important for interfacing the output of MG5
## to external program such as Pythia.
DECAY  1 0.000000 # d : 0.0 
DECAY  2 0.000000 # u : 0.0 
DECAY  3 0.000000 # s : 0.0 
DECAY  4 0.000000 # c : 0.0 
DECAY  5 0.000000 # b : 0.0 
DECAY  11 0.000000 # e- : 0.0 
DECAY  12 0.000000 # ve : 0.0 
DECAY  13 0.000000 # mu- : 0.0 
DECAY  14 0.000000 # vm : 0.0 
DECAY  15 0.000000 # ta- : 0.0 
DECAY  16 0.000000 # vt : 0.0 
DECAY  21 0.000000 # g : 0.0 
DECAY  22 0.000000 # a : 0.0 
DECAY  10030 0.308725 # zph : (gz__exp__2*MZph*(5 + cmath.sqrt(1 - (4*MT__exp__2)/MZph__exp__2)))/(144.*cmath.pi) 
DECAY  10031 0.132629 # zpl : (5*gz__exp__2*MZpl)/(144.*cmath.pi) 
#===========================================================
# QUANTUM NUMBERS OF NEW STATE(S) (NON SM PDG CODE)
#===========================================================

Block QNUMBERS 10030  # zph 
        1 0  # 3 times electric charge
        2 3  # number of spin states (2S+1)
        3 1  # colour rep (1: singlet, 3: triplet, 8: octet)
        4 0  # Particle/Antiparticle distinction (0=own anti)
Block QNUMBERS 10031  # zpl 
        1 0  # 3 times electric charge
        2 3  # number of spin states (2S+1)
        3 1  # colour rep (1: singlet, 3: triplet, 8: octet)
        4 0  # Particle/Antiparticle distinction (0=own anti)
</slha>
## END BANNER##
<MGGenerationInfo>
#  Number of Events        :         3914
#  Integrated weight (pb)  :  0.21237E-02
#  Max wgt                 :  0.84076E-06
#  Average wgt             :  0.54259E-06
</MGGenerationInfo>
</header>
<init>
     2212     2212  0.40000000000E+04  0.40000000000E+04 0 0  247000  247000 2   1
  0.21257548813E-02  0.52528777445E-05  0.84076220000E-06   0
</init>
<event>
 5   0  0.8407622E-06  0.2683767E+04  0.7818609E-02  0.8340291E-01
       -2   -1    0    0    0  501  0.00000000000E+00  0.00000000000E+00  0.13435692184E+04  0.13435692184E+04  0.25500000920E-02 0. -1.
        2   -1    0    0  501    0  0.00000000000E+00  0.00000000000E+00 -0.13402000043E+04  0.13402000043E+04  0.25500000920E-02 0.  1.
    10030    2    1    2    0    0  0.00000000000E+00  0.00000000000E+00  0.33692141054E+01  0.26837692228E+04  0.26837671079E+04 0.  0.
        1    1    3    3  502    0  0.27158364343E+03 -0.70391287498E+02 -0.13105431085E+04  0.13402372357E+04  0.50400001928E-02 0.  1.
       -1    1    3    3    0  502 -0.27158364343E+03  0.70391287498E+02  0.13139123226E+04  0.13435319871E+04  0.50400001928E-02 0. -1.
</event>
<event>
 5   0  0.8407622E-06  0.2742518E+04  0.7818609E-02  0.8321340E-01
       -2   -1    0    0    0  501  0.00000000000E+00  0.00000000000E+00  0.16184060753E+04  0.16184060753E+04  0.25500000920E-02 0.  1.
        2   -1    0    0  501    0  0.00000000000E+00  0.00000000000E+00 -0.11618534182E+04  0.11618534182E+04  0.25500000920E-02 0. -1.
    10030    2    1    2    0    0  0.00000000000E+00  0.00000000000E+00  0.45655265711E+03  0.27802594935E+04  0.27425175519E+04 0.  0.
        1    1    3    3  502    0  0.14578247395E+03  0.90194168906E+03 -0.80834121997E+03  0.12199044504E+04  0.50400001928E-02 0. -1.
       -1    1    3    3    0  502 -0.14578247395E+03 -0.90194168906E+03  0.12648938771E+04  0.15603550431E+04  0.50400001928E-02 0.  1.
</event>
<event>
 5   0  0.8213334E-06  0.2703726E+04  0.7818609E-02  0.8333797E-01
        2   -1    0    0  501    0  0.00000000000E+00  0.00000000000E+00  0.71092758293E+03  0.71092758293E+03  0.25500000920E-02 0.  1.
       -2   -1    0    0    0  501  0.00000000000E+00  0.00000000000E+00 -0.25706323392E+04  0.25706323392E+04  0.25500000920E-02 0. -1.
    10030    2    1    2    0    0  0.00000000000E+00  0.00000000000E+00 -0.18597047562E+04  0.32815599221E+04  0.27037258999E+04 0.  0.
        3    1    3    3  502    0 -0.22457957457E+03  0.91121163313E+03  0.25113346661E+03  0.97149917855E+03  0.10100000352E+00 0.  1.
       -3    1    3    3    0  502  0.22457957457E+03 -0.91121163313E+03 -0.21108382229E+04  0.23100607436E+04  0.10100000352E+00 0. -1.
</event>
<event>
 5   0  0.8407622E-06  0.2678783E+04  0.7818609E-02  0.8341922E-01
       -2   -1    0    0    0  501  0.00000000000E+00  0.00000000000E+00  0.10531653523E+04  0.10531653523E+04  0.25500000920E-02 0.  1.
        2   -1    0    0  501    0  0.00000000000E+00  0.00000000000E+00 -0.17034077958E+04  0.17034077958E+04  0.25500000920E-02 0. -1.
    10030    2    1    2    0    0  0.00000000000E+00  0.00000000000E+00 -0.65024244355E+03  0.27565731481E+04  0.26787833591E+04 0.  0.
        1    1    3    3  502    0  0.10942423876E+04 -0.34146397343E+03 -0.10380649822E+04  0.15464614303E+04  0.50400001928E-02 0. -1.
       -1    1    3    3    0  502 -0.10942423876E+04  0.34146397343E+03  0.38782253863E+03  0.12101117178E+04  0.50400001928E-02 0.  1.
</event>
<event>
 5   0  0.8213334E-06  0.2701639E+04  0.7818609E-02  0.8334473E-01
        2   -1    0    0  501    0  0.00000000000E+00  0.00000000000E+00  0.11661836670E+04  0.11661836670E+04  0.25500000920E-02 0.  1.
       -2   -1    0    0    0  501  0.00000000000E+00  0.00000000000E+00 -0.15646881156E+04  0.15646881156E+04  0.25500000920E-02 0. -1.
    10030    2    1    2    0    0  0.00000000000E+00  0.00000000000E+00 -0.39850444860E+03  0.27308717825E+04  0.27016392981E+04 0.  0.
        3    1    3    3  502    0  0.70020825453E+03 -0.26548176178E+03 -0.13356684874E+04  0.15312682600E+04  0.10100000352E+00 0. -1.
       -3    1    3    3    0  502 -0.70020825453E+03  0.26548176178E+03  0.93716403879E+03  0.11996035226E+04  0.10100000352E+00 0.  1.
</event>
<event>
 5   0  0.3199840E-06  0.2767867E+04  0.7818609E-02  0.8313314E-01
        1   -1    0    0  501    0  0.00000000000E+00  0.00000000000E+00  0.17316867923E+04  0.17316867923E+04  0.50400001928E-02 0.  1.
       -1   -1    0    0    0  501  0.00000000000E+00  0.00000000000E+00 -0.11060153714E+04  0.11060153714E+04  0.50400001928E-02 0. -1.
    10030    2    1    2    0    0  0.00000000000E+00  0.00000000000E+00  0.62567142089E+03  0.28377021637E+04  0.27678672011E+04 0.  0.
        1    1    3    3  502    0 -0.12407894641E+04  0.48403790090E+03  0.69838379971E+03  0.15038587419E+04  0.50400001928E-02 0. -1.
       -1    1    3    3    0  502  0.12407894641E+04 -0.48403790090E+03 -0.72712378820E+02  0.13338434218E+04  0.50400001928E-02 0.  1.
</event>
<event>
 5   0  0.3028601E-06  0.2696495E+04  0.7818609E-02  0.8336143E-01
       -1   -1    0    0    0  501  0.00000000000E+00  0.00000000000E+00  0.11620301750E+04  0.11620301751E+04  0.50400001928E-02 0.  1.
        1   -1    0    0  501    0  0.00000000000E+00  0.00000000000E+00 -0.15643061992E+04  0.15643061992E+04  0.50400001928E-02 0. -1.
    10030    2    1    2    0    0  0.00000000000E+00  0.00000000000E+00 -0.40227602413E+03  0.27263363742E+04  0.26964947665E+04 0.  0.
        3    1    3    3  502    0 -0.61604884785E+03  0.11955169045E+04 -0.29702502366E+03  0.13773164948E+04  0.10100000352E+00 0.  1.
       -3    1    3    3    0  502  0.61604884785E+03 -0.11955169045E+04 -0.10525100047E+03  0.13490198795E+04  0.10100000352E+00 0. -1.
</event>
<event>
 5   0  0.8407622E-06  0.2642455E+04  0.7818609E-02  0.8353922E-01
        2   -1    0    0  501    0  0.00000000000E+00  0.00000000000E+00  0.13691049901E+04  0.13691049901E+04  0.25500000920E-02 0. -1.
       -2   -1    0    0    0  501  0.00000000000E+00  0.00000000000E+00 -0.12750241502E+04  0.12750241502E+04  0.25500000920E-02 0.  1.
    10030    2    1    2    0    0  0.00000000000E+00  0.00000000000E+00  0.94080839894E+02  0.26441291404E+04  0.26424548637E+04 0.  0.
        1    1    3    3  502    0  0.60878364789E+02 -0.68854432886E+02  0.13659023960E+04  0.13689910385E+04  0.50400001928E-02 0. -1.
       -1    1    3    3    0  502 -0.60878364789E+02  0.68854432886E+02 -0.12718215561E+04  0.12751381018E+04  0.50400001928E-02 0.  1.
</event>
<event>
 5   0  0.3046300E-06  0.2714709E+04  0.7818609E-02  0.8330248E-01
        1   -1    0    0  501    0  0.00000000000E+00  0.00000000000E+00  0.10646659216E+04  0.10646659216E+04  0.50400001928E-02 0.  1.
       -1   -1    0    0    0  501  0.00000000000E+00  0.00000000000E+00 -0.17305063349E+04  0.17305063349E+04  0.50400001928E-02 0. -1.
    10030    2    1    2    0    0  0.00000000000E+00  0.00000000000E+00 -0.66584041338E+03  0.27951722565E+04  0.27147089140E+04 0.  0.
        2    1    3    3  502    0 -0.54930467006E+03 -0.11663758496E+04  0.10421357057E+03  0.12934561111E+04  0.25500000920E-02 0. -1.
       -2    1    3    3    0  502  0.54930467006E+03  0.11663758496E+04 -0.77005398395E+03  0.15017161454E+04  0.25500000920E-02 0.  1.
</event>
<event>
 5   0  0.8407622E-06  0.2734789E+04  0.7818609E-02  0.8323805E-01
       -2   -1    0    0    0  501  0.00000000000E+00  0.00000000000E+00  0.13114819390E+04  0.13114819390E+04  0.25500000920E-02 0. -1.
        2   -1    0    0  501    0  0.00000000000E+00  0.00000000000E+00 -0.14256909404E+04  0.14256909404E+04  0.25500000920E-02 0.  1.
    10030    2    1    2    0    0  0.00000000000E+00  0.00000000000E+00 -0.11420900138E+03  0.27371728794E+04  0.27347891465E+04 0.  0.
        1    1    3    3  502    0  0.15228752026E+03 -0.30864351096E+03  0.12674218121E+04  0.13133203553E+04  0.50400001928E-02 0. -1.
       -1    1    3    3    0  502 -0.15228752026E+03  0.30864351096E+03 -0.13816308135E+04  0.14238525241E+04  0.50400001928E-02 0.  1.
</event>
<event>
 5   0  0.3046300E-06  0.2693628E+04  0.7818609E-02  0.8337075E-01
       -1   -1    0    0    0  501  0.00000000000E+00  0.00000000000E+00  0.11608216659E+04  0.11608216659E+04  0.50400001928E-02 0. -1.
        1   -1    0    0  501    0  0.00000000000E+00  0.00000000000E+00 -0.15626074074E+04  0.15626074074E+04  0.50400001928E-02 0.  1.
    10030    2    1    2    0    0  0.00000000000E+00  0.00000000000E+00 -0.40178574153E+03  0.27234290733E+04  0.26936284330E+04 0.  0.
        2    1    3    3  502    0 -0.12789075839E+04  0.15424174483E+03  0.19653788255E+03  0.13030818329E+04  0.25500000920E-02 0. -1.
       -2    1    3    3    0  502  0.12789075839E+04 -0.15424174483E+03 -0.59832362409E+03  0.14203472404E+04  0.25500000920E-02 0.  1.
</event>
<event>
 5   0  0.7812908E-06  0.2704126E+04  0.7818609E-02  0.8333667E-01
        2   -1    0    0  501    0  0.00000000000E+00  0.00000000000E+00  0.19100422772E+04  0.19100422772E+04  0.25500000920E-02 0. -1.
       -2   -1    0    0    0  501  0.00000000000E+00  0.00000000000E+00 -0.95708611029E+03  0.95708611029E+03  0.25500000920E-02 0.  1.
    10030    2    1    2    0    0  0.00000000000E+00  0.00000000000E+00  0.95295616695E+03  0.28671283875E+04  0.27041264272E+04 0.  0.
        5    1    3    3  502    0  0.46954329054E+03  0.74564792154E+03  0.15637636003E+04  0.17949485821E+04  0.46999998093E+01 0. -1.
       -5    1    3    3    0  502 -0.46954329054E+03 -0.74564792154E+03 -0.61080743337E+03  0.10721798055E+04  0.46999998093E+01 0.  1.
</event>
<event>
 5   0  0.3089218E-06  0.2672559E+04  0.7818609E-02  0.8343964E-01
        1   -1    0    0  501    0  0.00000000000E+00  0.00000000000E+00  0.24667321708E+04  0.24667321708E+04  0.50400001928E-02 0.  1.
       -1   -1    0    0    0  501  0.00000000000E+00  0.00000000000E+00 -0.72389021468E+03  0.72389021470E+03  0.50400001928E-02 0. -1.
    10030    2    1    2    0    0  0.00000000000E+00  0.00000000000E+00  0.17428419561E+04  0.31906223855E+04  0.26725592833E+04 0.  0.
        5    1    3    3  502    0 -0.85652095226E+02 -0.24795201602E+03  0.24356794219E+04  0.24497699524E+04  0.46999998093E+01 0.  1.
       -5    1    3    3    0  502  0.85652095226E+02  0.24795201602E+03 -0.69283746575E+03  0.74085243308E+03  0.46999998093E+01 0. -1.
</event>
<event>
 5   0  0.3199840E-06  0.2724720E+04  0.7818609E-02  0.8327028E-01
        1   -1    0    0  501    0  0.00000000000E+00  0.00000000000E+00  0.17925946267E+04  0.17925946267E+04  0.50400001928E-02 0.  1.
       -1   -1    0    0    0  501  0.00000000000E+00  0.00000000000E+00 -0.10353845860E+04  0.10353845860E+04  0.50400001928E-02 0. -1.
    10030    2    1    2    0    0  0.00000000000E+00  0.00000000000E+00  0.75721004066E+03  0.28279792127E+04  0.27247200557E+04 0.  0.
        1    1    3    3  502    0 -0.50230913102E+03 -0.11944196840E+01 -0.93576335652E+03  0.10620588257E+04  0.50400001928E-02 0. -1.
       -1    1    3    3    0  502  0.50230913102E+03  0.11944196840E+01  0.16929733972E+04  0.17659203870E+04  0.50400001928E-02 0.  1.
</event>
<event>
 5   0  0.3028601E-06  0.2705090E+04  0.7818609E-02  0.8333355E-01
        1   -1    0    0  501    0  0.00000000000E+00  0.00000000000E+00  0.59948372593E+03  0.59948372595E+03  0.50400001928E-02 0.  1.
       -1   -1    0    0    0  501  0.00000000000E+00  0.00000000000E+00 -0.30515881924E+04  0.30515881924E+04  0.50400001928E-02 0. -1.
    10030    2    1    2    0    0  0.00000000000E+00  0.00000000000E+00 -0.24521044665E+04  0.36510719184E+04  0.27050896175E+04 0.  0.
        3    1    3    3  502    0 -0.14523002948E+03 -0.10433636489E+04 -0.81046031805E+02  0.10565358180E+04  0.10100000352E+00 0.  1.
       -3    1    3    3    0  502  0.14523002948E+03  0.10433636489E+04 -0.23710584347E+04  0.25945361004E+04  0.10100000352E+00 0. -1.
</event>
<event>
 5   0  0.3028601E-06  0.2701590E+04  0.7818609E-02  0.8334489E-01
        1   -1    0    0  501    0  0.00000000000E+00  0.00000000000E+00  0.20893848153E+04  0.20893848154E+04  0.50400001928E-02 0.  1.
       -1   -1    0    0    0  501  0.00000000000E+00  0.00000000000E+00 -0.87329373462E+03  0.87329373464E+03  0.50400001928E-02 0. -1.
    10030    2    1    2    0    0  0.00000000000E+00  0.00000000000E+00  0.12160910807E+04  0.29626785500E+04  0.27015896568E+04 0.  0.
        3    1    3    3  502    0 -0.40685352446E+03  0.42154583152E+03 -0.72671592719E+03  0.93345954785E+03  0.10100000352E+00 0. -1.
       -3    1    3    3    0  502  0.40685352446E+03 -0.42154583152E+03  0.19428070079E+04  0.20292190021E+04  0.10100000352E+00 0.  1.
</event>
<event>
 5   0  0.8407622E-06  0.2562441E+04  0.7818609E-02  0.8381072E-01
        2   -1    0    0  501    0  0.00000000000E+00  0.00000000000E+00  0.25493068480E+04  0.25493068480E+04  0.25500000920E-02 0.  1.
       -2   -1    0    0    0  501  0.00000000000E+00  0.00000000000E+00 -0.64391072435E+03  0.64391072436E+03  0.25500000920E-02 0. -1.
    10030    2    1    2    0    0  0.00000000000E+00  0.00000000000E+00  0.19053961237E+04  0.31932175724E+04  0.25624410386E+04 0.  0.
        1    1    3    3  502    0 -0.58881629484E+03 -0.11323443636E+04  0.81271884429E+03  0.15130830469E+04  0.50400001928E-02 0. -1.
       -1    1    3    3    0  502  0.58881629484E+03  0.11323443636E+04  0.10926772794E+04  0.16801345255E+04  0.50400001928E-02 0.  1.
</event>
<event>
 5   0  0.3013407E-06  0.2550107E+04  0.7818609E-02  0.8385349E-01
        1   -1    0    0  501    0  0.00000000000E+00  0.00000000000E+00  0.13385375129E+04  0.13385375129E+04  0.50400001928E-02 0.  1.
       -1   -1    0    0    0  501  0.00000000000E+00  0.00000000000E+00 -0.12145799895E+04  0.12145799895E+04  0.50400001928E-02 0. -1.
    10030    2    1    2    0    0  0.00000000000E+00  0.00000000000E+00  0.12395752339E+03  0.25531175024E+04  0.25501065690E+04 0.  0.
        4    1    3    3  502    0  0.13762851169E+03 -0.57533657633E+03  0.11928279870E+04  0.13314631060E+04  0.12699999809E+01 0.  1.
       -4    1    3    3    0  502 -0.13762851169E+03  0.57533657633E+03 -0.10688704636E+04  0.12216543964E+04  0.12699999809E+01 0. -1.
</event>
<event>
 5   0  0.3199840E-06  0.2713443E+04  0.7818609E-02  0.8330656E-01
       -1   -1    0    0    0  501  0.00000000000E+00  0.00000000000E+00  0.11146740128E+04  0.11146740128E+04  0.50400001928E-02 0.  1.
        1   -1    0    0  501    0  0.00000000000E+00  0.00000000000E+00 -0.16513281910E+04  0.16513281910E+04  0.50400001928E-02 0. -1.
    10030    2    1    2    0    0  0.00000000000E+00  0.00000000000E+00 -0.53665417825E+03  0.27660022038E+04  0.27134425522E+04 0.  0.
        1    1    3    3  502    0 -0.27176910284E+03  0.10742054286E+04  0.52972764660E+03  0.12281641289E+04  0.50400001928E-02 0. -1.
       -1    1    3    3    0  502  0.27176910284E+03 -0.10742054286E+04 -0.10663818248E+04  0.15378380748E+04  0.50400001928E-02 0.  1.
</event>
<event>
 5   0  0.7838364E-06  0.2701523E+04  0.7818609E-02  0.8334511E-01
       -2   -1    0    0    0  501  0.00000000000E+00  0.00000000000E+00  0.81459780442E+03  0.81459780443E+03  0.25500000920E-02 0.  1.
        2   -1    0    0  501    0  0.00000000000E+00  0.00000000000E+00 -0.22398256709E+04  0.22398256709E+04  0.25500000920E-02 0. -1.
    10030    2    1    2    0    0  0.00000000000E+00  0.00000000000E+00 -0.14252278665E+04  0.30544234753E+04  0.27015233286E+04 0.  0.
        2    1    3    3  502    0 -0.83125825008E+02  0.23424582141E+03 -0.22137466811E+04  0.22276569250E+04  0.25500000920E-02 0. -1.
       -2    1    3    3    0  502  0.83125825008E+02 -0.23424582141E+03  0.78851881463E+03  0.82676655028E+03  0.25500000920E-02 0.  1.
</event>
<event>
 5   0  0.3028601E-06  0.2758570E+04  0.7818609E-02  0.8316247E-01
       -1   -1    0    0    0  501  0.00000000000E+00  0.00000000000E+00  0.10665345490E+04  0.10665345490E+04  0.50400001928E-02 0.  1.
        1   -1    0    0  501    0  0.00000000000E+00  0.00000000000E+00 -0.17837464643E+04  0.17837464643E+04  0.50400001928E-02 0. -1.
    10030    2    1    2    0    0  0.00000000000E+00  0.00000000000E+00 -0.71721191530E+03  0.28502810133E+04  0.27585700867E+04 0.  0.
        3    1    3    3  502    0 -0.38926586180E+03  0.58612036508E+03 -0.15843692249E+04  0.17335774701E+04  0.10100000352E+00 0. -1.
       -3    1    3    3    0  502  0.38926586180E+03 -0.58612036508E+03  0.86715730964E+03  0.11167035432E+04  0.10100000352E+00 0.  1.
</event>
<event>
 5   0  0.8213334E-06  0.2679779E+04  0.7818609E-02  0.8341596E-01
       -2   -1    0    0    0  501  0.00000000000E+00  0.00000000000E+00  0.70603083912E+03  0.70603083913E+03  0.25500000920E-02 0. -1.
        2   -1    0    0  501    0  0.00000000000E+00  0.00000000000E+00 -0.25428116001E+04  0.25428116001E+04  0.25500000920E-02 0.  1.
    10030    2    1    2    0    0  0.00000000000E+00  0.00000000000E+00 -0.18367807610E+04  0.32488424392E+04  0.26797786534E+04 0.  0.
        3    1    3    3  502    0  0.14262171235E+03 -0.41645441035E+03  0.61586274701E+03  0.75700869354E+03  0.10100000352E+00 0. -1.
       -3    1    3    3    0  502 -0.14262171235E+03  0.41645441035E+03 -0.24526435080E+04  0.24918337457E+04  0.10100000352E+00 0.  1.
</event>
<event>
 5   0  0.3199840E-06  0.2716683E+04  0.7818609E-02  0.8329612E-01
       -1   -1    0    0    0  501  0.00000000000E+00  0.00000000000E+00  0.70233647905E+03  0.70233647907E+03  0.50400001928E-02 0.  1.
        1   -1    0    0  501    0  0.00000000000E+00  0.00000000000E+00 -0.26270759542E+04  0.26270759542E+04  0.50400001928E-02 0. -1.
    10030    2    1    2    0    0  0.00000000000E+00  0.00000000000E+00 -0.19247394752E+04  0.33294124333E+04  0.27166827389E+04 0.  0.
        1    1    3    3  502    0 -0.64298736132E+03 -0.11188894180E+04 -0.14819553086E+04  0.19650795946E+04  0.50400001928E-02 0. -1.
       -1    1    3    3    0  502  0.64298736132E+03  0.11188894180E+04 -0.44278416659E+03  0.13643328387E+04  0.50400001928E-02 0.  1.
</event>
<event>
 5   0  0.7838364E-06  0.2695714E+04  0.7818609E-02  0.8336397E-01
       -2   -1    0    0    0  501  0.00000000000E+00  0.00000000000E+00  0.80840265571E+03  0.80840265571E+03  0.25500000920E-02 0. -1.
        2   -1    0    0  501    0  0.00000000000E+00  0.00000000000E+00 -0.22472949004E+04  0.22472949004E+04  0.25500000920E-02 0.  1.
    10030    2    1    2    0    0  0.00000000000E+00  0.00000000000E+00 -0.14388922447E+04  0.30556975562E+04  0.26957144995E+04 0.  0.
        2    1    3    3  502    0 -0.87756158860E+03  0.26979488230E+03  0.39915390032E+03  0.10011131087E+04  0.25500000920E-02 0. -1.
       -2    1    3    3    0  502  0.87756158860E+03 -0.26979488230E+03 -0.18380461450E+04  0.20545844474E+04  0.25500000920E-02 0.  1.
</event>
<event>
 5   0  0.3046300E-06  0.2496754E+04  0.7818609E-02  0.8404143E-01
        1   -1    0    0  501    0  0.00000000000E+00  0.00000000000E+00  0.17173030251E+04  0.17173030251E+04  0.50400001928E-02 0. -1.
       -1   -1    0    0    0  501  0.00000000000E+00  0.00000000000E+00 -0.90749586433E+03  0.90749586434E+03  0.50400001928E-02 0.  1.
    10030    2    1    2    0    0  0.00000000000E+00  0.00000000000E+00  0.80980716081E+03  0.26247988895E+04  0.24967542075E+04 0.  0.
        2    1    3    3  502    0 -0.22402623700E+02 -0.12096605233E+04  0.72835928243E+03  0.14121925164E+04  0.25500000920E-02 0. -1.
       -2    1    3    3    0  502  0.22402623700E+02  0.12096605233E+04  0.81447878377E+02  0.12126063731E+04  0.25500000920E-02 0.  1.
</event>
<event>
 5   0  0.8213334E-06  0.2702099E+04  0.7818609E-02  0.8334324E-01
       -2   -1    0    0    0  501  0.00000000000E+00  0.00000000000E+00  0.13567287372E+04  0.13567287372E+04  0.25500000920E-02 0. -1.
        2   -1    0    0  501    0  0.00000000000E+00  0.00000000000E+00 -0.13453943691E+04  0.13453943691E+04  0.25500000920E-02 0.  1.
    10030    2    1    2    0    0  0.00000000000E+00  0.00000000000E+00  0.11334368080E+02  0.27021231063E+04  0.27020993346E+04 0.  0.
        3    1    3    3  502    0 -0.18755836392E+03  0.13355143975E+04  0.86651521473E+02  0.13514012513E+04  0.10100000352E+00 0. -1.
       -3    1    3    3    0  502  0.18755836392E+03 -0.13355143975E+04 -0.75317153393E+02  0.13507218550E+04  0.10100000352E+00 0.  1.
</event>
<event>
 5   0  0.7812908E-06  0.2679761E+04  0.7818609E-02  0.8341602E-01
       -2   -1    0    0    0  501  0.00000000000E+00  0.00000000000E+00  0.12763436334E+04  0.12763436334E+04  0.25500000920E-02 0.  1.
        2   -1    0    0  501    0  0.00000000000E+00  0.00000000000E+00 -0.14065797932E+04  0.14065797932E+04  0.25500000920E-02 0. -1.
    10030    2    1    2    0    0  0.00000000000E+00  0.00000000000E+00 -0.13023615980E+03  0.26829234265E+04  0.26797605593E+04 0.  0.
        5    1    3    3  502    0  0.76482972871E+03 -0.37883012610E+03 -0.10991877004E+04  0.13916581725E+04  0.46999998093E+01 0. -1.
       -5    1    3    3    0  502 -0.76482972871E+03  0.37883012610E+03  0.96895154059E+03  0.12912652541E+04  0.46999998093E+01 0.  1.
</event>
<event>
 5   0  0.3046300E-06  0.2666536E+04  0.7818609E-02  0.8345945E-01
       -1   -1    0    0    0  501  0.00000000000E+00  0.00000000000E+00  0.77919013132E+03  0.77919013133E+03  0.50400001928E-02 0.  1.
        1   -1    0    0  501    0  0.00000000000E+00  0.00000000000E+00 -0.22813476104E+04  0.22813476104E+04  0.50400001928E-02 0. -1.
    10030    2    1    2    0    0  0.00000000000E+00  0.00000000000E+00 -0.15021574791E+04  0.30605377417E+04  0.26665359882E+04 0.  0.
        2    1    3    3  502    0  0.12723740358E+04  0.21695210368E+03 -0.11345048556E+04  0.17184601159E+04  0.25500000920E-02 0. -1.
       -2    1    3    3    0  502 -0.12723740358E+04 -0.21695210368E+03 -0.36765262342E+03  0.13420776259E+04  0.25500000920E-02 0.  1.
</event>
<event>
 5   0  0.8213334E-06  0.2701132E+04  0.7818609E-02  0.8334638E-01
       -2   -1    0    0    0  501  0.00000000000E+00  0.00000000000E+00  0.16518496507E+04  0.16518496507E+04  0.25500000920E-02 0.  1.
        2   -1    0    0  501    0  0.00000000000E+00  0.00000000000E+00 -0.11042343378E+04  0.11042343378E+04  0.25500000920E-02 0. -1.
    10030    2    1    2    0    0  0.00000000000E+00  0.00000000000E+00  0.54761531292E+03  0.27560839885E+04  0.27011324330E+04 0.  0.
        3    1    3    3  502    0  0.97558083985E+03 -0.76587925561E+03 -0.27157554359E+03  0.12696780282E+04  0.10100000352E+00 0. -1.
       -3    1    3    3    0  502 -0.97558083985E+03  0.76587925561E+03  0.81919085650E+03  0.14864059603E+04  0.10100000352E+00 0.  1.
</event>
<event>
 5   0  0.8407622E-06  0.2689863E+04  0.7818609E-02  0.8338302E-01
        2   -1    0    0  501    0  0.00000000000E+00  0.00000000000E+00  0.28771103406E+04  0.28771103406E+04  0.25500000920E-02 0.  1.
       -2   -1    0    0    0  501  0.00000000000E+00  0.00000000000E+00 -0.62870044999E+03  0.62870044999E+03  0.25500000920E-02 0. -1.
    10030    2    1    2    0    0  0.00000000000E+00  0.00000000000E+00  0.22484098906E+04  0.35058107906E+04  0.26898628707E+04 0.  0.
        1    1    3    3  502    0 -0.44229458556E+03 -0.12306909381E+04  0.15334955364E+04  0.20153990289E+04  0.50400001928E-02 0.  1.
       -1    1    3    3    0  502  0.44229458556E+03  0.12306909381E+04  0.71491435416E+03  0.14904117617E+04  0.50400001928E-02 0. -1.
</event>
<event>
 5   0  0.3089218E-06  0.2710206E+04  0.7818609E-02  0.8331701E-01
       -1   -1    0    0    0  501  0.00000000000E+00  0.00000000000E+00  0.10473270244E+04  0.10473270244E+04  0.50400001928E-02 0. -1.
        1   -1    0    0  501    0  0.00000000000E+00  0.00000000000E+00 -0.17533241467E+04  0.17533241467E+04  0.50400001928E-02 0.  1.
    10030    2    1    2    0    0  0.00000000000E+00  0.00000000000E+00 -0.70599712231E+03  0.28006511711E+04  0.27102057201E+04 0.  0.
        5    1    3    3  502    0  0.35248767170E+02 -0.11399752773E+04 -0.11091951263E+04  0.15909500390E+04  0.46999998093E+01 0.  1.
       -5    1    3    3    0  502 -0.35248767170E+02  0.11399752773E+04  0.40319800400E+03  0.12097011320E+04  0.46999998093E+01 0. -1.
</event>
<event>
 5   0  0.8213334E-06  0.2654984E+04  0.7818609E-02  0.8349761E-01
        2   -1    0    0  501    0  0.00000000000E+00  0.00000000000E+00  0.17035952044E+04  0.17035952044E+04  0.25500000920E-02 0. -1.
       -2   -1    0    0    0  501  0.00000000000E+00  0.00000000000E+00 -0.10344209440E+04  0.10344209440E+04  0.25500000920E-02 0.  1.
    10030    2    1    2    0    0  0.00000000000E+00  0.00000000000E+00  0.66917426044E+03  0.27380161484E+04  0.26549836606E+04 0.  0.
        3    1    3    3  502    0 -0.98137801596E+03  0.43879587440E+03 -0.46860925825E+03  0.11727059635E+04  0.10100000352E+00 0.  1.
       -3    1    3    3    0  502  0.98137801596E+03 -0.43879587440E+03  0.11377835187E+04  0.15653101850E+04  0.10100000352E+00 0. -1.
</event>
<event>
 5   0  0.3013407E-06  0.2741159E+04  0.7818609E-02  0.8321773E-01
       -1   -1    0    0    0  501  0.00000000000E+00  0.00000000000E+00  0.14240364380E+04  0.14240364380E+04  0.50400001928E-02 0. -1.
        1   -1    0    0  501    0  0.00000000000E+00  0.00000000000E+00 -0.13191289082E+04  0.13191289082E+04  0.50400001928E-02 0.  1.
    10030    2    1    2    0    0  0.00000000000E+00  0.00000000000E+00  0.10490752975E+03  0.27431653462E+04  0.27411586103E+04 0.  0.
        4    1    3    3  502    0  0.59538149045E+02 -0.13469291255E+04 -0.19414732788E+03  0.13621518484E+04  0.12699999809E+01 0. -1.
       -4    1    3    3    0  502 -0.59538149045E+02  0.13469291255E+04  0.29905485763E+03  0.13810134978E+04  0.12699999809E+01 0.  1.
</event>
<event>
 5   0  0.3199840E-06  0.2716968E+04  0.7818609E-02  0.8329520E-01
        1   -1    0    0  501    0  0.00000000000E+00  0.00000000000E+00  0.25683654065E+04  0.25683654065E+04  0.50400001928E-02 0.  1.
       -1   -1    0    0    0  501  0.00000000000E+00  0.00000000000E+00 -0.71854207660E+03  0.71854207661E+03  0.50400001928E-02 0. -1.
    10030    2    1    2    0    0  0.00000000000E+00  0.00000000000E+00  0.18498233299E+04  0.32869074832E+04  0.27169678781E+04 0.  0.
        1    1    3    3  502    0 -0.76008454161E+03  0.98538478646E+03  0.26587325853E+03  0.12725565910E+04  0.50400001928E-02 0. -1.
       -1    1    3    3    0  502  0.76008454161E+03 -0.98538478646E+03  0.15839500714E+04  0.20143508921E+04  0.50400001928E-02 0.  1.
</event>
<event>
 5   0  0.3028601E-06  0.2764242E+04  0.7818609E-02  0.8314457E-01
        1   -1    0    0  501    0  0.00000000000E+00  0.00000000000E+00  0.11072657733E+04  0.11072657733E+04  0.50400001928E-02 0.  1.
       -1   -1    0    0    0  501  0.00000000000E+00  0.00000000000E+00 -0.17252030979E+04  0.17252030979E+04  0.50400001928E-02 0. -1.
    10030    2    1    2    0    0  0.00000000000E+00  0.00000000000E+00 -0.61793732461E+03  0.28324688713E+04  0.27642419159E+04 0.  0.
        3    1    3    3  502    0 -0.58445249253E+03 -0.78319297062E+03 -0.13104779537E+04  0.16347257943E+04  0.10100000352E+00 0. -1.
       -3    1    3    3    0  502  0.58445249253E+03  0.78319297062E+03  0.69254062908E+03  0.11977430770E+04  0.10100000352E+00 0.  1.
</event>
<event>
 5   0  0.7729970E-06  0.2695931E+04  0.7818609E-02  0.8336326E-01
       -2   -1    0    0    0  501  0.00000000000E+00  0.00000000000E+00  0.89525021349E+03  0.89525021349E+03  0.25500000920E-02 0.  1.
        2   -1    0    0  501    0  0.00000000000E+00  0.00000000000E+00 -0.20296126597E+04  0.20296126597E+04  0.25500000920E-02 0. -1.
    10030    2    1    2    0    0  0.00000000000E+00  0.00000000000E+00 -0.11343624462E+04  0.29248628732E+04  0.26959311319E+04 0.  0.
        4    1    3    3  502    0 -0.68100593638E+03 -0.52462542313E+03 -0.16936206309E+04  0.18993033918E+04  0.12699999809E+01 0. -1.
       -4    1    3    3    0  502  0.68100593638E+03  0.52462542313E+03  0.55925818461E+03  0.10255594814E+04  0.12699999809E+01 0.  1.
</event>
<event>
 5   0  0.7729970E-06  0.2670297E+04  0.7818609E-02  0.8344707E-01
       -2   -1    0    0    0  501  0.00000000000E+00  0.00000000000E+00  0.16029500165E+04  0.16029500165E+04  0.25500000920E-02 0.  1.
        2   -1    0    0  501    0  0.00000000000E+00  0.00000000000E+00 -0.11120879466E+04  0.11120879466E+04  0.25500000920E-02 0. -1.
    10030    2    1    2    0    0  0.00000000000E+00  0.00000000000E+00  0.49086206990E+03  0.27150379631E+04  0.26702969066E+04 0.  0.
        4    1    3    3  502    0  0.39151668549E+03 -0.71841333869E+03  0.13182000418E+04  0.15514689824E+04  0.12699999809E+01 0.  1.
       -4    1    3    3    0  502 -0.39151668549E+03  0.71841333869E+03 -0.82733797192E+03  0.11635689807E+04  0.12699999809E+01 0. -1.
</event>
<event>
 5   0  0.3046300E-06  0.2664847E+04  0.7818609E-02  0.8346502E-01
        1   -1    0    0  501    0  0.00000000000E+00  0.00000000000E+00  0.16252523217E+04  0.16252523217E+04  0.50400001928E-02 0. -1.
       -1   -1    0    0    0  501  0.00000000000E+00  0.00000000000E+00 -0.10923545280E+04  0.10923545280E+04  0.50400001928E-02 0.  1.
    10030    2    1    2    0    0  0.00000000000E+00  0.00000000000E+00  0.53289779364E+03  0.27176068497E+04  0.26648465117E+04 0.  0.
        2    1    3    3  502    0 -0.91816345793E+03  0.18466933316E+03 -0.70006245204E+03  0.11692794084E+04  0.25500000920E-02 0.  1.
       -2    1    3    3    0  502  0.91816345793E+03 -0.18466933316E+03  0.12329602457E+04  0.15483274413E+04  0.25500000920E-02 0. -1.
</event>
<event>
 5   0  0.3089218E-06  0.2734635E+04  0.7818609E-02  0.8323854E-01
        1   -1    0    0  501    0  0.00000000000E+00  0.00000000000E+00  0.11624840274E+04  0.11624840275E+04  0.50400001928E-02 0.  1.
       -1   -1    0    0    0  501  0.00000000000E+00  0.00000000000E+00 -0.16082436881E+04  0.16082436881E+04  0.50400001928E-02 0. -1.
    10030    2    1    2    0    0  0.00000000000E+00  0.00000000000E+00 -0.44575966062E+03  0.27707277155E+04  0.27346353319E+04 0.  0.
        5    1    3    3  502    0 -0.48341160771E+03 -0.48712735725E+03  0.97533394091E+03  0.11925930701E+04  0.46999998093E+01 0.  1.
       -5    1    3    3    0  502  0.48341160771E+03  0.48712735725E+03 -0.14210936015E+04  0.15781346454E+04  0.46999998093E+01 0. -1.
</event>
<event>
 5   0  0.3089218E-06  0.2695079E+04  0.7818609E-02  0.8336603E-01
       -1   -1    0    0    0  501  0.00000000000E+00  0.00000000000E+00  0.96441741385E+03  0.96441741386E+03  0.50400001928E-02 0. -1.
        1   -1    0    0  501    0  0.00000000000E+00  0.00000000000E+00 -0.18828594025E+04  0.18828594025E+04  0.50400001928E-02 0.  1.
    10030    2    1    2    0    0  0.00000000000E+00  0.00000000000E+00 -0.91844198868E+03  0.28472768164E+04  0.26950787711E+04 0.  0.
        5    1    3    3  502    0  0.13071632680E+04 -0.23038891100E+03 -0.21352479588E+03  0.13443845387E+04  0.46999998093E+01 0. -1.
       -5    1    3    3    0  502 -0.13071632680E+04  0.23038891100E+03 -0.70491719280E+03  0.15028922777E+04  0.46999998093E+01 0.  1.
</event>
<event>
 5   0  0.7838364E-06  0.2688756E+04  0.7818609E-02  0.8338662E-01
       -2   -1    0    0    0  501  0.00000000000E+00  0.00000000000E+00  0.10925164816E+04  0.10925164816E+04  0.25500000920E-02 0.  1.
        2   -1    0    0  501    0  0.00000000000E+00  0.00000000000E+00 -0.16543019541E+04  0.16543019541E+04  0.25500000920E-02 0. -1.
    10030    2    1    2    0    0  0.00000000000E+00  0.00000000000E+00 -0.56178547255E+03  0.27468184357E+04  0.26887559580E+04 0.  0.
        2    1    3    3  502    0 -0.11813822081E+04 -0.53882366561E+03  0.74993748735E+02  0.13006225150E+04  0.25500000920E-02 0.  1.
       -2    1    3    3    0  502  0.11813822081E+04  0.53882366561E+03 -0.63677922129E+03  0.14461959207E+04  0.25500000920E-02 0. -1.
</event>
<event>
 5   0  0.8213334E-06  0.2700233E+04  0.7818609E-02  0.8334929E-01
       -2   -1    0    0    0  501  0.00000000000E+00  0.00000000000E+00  0.12086029423E+04  0.12086029423E+04  0.25500000920E-02 0. -1.
        2   -1    0    0  501    0  0.00000000000E+00  0.00000000000E+00 -0.15081993008E+04  0.15081993008E+04  0.25500000920E-02 0.  1.
    10030    2    1    2    0    0  0.00000000000E+00  0.00000000000E+00 -0.29959635849E+03  0.27168022431E+04  0.27002326659E+04 0.  0.
        3    1    3    3  502    0 -0.62238434071E+01 -0.11540092267E+04 -0.85483925986E+03  0.14361497839E+04  0.10100000352E+00 0.  1.
       -3    1    3    3    0  502  0.62238434071E+01  0.11540092267E+04  0.55524290137E+03  0.12806524592E+04  0.10100000352E+00 0. -1.
</event>
<event>
 5   0  0.8407622E-06  0.2705279E+04  0.7818609E-02  0.8333294E-01
        2   -1    0    0  501    0  0.00000000000E+00  0.00000000000E+00  0.28412661898E+04  0.28412661898E+04  0.25500000920E-02 0.  1.
       -2   -1    0    0    0  501  0.00000000000E+00  0.00000000000E+00 -0.64395003561E+03  0.64395003562E+03  0.25500000920E-02 0. -1.
    10030    2    1    2    0    0  0.00000000000E+00  0.00000000000E+00  0.21973161542E+04  0.34852162254E+04  0.27052788870E+04 0.  0.
        1    1    3    3  502    0  0.64761682519E+03 -0.23816306409E+03  0.25974712405E+04  0.26875613561E+04  0.50400001928E-02 0.  1.
       -1    1    3    3    0  502 -0.64761682519E+03  0.23816306409E+03 -0.40015508636E+03  0.79765486931E+03  0.50400001928E-02 0. -1.
</event>
<event>
 5   0  0.7838364E-06  0.2706323E+04  0.7818609E-02  0.8332956E-01
        2   -1    0    0  501    0  0.00000000000E+00  0.00000000000E+00  0.11317381531E+04  0.11317381531E+04  0.25500000920E-02 0. -1.
       -2   -1    0    0    0  501  0.00000000000E+00  0.00000000000E+00 -0.16179064399E+04  0.16179064399E+04  0.25500000920E-02 0.  1.
    10030    2    1    2    0    0  0.00000000000E+00  0.00000000000E+00 -0.48616828682E+03  0.27496445930E+04  0.27063232964E+04 0.  0.
        2    1    3    3  502    0 -0.11692316984E+04 -0.52661930917E+03 -0.68198969500E+03  0.14524257659E+04  0.25500000920E-02 0. -1.
       -2    1    3    3    0  502  0.11692316984E+04  0.52661930917E+03  0.19582140818E+03  0.12972188271E+04  0.25500000920E-02 0.  1.
</event>
<event>
 5   0  0.8213334E-06  0.2697542E+04  0.7818609E-02  0.8335803E-01
       -2   -1    0    0    0  501  0.00000000000E+00  0.00000000000E+00  0.11020431151E+04  0.11020431151E+04  0.25500000920E-02 0.  1.
        2   -1    0    0  501    0  0.00000000000E+00  0.00000000000E+00 -0.16507372242E+04  0.16507372242E+04  0.25500000920E-02 0. -1.
    10030    2    1    2    0    0  0.00000000000E+00  0.00000000000E+00 -0.54869410916E+03  0.27527803393E+04  0.26975422834E+04 0.  0.
        3    1    3    3  502    0 -0.13132224598E+04 -0.30736969097E+03 -0.28702016413E+03  0.13789162196E+04  0.10100000352E+00 0. -1.
       -3    1    3    3    0  502  0.13132224598E+04  0.30736969097E+03 -0.26167394503E+03  0.13738641197E+04  0.10100000352E+00 0.  1.
</event>
<event>
 5   0  0.3028601E-06  0.2695861E+04  0.7818609E-02  0.8336349E-01
       -1   -1    0    0    0  501  0.00000000000E+00  0.00000000000E+00  0.10701134585E+04  0.10701134585E+04  0.50400001928E-02 0. -1.
        1   -1    0    0  501    0  0.00000000000E+00  0.00000000000E+00 -0.16978725632E+04  0.16978725632E+04  0.50400001928E-02 0.  1.
    10030    2    1    2    0    0  0.00000000000E+00  0.00000000000E+00 -0.62775910474E+03  0.27679860217E+04  0.26958607387E+04 0.  0.
        3    1    3    3  502    0 -0.67974780180E+03 -0.10701070615E+04  0.15633578746E+03  0.12773515905E+04  0.10100000352E+00 0. -1.
       -3    1    3    3    0  502  0.67974780180E+03  0.10701070615E+04 -0.78409489219E+03  0.14906344312E+04  0.10100000352E+00 0.  1.
</event>
<event>
 5   0  0.7812908E-06  0.2651680E+04  0.7818609E-02  0.8350855E-01
       -2   -1    0    0    0  501  0.00000000000E+00  0.00000000000E+00  0.12823086312E+04  0.12823086312E+04  0.25500000920E-02 0. -1.
        2   -1    0    0  501    0  0.00000000000E+00  0.00000000000E+00 -0.13708496040E+04  0.13708496040E+04  0.25500000920E-02 0.  1.
    10030    2    1    2    0    0  0.00000000000E+00  0.00000000000E+00 -0.88540972827E+02  0.26531582353E+04  0.26516804328E+04 0.  0.
        5    1    3    3  502    0 -0.60558019249E+02 -0.11364708671E+04  0.63625331590E+03  0.13038687347E+04  0.46999998093E+01 0. -1.
       -5    1    3    3    0  502  0.60558019249E+02  0.11364708671E+04 -0.72479428872E+03  0.13492895006E+04  0.46999998093E+01 0.  1.
</event>
<event>
 5   0  0.3089218E-06  0.2699531E+04  0.7818609E-02  0.8335157E-01
        1   -1    0    0  501    0  0.00000000000E+00  0.00000000000E+00  0.14278453993E+04  0.14278453993E+04  0.50400001928E-02 0. -1.
       -1   -1    0    0    0  501  0.00000000000E+00  0.00000000000E+00 -0.12759551631E+04  0.12759551631E+04  0.50400001928E-02 0.  1.
    10030    2    1    2    0    0  0.00000000000E+00  0.00000000000E+00  0.15189023619E+03  0.27038005624E+04  0.26995308551E+04 0.  0.
        5    1    3    3  502    0  0.11174730896E+04  0.29499328691E+03  0.77424039725E+03  0.13911281134E+04  0.46999998093E+01 0.  1.
       -5    1    3    3    0  502 -0.11174730896E+04 -0.29499328691E+03 -0.62235016107E+03  0.13126724490E+04  0.46999998093E+01 0. -1.
</event>
<event>
 5   0  0.3028601E-06  0.2699888E+04  0.7818609E-02  0.8335041E-01
        1   -1    0    0  501    0  0.00000000000E+00  0.00000000000E+00  0.22676672541E+04  0.22676672541E+04  0.50400001928E-02 0. -1.
       -1   -1    0    0    0  501  0.00000000000E+00  0.00000000000E+00 -0.80362268131E+03  0.80362268133E+03  0.50400001928E-02 0.  1.
    10030    2    1    2    0    0  0.00000000000E+00  0.00000000000E+00  0.14640445728E+04  0.30712899354E+04  0.26998880266E+04 0.  0.
        3    1    3    3  502    0 -0.78562416432E+03  0.27356626944E+03  0.19414304271E+04  0.21121543374E+04  0.10100000352E+00 0. -1.
       -3    1    3    3    0  502  0.78562416432E+03 -0.27356626944E+03 -0.47738585434E+03  0.95913559805E+03  0.10100000352E+00 0.  1.
</event>
<event>
 5   0  0.8213334E-06  0.2691816E+04  0.7818609E-02  0.8337665E-01
       -2   -1    0    0    0  501  0.00000000000E+00  0.00000000000E+00  0.12661278855E+04  0.12661278855E+04  0.25500000920E-02 0. -1.
        2   -1    0    0  501    0  0.00000000000E+00  0.00000000000E+00 -0.14307150735E+04  0.14307150735E+04  0.25500000920E-02 0.  1.
    10030    2    1    2    0    0  0.00000000000E+00  0.00000000000E+00 -0.16458718802E+03  0.26968429590E+04  0.26918159304E+04 0.  0.
        3    1    3    3  502    0  0.11136848934E+04  0.40498338204E+03  0.55699104564E+03  0.13094062077E+04  0.10100000352E+00 0. -1.
       -3    1    3    3    0  502 -0.11136848934E+04 -0.40498338204E+03 -0.72157823366E+03  0.13874367514E+04  0.10100000352E+00 0.  1.
</event>
<event>
 5   0  0.3199840E-06  0.2508249E+04  0.7818609E-02  0.8400053E-01
       -1   -1    0    0    0  501  0.00000000000E+00  0.00000000000E+00  0.13086043109E+04  0.13086043110E+04  0.50400001928E-02 0.  1.
        1   -1    0    0  501    0  0.00000000000E+00  0.00000000000E+00 -0.12019123424E+04  0.12019123424E+04  0.50400001928E-02 0. -1.
    10030    2    1    2    0    0  0.00000000000E+00  0.00000000000E+00  0.10669196859E+03  0.25105166533E+04  0.25082485304E+04 0.  0.
        1    1    3    3  502    0  0.43270218516E+02 -0.27643999382E+03  0.12769637466E+04  0.13072596499E+04  0.50400001928E-02 0.  1.
       -1    1    3    3    0  502 -0.43270218516E+02  0.27643999382E+03 -0.11702717780E+04  0.12032570035E+04  0.50400001928E-02 0. -1.
</event>
<event>
 5   0  0.3028601E-06  0.2685482E+04  0.7818609E-02  0.8339731E-01
       -1   -1    0    0    0  501  0.00000000000E+00  0.00000000000E+00  0.10604445855E+04  0.10604445855E+04  0.50400001928E-02 0. -1.
        1   -1    0    0  501    0  0.00000000000E+00  0.00000000000E+00 -0.17001868042E+04  0.17001868042E+04  0.50400001928E-02 0.  1.
    10030    2    1    2    0    0  0.00000000000E+00  0.00000000000E+00 -0.63974221868E+03  0.27606313898E+04  0.26854823708E+04 0.  0.
        3    1    3    3  502    0 -0.51865071520E+03  0.79830203060E+03 -0.12932955324E+04  0.16058947789E+04  0.10100000352E+00 0.  1.
       -3    1    3    3    0  502  0.51865071520E+03 -0.79830203060E+03  0.65355331373E+03  0.11547366109E+04  0.10100000352E+00 0. -1.
</event>
<event>
 5   0  0.3013407E-06  0.2691685E+04  0.7818609E-02  0.8337708E-01
       -1   -1    0    0    0  501  0.00000000000E+00  0.00000000000E+00  0.14401211228E+04  0.14401211228E+04  0.50400001928E-02 0. -1.
        1   -1    0    0  501    0  0.00000000000E+00  0.00000000000E+00 -0.12577362187E+04  0.12577362188E+04  0.50400001928E-02 0.  1.
    10030    2    1    2    0    0  0.00000000000E+00  0.00000000000E+00  0.18238490406E+03  0.26978573416E+04  0.26916853424E+04 0.  0.
        4    1    3    3  502    0 -0.61993190396E+03  0.35492973250E+03  0.12344218233E+04  0.14262151069E+04  0.12699999809E+01 0. -1.
       -4    1    3    3    0  502  0.61993190396E+03 -0.35492973250E+03 -0.10520369192E+04  0.12716422346E+04  0.12699999809E+01 0.  1.
</event>
<event>
 5   0  0.3089218E-06  0.2692453E+04  0.7818609E-02  0.8337458E-01
       -1   -1    0    0    0  501  0.00000000000E+00  0.00000000000E+00  0.10194578177E+04  0.10194578177E+04  0.50400001928E-02 0.  1.
        1   -1    0    0  501    0  0.00000000000E+00  0.00000000000E+00 -0.17777351516E+04  0.17777351516E+04  0.50400001928E-02 0. -1.
    10030    2    1    2    0    0  0.00000000000E+00  0.00000000000E+00 -0.75827733386E+03  0.27971929693E+04  0.26924531551E+04 0.  0.
        5    1    3    3  502    0 -0.48240851574E+03 -0.54413371821E+02  0.92534453967E+03  0.10449705250E+04  0.46999998093E+01 0.  1.
       -5    1    3    3    0  502  0.48240851574E+03  0.54413371821E+02 -0.16836218735E+04  0.17522224443E+04  0.46999998093E+01 0. -1.
</event>
<event>
 5   0  0.7729970E-06  0.2697139E+04  0.7818609E-02  0.8335934E-01
       -2   -1    0    0    0  501  0.00000000000E+00  0.00000000000E+00  0.88224667936E+03  0.88224667936E+03  0.25500000920E-02 0. -1.
        2   -1    0    0  501    0  0.00000000000E+00  0.00000000000E+00 -0.20613739471E+04  0.20613739471E+04  0.25500000920E-02 0.  1.
    10030    2    1    2    0    0  0.00000000000E+00  0.00000000000E+00 -0.11791272678E+04  0.29436206265E+04  0.26971394623E+04 0.  0.
        4    1    3    3  502    0  0.88418635957E+03  0.10991590238E+03 -0.16943848162E+04  0.19143689672E+04  0.12699999809E+01 0.  1.
       -4    1    3    3    0  502 -0.88418635957E+03 -0.10991590238E+03  0.51525754847E+03  0.10292516593E+04  0.12699999809E+01 0. -1.
</event>
<event>
 5   0  0.8407622E-06  0.2691261E+04  0.7818609E-02  0.8337846E-01
        2   -1    0    0  501    0  0.00000000000E+00  0.00000000000E+00  0.13872930372E+04  0.13872930372E+04  0.25500000920E-02 0.  1.
       -2   -1    0    0    0  501  0.00000000000E+00  0.00000000000E+00 -0.13052195392E+04  0.13052195392E+04  0.25500000920E-02 0. -1.
    10030    2    1    2    0    0  0.00000000000E+00  0.00000000000E+00  0.82073498058E+02  0.26925125764E+04  0.26912613985E+04 0.  0.
        1    1    3    3  502    0 -0.10638052597E+04 -0.78346274961E+03 -0.21447671489E+03  0.13384676955E+04  0.50400001928E-02 0. -1.
       -1    1    3    3    0  502  0.10638052597E+04  0.78346274961E+03  0.29655021295E+03  0.13540448809E+04  0.50400001928E-02 0.  1.
</event>
<event>
 5   0  0.3013407E-06  0.2677141E+04  0.7818609E-02  0.8342460E-01
       -1   -1    0    0    0  501  0.00000000000E+00  0.00000000000E+00  0.10399103561E+04  0.10399103561E+04  0.50400001928E-02 0. -1.
        1   -1    0    0  501    0  0.00000000000E+00  0.00000000000E+00 -0.17230051464E+04  0.17230051464E+04  0.50400001928E-02 0.  1.
    10030    2    1    2    0    0  0.00000000000E+00  0.00000000000E+00 -0.68309479032E+03  0.27629155026E+04  0.26771409342E+04 0.  0.
        4    1    3    3  502    0  0.11809999446E+04  0.19873047437E+03 -0.95862994701E+03  0.15340233567E+04  0.12699999809E+01 0.  1.
       -4    1    3    3    0  502 -0.11809999446E+04 -0.19873047437E+03  0.27553515669E+03  0.12288921459E+04  0.12699999809E+01 0. -1.
</event>
<event>
 5   0  0.7838364E-06  0.2706841E+04  0.7818609E-02  0.8332789E-01
       -2   -1    0    0    0  501  0.00000000000E+00  0.00000000000E+00  0.10809448860E+04  0.10809448860E+04  0.25500000920E-02 0. -1.
        2   -1    0    0  501    0  0.00000000000E+00  0.00000000000E+00 -0.16945798259E+04  0.16945798259E+04  0.25500000920E-02 0.  1.
    10030    2    1    2    0    0  0.00000000000E+00  0.00000000000E+00 -0.61363493998E+03  0.27755247119E+04  0.27068412563E+04 0.  0.
        2    1    3    3  502    0 -0.10229464907E+04  0.87335922356E+03 -0.46086789898E+03  0.14218210424E+04  0.25500000920E-02 0. -1.
       -2    1    3    3    0  502  0.10229464907E+04 -0.87335922356E+03 -0.15276704100E+03  0.13537036696E+04  0.25500000920E-02 0.  1.
</event>
<event>
 5   0  0.3089218E-06  0.2702838E+04  0.7818609E-02  0.8334085E-01
        1   -1    0    0  501    0  0.00000000000E+00  0.00000000000E+00  0.25975573279E+04  0.25975573279E+04  0.50400001928E-02 0. -1.
       -1   -1    0    0    0  501  0.00000000000E+00  0.00000000000E+00 -0.70309656888E+03  0.70309656889E+03  0.50400001928E-02 0.  1.
    10030    2    1    2    0    0  0.00000000000E+00  0.00000000000E+00  0.18944607590E+04  0.33006538968E+04  0.27028382451E+04 0.  0.
        5    1    3    3  502    0  0.13789588253E+03  0.28035429628E+03 -0.65837740365E+03  0.72876381736E+03  0.46999998093E+01 0.  1.
       -5    1    3    3    0  502 -0.13789588253E+03 -0.28035429628E+03  0.25528381627E+04  0.25718900794E+04  0.46999998093E+01 0. -1.
</event>
<event>
 5   0  0.7838364E-06  0.2713417E+04  0.7818609E-02  0.8330665E-01
        2   -1    0    0  501    0  0.00000000000E+00  0.00000000000E+00  0.25873565483E+04  0.25873565483E+04  0.25500000920E-02 0. -1.
       -2   -1    0    0    0  501  0.00000000000E+00  0.00000000000E+00 -0.71140487356E+03  0.71140487356E+03  0.25500000920E-02 0.  1.
    10030    2    1    2    0    0  0.00000000000E+00  0.00000000000E+00  0.18759516747E+04  0.32987614218E+04  0.27134170767E+04 0.  0.
        2    1    3    3  502    0  0.10274398185E+04  0.31938810858E+03 -0.66755663350E+02  0.10780063372E+04  0.25500000920E-02 0. -1.
       -2    1    3    3    0  502 -0.10274398185E+04 -0.31938810858E+03  0.19427073381E+04  0.22207550846E+04  0.25500000920E-02 0.  1.
</event>
<event>
 5   0  0.3013407E-06  0.2681920E+04  0.7818609E-02  0.8340895E-01
       -1   -1    0    0    0  501  0.00000000000E+00  0.00000000000E+00  0.14079002654E+04  0.14079002654E+04  0.50400001928E-02 0.  1.
        1   -1    0    0  501    0  0.00000000000E+00  0.00000000000E+00 -0.12772021066E+04  0.12772021066E+04  0.50400001928E-02 0. -1.
    10030    2    1    2    0    0  0.00000000000E+00  0.00000000000E+00  0.13069815882E+03  0.26851023721E+04  0.26819195998E+04 0.  0.
        4    1    3    3  502    0  0.33768823466E+03  0.66746801031E+03 -0.10489068640E+04  0.12883144457E+04  0.12699999809E+01 0. -1.
       -4    1    3    3    0  502 -0.33768823466E+03 -0.66746801031E+03  0.11796050228E+04  0.13967879264E+04  0.12699999809E+01 0.  1.
</event>
<event>
 5   0  0.3013407E-06  0.2754611E+04  0.7818609E-02  0.8317500E-01
       -1   -1    0    0    0  501  0.00000000000E+00  0.00000000000E+00  0.12752940921E+04  0.12752940921E+04  0.50400001928E-02 0.  1.
        1   -1    0    0  501    0  0.00000000000E+00  0.00000000000E+00 -0.14874765922E+04  0.14874765922E+04  0.50400001928E-02 0. -1.
    10030    2    1    2    0    0  0.00000000000E+00  0.00000000000E+00 -0.21218250009E+03  0.27627706843E+04  0.27546107603E+04 0.  0.
        4    1    3    3  502    0 -0.90373251262E+02 -0.79320948699E+03  0.10195612831E+04  0.12949345303E+04  0.12699999809E+01 0.  1.
       -4    1    3    3    0  502  0.90373251262E+02  0.79320948699E+03 -0.12317437832E+04  0.14678361541E+04  0.12699999809E+01 0. -1.
</event>
<event>
 5   0  0.3013407E-06  0.2692293E+04  0.7818609E-02  0.8337510E-01
       -1   -1    0    0    0  501  0.00000000000E+00  0.00000000000E+00  0.72853737762E+03  0.72853737764E+03  0.50400001928E-02 0.  1.
        1   -1    0    0  501    0  0.00000000000E+00  0.00000000000E+00 -0.24873267562E+04  0.24873267562E+04  0.50400001928E-02 0. -1.
    10030    2    1    2    0    0  0.00000000000E+00  0.00000000000E+00 -0.17587893786E+04  0.32158641339E+04  0.26922930838E+04 0.  0.
        4    1    3    3  502    0 -0.12915848890E+04  0.35653261088E+03 -0.72456502106E+03  0.15232541189E+04  0.12699999809E+01 0.  1.
       -4    1    3    3    0  502  0.12915848890E+04 -0.35653261088E+03 -0.10342243576E+04  0.16926100150E+04  0.12699999809E+01 0. -1.
</event>
<event>
 5   0  0.7838364E-06  0.2689210E+04  0.7818609E-02  0.8338515E-01
       -2   -1    0    0    0  501  0.00000000000E+00  0.00000000000E+00  0.14750716499E+04  0.14750716499E+04  0.25500000920E-02 0. -1.
        2   -1    0    0  501    0  0.00000000000E+00  0.00000000000E+00 -0.12256773797E+04  0.12256773797E+04  0.25500000920E-02 0.  1.
    10030    2    1    2    0    0  0.00000000000E+00  0.00000000000E+00  0.24939427024E+03  0.27007490296E+04  0.26892095156E+04 0.  0.
        2    1    3    3  502    0  0.13090744321E+04  0.94570708123E+02 -0.16869075627E+03  0.13232823051E+04  0.25500000920E-02 0.  1.
       -2    1    3    3    0  502 -0.13090744321E+04 -0.94570708123E+02  0.41808502651E+03  0.13774667245E+04  0.25500000920E-02 0. -1.
</event>
<event>
 5   0  0.2654625E-06  0.2710101E+04  0.7818609E-02  0.8331735E-01
        3   -1    0    0  501    0  0.00000000000E+00  0.00000000000E+00  0.10545195147E+04  0.10545195196E+04  0.10100000352E+00 0.  1.
       -3   -1    0    0    0  501  0.00000000000E+00  0.00000000000E+00 -0.17412307491E+04  0.17412307520E+04  0.10100000352E+00 0. -1.
    10030    2    1    2    0    0  0.00000000000E+00  0.00000000000E+00 -0.68671123439E+03  0.27957502716E+04  0.27101009689E+04 0.  0.
        4    1    3    3  502    0  0.69521504551E+03  0.90764203434E+03 -0.10936813567E+04  0.15821752573E+04  0.12699999809E+01 0.  1.
       -4    1    3    3    0  502 -0.69521504551E+03 -0.90764203434E+03  0.40697012227E+03  0.12135750143E+04  0.12699999809E+01 0. -1.
</event>
<event>
 5   0  0.7812908E-06  0.2700061E+04  0.7818609E-02  0.8334985E-01
        2   -1    0    0  501    0  0.00000000000E+00  0.00000000000E+00  0.14912522343E+04  0.14912522343E+04  0.25500000920E-02 0.  1.
       -2   -1    0    0    0  501  0.00000000000E+00  0.00000000000E+00 -0.12221826584E+04  0.12221826584E+04  0.25500000920E-02 0. -1.
    10030    2    1    2    0    0  0.00000000000E+00  0.00000000000E+00  0.26906957594E+03  0.27134348927E+04  0.27000611994E+04 0.  0.
        5    1    3    3  502    0  0.95137144412E+03 -0.83549024317E+03 -0.33619640293E+03  0.13100388095E+04  0.46999998093E+01 0. -1.
       -5    1    3    3    0  502 -0.95137144412E+03  0.83549024317E+03  0.60526597887E+03  0.14033960832E+04  0.46999998093E+01 0.  1.
</event>
<event>
 5   0  0.7812908E-06  0.2754156E+04  0.7818609E-02  0.8317644E-01
       -2   -1    0    0    0  501  0.00000000000E+00  0.00000000000E+00  0.85580563040E+03  0.85580563041E+03  0.25500000920E-02 0.  1.
        2   -1    0    0  501    0  0.00000000000E+00  0.00000000000E+00 -0.22158581953E+04  0.22158581953E+04  0.25500000920E-02 0. -1.
    10030    2    1    2    0    0  0.00000000000E+00  0.00000000000E+00 -0.13600525649E+04  0.30716638257E+04  0.27541560738E+04 0.  0.
        5    1    3    3  502    0 -0.10823396364E+04 -0.75564560020E+03 -0.24255305219E+03  0.13421301855E+04  0.46999998093E+01 0.  1.
       -5    1    3    3    0  502  0.10823396364E+04  0.75564560020E+03 -0.11174995127E+04  0.17295336402E+04  0.46999998093E+01 0. -1.
</event>
<event>
 5   0  0.7729970E-06  0.2723106E+04  0.7818609E-02  0.8327547E-01
       -2   -1    0    0    0  501  0.00000000000E+00  0.00000000000E+00  0.10612994863E+04  0.10612994863E+04  0.25500000920E-02 0.  1.
        2   -1    0    0  501    0  0.00000000000E+00  0.00000000000E+00 -0.17467514962E+04  0.17467514962E+04  0.25500000920E-02 0. -1.
    10030    2    1    2    0    0  0.00000000000E+00  0.00000000000E+00 -0.68545200985E+03  0.28080509825E+04  0.27231059220E+04 0.  0.
        4    1    3    3  502    0  0.34078284338E+03  0.78528390125E+03 -0.14345367083E+04  0.16705391143E+04  0.12699999809E+01 0. -1.
       -4    1    3    3    0  502 -0.34078284338E+03 -0.78528390125E+03  0.74908469848E+03  0.11375118682E+04  0.12699999809E+01 0.  1.
</event>
<event>
 5   0  0.3013407E-06  0.2692523E+04  0.7818609E-02  0.8337435E-01
       -1   -1    0    0    0  501  0.00000000000E+00  0.00000000000E+00  0.13279261593E+04  0.13279261593E+04  0.50400001928E-02 0.  1.
        1   -1    0    0  501    0  0.00000000000E+00  0.00000000000E+00 -0.13648500673E+04  0.13648500673E+04  0.50400001928E-02 0. -1.
    10030    2    1    2    0    0  0.00000000000E+00  0.00000000000E+00 -0.36923907969E+02  0.26927762266E+04  0.26925230606E+04 0.  0.
        4    1    3    3  502    0 -0.88192850909E+03 -0.34064449358E+03 -0.97697886954E+03  0.13595314967E+04  0.12699999809E+01 0. -1.
       -4    1    3    3    0  502  0.88192850909E+03  0.34064449358E+03  0.94005496157E+03  0.13332447299E+04  0.12699999809E+01 0.  1.
</event>
<event>
 5   0  0.3046300E-06  0.2711696E+04  0.7818609E-02  0.8331220E-01
        1   -1    0    0  501    0  0.00000000000E+00  0.00000000000E+00  0.30059324274E+04  0.30059324274E+04  0.50400001928E-02 0. -1.
       -1   -1    0    0    0  501  0.00000000000E+00  0.00000000000E+00 -0.61156515239E+03  0.61156515241E+03  0.50400001928E-02 0.  1.
    10030    2    1    2    0    0  0.00000000000E+00  0.00000000000E+00  0.23943672750E+04  0.36174975799E+04  0.27116957964E+04 0.  0.
        2    1    3    3  502    0  0.11148987147E+04 -0.38683084465E+03  0.30658523406E+03  0.12192750929E+04  0.25500000920E-02 0.  1.
       -2    1    3    3    0  502 -0.11148987147E+04  0.38683084465E+03  0.20877820410E+04  0.23982224870E+04  0.25500000920E-02 0. -1.
</event>
<event>
 5   0  0.7838364E-06  0.2710893E+04  0.7818609E-02  0.8331479E-01
       -2   -1    0    0    0  501  0.00000000000E+00  0.00000000000E+00  0.77767240430E+03  0.77767240430E+03  0.25500000920E-02 0. -1.
        2   -1    0    0  501    0  0.00000000000E+00  0.00000000000E+00 -0.23624803924E+04  0.23624803924E+04  0.25500000920E-02 0.  1.
    10030    2    1    2    0    0  0.00000000000E+00  0.00000000000E+00 -0.15848079881E+04  0.31401527967E+04  0.27108934371E+04 0.  0.
        2    1    3    3  502    0  0.24997229898E+02 -0.79693104847E+03 -0.20621076317E+04  0.22108848551E+04  0.25500000920E-02 0.  1.
       -2    1    3    3    0  502 -0.24997229898E+02  0.79693104847E+03  0.47729964363E+03  0.92926794163E+03  0.25500000920E-02 0. -1.
</event>
<event>
 5   0  0.3046300E-06  0.2931128E+04  0.7818609E-02  0.8263676E-01
       -1   -1    0    0    0  501  0.00000000000E+00  0.00000000000E+00  0.13503899728E+04  0.13503899728E+04  0.50400001928E-02 0.  1.
        1   -1    0    0  501    0  0.00000000000E+00  0.00000000000E+00 -0.15905613677E+04  0.15905613678E+04  0.50400001928E-02 0. -1.
    10030    2    1    2    0    0  0.00000000000E+00  0.00000000000E+00 -0.24017139495E+03  0.29409513406E+04  0.29311281938E+04 0.  0.
        2    1    3    3  502    0  0.10539943812E+04  0.15751872747E+03 -0.11295198657E+04  0.15529106324E+04  0.25500000920E-02 0. -1.
       -2    1    3    3    0  502 -0.10539943812E+04 -0.15751872747E+03  0.88934847074E+03  0.13880407082E+04  0.25500000920E-02 0.  1.
</event>
<event>
 5   0  0.8213334E-06  0.2591314E+04  0.7818609E-02  0.8371158E-01
       -2   -1    0    0    0  501  0.00000000000E+00  0.00000000000E+00  0.17426330947E+04  0.17426330947E+04  0.25500000920E-02 0. -1.
        2   -1    0    0  501    0  0.00000000000E+00  0.00000000000E+00 -0.96332763456E+03  0.96332763456E+03  0.25500000920E-02 0.  1.
    10030    2    1    2    0    0  0.00000000000E+00  0.00000000000E+00  0.77930546012E+03  0.27059607292E+04  0.25913136568E+04 0.  0.
        3    1    3    3  502    0 -0.61651981999E+03 -0.77370687871E+03 -0.48402824411E+03  0.11013638699E+04  0.10100000352E+00 0.  1.
       -3    1    3    3    0  502  0.61651981999E+03  0.77370687871E+03  0.12633337042E+04  0.16045968594E+04  0.10100000352E+00 0. -1.
</event>
<event>
 5   0  0.7812908E-06  0.2704465E+04  0.7818609E-02  0.8333558E-01
        2   -1    0    0  501    0  0.00000000000E+00  0.00000000000E+00  0.16938559976E+04  0.16938559976E+04  0.25500000920E-02 0.  1.
       -2   -1    0    0    0  501  0.00000000000E+00  0.00000000000E+00 -0.10795089551E+04  0.10795089551E+04  0.25500000920E-02 0. -1.
    10030    2    1    2    0    0  0.00000000000E+00  0.00000000000E+00  0.61434704243E+03  0.27733649527E+04  0.27044649882E+04 0.  0.
        5    1    3    3  502    0  0.53330630405E+03 -0.25700044864E+03 -0.93954842067E+03  0.11105125705E+04  0.46999998093E+01 0. -1.
       -5    1    3    3    0  502 -0.53330630405E+03  0.25700044864E+03  0.15538954631E+04  0.16628523821E+04  0.46999998093E+01 0.  1.
</event>
<event>
 5   0  0.3089218E-06  0.3006075E+04  0.7818609E-02  0.8241998E-01
        1   -1    0    0  501    0  0.00000000000E+00  0.00000000000E+00  0.22666689647E+04  0.22666689647E+04  0.50400001928E-02 0. -1.
       -1   -1    0    0    0  501  0.00000000000E+00  0.00000000000E+00 -0.99667020138E+03  0.99667020139E+03  0.50400001928E-02 0.  1.
    10030    2    1    2    0    0  0.00000000000E+00  0.00000000000E+00  0.12699987633E+04  0.32633391661E+04  0.30060747918E+04 0.  0.
        5    1    3    3  502    0 -0.16492655871E+03 -0.86055022662E+03 -0.69072270543E+03  0.11157362628E+04  0.46999998093E+01 0.  1.
       -5    1    3    3    0  502  0.16492655871E+03  0.86055022662E+03  0.19607214687E+04  0.21476029033E+04  0.46999998093E+01 0. -1.
</event>
<event>
 5   0  0.3028601E-06  0.2724156E+04  0.7818609E-02  0.8327210E-01
       -1   -1    0    0    0  501  0.00000000000E+00  0.00000000000E+00  0.18897514002E+04  0.18897514002E+04  0.50400001928E-02 0. -1.
        1   -1    0    0  501    0  0.00000000000E+00  0.00000000000E+00 -0.98174617042E+03  0.98174617044E+03  0.50400001928E-02 0.  1.
    10030    2    1    2    0    0  0.00000000000E+00  0.00000000000E+00  0.90800522981E+03  0.28714975707E+04  0.27241557960E+04 0.  0.
        3    1    3    3  502    0  0.58515050573E+03  0.12174232513E+04  0.26920426607E+03  0.13773131213E+04  0.10100000352E+00 0. -1.
       -3    1    3    3    0  502 -0.58515050573E+03 -0.12174232513E+04  0.63880096374E+03  0.14941844493E+04  0.10100000352E+00 0.  1.
</event>
<event>
 5   0  0.8213334E-06  0.2712832E+04  0.7818609E-02  0.8330854E-01
       -2   -1    0    0    0  501  0.00000000000E+00  0.00000000000E+00  0.11709373427E+04  0.11709373427E+04  0.25500000920E-02 0. -1.
        2   -1    0    0  501    0  0.00000000000E+00  0.00000000000E+00 -0.15712744204E+04  0.15712744204E+04  0.25500000920E-02 0.  1.
    10030    2    1    2    0    0  0.00000000000E+00  0.00000000000E+00 -0.40033707773E+03  0.27422117631E+04  0.27128316531E+04 0.  0.
        3    1    3    3  502    0  0.10553674056E+04 -0.20341551767E+03  0.63625020845E+03  0.12489966260E+04  0.10100000352E+00 0. -1.
       -3    1    3    3    0  502 -0.10553674056E+04  0.20341551767E+03 -0.10365872862E+04  0.14932151371E+04  0.10100000352E+00 0.  1.
</event>
<event>
 5   0  0.8407622E-06  0.2708889E+04  0.7818609E-02  0.8332127E-01
       -2   -1    0    0    0  501  0.00000000000E+00  0.00000000000E+00  0.64914714821E+03  0.64914714822E+03  0.25500000920E-02 0. -1.
        2   -1    0    0  501    0  0.00000000000E+00  0.00000000000E+00 -0.28260459640E+04  0.28260459640E+04  0.25500000920E-02 0.  1.
    10030    2    1    2    0    0  0.00000000000E+00  0.00000000000E+00 -0.21768988158E+04  0.34751931122E+04  0.27088888336E+04 0.  0.
        1    1    3    3  502    0  0.87433696155E+03 -0.38819807173E+03  0.14162054266E+03  0.96706734169E+03  0.50400001928E-02 0. -1.
       -1    1    3    3    0  502 -0.87433696155E+03  0.38819807173E+03 -0.23185193585E+04  0.25081257705E+04  0.50400001928E-02 0.  1.
</event>
<event>
 5   0  0.8407622E-06  0.2704827E+04  0.7818609E-02  0.8333440E-01
        2   -1    0    0  501    0  0.00000000000E+00  0.00000000000E+00  0.19846596669E+04  0.19846596669E+04  0.25500000920E-02 0.  1.
       -2   -1    0    0    0  501  0.00000000000E+00  0.00000000000E+00 -0.92158001923E+03  0.92158001923E+03  0.25500000920E-02 0. -1.
    10030    2    1    2    0    0  0.00000000000E+00  0.00000000000E+00  0.10630796477E+04  0.29062396861E+04  0.27048273098E+04 0.  0.
        1    1    3    3  502    0  0.49061944900E+03 -0.12570966724E+04  0.43529755073E+03  0.14179151756E+04  0.50400001928E-02 0. -1.
       -1    1    3    3    0  502 -0.49061944900E+03  0.12570966724E+04  0.62778209694E+03  0.14883245106E+04  0.50400001928E-02 0.  1.
</event>
<event>
 5   0  0.7838364E-06  0.2687697E+04  0.7818609E-02  0.8339008E-01
       -2   -1    0    0    0  501  0.00000000000E+00  0.00000000000E+00  0.23689430092E+04  0.23689430092E+04  0.25500000920E-02 0. -1.
        2   -1    0    0  501    0  0.00000000000E+00  0.00000000000E+00 -0.76233531832E+03  0.76233531832E+03  0.25500000920E-02 0.  1.
    10030    2    1    2    0    0  0.00000000000E+00  0.00000000000E+00  0.16066076909E+04  0.31312783275E+04  0.26876970982E+04 0.  0.
        2    1    3    3  502    0  0.48519823089E+03  0.70526539193E+03  0.20101834317E+04  0.21848693383E+04  0.25500000920E-02 0. -1.
       -2    1    3    3    0  502 -0.48519823089E+03 -0.70526539193E+03 -0.40357574081E+03  0.94640898923E+03  0.25500000920E-02 0.  1.
</event>
<event>
 5   0  0.3199840E-06  0.2713663E+04  0.7818609E-02  0.8330585E-01
       -1   -1    0    0    0  501  0.00000000000E+00  0.00000000000E+00  0.96508554578E+03  0.96508554579E+03  0.50400001928E-02 0. -1.
        1   -1    0    0  501    0  0.00000000000E+00  0.00000000000E+00 -0.19075945412E+04  0.19075945412E+04  0.50400001928E-02 0.  1.
    10030    2    1    2    0    0  0.00000000000E+00  0.00000000000E+00 -0.94250899546E+03  0.28726800870E+04  0.27136631471E+04 0.  0.
        1    1    3    3  502    0 -0.63008788055E+03  0.11519599022E+04 -0.10920515329E+03  0.13175538391E+04  0.50400001928E-02 0. -1.
       -1    1    3    3    0  502  0.63008788055E+03 -0.11519599022E+04 -0.83330384217E+03  0.15551262479E+04  0.50400001928E-02 0.  1.
</event>
<event>
 5   0  0.8407622E-06  0.2716169E+04  0.7818609E-02  0.8329778E-01
        2   -1    0    0  501    0  0.00000000000E+00  0.00000000000E+00  0.15806635697E+04  0.15806635697E+04  0.25500000920E-02 0. -1.
       -2   -1    0    0    0  501  0.00000000000E+00  0.00000000000E+00 -0.11668473850E+04  0.11668473850E+04  0.25500000920E-02 0.  1.
    10030    2    1    2    0    0  0.00000000000E+00  0.00000000000E+00  0.41381618472E+03  0.27475109546E+04  0.27161687376E+04 0.  0.
        1    1    3    3  502    0  0.11459772521E+04  0.42817302542E+02  0.94283042030E+03  0.14845963711E+04  0.50400001928E-02 0. -1.
       -1    1    3    3    0  502 -0.11459772521E+04 -0.42817302542E+02 -0.52901423558E+03  0.12629145835E+04  0.50400001928E-02 0.  1.
</event>
<event>
 5   0  0.7729970E-06  0.2627285E+04  0.7818609E-02  0.8358992E-01
       -2   -1    0    0    0  501  0.00000000000E+00  0.00000000000E+00  0.13220727487E+04  0.13220727487E+04  0.25500000920E-02 0. -1.
        2   -1    0    0  501    0  0.00000000000E+00  0.00000000000E+00 -0.13052664766E+04  0.13052664766E+04  0.25500000920E-02 0.  1.
    10030    2    1    2    0    0  0.00000000000E+00  0.00000000000E+00  0.16806272143E+02  0.26273392253E+04  0.26272854725E+04 0.  0.
        4    1    3    3  502    0 -0.41720100979E+03  0.90255058992E+03 -0.85010227057E+03  0.13081780205E+04  0.12699999809E+01 0.  1.
       -4    1    3    3    0  502  0.41720100979E+03 -0.90255058992E+03  0.86690854271E+03  0.13191612048E+04  0.12699999809E+01 0. -1.
</event>
<event>
 5   0  0.8213334E-06  0.2708325E+04  0.7818609E-02  0.8332309E-01
       -2   -1    0    0    0  501  0.00000000000E+00  0.00000000000E+00  0.10183607193E+04  0.10183607193E+04  0.25500000920E-02 0.  1.
        2   -1    0    0  501    0  0.00000000000E+00  0.00000000000E+00 -0.18006936253E+04  0.18006936254E+04  0.25500000920E-02 0. -1.
    10030    2    1    2    0    0  0.00000000000E+00  0.00000000000E+00 -0.78233290608E+03  0.28190543446E+04  0.27083246892E+04 0.  0.
        3    1    3    3  502    0 -0.51842917316E+03  0.31992887161E+03 -0.16500057954E+04  0.17588753298E+04  0.10100000352E+00 0. -1.
       -3    1    3    3    0  502  0.51842917316E+03 -0.31992887161E+03  0.86767288934E+03  0.10601790149E+04  0.10100000352E+00 0.  1.
</event>
<event>
 5   0  0.3089218E-06  0.2722180E+04  0.7818609E-02  0.8327844E-01
       -1   -1    0    0    0  501  0.00000000000E+00  0.00000000000E+00  0.21396891275E+04  0.21396891275E+04  0.50400001928E-02 0.  1.
        1   -1    0    0  501    0  0.00000000000E+00  0.00000000000E+00 -0.86581089765E+03  0.86581089767E+03  0.50400001928E-02 0. -1.
    10030    2    1    2    0    0  0.00000000000E+00  0.00000000000E+00  0.12738782299E+04  0.30055000252E+04  0.27221801294E+04 0.  0.
        5    1    3    3  502    0 -0.99943785132E+03 -0.11715077841E+03  0.16488097159E+04  0.19316303717E+04  0.46999998093E+01 0.  1.
       -5    1    3    3    0  502  0.99943785132E+03  0.11715077841E+03 -0.37493148603E+03  0.10738696535E+04  0.46999998093E+01 0. -1.
</event>
<event>
 5   0  0.3046300E-06  0.2703658E+04  0.7818609E-02  0.8333819E-01
       -1   -1    0    0    0  501  0.00000000000E+00  0.00000000000E+00  0.94727619728E+03  0.94727619729E+03  0.50400001928E-02 0. -1.
        1   -1    0    0  501    0  0.00000000000E+00  0.00000000000E+00 -0.19291539638E+04  0.19291539638E+04  0.50400001928E-02 0.  1.
    10030    2    1    2    0    0  0.00000000000E+00  0.00000000000E+00 -0.98187776654E+03  0.28764301611E+04  0.27036579893E+04 0.  0.
        2    1    3    3  502    0  0.94035734851E+02  0.13281490218E+04 -0.24229699190E+03  0.13533404508E+04  0.25500000920E-02 0. -1.
       -2    1    3    3    0  502 -0.94035734851E+02 -0.13281490218E+04 -0.73958077464E+03  0.15230897103E+04  0.25500000920E-02 0.  1.
</event>
<event>
 5   0  0.8407622E-06  0.2718486E+04  0.7818609E-02  0.8329032E-01
        2   -1    0    0  501    0  0.00000000000E+00  0.00000000000E+00  0.22147249218E+04  0.22147249218E+04  0.25500000920E-02 0. -1.
       -2   -1    0    0    0  501  0.00000000000E+00  0.00000000000E+00 -0.83420792872E+03  0.83420792873E+03  0.25500000920E-02 0.  1.
    10030    2    1    2    0    0  0.00000000000E+00  0.00000000000E+00  0.13805169930E+04  0.30489328505E+04  0.27184856738E+04 0.  0.
        1    1    3    3  502    0  0.21323675749E+03  0.87002483790E+02  0.21926833292E+04  0.22047447764E+04  0.50400001928E-02 0. -1.
       -1    1    3    3    0  502 -0.21323675749E+03 -0.87002483790E+02 -0.81216633612E+03  0.84418807412E+03  0.50400001928E-02 0.  1.
</event>
<event>
 5   0  0.7729970E-06  0.2697627E+04  0.7818609E-02  0.8335775E-01
       -2   -1    0    0    0  501  0.00000000000E+00  0.00000000000E+00  0.94432635387E+03  0.94432635387E+03  0.25500000920E-02 0.  1.
        2   -1    0    0  501    0  0.00000000000E+00  0.00000000000E+00 -0.19265556368E+04  0.19265556368E+04  0.25500000920E-02 0. -1.
    10030    2    1    2    0    0  0.00000000000E+00  0.00000000000E+00 -0.98222928288E+03  0.28708819906E+04  0.26976265568E+04 0.  0.
        4    1    3    3  502    0  0.12264112302E+03 -0.13417188186E+04 -0.42342612506E+03  0.14122823830E+04  0.12699999809E+01 0.  1.
       -4    1    3    3    0  502 -0.12264112302E+03  0.13417188186E+04 -0.55880315782E+03  0.14585996076E+04  0.12699999809E+01 0. -1.
</event>
<event>
 5   0  0.8213334E-06  0.2705913E+04  0.7818609E-02  0.8333089E-01
       -2   -1    0    0    0  501  0.00000000000E+00  0.00000000000E+00  0.18963454073E+04  0.18963454073E+04  0.25500000920E-02 0.  1.
        2   -1    0    0  501    0  0.00000000000E+00  0.00000000000E+00 -0.96527279963E+03  0.96527279963E+03  0.25500000920E-02 0. -1.
    10030    2    1    2    0    0  0.00000000000E+00  0.00000000000E+00  0.93107260770E+03  0.28616182070E+04  0.27059125192E+04 0.  0.
        3    1    3    3  502    0  0.10118147896E+03 -0.37545639208E+03  0.18359768495E+04  0.18767035451E+04  0.10100000352E+00 0.  1.
       -3    1    3    3    0  502 -0.10118147896E+03  0.37545639208E+03 -0.90490424183E+03  0.98491466185E+03  0.10100000352E+00 0. -1.
</event>
<event>
 5   0  0.3199840E-06  0.2608303E+04  0.7818609E-02  0.8365386E-01
       -1   -1    0    0    0  501  0.00000000000E+00  0.00000000000E+00  0.76366544423E+03  0.76366544425E+03  0.50400001928E-02 0. -1.
        1   -1    0    0  501    0  0.00000000000E+00  0.00000000000E+00 -0.22271678300E+04  0.22271678300E+04  0.50400001928E-02 0.  1.
    10030    2    1    2    0    0  0.00000000000E+00  0.00000000000E+00 -0.14635023858E+04  0.29908332743E+04  0.26083029811E+04 0.  0.
        1    1    3    3  502    0 -0.87787914152E+03  0.82301366138E+03 -0.13082683712E+04  0.17775233908E+04  0.50400001928E-02 0.  1.
       -1    1    3    3    0  502  0.87787914152E+03 -0.82301366138E+03 -0.15523401461E+03  0.12133098834E+04  0.50400001928E-02 0. -1.
</event>
<event>
 5   0  0.7838364E-06  0.2698959E+04  0.7818609E-02  0.8335343E-01
        2   -1    0    0  501    0  0.00000000000E+00  0.00000000000E+00  0.14330357896E+04  0.14330357896E+04  0.25500000920E-02 0. -1.
       -2   -1    0    0    0  501  0.00000000000E+00  0.00000000000E+00 -0.12707949287E+04  0.12707949287E+04  0.25500000920E-02 0.  1.
    10030    2    1    2    0    0  0.00000000000E+00  0.00000000000E+00  0.16224086087E+03  0.27038307183E+04  0.26989587726E+04 0.  0.
        2    1    3    3  502    0  0.11496373302E+04 -0.42792081143E+03 -0.48231137278E+03  0.13181071550E+04  0.25500000920E-02 0. -1.
       -2    1    3    3    0  502 -0.11496373302E+04  0.42792081143E+03  0.64455223364E+03  0.13857235632E+04  0.25500000920E-02 0.  1.
</event>
<event>
 5   0  0.3199840E-06  0.2737469E+04  0.7818609E-02  0.8322949E-01
       -1   -1    0    0    0  501  0.00000000000E+00  0.00000000000E+00  0.10609544074E+04  0.10609544075E+04  0.50400001928E-02 0.  1.
        1   -1    0    0  501    0  0.00000000000E+00  0.00000000000E+00 -0.17658007542E+04  0.17658007542E+04  0.50400001928E-02 0. -1.
    10030    2    1    2    0    0  0.00000000000E+00  0.00000000000E+00 -0.70484634679E+03  0.28267551617E+04  0.27374689718E+04 0.  0.
        1    1    3    3  502    0  0.81943290850E+03 -0.31737024829E+03 -0.14360505364E+04  0.16835781269E+04  0.50400001928E-02 0. -1.
       -1    1    3    3    0  502 -0.81943290850E+03  0.31737024829E+03  0.73120418963E+03  0.11431770348E+04  0.50400001928E-02 0.  1.
</event>
<event>
 5   0  0.3046300E-06  0.2708260E+04  0.7818609E-02  0.8332330E-01
       -1   -1    0    0    0  501  0.00000000000E+00  0.00000000000E+00  0.11143286272E+04  0.11143286273E+04  0.50400001928E-02 0.  1.
        1   -1    0    0  501    0  0.00000000000E+00  0.00000000000E+00 -0.16455364468E+04  0.16455364469E+04  0.50400001928E-02 0. -1.
    10030    2    1    2    0    0  0.00000000000E+00  0.00000000000E+00 -0.53120781960E+03  0.27598650741E+04  0.27082602312E+04 0.  0.
        2    1    3    3  502    0  0.15108547990E+03  0.38345709853E+03  0.10488589068E+04  0.11269299779E+04  0.25500000920E-02 0.  1.
       -2    1    3    3    0  502 -0.15108547990E+03 -0.38345709853E+03 -0.15800667264E+04  0.16329350962E+04  0.25500000920E-02 0. -1.
</event>
<event>
 5   0  0.7812908E-06  0.2640903E+04  0.7818609E-02  0.8354439E-01
        2   -1    0    0  501    0  0.00000000000E+00  0.00000000000E+00  0.99581265660E+03  0.99581265661E+03  0.25500000920E-02 0.  1.
       -2   -1    0    0    0  501  0.00000000000E+00  0.00000000000E+00 -0.17509242932E+04  0.17509242932E+04  0.25500000920E-02 0. -1.
    10030    2    1    2    0    0  0.00000000000E+00  0.00000000000E+00 -0.75511163655E+03  0.27467369498E+04  0.26409033090E+04 0.  0.
        5    1    3    3  502    0 -0.12209093565E+04  0.47626862878E+03 -0.54564625052E+03  0.14195785939E+04  0.46999998093E+01 0.  1.
       -5    1    3    3    0  502  0.12209093565E+04 -0.47626862878E+03 -0.20946538603E+03  0.13271583559E+04  0.46999998093E+01 0. -1.
</event>
<event>
 5   0  0.3199840E-06  0.2695907E+04  0.7818609E-02  0.8336334E-01
       -1   -1    0    0    0  501  0.00000000000E+00  0.00000000000E+00  0.21369216986E+04  0.21369216986E+04  0.50400001928E-02 0.  1.
        1   -1    0    0  501    0  0.00000000000E+00  0.00000000000E+00 -0.85027841330E+03  0.85027841332E+03  0.50400001928E-02 0. -1.
    10030    2    1    2    0    0  0.00000000000E+00  0.00000000000E+00  0.12866432853E+04  0.29872001120E+04  0.26959068169E+04 0.  0.
        1    1    3    3  502    0  0.16152708829E+03  0.12464010312E+03  0.21197137190E+04  0.21295098981E+04  0.50400001928E-02 0.  1.
       -1    1    3    3    0  502 -0.16152708829E+03 -0.12464010312E+03 -0.83307043364E+03  0.85769021389E+03  0.50400001928E-02 0. -1.
</event>
<event>
 5   0  0.7729970E-06  0.2700465E+04  0.7818609E-02  0.8334854E-01
       -2   -1    0    0    0  501  0.00000000000E+00  0.00000000000E+00  0.93616151347E+03  0.93616151347E+03  0.25500000920E-02 0. -1.
        2   -1    0    0  501    0  0.00000000000E+00  0.00000000000E+00 -0.19474496335E+04  0.19474496335E+04  0.25500000920E-02 0.  1.
    10030    2    1    2    0    0  0.00000000000E+00  0.00000000000E+00 -0.10112881200E+04  0.28836111470E+04  0.27004646980E+04 0.  0.
        4    1    3    3  502    0  0.20369113620E+03  0.12503547320E+04 -0.10044987649E+04  0.16167549030E+04  0.12699999809E+01 0.  1.
       -4    1    3    3    0  502 -0.20369113620E+03 -0.12503547320E+04 -0.67893551364E+01  0.12668562440E+04  0.12699999809E+01 0. -1.
</event>
<event>
 5   0  0.2654625E-06  0.2702587E+04  0.7818609E-02  0.8334166E-01
        3   -1    0    0  501    0  0.00000000000E+00  0.00000000000E+00  0.78564160934E+03  0.78564161583E+03  0.10100000352E+00 0. -1.
       -3   -1    0    0    0  501  0.00000000000E+00  0.00000000000E+00 -0.23242073373E+04  0.23242073394E+04  0.10100000352E+00 0.  1.
    10030    2    1    2    0    0  0.00000000000E+00  0.00000000000E+00 -0.15385657279E+04  0.31098489553E+04  0.27025869136E+04 0.  0.
        1    1    3    3  502    0  0.57519280038E+03  0.42317335470E+03 -0.20893602115E+04  0.22080191438E+04  0.50400001928E-02 0.  1.
       -1    1    3    3    0  502 -0.57519280038E+03 -0.42317335470E+03  0.55079448360E+03  0.90182981151E+03  0.50400001928E-02 0. -1.
</event>
<event>
 5   0  0.8213334E-06  0.2727619E+04  0.7818609E-02  0.8326099E-01
        2   -1    0    0  501    0  0.00000000000E+00  0.00000000000E+00  0.82908487809E+03  0.82908487809E+03  0.25500000920E-02 0.  1.
       -2   -1    0    0    0  501  0.00000000000E+00  0.00000000000E+00 -0.22434091431E+04  0.22434091431E+04  0.25500000920E-02 0. -1.
    10030    2    1    2    0    0  0.00000000000E+00  0.00000000000E+00 -0.14143242650E+04  0.30724940212E+04  0.27276191786E+04 0.  0.
        3    1    3    3  502    0  0.67878135829E+03 -0.11826144464E+04 -0.73600256788E+03  0.15495227818E+04  0.10100000352E+00 0.  1.
       -3    1    3    3    0  502 -0.67878135829E+03  0.11826144464E+04 -0.67832169712E+03  0.15229712394E+04  0.10100000352E+00 0. -1.
</event>
<event>
 5   0  0.7812908E-06  0.2709843E+04  0.7818609E-02  0.8331818E-01
       -2   -1    0    0    0  501  0.00000000000E+00  0.00000000000E+00  0.13938193955E+04  0.13938193955E+04  0.25500000920E-02 0. -1.
        2   -1    0    0  501    0  0.00000000000E+00  0.00000000000E+00 -0.13171086928E+04  0.13171086928E+04  0.25500000920E-02 0.  1.
    10030    2    1    2    0    0  0.00000000000E+00  0.00000000000E+00  0.76710702761E+02  0.27109280883E+04  0.27098425357E+04 0.  0.
        5    1    3    3  502    0  0.72349662447E+03  0.65171505517E+03  0.98086315606E+03  0.13821340382E+04  0.46999998093E+01 0. -1.
       -5    1    3    3    0  502 -0.72349662447E+03 -0.65171505517E+03 -0.90415245330E+03  0.13287940501E+04  0.46999998093E+01 0.  1.
</event>
<event>
 5   0  0.3028601E-06  0.2756646E+04  0.7818609E-02  0.8316856E-01
        1   -1    0    0  501    0  0.00000000000E+00  0.00000000000E+00  0.14668270925E+04  0.14668270925E+04  0.50400001928E-02 0. -1.
       -1   -1    0    0    0  501  0.00000000000E+00  0.00000000000E+00 -0.12951592916E+04  0.12951592916E+04  0.50400001928E-02 0.  1.
    10030    2    1    2    0    0  0.00000000000E+00  0.00000000000E+00  0.17166780087E+03  0.27619863841E+04  0.27566463234E+04 0.  0.
        3    1    3    3  502    0 -0.13312161524E+04  0.35690119249E+03  0.10198412399E+03  0.13819969890E+04  0.10100000352E+00 0. -1.
       -3    1    3    3    0  502  0.13312161524E+04 -0.35690119249E+03  0.69683676884E+02  0.13799893952E+04  0.10100000352E+00 0.  1.
</event>
<event>
 5   0  0.7838364E-06  0.2677818E+04  0.7818609E-02  0.8342238E-01
       -2   -1    0    0    0  501  0.00000000000E+00  0.00000000000E+00  0.15108959574E+04  0.15108959574E+04  0.25500000920E-02 0.  1.
        2   -1    0    0  501    0  0.00000000000E+00  0.00000000000E+00 -0.11864991015E+04  0.11864991015E+04  0.25500000920E-02 0. -1.
    10030    2    1    2    0    0  0.00000000000E+00  0.00000000000E+00  0.32439685589E+03  0.26973950588E+04  0.26778175411E+04 0.  0.
        2    1    3    3  502    0  0.53811722555E+03 -0.11443341071E+03  0.13917829618E+04  0.14965710697E+04  0.25500000920E-02 0.  1.
       -2    1    3    3    0  502 -0.53811722555E+03  0.11443341071E+03 -0.10673861059E+04  0.12008239892E+04  0.25500000920E-02 0. -1.
</event>
<event>
 5   0  0.7729970E-06  0.2670102E+04  0.7818609E-02  0.8344771E-01
       -2   -1    0    0    0  501  0.00000000000E+00  0.00000000000E+00  0.14381938996E+04  0.14381938997E+04  0.25500000920E-02 0. -1.
        2   -1    0    0  501    0  0.00000000000E+00  0.00000000000E+00 -0.12393055193E+04  0.12393055193E+04  0.25500000920E-02 0.  1.
    10030    2    1    2    0    0  0.00000000000E+00  0.00000000000E+00  0.19888838038E+03  0.26774994189E+04  0.26701023483E+04 0.  0.
        4    1    3    3  502    0 -0.32109649703E+02  0.11559851229E+04  0.76839602225E+03  0.13884403818E+04  0.12699999809E+01 0. -1.
       -4    1    3    3    0  502  0.32109649703E+02 -0.11559851229E+04 -0.56950764187E+03  0.12890590371E+04  0.12699999809E+01 0.  1.
</event>
<event>
 5   0  0.7729970E-06  0.2575489E+04  0.7818609E-02  0.8376575E-01
       -2   -1    0    0    0  501  0.00000000000E+00  0.00000000000E+00  0.99171793224E+03  0.99171793224E+03  0.25500000920E-02 0.  1.
        2   -1    0    0  501    0  0.00000000000E+00  0.00000000000E+00 -0.16721344640E+04  0.16721344640E+04  0.25500000920E-02 0. -1.
    10030    2    1    2    0    0  0.00000000000E+00  0.00000000000E+00 -0.68041653176E+03  0.26638523962E+04  0.25754888725E+04 0.  0.
        4    1    3    3  502    0 -0.39371632780E+03  0.10991752402E+04 -0.90206334898E+03  0.14754384616E+04  0.12699999809E+01 0.  1.
       -4    1    3    3    0  502  0.39371632780E+03 -0.10991752402E+04  0.22164681722E+03  0.11884139346E+04  0.12699999809E+01 0. -1.
</event>
<event>
 5   0  0.3013407E-06  0.2673418E+04  0.7818609E-02  0.8343682E-01
        1   -1    0    0  501    0  0.00000000000E+00  0.00000000000E+00  0.14673573027E+04  0.14673573027E+04  0.50400001928E-02 0. -1.
       -1   -1    0    0    0  501  0.00000000000E+00  0.00000000000E+00 -0.12176928853E+04  0.12176928853E+04  0.50400001928E-02 0.  1.
    10030    2    1    2    0    0  0.00000000000E+00  0.00000000000E+00  0.24966441739E+03  0.26850501881E+04  0.26734176986E+04 0.  0.
        4    1    3    3  502    0 -0.76186385916E+03 -0.96037703956E+03  0.66009422331E+03  0.13922954408E+04  0.12699999809E+01 0.  1.
       -4    1    3    3    0  502  0.76186385916E+03  0.96037703956E+03 -0.41042980592E+03  0.12927547472E+04  0.12699999809E+01 0. -1.
</event>
<event>
 5   0  0.3089218E-06  0.2746092E+04  0.7818609E-02  0.8320203E-01
       -1   -1    0    0    0  501  0.00000000000E+00  0.00000000000E+00  0.11981361997E+04  0.11981361997E+04  0.50400001928E-02 0. -1.
        1   -1    0    0  501    0  0.00000000000E+00  0.00000000000E+00 -0.15734902969E+04  0.15734902969E+04  0.50400001928E-02 0.  1.
    10030    2    1    2    0    0  0.00000000000E+00  0.00000000000E+00 -0.37535409725E+03  0.27716264966E+04  0.27460922669E+04 0.  0.
        5    1    3    3  502    0 -0.56244797149E+03 -0.89416011892E+03 -0.10729666937E+04  0.15057056999E+04  0.46999998093E+01 0.  1.
       -5    1    3    3    0  502  0.56244797149E+03  0.89416011892E+03  0.69761259644E+03  0.12659207967E+04  0.46999998093E+01 0. -1.
</event>
<event>
 5   0  0.3199840E-06  0.2699651E+04  0.7818609E-02  0.8335118E-01
        1   -1    0    0  501    0  0.00000000000E+00  0.00000000000E+00  0.88679220872E+03  0.88679220873E+03  0.50400001928E-02 0.  1.
       -1   -1    0    0    0  501  0.00000000000E+00  0.00000000000E+00 -0.20546293495E+04  0.20546293495E+04  0.50400001928E-02 0. -1.
    10030    2    1    2    0    0  0.00000000000E+00  0.00000000000E+00 -0.11678371407E+04  0.29414215582E+04  0.26996513100E+04 0.  0.
        1    1    3    3  502    0  0.13015462605E+04 -0.23359809885E+03 -0.87918336685E+03  0.15879402169E+04  0.50400001928E-02 0. -1.
       -1    1    3    3    0  502 -0.13015462605E+04  0.23359809885E+03 -0.28865377389E+03  0.13534813413E+04  0.50400001928E-02 0.  1.
</event>
<event>
 5   0  0.3013407E-06  0.2694358E+04  0.7818609E-02  0.8336838E-01
       -1   -1    0    0    0  501  0.00000000000E+00  0.00000000000E+00  0.11392142439E+04  0.11392142439E+04  0.50400001928E-02 0. -1.
        1   -1    0    0  501    0  0.00000000000E+00  0.00000000000E+00 -0.15931082947E+04  0.15931082947E+04  0.50400001928E-02 0.  1.
    10030    2    1    2    0    0  0.00000000000E+00  0.00000000000E+00 -0.45389405084E+03  0.27323225386E+04  0.26943582994E+04 0.  0.
        4    1    3    3  502    0 -0.20887831391E+03 -0.73896764885E+03  0.89553076143E+03  0.11796950003E+04  0.12699999809E+01 0. -1.
       -4    1    3    3    0  502  0.20887831391E+03  0.73896764885E+03 -0.13494248123E+04  0.15526275384E+04  0.12699999809E+01 0.  1.
</event>
<event>
 5   0  0.3199840E-06  0.2721527E+04  0.7818609E-02  0.8328054E-01
        1   -1    0    0  501    0  0.00000000000E+00  0.00000000000E+00  0.17688880835E+04  0.17688880835E+04  0.50400001928E-02 0.  1.
       -1   -1    0    0    0  501  0.00000000000E+00  0.00000000000E+00 -0.10468027900E+04  0.10468027900E+04  0.50400001928E-02 0. -1.
    10030    2    1    2    0    0  0.00000000000E+00  0.00000000000E+00  0.72208529356E+03  0.28156908735E+04  0.27215267634E+04 0.  0.
        1    1    3    3  502    0 -0.86414642231E+03  0.10138332824E+04  0.64826292031E+03  0.14815032155E+04  0.50400001928E-02 0.  1.
       -1    1    3    3    0  502  0.86414642231E+03 -0.10138332824E+04  0.73822373250E+02  0.13341876579E+04  0.50400001928E-02 0. -1.
</event>
<event>
 5   0  0.7838364E-06  0.2670933E+04  0.7818609E-02  0.8344498E-01
       -2   -1    0    0    0  501  0.00000000000E+00  0.00000000000E+00  0.83485369392E+03  0.83485369392E+03  0.25500000920E-02 0. -1.
        2   -1    0    0  501    0  0.00000000000E+00  0.00000000000E+00 -0.21362681993E+04  0.21362681993E+04  0.25500000920E-02 0.  1.
    10030    2    1    2    0    0  0.00000000000E+00  0.00000000000E+00 -0.13014145054E+04  0.29711218932E+04  0.26709334678E+04 0.  0.
        2    1    3    3  502    0 -0.10997081072E+04 -0.31212454604E+03  0.11731926423E+03  0.11491490169E+04  0.25500000920E-02 0.  1.
       -2    1    3    3    0  502  0.10997081072E+04  0.31212454604E+03 -0.14187337696E+04  0.18219728764E+04  0.25500000920E-02 0. -1.
</event>
<event>
 5   0  0.3013407E-06  0.2723168E+04  0.7818609E-02  0.8327527E-01
       -1   -1    0    0    0  501  0.00000000000E+00  0.00000000000E+00  0.90774149410E+03  0.90774149411E+03  0.50400001928E-02 0. -1.
        1   -1    0    0  501    0  0.00000000000E+00  0.00000000000E+00 -0.20423331902E+04  0.20423331902E+04  0.50400001928E-02 0.  1.
    10030    2    1    2    0    0  0.00000000000E+00  0.00000000000E+00 -0.11345916961E+04  0.29500746843E+04  0.27231677007E+04 0.  0.
        4    1    3    3  502    0  0.94922682742E+02  0.57475805230E+03  0.76592069556E+03  0.96228543539E+03  0.12699999809E+01 0. -1.
       -4    1    3    3    0  502 -0.94922682742E+02 -0.57475805230E+03 -0.19005123917E+04  0.19877892489E+04  0.12699999809E+01 0.  1.
</event>
<event>
 5   0  0.7838364E-06  0.2581615E+04  0.7818609E-02  0.8374473E-01
        2   -1    0    0  501    0  0.00000000000E+00  0.00000000000E+00  0.13074151685E+04  0.13074151685E+04  0.25500000920E-02 0.  1.
       -2   -1    0    0    0  501  0.00000000000E+00  0.00000000000E+00 -0.12744103023E+04  0.12744103023E+04  0.25500000920E-02 0. -1.
    10030    2    1    2    0    0  0.00000000000E+00  0.00000000000E+00  0.33004866199E+02  0.25818254708E+04  0.25816145026E+04 0.  0.
        2    1    3    3  502    0 -0.66614047634E+03 -0.10691322915E+04  0.29829907266E+03  0.12945150937E+04  0.25500000920E-02 0.  1.
       -2    1    3    3    0  502  0.66614047634E+03  0.10691322915E+04 -0.26529420646E+03  0.12873103771E+04  0.25500000920E-02 0. -1.
</event>
<event>
 5   0  0.3199840E-06  0.2710394E+04  0.7818609E-02  0.8331640E-01
       -1   -1    0    0    0  501  0.00000000000E+00  0.00000000000E+00  0.15809540949E+04  0.15809540949E+04  0.50400001928E-02 0. -1.
        1   -1    0    0  501    0  0.00000000000E+00  0.00000000000E+00 -0.11616774104E+04  0.11616774104E+04  0.50400001928E-02 0.  1.
    10030    2    1    2    0    0  0.00000000000E+00  0.00000000000E+00  0.41927668453E+03  0.27426315054E+04  0.27103938157E+04 0.  0.
        1    1    3    3  502    0 -0.14666536907E+03 -0.71373248711E+03  0.13658724220E+04  0.15480737278E+04  0.50400001928E-02 0. -1.
       -1    1    3    3    0  502  0.14666536907E+03  0.71373248711E+03 -0.94659573746E+03  0.11945577775E+04  0.50400001928E-02 0.  1.
</event>
<event>
 5   0  0.3028601E-06  0.2704787E+04  0.7818609E-02  0.8333453E-01
       -1   -1    0    0    0  501  0.00000000000E+00  0.00000000000E+00  0.10628449192E+04  0.10628449192E+04  0.50400001928E-02 0. -1.
        1   -1    0    0  501    0  0.00000000000E+00  0.00000000000E+00 -0.17208237057E+04  0.17208237057E+04  0.50400001928E-02 0.  1.
    10030    2    1    2    0    0  0.00000000000E+00  0.00000000000E+00 -0.65797878653E+03  0.27836686249E+04  0.27047874093E+04 0.  0.
        3    1    3    3  502    0  0.75163430834E+03  0.92196156710E+03 -0.99118353358E+03  0.15483578631E+04  0.10100000352E+00 0.  1.
       -3    1    3    3    0  502 -0.75163430834E+03 -0.92196156710E+03  0.33320474705E+03  0.12353107618E+04  0.10100000352E+00 0. -1.
</event>
<event>
 5   0  0.7838364E-06  0.2626734E+04  0.7818609E-02  0.8359176E-01
       -2   -1    0    0    0  501  0.00000000000E+00  0.00000000000E+00  0.12325997565E+04  0.12325997565E+04  0.25500000920E-02 0.  1.
        2   -1    0    0  501    0  0.00000000000E+00  0.00000000000E+00 -0.13994271214E+04  0.13994271214E+04  0.25500000920E-02 0. -1.
    10030    2    1    2    0    0  0.00000000000E+00  0.00000000000E+00 -0.16682736490E+03  0.26320268778E+04  0.26267344967E+04 0.  0.
        2    1    3    3  502    0 -0.94660113305E+03 -0.54674891188E+03 -0.81285393736E+03  0.13622479955E+04  0.25500000920E-02 0. -1.
       -2    1    3    3    0  502  0.94660113305E+03  0.54674891188E+03  0.64602657246E+03  0.12697788824E+04  0.25500000920E-02 0.  1.
</event>
<event>
 5   0  0.8213334E-06  0.2709143E+04  0.7818609E-02  0.8332044E-01
       -2   -1    0    0    0  501  0.00000000000E+00  0.00000000000E+00  0.97486460207E+03  0.97486460207E+03  0.25500000920E-02 0. -1.
        2   -1    0    0  501    0  0.00000000000E+00  0.00000000000E+00 -0.18821732384E+04  0.18821732384E+04  0.25500000920E-02 0.  1.
    10030    2    1    2    0    0  0.00000000000E+00  0.00000000000E+00 -0.90730863636E+03  0.28570378405E+04  0.27091430860E+04 0.  0.
        3    1    3    3  502    0 -0.73238258472E+03  0.29495833733E+03 -0.16144133275E+04  0.17971408051E+04  0.10100000352E+00 0.  1.
       -3    1    3    3    0  502  0.73238258472E+03 -0.29495833733E+03  0.70710469115E+03  0.10598970354E+04  0.10100000352E+00 0. -1.
</event>
<event>
 5   0  0.7812908E-06  0.2708960E+04  0.7818609E-02  0.8332104E-01
       -2   -1    0    0    0  501  0.00000000000E+00  0.00000000000E+00  0.83577531393E+03  0.83577531394E+03  0.25500000920E-02 0. -1.
        2   -1    0    0  501    0  0.00000000000E+00  0.00000000000E+00 -0.21951068550E+04  0.21951068550E+04  0.25500000920E-02 0.  1.
    10030    2    1    2    0    0  0.00000000000E+00  0.00000000000E+00 -0.13593315411E+04  0.30308821689E+04  0.27089600373E+04 0.  0.
        5    1    3    3  502    0  0.72058980374E+03  0.85564447381E+03  0.17477409785E+03  0.11322301913E+04  0.46999998093E+01 0. -1.
       -5    1    3    3    0  502 -0.72058980374E+03 -0.85564447381E+03 -0.15341056389E+04  0.18986519776E+04  0.46999998093E+01 0.  1.
</event>
<event>
 5   0  0.3013407E-06  0.2688382E+04  0.7818609E-02  0.8338785E-01
       -1   -1    0    0    0  501  0.00000000000E+00  0.00000000000E+00  0.53278959364E+03  0.53278959367E+03  0.50400001928E-02 0.  1.
        1   -1    0    0  501    0  0.00000000000E+00  0.00000000000E+00 -0.33912992132E+04  0.33912992132E+04  0.50400001928E-02 0. -1.
    10030    2    1    2    0    0  0.00000000000E+00  0.00000000000E+00 -0.28585096196E+04  0.39240888069E+04  0.26883816171E+04 0.  0.
        4    1    3    3  502    0 -0.21223408696E+03  0.12564424914E+04 -0.80457306940E+03  0.15069938549E+04  0.12699999809E+01 0.  1.
       -4    1    3    3    0  502  0.21223408696E+03 -0.12564424914E+04 -0.20539365502E+04  0.24170949520E+04  0.12699999809E+01 0. -1.
</event>
<event>
 5   0  0.3199840E-06  0.2712789E+04  0.7818609E-02  0.8330867E-01
       -1   -1    0    0    0  501  0.00000000000E+00  0.00000000000E+00  0.98839915036E+03  0.98839915038E+03  0.50400001928E-02 0.  1.
        1   -1    0    0  501    0  0.00000000000E+00  0.00000000000E+00 -0.18613992319E+04  0.18613992320E+04  0.50400001928E-02 0. -1.
    10030    2    1    2    0    0  0.00000000000E+00  0.00000000000E+00 -0.87300008158E+03  0.28497983823E+04  0.27127885427E+04 0.  0.
        1    1    3    3  502    0  0.82273207632E+03 -0.95330581651E+03  0.93068533394E+02  0.12626724837E+04  0.50400001928E-02 0. -1.
       -1    1    3    3    0  502 -0.82273207632E+03  0.95330581651E+03 -0.96606861498E+03  0.15871258986E+04  0.50400001928E-02 0.  1.
</event>
<event>
 5   0  0.3028601E-06  0.2546109E+04  0.7818609E-02  0.8386741E-01
        1   -1    0    0  501    0  0.00000000000E+00  0.00000000000E+00  0.12519959867E+04  0.12519959867E+04  0.50400001928E-02 0.  1.
       -1   -1    0    0    0  501  0.00000000000E+00  0.00000000000E+00 -0.12944674827E+04  0.12944674827E+04  0.50400001928E-02 0. -1.
    10030    2    1    2    0    0  0.00000000000E+00  0.00000000000E+00 -0.42471495981E+02  0.25464634693E+04  0.25461092617E+04 0.  0.
        3    1    3    3  502    0  0.69200746637E+03  0.35985862755E+02  0.10468541898E+04  0.12554174687E+04  0.10100000352E+00 0.  1.
       -3    1    3    3    0  502 -0.69200746637E+03 -0.35985862755E+02 -0.10893256858E+04  0.12910460006E+04  0.10100000352E+00 0. -1.
</event>
<event>
 5   0  0.8213334E-06  0.2695332E+04  0.7818609E-02  0.8336521E-01
        2   -1    0    0  501    0  0.00000000000E+00  0.00000000000E+00  0.12153813006E+04  0.12153813006E+04  0.25500000920E-02 0.  1.
       -2   -1    0    0    0  501  0.00000000000E+00  0.00000000000E+00 -0.14943485008E+04  0.14943485008E+04  0.25500000920E-02 0. -1.
    10030    2    1    2    0    0  0.00000000000E+00  0.00000000000E+00 -0.27896720022E+03  0.27097298015E+04  0.26953316861E+04 0.  0.
        3    1    3    3  502    0  0.78535739346E+03  0.98867245560E+03 -0.61310927267E+03  0.14036247541E+04  0.10100000352E+00 0. -1.
       -3    1    3    3    0  502 -0.78535739346E+03 -0.98867245560E+03  0.33414207244E+03  0.13061050473E+04  0.10100000352E+00 0.  1.
</event>
<event>
 5   0  0.7838364E-06  0.2695516E+04  0.7818609E-02  0.8336461E-01
       -2   -1    0    0    0  501  0.00000000000E+00  0.00000000000E+00  0.13317510428E+04  0.13317510428E+04  0.25500000920E-02 0. -1.
        2   -1    0    0  501    0  0.00000000000E+00  0.00000000000E+00 -0.13639571655E+04  0.13639571655E+04  0.25500000920E-02 0.  1.
    10030    2    1    2    0    0  0.00000000000E+00  0.00000000000E+00 -0.32206122717E+02  0.26957082083E+04  0.26955158152E+04 0.  0.
        2    1    3    3  502    0 -0.10549099967E+03  0.11885562174E+04  0.61056527082E+03  0.13403671821E+04  0.25500000920E-02 0. -1.
       -2    1    3    3    0  502  0.10549099967E+03 -0.11885562174E+04 -0.64277139354E+03  0.13553410262E+04  0.25500000920E-02 0.  1.
</event>
<event>
 5   0  0.3046300E-06  0.2692437E+04  0.7818609E-02  0.8337463E-01
       -1   -1    0    0    0  501  0.00000000000E+00  0.00000000000E+00  0.10354822569E+04  0.10354822569E+04  0.50400001928E-02 0.  1.
        1   -1    0    0  501    0  0.00000000000E+00  0.00000000000E+00 -0.17502029561E+04  0.17502029561E+04  0.50400001928E-02 0. -1.
    10030    2    1    2    0    0  0.00000000000E+00  0.00000000000E+00 -0.71472069925E+03  0.27856852130E+04  0.26924368940E+04 0.  0.
        2    1    3    3  502    0  0.84701145576E+03  0.84666589251E+03 -0.99349801948E+03  0.15560558648E+04  0.25500000920E-02 0. -1.
       -2    1    3    3    0  502 -0.84701145576E+03 -0.84666589251E+03  0.27877732023E+03  0.12296293482E+04  0.25500000920E-02 0.  1.
</event>
<event>
 5   0  0.3046300E-06  0.2682427E+04  0.7818609E-02  0.8340729E-01
       -1   -1    0    0    0  501  0.00000000000E+00  0.00000000000E+00  0.76911633608E+03  0.76911633609E+03  0.50400001928E-02 0.  1.
        1   -1    0    0  501    0  0.00000000000E+00  0.00000000000E+00 -0.23388579623E+04  0.23388579624E+04  0.50400001928E-02 0. -1.
    10030    2    1    2    0    0  0.00000000000E+00  0.00000000000E+00 -0.15697416263E+04  0.31079742984E+04  0.26824271596E+04 0.  0.
        2    1    3    3  502    0  0.10518808104E+04  0.66602382134E+03 -0.20692659319E+03  0.12620854111E+04  0.25500000920E-02 0.  1.
       -2    1    3    3    0  502 -0.10518808104E+04 -0.66602382134E+03 -0.13628150331E+04  0.18458888873E+04  0.25500000920E-02 0. -1.
</event>
<event>
 5   0  0.7729970E-06  0.2688213E+04  0.7818609E-02  0.8338839E-01
        2   -1    0    0  501    0  0.00000000000E+00  0.00000000000E+00  0.14740822644E+04  0.14740822644E+04  0.25500000920E-02 0.  1.
       -2   -1    0    0    0  501  0.00000000000E+00  0.00000000000E+00 -0.12255914549E+04  0.12255914549E+04  0.25500000920E-02 0. -1.
    10030    2    1    2    0    0  0.00000000000E+00  0.00000000000E+00  0.24849080948E+03  0.26996737193E+04  0.26882132557E+04 0.  0.
        4    1    3    3  502    0  0.30484098834E+03 -0.12543941688E+04 -0.25176804165E+03  0.13152267936E+04  0.12699999809E+01 0. -1.
       -4    1    3    3    0  502 -0.30484098834E+03  0.12543941688E+04  0.50025885112E+03  0.13844469256E+04  0.12699999809E+01 0.  1.
</event>
<event>
 5   0  0.3028601E-06  0.2712917E+04  0.7818609E-02  0.8330826E-01
       -1   -1    0    0    0  501  0.00000000000E+00  0.00000000000E+00  0.91312502368E+03  0.91312502370E+03  0.50400001928E-02 0.  1.
        1   -1    0    0  501    0  0.00000000000E+00  0.00000000000E+00 -0.20150353926E+04  0.20150353926E+04  0.50400001928E-02 0. -1.
    10030    2    1    2    0    0  0.00000000000E+00  0.00000000000E+00 -0.11019103689E+04  0.29281604163E+04  0.27129166892E+04 0.  0.
        3    1    3    3  502    0  0.11112361320E+04 -0.67887852979E+03 -0.14100838001E+03  0.13098111210E+04  0.10100000352E+00 0.  1.
       -3    1    3    3    0  502 -0.11112361320E+04  0.67887852979E+03 -0.96090198887E+03  0.16183492953E+04  0.10100000352E+00 0. -1.
</event>
<event>
 5   0  0.8407622E-06  0.2699923E+04  0.7818609E-02  0.8335030E-01
        2   -1    0    0  501    0  0.00000000000E+00  0.00000000000E+00  0.14763207695E+04  0.14763207695E+04  0.25500000920E-02 0. -1.
       -2   -1    0    0    0  501  0.00000000000E+00  0.00000000000E+00 -0.12344174208E+04  0.12344174208E+04  0.25500000920E-02 0.  1.
    10030    2    1    2    0    0  0.00000000000E+00  0.00000000000E+00  0.24190334872E+03  0.27107381904E+04  0.26999230186E+04 0.  0.
        1    1    3    3  502    0 -0.70427283588E+03 -0.29157820343E+03 -0.99768284063E+03  0.12555433591E+04  0.50400001928E-02 0.  1.
       -1    1    3    3    0  502  0.70427283588E+03  0.29157820343E+03  0.12395861893E+04  0.14551948313E+04  0.50400001928E-02 0. -1.
</event>
<event>
 5   0  0.3046300E-06  0.2696365E+04  0.7818609E-02  0.8336185E-01
       -1   -1    0    0    0  501  0.00000000000E+00  0.00000000000E+00  0.12684196874E+04  0.12684196874E+04  0.50400001928E-02 0.  1.
        1   -1    0    0  501    0  0.00000000000E+00  0.00000000000E+00 -0.14329606961E+04  0.14329606961E+04  0.50400001928E-02 0. -1.
    10030    2    1    2    0    0  0.00000000000E+00  0.00000000000E+00 -0.16454100866E+03  0.27013803835E+04  0.26963646327E+04 0.  0.
        2    1    3    3  502    0  0.72438384414E+03  0.13759075621E+02  0.10568028055E+04  0.12813092662E+04  0.25500000920E-02 0.  1.
       -2    1    3    3    0  502 -0.72438384414E+03 -0.13759075621E+02 -0.12213438142E+04  0.14200711173E+04  0.25500000920E-02 0. -1.
</event>
<event>
 5   0  0.3013407E-06  0.2709380E+04  0.7818609E-02  0.8331968E-01
        1   -1    0    0  501    0  0.00000000000E+00  0.00000000000E+00  0.11959703716E+04  0.11959703716E+04  0.50400001928E-02 0.  1.
       -1   -1    0    0    0  501  0.00000000000E+00  0.00000000000E+00 -0.15344736050E+04  0.15344736050E+04  0.50400001928E-02 0. -1.
    10030    2    1    2    0    0  0.00000000000E+00  0.00000000000E+00 -0.33850323339E+03  0.27304439766E+04  0.27093799789E+04 0.  0.
        4    1    3    3  502    0  0.59212671042E+03  0.58771230560E+03 -0.12448654891E+04  0.14985698163E+04  0.12699999809E+01 0. -1.
       -4    1    3    3    0  502 -0.59212671042E+03 -0.58771230560E+03  0.90636225571E+03  0.12318741603E+04  0.12699999809E+01 0.  1.
</event>
<event>
 5   0  0.7729970E-06  0.2688019E+04  0.7818609E-02  0.8338903E-01
       -2   -1    0    0    0  501  0.00000000000E+00  0.00000000000E+00  0.14249423800E+04  0.14249423800E+04  0.25500000920E-02 0. -1.
        2   -1    0    0  501    0  0.00000000000E+00  0.00000000000E+00 -0.12676735958E+04  0.12676735958E+04  0.25500000920E-02 0.  1.
    10030    2    1    2    0    0  0.00000000000E+00  0.00000000000E+00  0.15726878416E+03  0.26926159759E+04  0.26880192192E+04 0.  0.
        4    1    3    3  502    0  0.85931892163E+03  0.88430741765E+03 -0.45700576134E+03  0.13150226222E+04  0.12699999809E+01 0.  1.
       -4    1    3    3    0  502 -0.85931892163E+03 -0.88430741765E+03  0.61427454551E+03  0.13775933537E+04  0.12699999809E+01 0. -1.
</event>
<event>
 5   0  0.7838364E-06  0.2695521E+04  0.7818609E-02  0.8336460E-01
        2   -1    0    0  501    0  0.00000000000E+00  0.00000000000E+00  0.17867485789E+04  0.17867485789E+04  0.25500000920E-02 0. -1.
       -2   -1    0    0    0  501  0.00000000000E+00  0.00000000000E+00 -0.10166277821E+04  0.10166277821E+04  0.25500000920E-02 0.  1.
    10030    2    1    2    0    0  0.00000000000E+00  0.00000000000E+00  0.77012079677E+03  0.28033763610E+04  0.26955209106E+04 0.  0.
        2    1    3    3  502    0 -0.74029383207E+03  0.38034802707E+03  0.14875518442E+04  0.17045556807E+04  0.25500000920E-02 0. -1.
       -2    1    3    3    0  502  0.74029383207E+03 -0.38034802707E+03 -0.71743104744E+03  0.10988206802E+04  0.25500000920E-02 0.  1.
</event>
<event>
 5   0  0.3089218E-06  0.2696792E+04  0.7818609E-02  0.8336047E-01
        1   -1    0    0  501    0  0.00000000000E+00  0.00000000000E+00  0.92952361051E+03  0.92952361052E+03  0.50400001928E-02 0.  1.
       -1   -1    0    0    0  501  0.00000000000E+00  0.00000000000E+00 -0.19560247322E+04  0.19560247322E+04  0.50400001928E-02 0. -1.
    10030    2    1    2    0    0  0.00000000000E+00  0.00000000000E+00 -0.10265011217E+04  0.28855483428E+04  0.26967915540E+04 0.  0.
        5    1    3    3  502    0 -0.65657858666E+03  0.11068541341E+04 -0.82682937180E+02  0.12896046188E+04  0.46999998093E+01 0.  1.
       -5    1    3    3    0  502  0.65657858666E+03 -0.11068541341E+04 -0.94381818455E+03  0.15959437240E+04  0.46999998093E+01 0. -1.
</event>
<event>
 5   0  0.7812908E-06  0.2660510E+04  0.7818609E-02  0.8347933E-01
       -2   -1    0    0    0  501  0.00000000000E+00  0.00000000000E+00  0.14424030274E+04  0.14424030274E+04  0.25500000920E-02 0. -1.
        2   -1    0    0  501    0  0.00000000000E+00  0.00000000000E+00 -0.12268261979E+04  0.12268261979E+04  0.25500000920E-02 0.  1.
    10030    2    1    2    0    0  0.00000000000E+00  0.00000000000E+00  0.21557682946E+03  0.26692292253E+04  0.26605095918E+04 0.  0.
        5    1    3    3  502    0 -0.47924006542E+03 -0.73042519111E+03  0.11142530762E+04  0.14159004230E+04  0.46999998093E+01 0. -1.
       -5    1    3    3    0  502  0.47924006542E+03  0.73042519111E+03 -0.89867624675E+03  0.12533288023E+04  0.46999998093E+01 0.  1.
</event>
<event>
 5   0  0.7838364E-06  0.2704678E+04  0.7818609E-02  0.8333489E-01
       -2   -1    0    0    0  501  0.00000000000E+00  0.00000000000E+00  0.93394765750E+03  0.93394765750E+03  0.25500000920E-02 0. -1.
        2   -1    0    0  501    0  0.00000000000E+00  0.00000000000E+00 -0.19581619053E+04  0.19581619053E+04  0.25500000920E-02 0.  1.
    10030    2    1    2    0    0  0.00000000000E+00  0.00000000000E+00 -0.10242142478E+04  0.28921095628E+04  0.27046779657E+04 0.  0.
        2    1    3    3  502    0  0.57724966115E+03 -0.11511285819E+04 -0.70567482369E+02  0.12896875408E+04  0.25500000920E-02 0.  1.
       -2    1    3    3    0  502 -0.57724966115E+03  0.11511285819E+04 -0.95364676547E+03  0.16024220220E+04  0.25500000920E-02 0. -1.
</event>
<event>
 5   0  0.3046300E-06  0.2706402E+04  0.7818609E-02  0.8332931E-01
        1   -1    0    0  501    0  0.00000000000E+00  0.00000000000E+00  0.12763590001E+04  0.12763590001E+04  0.50400001928E-02 0.  1.
       -1   -1    0    0    0  501  0.00000000000E+00  0.00000000000E+00 -0.14346696205E+04  0.14346696205E+04  0.50400001928E-02 0. -1.
    10030    2    1    2    0    0  0.00000000000E+00  0.00000000000E+00 -0.15831062040E+03  0.27110286205E+04  0.27064023959E+04 0.  0.
        2    1    3    3  502    0 -0.75787094122E+03 -0.48422950771E+03 -0.10919755693E+04  0.14146579882E+04  0.25500000920E-02 0. -1.
       -2    1    3    3    0  502  0.75787094122E+03  0.48422950771E+03  0.93366494885E+03  0.12963706323E+04  0.25500000920E-02 0.  1.
</event>
<event>
 5   0  0.3028601E-06  0.2700791E+04  0.7818609E-02  0.8334748E-01
       -1   -1    0    0    0  501  0.00000000000E+00  0.00000000000E+00  0.30049575138E+04  0.30049575138E+04  0.50400001928E-02 0. -1.
        1   -1    0    0  501    0  0.00000000000E+00  0.00000000000E+00 -0.60685330025E+03  0.60685330027E+03  0.50400001928E-02 0.  1.
    10030    2    1    2    0    0  0.00000000000E+00  0.00000000000E+00  0.23981042135E+04  0.36118108140E+04  0.27007912799E+04 0.  0.
        3    1    3    3  502    0 -0.10812474640E+04 -0.79157557833E+03  0.97575480898E+03  0.16576445434E+04  0.10100000352E+00 0. -1.
       -3    1    3    3    0  502  0.10812474640E+04  0.79157557833E+03  0.14223494045E+04  0.19541662707E+04  0.10100000352E+00 0.  1.
</event>
<event>
 5   0  0.8407622E-06  0.2827544E+04  0.7818609E-02  0.8294768E-01
        2   -1    0    0  501    0  0.00000000000E+00  0.00000000000E+00  0.25080607477E+04  0.25080607477E+04  0.25500000920E-02 0.  1.
       -2   -1    0    0    0  501  0.00000000000E+00  0.00000000000E+00 -0.79693114746E+03  0.79693114747E+03  0.25500000920E-02 0. -1.
    10030    2    1    2    0    0  0.00000000000E+00  0.00000000000E+00  0.17111296002E+04  0.33049918952E+04  0.28275443265E+04 0.  0.
        1    1    3    3  502    0  0.16307444678E+03  0.99434814833E+03 -0.30356681268E+03  0.10523660604E+04  0.50400001928E-02 0. -1.
       -1    1    3    3    0  502 -0.16307444678E+03 -0.99434814833E+03  0.20146964129E+04  0.22526258348E+04  0.50400001928E-02 0.  1.
</event>
<event>
 5   0  0.3028601E-06  0.2713972E+04  0.7818609E-02  0.8330486E-01
       -1   -1    0    0    0  501  0.00000000000E+00  0.00000000000E+00  0.17035068875E+04  0.17035068875E+04  0.50400001928E-02 0. -1.
        1   -1    0    0  501    0  0.00000000000E+00  0.00000000000E+00 -0.10809534243E+04  0.10809534243E+04  0.50400001928E-02 0.  1.
    10030    2    1    2    0    0  0.00000000000E+00  0.00000000000E+00  0.62255346318E+03  0.27844603118E+04  0.27139724415E+04 0.  0.
        3    1    3    3  502    0 -0.81130496163E+03  0.10841120411E+04  0.22010401933E+03  0.13718456356E+04  0.10100000352E+00 0.  1.
       -3    1    3    3    0  502  0.81130496163E+03 -0.10841120411E+04  0.40244944385E+03  0.14126146762E+04  0.10100000352E+00 0. -1.
</event>
<event>
 5   0  0.7838364E-06  0.2705787E+04  0.7818609E-02  0.8333130E-01
       -2   -1    0    0    0  501  0.00000000000E+00  0.00000000000E+00  0.10903214578E+04  0.10903214578E+04  0.25500000920E-02 0. -1.
        2   -1    0    0  501    0  0.00000000000E+00  0.00000000000E+00 -0.16786985249E+04  0.16786985249E+04  0.25500000920E-02 0.  1.
    10030    2    1    2    0    0  0.00000000000E+00  0.00000000000E+00 -0.58837706714E+03  0.27690199827E+04  0.27057871482E+04 0.  0.
        2    1    3    3  502    0 -0.92774158333E+03 -0.63750685816E+03  0.47381707865E+03  0.12213198040E+04  0.25500000920E-02 0. -1.
       -2    1    3    3    0  502  0.92774158333E+03  0.63750685816E+03 -0.10621941458E+04  0.15477001787E+04  0.25500000920E-02 0.  1.
</event>
<event>
 5   0  0.8213334E-06  0.2714348E+04  0.7818609E-02  0.8330365E-01
        2   -1    0    0  501    0  0.00000000000E+00  0.00000000000E+00  0.15777923549E+04  0.15777923549E+04  0.25500000920E-02 0. -1.
       -2   -1    0    0    0  501  0.00000000000E+00  0.00000000000E+00 -0.11674038442E+04  0.11674038442E+04  0.25500000920E-02 0.  1.
    10030    2    1    2    0    0  0.00000000000E+00  0.00000000000E+00  0.41038851071E+03  0.27451961991E+04  0.27143477010E+04 0.  0.
        3    1    3    3  502    0 -0.13117835297E+04  0.16073555960E+03  0.51742426452E+03  0.14192744021E+04  0.10100000352E+00 0. -1.
       -3    1    3    3    0  502  0.13117835297E+04 -0.16073555960E+03 -0.10703575381E+03  0.13259217969E+04  0.10100000352E+00 0.  1.
</event>
<event>
 5   0  0.8407622E-06  0.2698812E+04  0.7818609E-02  0.8335391E-01
       -2   -1    0    0    0  501  0.00000000000E+00  0.00000000000E+00  0.13925458213E+04  0.13925458213E+04  0.25500000920E-02 0.  1.
        2   -1    0    0  501    0  0.00000000000E+00  0.00000000000E+00 -0.13076026467E+04  0.13076026467E+04  0.25500000920E-02 0. -1.
    10030    2    1    2    0    0  0.00000000000E+00  0.00000000000E+00  0.84943174586E+02  0.27001484680E+04  0.26988120361E+04 0.  0.
        1    1    3    3  502    0  0.44685150091E+03  0.84820523636E+03 -0.90761342670E+03  0.13201857897E+04  0.50400001928E-02 0. -1.
       -1    1    3    3    0  502 -0.44685150091E+03 -0.84820523636E+03  0.99255660129E+03  0.13799626784E+04  0.50400001928E-02 0.  1.
</event>
<event>
 5   0  0.7812908E-06  0.2698905E+04  0.7818609E-02  0.8335360E-01
       -2   -1    0    0    0  501  0.00000000000E+00  0.00000000000E+00  0.14953008550E+04  0.14953008550E+04  0.25500000920E-02 0. -1.
        2   -1    0    0  501    0  0.00000000000E+00  0.00000000000E+00 -0.12178299486E+04  0.12178299486E+04  0.25500000920E-02 0.  1.
    10030    2    1    2    0    0  0.00000000000E+00  0.00000000000E+00  0.27747090637E+03  0.27131308036E+04  0.26989050842E+04 0.  0.
        5    1    3    3  502    0 -0.76735925166E+03  0.28314316601E+03  0.12177006532E+04  0.14669107827E+04  0.46999998093E+01 0. -1.
       -5    1    3    3    0  502  0.76735925166E+03 -0.28314316601E+03 -0.94022974686E+03  0.12462200209E+04  0.46999998093E+01 0.  1.
</event>
<event>
 5   0  0.3013407E-06  0.2691282E+04  0.7818609E-02  0.8337839E-01
       -1   -1    0    0    0  501  0.00000000000E+00  0.00000000000E+00  0.90204956920E+03  0.90204956922E+03  0.50400001928E-02 0. -1.
        1   -1    0    0  501    0  0.00000000000E+00  0.00000000000E+00 -0.20073722486E+04  0.20073722486E+04  0.50400001928E-02 0.  1.
    10030    2    1    2    0    0  0.00000000000E+00  0.00000000000E+00 -0.11053226794E+04  0.29094218178E+04  0.26912816814E+04 0.  0.
        4    1    3    3  502    0  0.42920439827E+03  0.12342201775E+04 -0.20532175563E+03  0.13227526217E+04  0.12699999809E+01 0. -1.
       -4    1    3    3    0  502 -0.42920439827E+03 -0.12342201775E+04 -0.90000092379E+03  0.15866691961E+04  0.12699999809E+01 0.  1.
</event>
<event>
 5   0  0.3089218E-06  0.2688011E+04  0.7818609E-02  0.8338905E-01
       -1   -1    0    0    0  501  0.00000000000E+00  0.00000000000E+00  0.10382739055E+04  0.10382739056E+04  0.50400001928E-02 0.  1.
        1   -1    0    0  501    0  0.00000000000E+00  0.00000000000E+00 -0.17397638956E+04  0.17397638956E+04  0.50400001928E-02 0. -1.
    10030    2    1    2    0    0  0.00000000000E+00  0.00000000000E+00 -0.70148999005E+03  0.27780378011E+04  0.26880114989E+04 0.  0.
        5    1    3    3  502    0 -0.80469942924E+02 -0.29829187974E+03 -0.17025569535E+04  0.17303686680E+04  0.46999998093E+01 0. -1.
       -5    1    3    3    0  502  0.80469942924E+02  0.29829187974E+03  0.10010669635E+04  0.10476691332E+04  0.46999998093E+01 0.  1.
</event>
<event>
 5   0  0.7729970E-06  0.2702293E+04  0.7818609E-02  0.8334261E-01
       -2   -1    0    0    0  501  0.00000000000E+00  0.00000000000E+00  0.79969366532E+03  0.79969366533E+03  0.25500000920E-02 0. -1.
        2   -1    0    0  501    0  0.00000000000E+00  0.00000000000E+00 -0.22828697559E+04  0.22828697559E+04  0.25500000920E-02 0.  1.
    10030    2    1    2    0    0  0.00000000000E+00  0.00000000000E+00 -0.14831760906E+04  0.30825634212E+04  0.27022927173E+04 0.  0.
        4    1    3    3  502    0  0.92948430246E+03 -0.76292732899E+02  0.37365799512E+03  0.10046808249E+04  0.12699999809E+01 0. -1.
       -4    1    3    3    0  502 -0.92948430246E+03  0.76292732899E+02 -0.18568340857E+04  0.20778825964E+04  0.12699999809E+01 0.  1.
</event>
<event>
 5   0  0.3013407E-06  0.2717410E+04  0.7818609E-02  0.8329378E-01
        1   -1    0    0  501    0  0.00000000000E+00  0.00000000000E+00  0.19747207674E+04  0.19747207675E+04  0.50400001928E-02 0.  1.
       -1   -1    0    0    0  501  0.00000000000E+00  0.00000000000E+00 -0.93485598878E+03  0.93485598879E+03  0.50400001928E-02 0. -1.
    10030    2    1    2    0    0  0.00000000000E+00  0.00000000000E+00  0.10398647787E+04  0.29095767562E+04  0.27174101903E+04 0.  0.
        4    1    3    3  502    0  0.11196391514E+04  0.59958327437E+03  0.31121383537E+01  0.12700800095E+04  0.12699999809E+01 0.  1.
       -4    1    3    3    0  502 -0.11196391514E+04 -0.59958327437E+03  0.10367526403E+04  0.16394967467E+04  0.12699999809E+01 0. -1.
</event>
<event>
 5   0  0.3028601E-06  0.2744582E+04  0.7818609E-02  0.8320683E-01
       -1   -1    0    0    0  501  0.00000000000E+00  0.00000000000E+00  0.95566080188E+03  0.95566080189E+03  0.50400001928E-02 0. -1.
        1   -1    0    0  501    0  0.00000000000E+00  0.00000000000E+00 -0.19705547370E+04  0.19705547370E+04  0.50400001928E-02 0.  1.
    10030    2    1    2    0    0  0.00000000000E+00  0.00000000000E+00 -0.10148939351E+04  0.29262155389E+04  0.27445815128E+04 0.  0.
        3    1    3    3  502    0 -0.90524615504E+03 -0.99117907073E+03 -0.81140220092E+03  0.15685280021E+04  0.10100000352E+00 0.  1.
       -3    1    3    3    0  502  0.90524615504E+03  0.99117907073E+03 -0.20349173418E+03  0.13576875368E+04  0.10100000352E+00 0. -1.
</event>
<event>
 5   0  0.8407622E-06  0.2698565E+04  0.7818609E-02  0.8335471E-01
       -2   -1    0    0    0  501  0.00000000000E+00  0.00000000000E+00  0.10429234943E+04  0.10429234943E+04  0.25500000920E-02 0. -1.
        2   -1    0    0  501    0  0.00000000000E+00  0.00000000000E+00 -0.17456343497E+04  0.17456343497E+04  0.25500000920E-02 0.  1.
    10030    2    1    2    0    0  0.00000000000E+00  0.00000000000E+00 -0.70271085539E+03  0.27885578440E+04  0.26985648599E+04 0.  0.
        1    1    3    3  502    0 -0.26057904364E+03  0.28103365468E+03 -0.16882071306E+04  0.17311628083E+04  0.50400001928E-02 0.  1.
       -1    1    3    3    0  502  0.26057904364E+03 -0.28103365468E+03  0.98549627519E+03  0.10573950357E+04  0.50400001928E-02 0. -1.
</event>
<event>
 5   0  0.3089218E-06  0.2673353E+04  0.7818609E-02  0.8343703E-01
        1   -1    0    0  501    0  0.00000000000E+00  0.00000000000E+00  0.16234080923E+04  0.16234080923E+04  0.50400001928E-02 0.  1.
       -1   -1    0    0    0  501  0.00000000000E+00  0.00000000000E+00 -0.11005882606E+04  0.11005882607E+04  0.50400001928E-02 0. -1.
    10030    2    1    2    0    0  0.00000000000E+00  0.00000000000E+00  0.52281983161E+03  0.27239963529E+04  0.26733528675E+04 0.  0.
        5    1    3    3  502    0 -0.23149549071E+03 -0.13055371069E+04  0.88896683400E+02  0.13288875084E+04  0.46999998093E+01 0. -1.
       -5    1    3    3    0  502  0.23149549071E+03  0.13055371069E+04  0.43392314821E+03  0.13951088445E+04  0.46999998093E+01 0.  1.
</event>
<event>
 5   0  0.7729970E-06  0.2734321E+04  0.7818609E-02  0.8323954E-01
        2   -1    0    0  501    0  0.00000000000E+00  0.00000000000E+00  0.13154995250E+04  0.13154995250E+04  0.25500000920E-02 0. -1.
       -2   -1    0    0    0  501  0.00000000000E+00  0.00000000000E+00 -0.14208502207E+04  0.14208502207E+04  0.25500000920E-02 0.  1.
    10030    2    1    2    0    0  0.00000000000E+00  0.00000000000E+00 -0.10535069571E+03  0.27363497456E+04  0.27343209690E+04 0.  0.
        4    1    3    3  502    0 -0.27133573251E+03  0.85758440394E+03  0.97767688284E+03  0.13285058486E+04  0.12699999809E+01 0. -1.
       -4    1    3    3    0  502  0.27133573251E+03 -0.85758440394E+03 -0.10830275785E+04  0.14078438970E+04  0.12699999809E+01 0.  1.
</event>
<event>
 5   0  0.8407622E-06  0.2696336E+04  0.7818609E-02  0.8336195E-01
        2   -1    0    0  501    0  0.00000000000E+00  0.00000000000E+00  0.18907765568E+04  0.18907765568E+04  0.25500000920E-02 0. -1.
       -2   -1    0    0    0  501  0.00000000000E+00  0.00000000000E+00 -0.96127510236E+03  0.96127510236E+03  0.25500000920E-02 0.  1.
    10030    2    1    2    0    0  0.00000000000E+00  0.00000000000E+00  0.92950145448E+03  0.28520516592E+04  0.26963356084E+04 0.  0.
        1    1    3    3  502    0  0.38543144512E+03  0.36206383401E+03  0.17764936593E+04  0.18535310465E+04  0.50400001928E-02 0. -1.
       -1    1    3    3    0  502 -0.38543144512E+03 -0.36206383401E+03 -0.84699220486E+03  0.99852061266E+03  0.50400001928E-02 0.  1.
</event>
<event>
 5   0  0.8213334E-06  0.2687556E+04  0.7818609E-02  0.8339054E-01
        2   -1    0    0  501    0  0.00000000000E+00  0.00000000000E+00  0.14049296282E+04  0.14049296282E+04  0.25500000920E-02 0. -1.
       -2   -1    0    0    0  501  0.00000000000E+00  0.00000000000E+00 -0.12852884846E+04  0.12852884846E+04  0.25500000920E-02 0.  1.
    10030    2    1    2    0    0  0.00000000000E+00  0.00000000000E+00  0.11964114357E+03  0.26902181128E+04  0.26875564164E+04 0.  0.
        3    1    3    3  502    0 -0.12162366413E+04  0.91157060739E+02 -0.50482911726E+03  0.13199975853E+04  0.10100000352E+00 0.  1.
       -3    1    3    3    0  502  0.12162366413E+04 -0.91157060739E+02  0.62447026083E+03  0.13702205276E+04  0.10100000352E+00 0. -1.
</event>
<event>
 5   0  0.7838364E-06  0.2686879E+04  0.7818609E-02  0.8339275E-01
        2   -1    0    0  501    0  0.00000000000E+00  0.00000000000E+00  0.13430045019E+04  0.13430045019E+04  0.25500000920E-02 0.  1.
       -2   -1    0    0    0  501  0.00000000000E+00  0.00000000000E+00 -0.13438743672E+04  0.13438743672E+04  0.25500000920E-02 0. -1.
    10030    2    1    2    0    0  0.00000000000E+00  0.00000000000E+00 -0.86986538702E+00  0.26868788691E+04  0.26868787283E+04 0.  0.
        2    1    3    3  502    0  0.84049965212E+03 -0.96921948690E+03  0.39831719935E+03  0.13433103403E+04  0.25500000920E-02 0. -1.
       -2    1    3    3    0  502 -0.84049965212E+03  0.96921948690E+03 -0.39918706474E+03  0.13435685288E+04  0.25500000920E-02 0.  1.
</event>
<event>
 5   0  0.8407622E-06  0.2699949E+04  0.7818609E-02  0.8335022E-01
       -2   -1    0    0    0  501  0.00000000000E+00  0.00000000000E+00  0.92594676202E+03  0.92594676202E+03  0.25500000920E-02 0. -1.
        2   -1    0    0  501    0  0.00000000000E+00  0.00000000000E+00 -0.19681810692E+04  0.19681810692E+04  0.25500000920E-02 0.  1.
    10030    2    1    2    0    0  0.00000000000E+00  0.00000000000E+00 -0.10422343072E+04  0.28941278313E+04  0.26999488055E+04 0.  0.
        1    1    3    3  502    0 -0.61146764569E+03 -0.11394221195E+04 -0.93662313721E+03  0.15966960730E+04  0.50400001928E-02 0.  1.
       -1    1    3    3    0  502  0.61146764569E+03  0.11394221195E+04 -0.10561117000E+03  0.12974317583E+04  0.50400001928E-02 0. -1.
</event>
<event>
 5   0  0.7812908E-06  0.2680490E+04  0.7818609E-02  0.8341363E-01
       -2   -1    0    0    0  501  0.00000000000E+00  0.00000000000E+00  0.14046409829E+04  0.14046409829E+04  0.25500000920E-02 0.  1.
        2   -1    0    0  501    0  0.00000000000E+00  0.00000000000E+00 -0.12788015260E+04  0.12788015260E+04  0.25500000920E-02 0. -1.
    10030    2    1    2    0    0  0.00000000000E+00  0.00000000000E+00  0.12583945696E+03  0.26834425089E+04  0.26804902779E+04 0.  0.
        5    1    3    3  502    0 -0.80188466195E+03  0.19637631319E+03  0.11198534693E+04  0.13912859340E+04  0.46999998093E+01 0.  1.
       -5    1    3    3    0  502  0.80188466195E+03 -0.19637631319E+03 -0.99401401232E+03  0.12921565749E+04  0.46999998093E+01 0. -1.
</event>
<event>
 5   0  0.7838364E-06  0.2686251E+04  0.7818609E-02  0.8339480E-01
        2   -1    0    0  501    0  0.00000000000E+00  0.00000000000E+00  0.19101421381E+04  0.19101421381E+04  0.25500000920E-02 0.  1.
       -2   -1    0    0    0  501  0.00000000000E+00  0.00000000000E+00 -0.94442540607E+03  0.94442540607E+03  0.25500000920E-02 0. -1.
    10030    2    1    2    0    0  0.00000000000E+00  0.00000000000E+00  0.96571673201E+03  0.28545675442E+04  0.26862514882E+04 0.  0.
        2    1    3    3  502    0 -0.37736718773E+03  0.12683453984E+04  0.23849149036E+03  0.13446130428E+04  0.25500000920E-02 0. -1.
       -2    1    3    3    0  502  0.37736718773E+03 -0.12683453984E+04  0.72722524165E+03  0.15099545013E+04  0.25500000920E-02 0.  1.
</event>
<event>
 5   0  0.3028601E-06  0.2697453E+04  0.7818609E-02  0.8335832E-01
       -1   -1    0    0    0  501  0.00000000000E+00  0.00000000000E+00  0.92683183451E+03  0.92683183452E+03  0.50400001928E-02 0. -1.
        1   -1    0    0  501    0  0.00000000000E+00  0.00000000000E+00 -0.19626682449E+04  0.19626682449E+04  0.50400001928E-02 0.  1.
    10030    2    1    2    0    0  0.00000000000E+00  0.00000000000E+00 -0.10358364103E+04  0.28895000794E+04  0.26974531766E+04 0.  0.
        3    1    3    3  502    0  0.43118394864E+03  0.64391125056E+03  0.66453919001E+03  0.10208592662E+04  0.10100000352E+00 0. -1.
       -3    1    3    3    0  502 -0.43118394864E+03 -0.64391125056E+03 -0.17003756004E+04  0.18686408132E+04  0.10100000352E+00 0.  1.
</event>
<event>
 5   0  0.3199840E-06  0.2697278E+04  0.7818609E-02  0.8335889E-01
        1   -1    0    0  501    0  0.00000000000E+00  0.00000000000E+00  0.24611225031E+04  0.24611225031E+04  0.50400001928E-02 0. -1.
       -1   -1    0    0    0  501  0.00000000000E+00  0.00000000000E+00 -0.73902327800E+03  0.73902327801E+03  0.50400001928E-02 0.  1.
    10030    2    1    2    0    0  0.00000000000E+00  0.00000000000E+00  0.17220992251E+04  0.32001457811E+04  0.26972777535E+04 0.  0.
        1    1    3    3  502    0  0.26094085737E+03 -0.13219261555E+04  0.79343395125E+03  0.15636867738E+04  0.50400001928E-02 0.  1.
       -1    1    3    3    0  502 -0.26094085737E+03  0.13219261555E+04  0.92866527386E+03  0.16364590073E+04  0.50400001928E-02 0. -1.
</event>
<event>
 5   0  0.7838364E-06  0.2693365E+04  0.7818609E-02  0.8337161E-01
        2   -1    0    0  501    0  0.00000000000E+00  0.00000000000E+00  0.11195927066E+04  0.11195927066E+04  0.25500000920E-02 0. -1.
       -2   -1    0    0    0  501  0.00000000000E+00  0.00000000000E+00 -0.16198333006E+04  0.16198333006E+04  0.25500000920E-02 0.  1.
    10030    2    1    2    0    0  0.00000000000E+00  0.00000000000E+00 -0.50024059404E+03  0.27394260071E+04  0.26933648466E+04 0.  0.
        2    1    3    3  502    0  0.85435066582E+03 -0.10402107866E+04 -0.29080447269E+03  0.13771422519E+04  0.25500000920E-02 0.  1.
       -2    1    3    3    0  502 -0.85435066582E+03  0.10402107866E+04 -0.20943612135E+03  0.13622837552E+04  0.25500000920E-02 0. -1.
</event>
<event>
 5   0  0.7812908E-06  0.2700641E+04  0.7818609E-02  0.8334797E-01
       -2   -1    0    0    0  501  0.00000000000E+00  0.00000000000E+00  0.92415961157E+03  0.92415961158E+03  0.25500000920E-02 0. -1.
        2   -1    0    0  501    0  0.00000000000E+00  0.00000000000E+00 -0.19729987924E+04  0.19729987924E+04  0.25500000920E-02 0.  1.
    10030    2    1    2    0    0  0.00000000000E+00  0.00000000000E+00 -0.10488391808E+04  0.28971584039E+04  0.27006412554E+04 0.  0.
        5    1    3    3  502    0  0.41971255872E+03 -0.12598389116E+04 -0.78717300381E+03  0.15437020901E+04  0.46999998093E+01 0. -1.
       -5    1    3    3    0  502 -0.41971255872E+03  0.12598389116E+04 -0.26166617697E+03  0.13534563138E+04  0.46999998093E+01 0.  1.
</event>
<event>
 5   0  0.7812908E-06  0.2686026E+04  0.7818609E-02  0.8339553E-01
       -2   -1    0    0    0  501  0.00000000000E+00  0.00000000000E+00  0.16251257637E+04  0.16251257637E+04  0.25500000920E-02 0. -1.
        2   -1    0    0  501    0  0.00000000000E+00  0.00000000000E+00 -0.11098734132E+04  0.11098734132E+04  0.25500000920E-02 0.  1.
    10030    2    1    2    0    0  0.00000000000E+00  0.00000000000E+00  0.51525235053E+03  0.27349991769E+04  0.26860259702E+04 0.  0.
        5    1    3    3  502    0  0.26148831975E+03 -0.70621780031E+03  0.13898999281E+04  0.15808110649E+04  0.46999998093E+01 0. -1.
       -5    1    3    3    0  502 -0.26148831975E+03  0.70621780031E+03 -0.87464757757E+03  0.11541881120E+04  0.46999998093E+01 0.  1.
</event>
<event>
 5   0  0.3013407E-06  0.2676697E+04  0.7818609E-02  0.8342606E-01
        1   -1    0    0  501    0  0.00000000000E+00  0.00000000000E+00  0.70421115129E+03  0.70421115131E+03  0.50400001928E-02 0. -1.
       -1   -1    0    0    0  501  0.00000000000E+00  0.00000000000E+00 -0.25435215539E+04  0.25435215539E+04  0.50400001928E-02 0.  1.
    10030    2    1    2    0    0  0.00000000000E+00  0.00000000000E+00 -0.18393104026E+04  0.32477327052E+04  0.26766966521E+04 0.  0.
        4    1    3    3  502    0  0.20702050971E+03 -0.11810546566E+03 -0.25175632291E+04  0.25288204005E+04  0.12699999809E+01 0.  1.
       -4    1    3    3    0  502 -0.20702050971E+03  0.11810546566E+03  0.67825282645E+03  0.71891230477E+03  0.12699999809E+01 0. -1.
</event>
<event>
 5   0  0.3089218E-06  0.2703255E+04  0.7818609E-02  0.8333949E-01
       -1   -1    0    0    0  501  0.00000000000E+00  0.00000000000E+00  0.27888382680E+04  0.27888382680E+04  0.50400001928E-02 0.  1.
        1   -1    0    0  501    0  0.00000000000E+00  0.00000000000E+00 -0.65507470649E+03  0.65507470651E+03  0.50400001928E-02 0. -1.
    10030    2    1    2    0    0  0.00000000000E+00  0.00000000000E+00  0.21337635615E+04  0.34439129745E+04  0.27032553782E+04 0.  0.
        5    1    3    3  502    0  0.27765073128E+03 -0.13058084300E+04  0.13360814599E+04  0.18887459707E+04  0.46999998093E+01 0.  1.
       -5    1    3    3    0  502 -0.27765073128E+03  0.13058084300E+04  0.79768210168E+03  0.15551670038E+04  0.46999998093E+01 0. -1.
</event>
<event>
 5   0  0.8407622E-06  0.2708900E+04  0.7818609E-02  0.8332123E-01
       -2   -1    0    0    0  501  0.00000000000E+00  0.00000000000E+00  0.15772808857E+04  0.15772808857E+04  0.25500000920E-02 0. -1.
        2   -1    0    0  501    0  0.00000000000E+00  0.00000000000E+00 -0.11630992336E+04  0.11630992336E+04  0.25500000920E-02 0.  1.
    10030    2    1    2    0    0  0.00000000000E+00  0.00000000000E+00  0.41418165214E+03  0.27403801193E+04  0.27088995473E+04 0.  0.
        1    1    3    3  502    0  0.44116841501E+03 -0.15895846091E+03 -0.10783596054E+04  0.11759067996E+04  0.50400001928E-02 0.  1.
       -1    1    3    3    0  502 -0.44116841501E+03  0.15895846091E+03  0.14925412576E+04  0.15644733198E+04  0.50400001928E-02 0. -1.
</event>
<event>
 5   0  0.7729970E-06  0.2707622E+04  0.7818609E-02  0.8332536E-01
       -2   -1    0    0    0  501  0.00000000000E+00  0.00000000000E+00  0.12232068011E+04  0.12232068011E+04  0.25500000920E-02 0. -1.
        2   -1    0    0  501    0  0.00000000000E+00  0.00000000000E+00 -0.14983599009E+04  0.14983599009E+04  0.25500000920E-02 0.  1.
    10030    2    1    2    0    0  0.00000000000E+00  0.00000000000E+00 -0.27515309984E+03  0.27215667020E+04  0.27076218504E+04 0.  0.
        4    1    3    3  502    0 -0.23317568067E+03  0.17726282889E+03 -0.14661286598E+04  0.14951012904E+04  0.12699999809E+01 0.  1.
       -4    1    3    3    0  502  0.23317568067E+03 -0.17726282889E+03  0.11909755599E+04  0.12264654116E+04  0.12699999809E+01 0. -1.
</event>
<event>
 5   0  0.7838364E-06  0.2715210E+04  0.7818609E-02  0.8330087E-01
        2   -1    0    0  501    0  0.00000000000E+00  0.00000000000E+00  0.27572398864E+04  0.27572398864E+04  0.25500000920E-02 0.  1.
       -2   -1    0    0    0  501  0.00000000000E+00  0.00000000000E+00 -0.66845535545E+03  0.66845535545E+03  0.25500000920E-02 0. -1.
    10030    2    1    2    0    0  0.00000000000E+00  0.00000000000E+00  0.20887845310E+04  0.34256952419E+04  0.27152103184E+04 0.  0.
        2    1    3    3  502    0 -0.13036769022E+04  0.15696422768E+03  0.60938088083E+03  0.14476036378E+04  0.25500000920E-02 0.  1.
       -2    1    3    3    0  502  0.13036769022E+04 -0.15696422768E+03  0.14794036502E+04  0.19780916041E+04  0.25500000920E-02 0. -1.
</event>
<event>
 5   0  0.7838364E-06  0.2706240E+04  0.7818609E-02  0.8332983E-01
        2   -1    0    0  501    0  0.00000000000E+00  0.00000000000E+00  0.16628439684E+04  0.16628439684E+04  0.25500000920E-02 0. -1.
       -2   -1    0    0    0  501  0.00000000000E+00  0.00000000000E+00 -0.11010856645E+04  0.11010856645E+04  0.25500000920E-02 0.  1.
    10030    2    1    2    0    0  0.00000000000E+00  0.00000000000E+00  0.56175830393E+03  0.27639296329E+04  0.27062399420E+04 0.  0.
        2    1    3    3  502    0 -0.10830401793E+04  0.71756319161E+03  0.66717571425E+03  0.14604781401E+04  0.25500000920E-02 0. -1.
       -2    1    3    3    0  502  0.10830401793E+04 -0.71756319161E+03 -0.10541741032E+03  0.13034514929E+04  0.25500000920E-02 0.  1.
</event>
<event>
 5   0  0.3046300E-06  0.2622329E+04  0.7818609E-02  0.8360656E-01
        1   -1    0    0  501    0  0.00000000000E+00  0.00000000000E+00  0.12159394911E+04  0.12159394911E+04  0.50400001928E-02 0.  1.
       -1   -1    0    0    0  501  0.00000000000E+00  0.00000000000E+00 -0.14138472786E+04  0.14138472786E+04  0.50400001928E-02 0. -1.
    10030    2    1    2    0    0  0.00000000000E+00  0.00000000000E+00 -0.19790778751E+03  0.26297867697E+04  0.26223293008E+04 0.  0.
        2    1    3    3  502    0  0.34966326713E+03 -0.10150119706E+04 -0.85384890420E+03  0.13717039229E+04  0.25500000920E-02 0. -1.
       -2    1    3    3    0  502 -0.34966326713E+03  0.10150119706E+04  0.65594111670E+03  0.12580828468E+04  0.25500000920E-02 0.  1.
</event>
<event>
 5   0  0.3028601E-06  0.2687696E+04  0.7818609E-02  0.8339008E-01
        1   -1    0    0  501    0  0.00000000000E+00  0.00000000000E+00  0.20375039072E+04  0.20375039072E+04  0.50400001928E-02 0. -1.
       -1   -1    0    0    0  501  0.00000000000E+00  0.00000000000E+00 -0.88634317302E+03  0.88634317303E+03  0.50400001928E-02 0.  1.
    10030    2    1    2    0    0  0.00000000000E+00  0.00000000000E+00  0.11511607342E+04  0.29238470803E+04  0.26876961720E+04 0.  0.
        3    1    3    3  502    0  0.33224578144E+03  0.34709558690E+03 -0.78970592954E+03  0.92439064853E+03  0.10100000352E+00 0.  1.
       -3    1    3    3    0  502 -0.33224578144E+03 -0.34709558690E+03  0.19408666637E+04  0.19994564317E+04  0.10100000352E+00 0. -1.
</event>
<event>
 5   0  0.7812908E-06  0.2684774E+04  0.7818609E-02  0.8339962E-01
       -2   -1    0    0    0  501  0.00000000000E+00  0.00000000000E+00  0.85894249532E+03  0.85894249532E+03  0.25500000920E-02 0.  1.
        2   -1    0    0  501    0  0.00000000000E+00  0.00000000000E+00 -0.20979322197E+04  0.20979322197E+04  0.25500000920E-02 0. -1.
    10030    2    1    2    0    0  0.00000000000E+00  0.00000000000E+00 -0.12389897244E+04  0.29568747151E+04  0.26847742071E+04 0.  0.
        5    1    3    3  502    0 -0.11968886871E+04 -0.23653919219E+03 -0.12361401656E+04  0.17368240895E+04  0.46999998093E+01 0. -1.
       -5    1    3    3    0  502  0.11968886871E+04  0.23653919219E+03 -0.28495587737E+01  0.12200506255E+04  0.46999998093E+01 0.  1.
</event>
<event>
 5   0  0.8407622E-06  0.2628926E+04  0.7818609E-02  0.8358441E-01
       -2   -1    0    0    0  501  0.00000000000E+00  0.00000000000E+00  0.69581565121E+03  0.69581565121E+03  0.25500000920E-02 0. -1.
        2   -1    0    0  501    0  0.00000000000E+00  0.00000000000E+00 -0.24831481417E+04  0.24831481417E+04  0.25500000920E-02 0.  1.
    10030    2    1    2    0    0  0.00000000000E+00  0.00000000000E+00 -0.17873324905E+04  0.31789637929E+04  0.26289262761E+04 0.  0.
        1    1    3    3  502    0 -0.10246752510E+04 -0.71525696572E+02  0.98147605622E+02  0.10318470080E+04  0.50400001928E-02 0. -1.
       -1    1    3    3    0  502  0.10246752510E+04  0.71525696572E+02 -0.18854800961E+04  0.21471167849E+04  0.50400001928E-02 0.  1.
</event>
<event>
 5   0  0.3013407E-06  0.2716900E+04  0.7818609E-02  0.8329542E-01
        1   -1    0    0  501    0  0.00000000000E+00  0.00000000000E+00  0.14350270527E+04  0.14350270527E+04  0.50400001928E-02 0.  1.
       -1   -1    0    0    0  501  0.00000000000E+00  0.00000000000E+00 -0.12859591891E+04  0.12859591891E+04  0.50400001928E-02 0. -1.
    10030    2    1    2    0    0  0.00000000000E+00  0.00000000000E+00  0.14906786359E+03  0.27209862418E+04  0.27168998693E+04 0.  0.
        4    1    3    3  502    0  0.11600373566E+04 -0.63993791311E+03 -0.22621326866E+03  0.13440168367E+04  0.12699999809E+01 0. -1.
       -4    1    3    3    0  502 -0.11600373566E+04  0.63993791311E+03  0.37528113224E+03  0.13769694051E+04  0.12699999809E+01 0.  1.
</event>
<event>
 5   0  0.3028601E-06  0.2695390E+04  0.7818609E-02  0.8336502E-01
        1   -1    0    0  501    0  0.00000000000E+00  0.00000000000E+00  0.16114162433E+04  0.16114162433E+04  0.50400001928E-02 0. -1.
       -1   -1    0    0    0  501  0.00000000000E+00  0.00000000000E+00 -0.11271341006E+04  0.11271341006E+04  0.50400001928E-02 0.  1.
    10030    2    1    2    0    0  0.00000000000E+00  0.00000000000E+00  0.48428214271E+03  0.27385503439E+04  0.26953902858E+04 0.  0.
        3    1    3    3  502    0  0.13391138890E+04 -0.20378389083E+02  0.39501940028E+03  0.13963100026E+04  0.10100000352E+00 0. -1.
       -3    1    3    3    0  502 -0.13391138890E+04  0.20378389083E+02  0.89262742433E+02  0.13422403413E+04  0.10100000352E+00 0.  1.
</event>
<event>
 5   0  0.7812908E-06  0.2732057E+04  0.7818609E-02  0.8324678E-01
       -2   -1    0    0    0  501  0.00000000000E+00  0.00000000000E+00  0.75575720869E+03  0.75575720870E+03  0.25500000920E-02 0.  1.
        2   -1    0    0  501    0  0.00000000000E+00  0.00000000000E+00 -0.24690917754E+04  0.24690917754E+04  0.25500000920E-02 0. -1.
    10030    2    1    2    0    0  0.00000000000E+00  0.00000000000E+00 -0.17133345667E+04  0.32248489841E+04  0.27320570332E+04 0.  0.
        5    1    3    3  502    0 -0.12240034001E+04 -0.53797676456E+03 -0.52614466731E+03  0.14368206650E+04  0.46999998093E+01 0.  1.
       -5    1    3    3    0  502  0.12240034001E+04  0.53797676456E+03 -0.11871898994E+04  0.17880283191E+04  0.46999998093E+01 0. -1.
</event>
<event>
 5   0  0.2654625E-06  0.2644774E+04  0.7818609E-02  0.8353150E-01
       -4   -1    0    0    0  501  0.00000000000E+00  0.00000000000E+00  0.15817233119E+04  0.15817238218E+04  0.12699999809E+01 0.  1.
        4   -1    0    0  501    0  0.00000000000E+00  0.00000000000E+00 -0.11055701584E+04  0.11055708878E+04  0.12699999809E+01 0. -1.
    10030    2    1    2    0    0  0.00000000000E+00  0.00000000000E+00  0.47615315355E+03  0.26872947096E+04  0.26447742872E+04 0.  0.
        1    1    3    3  502    0 -0.13070980994E+04 -0.17559926760E+03  0.13973619549E+03  0.13262227372E+04  0.50400001928E-02 0.  1.
       -1    1    3    3    0  502  0.13070980994E+04  0.17559926760E+03  0.33641695806E+03  0.13610719724E+04  0.50400001928E-02 0. -1.
</event>
<event>
 5   0  0.7838364E-06  0.2692159E+04  0.7818609E-02  0.8337554E-01
       -2   -1    0    0    0  501  0.00000000000E+00  0.00000000000E+00  0.71184307197E+03  0.71184307198E+03  0.25500000920E-02 0.  1.
        2   -1    0    0  501    0  0.00000000000E+00  0.00000000000E+00 -0.25454066832E+04  0.25454066832E+04  0.25500000920E-02 0. -1.
    10030    2    1    2    0    0  0.00000000000E+00  0.00000000000E+00 -0.18335636112E+04  0.32572497552E+04  0.26921590687E+04 0.  0.
        2    1    3    3  502    0  0.10226532423E+03 -0.12478151292E+04 -0.31860854895E+03  0.12919025508E+04  0.25500000920E-02 0.  1.
       -2    1    3    3    0  502 -0.10226532423E+03  0.12478151292E+04 -0.15149550623E+04  0.19653472044E+04  0.25500000920E-02 0. -1.
</event>
<event>
 5   0  0.7729970E-06  0.2703814E+04  0.7818609E-02  0.8333768E-01
       -2   -1    0    0    0  501  0.00000000000E+00  0.00000000000E+00  0.11383231975E+04  0.11383231976E+04  0.25500000920E-02 0. -1.
        2   -1    0    0  501    0  0.00000000000E+00  0.00000000000E+00 -0.16055659532E+04  0.16055659532E+04  0.25500000920E-02 0.  1.
    10030    2    1    2    0    0  0.00000000000E+00  0.00000000000E+00 -0.46724275561E+03  0.27438891507E+04  0.27038143203E+04 0.  0.
        4    1    3    3  502    0  0.63616474571E+03  0.11758224609E+04 -0.29676791569E+02  0.13372159018E+04  0.12699999809E+01 0.  1.
       -4    1    3    3    0  502 -0.63616474571E+03 -0.11758224609E+04 -0.43756596404E+03  0.14066732489E+04  0.12699999809E+01 0. -1.
</event>
<event>
 5   0  0.3199840E-06  0.2714846E+04  0.7818609E-02  0.8330204E-01
        1   -1    0    0  501    0  0.00000000000E+00  0.00000000000E+00  0.97010616226E+03  0.97010616227E+03  0.50400001928E-02 0. -1.
       -1   -1    0    0    0  501  0.00000000000E+00  0.00000000000E+00 -0.18993773779E+04  0.18993773779E+04  0.50400001928E-02 0.  1.
    10030    2    1    2    0    0  0.00000000000E+00  0.00000000000E+00 -0.92927121560E+03  0.28694835401E+04  0.27148463667E+04 0.  0.
        1    1    3    3  502    0 -0.50427562592E+03  0.19312522416E+03  0.85169591145E+03  0.10084528669E+04  0.50400001928E-02 0. -1.
       -1    1    3    3    0  502  0.50427562592E+03 -0.19312522416E+03 -0.17809671271E+04  0.18610306733E+04  0.50400001928E-02 0.  1.
</event>
<event>
 5   0  0.3199840E-06  0.2676414E+04  0.7818609E-02  0.8342699E-01
        1   -1    0    0  501    0  0.00000000000E+00  0.00000000000E+00  0.18845745125E+04  0.18845745125E+04  0.50400001928E-02 0. -1.
       -1   -1    0    0    0  501  0.00000000000E+00  0.00000000000E+00 -0.95023966780E+03  0.95023966782E+03  0.50400001928E-02 0.  1.
    10030    2    1    2    0    0  0.00000000000E+00  0.00000000000E+00  0.93433484466E+03  0.28348141803E+04  0.26764136143E+04 0.  0.
        1    1    3    3  502    0 -0.56437991709E+03 -0.85107469579E+03 -0.44885497038E+03  0.11154925428E+04  0.50400001928E-02 0.  1.
       -1    1    3    3    0  502  0.56437991709E+03  0.85107469579E+03  0.13831898150E+04  0.17193216375E+04  0.50400001928E-02 0. -1.
</event>
<event>
 5   0  0.3089218E-06  0.2719746E+04  0.7818609E-02  0.8328626E-01
       -1   -1    0    0    0  501  0.00000000000E+00  0.00000000000E+00  0.83204495620E+03  0.83204495621E+03  0.50400001928E-02 0.  1.
        1   -1    0    0  501    0  0.00000000000E+00  0.00000000000E+00 -0.22225421601E+04  0.22225421601E+04  0.50400001928E-02 0. -1.
    10030    2    1    2    0    0  0.00000000000E+00  0.00000000000E+00 -0.13904972039E+04  0.30545871163E+04  0.27197463075E+04 0.  0.
        5    1    3    3  502    0  0.66906634264E+03 -0.10870768664E+02  0.63433374942E+03  0.92204627873E+03  0.46999998093E+01 0.  1.
       -5    1    3    3    0  502 -0.66906634264E+03  0.10870768664E+02 -0.20248309534E+04  0.21325408376E+04  0.46999998093E+01 0. -1.
</event>
<event>
 5   0  0.8407622E-06  0.2719697E+04  0.7818609E-02  0.8328642E-01
        2   -1    0    0  501    0  0.00000000000E+00  0.00000000000E+00  0.18760141898E+04  0.18760141898E+04  0.25500000920E-02 0. -1.
       -2   -1    0    0    0  501  0.00000000000E+00  0.00000000000E+00 -0.98570071078E+03  0.98570071079E+03  0.25500000920E-02 0.  1.
    10030    2    1    2    0    0  0.00000000000E+00  0.00000000000E+00  0.89031347903E+03  0.28617149006E+04  0.27196974246E+04 0.  0.
        1    1    3    3  502    0  0.10418001034E+04  0.47526715038E+02  0.13634136155E+04  0.17165380657E+04  0.50400001928E-02 0. -1.
       -1    1    3    3    0  502 -0.10418001034E+04 -0.47526715038E+02 -0.47310013648E+03  0.11451768349E+04  0.50400001928E-02 0.  1.
</event>
<event>
 5   0  0.7729970E-06  0.2698389E+04  0.7818609E-02  0.8335528E-01
       -2   -1    0    0    0  501  0.00000000000E+00  0.00000000000E+00  0.16095340491E+04  0.16095340491E+04  0.25500000920E-02 0. -1.
        2   -1    0    0  501    0  0.00000000000E+00  0.00000000000E+00 -0.11309644062E+04  0.11309644062E+04  0.25500000920E-02 0.  1.
    10030    2    1    2    0    0  0.00000000000E+00  0.00000000000E+00  0.47856964291E+03  0.27404984553E+04  0.26983889417E+04 0.  0.
        4    1    3    3  502    0 -0.67232287979E+03 -0.25832884468E+03 -0.91938355879E+03  0.11679124915E+04  0.12699999809E+01 0.  1.
       -4    1    3    3    0  502  0.67232287979E+03  0.25832884468E+03  0.13979532017E+04  0.15725859639E+04  0.12699999809E+01 0. -1.
</event>
<event>
 5   0  0.3013407E-06  0.2701748E+04  0.7818609E-02  0.8334438E-01
        1   -1    0    0  501    0  0.00000000000E+00  0.00000000000E+00  0.18133044808E+04  0.18133044809E+04  0.50400001928E-02 0. -1.
       -1   -1    0    0    0  501  0.00000000000E+00  0.00000000000E+00 -0.10063729671E+04  0.10063729672E+04  0.50400001928E-02 0.  1.
    10030    2    1    2    0    0  0.00000000000E+00  0.00000000000E+00  0.80693151370E+03  0.28196774480E+04  0.27017480347E+04 0.  0.
        4    1    3    3  502    0  0.89924498991E+03 -0.90010304544E+03  0.87718592725E+03  0.15454073276E+04  0.12699999809E+01 0. -1.
       -4    1    3    3    0  502 -0.89924498991E+03  0.90010304544E+03 -0.70254413545E+02  0.12742701204E+04  0.12699999809E+01 0.  1.
</event>
<event>
 5   0  0.3089218E-06  0.2687322E+04  0.7818609E-02  0.8339130E-01
       -1   -1    0    0    0  501  0.00000000000E+00  0.00000000000E+00  0.89706437401E+03  0.89706437402E+03  0.50400001928E-02 0. -1.
        1   -1    0    0  501    0  0.00000000000E+00  0.00000000000E+00 -0.20125917565E+04  0.20125917566E+04  0.50400001928E-02 0.  1.
    10030    2    1    2    0    0  0.00000000000E+00  0.00000000000E+00 -0.11155273825E+04  0.29096561306E+04  0.26873216140E+04 0.  0.
        5    1    3    3  502    0 -0.99604448532E+03  0.60294057588E+03 -0.12838906975E+04  0.17332164804E+04  0.46999998093E+01 0.  1.
       -5    1    3    3    0  502  0.99604448532E+03 -0.60294057588E+03  0.16836331493E+03  0.11764396502E+04  0.46999998093E+01 0. -1.
</event>
<event>
 5   0  0.8407622E-06  0.2654743E+04  0.7818609E-02  0.8349841E-01
        2   -1    0    0  501    0  0.00000000000E+00  0.00000000000E+00  0.16004275257E+04  0.16004275257E+04  0.25500000920E-02 0.  1.
       -2   -1    0    0    0  501  0.00000000000E+00  0.00000000000E+00 -0.11009025877E+04  0.11009025877E+04  0.25500000920E-02 0. -1.
    10030    2    1    2    0    0  0.00000000000E+00  0.00000000000E+00  0.49952493805E+03  0.27013301134E+04  0.26547427781E+04 0.  0.
        1    1    3    3  502    0 -0.78435179072E+03 -0.10637884984E+04  0.12488513740E+03  0.13275729729E+04  0.50400001928E-02 0. -1.
       -1    1    3    3    0  502  0.78435179072E+03  0.10637884984E+04  0.37463980065E+03  0.13737571405E+04  0.50400001928E-02 0.  1.
</event>
<event>
 5   0  0.3028601E-06  0.2694900E+04  0.7818609E-02  0.8336662E-01
       -1   -1    0    0    0  501  0.00000000000E+00  0.00000000000E+00  0.73378543217E+03  0.73378543219E+03  0.50400001928E-02 0.  1.
        1   -1    0    0  501    0  0.00000000000E+00  0.00000000000E+00 -0.24743225434E+04  0.24743225434E+04  0.50400001928E-02 0. -1.
    10030    2    1    2    0    0  0.00000000000E+00  0.00000000000E+00 -0.17405371112E+04  0.32081079755E+04  0.26949002481E+04 0.  0.
        3    1    3    3  502    0 -0.13068661496E+04 -0.20150258399E+03 -0.56185722634E+03  0.14367275237E+04  0.10100000352E+00 0.  1.
       -3    1    3    3    0  502  0.13068661496E+04  0.20150258399E+03 -0.11786798848E+04  0.17713804519E+04  0.10100000352E+00 0. -1.
</event>
<event>
 5   0  0.7838364E-06  0.2702670E+04  0.7818609E-02  0.8334139E-01
        2   -1    0    0  501    0  0.00000000000E+00  0.00000000000E+00  0.15175132355E+04  0.15175132355E+04  0.25500000920E-02 0. -1.
       -2   -1    0    0    0  501  0.00000000000E+00  0.00000000000E+00 -0.12033548463E+04  0.12033548463E+04  0.25500000920E-02 0.  1.
    10030    2    1    2    0    0  0.00000000000E+00  0.00000000000E+00  0.31415838927E+03  0.27208680818E+04  0.27026704618E+04 0.  0.
        2    1    3    3  502    0 -0.11375415444E+02 -0.13471288525E+04  0.26372337339E+03  0.13727474506E+04  0.25500000920E-02 0. -1.
       -2    1    3    3    0  502  0.11375415444E+02  0.13471288525E+04  0.50435015878E+02  0.13481206312E+04  0.25500000920E-02 0.  1.
</event>
<event>
 5   0  0.7838364E-06  0.2726223E+04  0.7818609E-02  0.8326546E-01
       -2   -1    0    0    0  501  0.00000000000E+00  0.00000000000E+00  0.10966615065E+04  0.10966615065E+04  0.25500000920E-02 0.  1.
        2   -1    0    0  501    0  0.00000000000E+00  0.00000000000E+00 -0.16942998766E+04  0.16942998766E+04  0.25500000920E-02 0. -1.
    10030    2    1    2    0    0  0.00000000000E+00  0.00000000000E+00 -0.59763837011E+03  0.27909613831E+04  0.27262233622E+04 0.  0.
        2    1    3    3  502    0 -0.13312240616E+04  0.38069545427E+02 -0.12862407404E+01  0.13317689165E+04  0.25500000920E-02 0. -1.
       -2    1    3    3    0  502  0.13312240616E+04 -0.38069545427E+02 -0.59635212937E+03  0.14591924666E+04  0.25500000920E-02 0.  1.
</event>
<event>
 5   0  0.7729970E-06  0.2718497E+04  0.7818609E-02  0.8329028E-01
       -2   -1    0    0    0  501  0.00000000000E+00  0.00000000000E+00  0.13377683189E+04  0.13377683189E+04  0.25500000920E-02 0.  1.
        2   -1    0    0  501    0  0.00000000000E+00  0.00000000000E+00 -0.13810731452E+04  0.13810731452E+04  0.25500000920E-02 0. -1.
    10030    2    1    2    0    0  0.00000000000E+00  0.00000000000E+00 -0.43304826342E+02  0.27188414641E+04  0.27184965696E+04 0.  0.
        4    1    3    3  502    0 -0.24282116802E+03 -0.13249126368E+04  0.16057573029E+03  0.13565182612E+04  0.12699999809E+01 0. -1.
       -4    1    3    3    0  502  0.24282116802E+03  0.13249126368E+04 -0.20388055663E+03  0.13623232029E+04  0.12699999809E+01 0.  1.
</event>
<event>
 5   0  0.7812908E-06  0.2704965E+04  0.7818609E-02  0.8333396E-01
       -2   -1    0    0    0  501  0.00000000000E+00  0.00000000000E+00  0.69971545424E+03  0.69971545424E+03  0.25500000920E-02 0. -1.
        2   -1    0    0  501    0  0.00000000000E+00  0.00000000000E+00 -0.26142180288E+04  0.26142180288E+04  0.25500000920E-02 0.  1.
    10030    2    1    2    0    0  0.00000000000E+00  0.00000000000E+00 -0.19145025745E+04  0.33139334830E+04  0.27049648837E+04 0.  0.
        5    1    3    3  502    0 -0.20881959912E+03  0.55793445905E+03  0.53030580207E+03  0.79758561877E+03  0.46999998093E+01 0. -1.
       -5    1    3    3    0  502  0.20881959912E+03 -0.55793445905E+03 -0.24448083766E+04  0.25163478642E+04  0.46999998093E+01 0.  1.
</event>
<event>
 5   0  0.8407622E-06  0.2707042E+04  0.7818609E-02  0.8332724E-01
       -2   -1    0    0    0  501  0.00000000000E+00  0.00000000000E+00  0.74069643006E+03  0.74069643007E+03  0.25500000920E-02 0.  1.
        2   -1    0    0  501    0  0.00000000000E+00  0.00000000000E+00 -0.24733731001E+04  0.24733731001E+04  0.25500000920E-02 0. -1.
    10030    2    1    2    0    0  0.00000000000E+00  0.00000000000E+00 -0.17326766700E+04  0.32140695302E+04  0.27070416513E+04 0.  0.
        1    1    3    3  502    0  0.11636310770E+04  0.23898083902E+03 -0.96084167156E+02  0.11917975046E+04  0.50400001928E-02 0.  1.
       -1    1    3    3    0  502 -0.11636310770E+04 -0.23898083902E+03 -0.16365925029E+04  0.20222720255E+04  0.50400001928E-02 0. -1.
</event>
<event>
 5   0  0.7812908E-06  0.2699148E+04  0.7818609E-02  0.8335281E-01
        2   -1    0    0  501    0  0.00000000000E+00  0.00000000000E+00  0.13717608829E+04  0.13717608829E+04  0.25500000920E-02 0.  1.
       -2   -1    0    0    0  501  0.00000000000E+00  0.00000000000E+00 -0.13277461443E+04  0.13277461443E+04  0.25500000920E-02 0. -1.
    10030    2    1    2    0    0  0.00000000000E+00  0.00000000000E+00  0.44014738580E+02  0.26995070272E+04  0.26991481791E+04 0.  0.
        5    1    3    3  502    0  0.24531481226E+03 -0.11260518601E+04  0.72435138898E+03  0.13612050446E+04  0.46999998093E+01 0.  1.
       -5    1    3    3    0  502 -0.24531481226E+03  0.11260518601E+04 -0.68033665040E+03  0.13383019826E+04  0.46999998093E+01 0. -1.
</event>
<event>
 5   0  0.3013407E-06  0.2653764E+04  0.7818609E-02  0.8350165E-01
       -1   -1    0    0    0  501  0.00000000000E+00  0.00000000000E+00  0.98101447329E+03  0.98101447330E+03  0.50400001928E-02 0. -1.
        1   -1    0    0  501    0  0.00000000000E+00  0.00000000000E+00 -0.17946888075E+04  0.17946888075E+04  0.50400001928E-02 0.  1.
    10030    2    1    2    0    0  0.00000000000E+00  0.00000000000E+00 -0.81367433417E+03  0.27757032808E+04  0.26537638894E+04 0.  0.
        4    1    3    3  502    0 -0.35640418064E+03 -0.63431837687E+03  0.75375707807E+03  0.10476330889E+04  0.12699999809E+01 0. -1.
       -4    1    3    3    0  502  0.35640418064E+03  0.63431837687E+03 -0.15674314122E+04  0.17280701919E+04  0.12699999809E+01 0.  1.
</event>
<event>
 5   0  0.3089218E-06  0.2684772E+04  0.7818609E-02  0.8339963E-01
        1   -1    0    0  501    0  0.00000000000E+00  0.00000000000E+00  0.21729224552E+04  0.21729224552E+04  0.50400001928E-02 0.  1.
       -1   -1    0    0    0  501  0.00000000000E+00  0.00000000000E+00 -0.82929826953E+03  0.82929826955E+03  0.50400001928E-02 0. -1.
    10030    2    1    2    0    0  0.00000000000E+00  0.00000000000E+00  0.13436241856E+04  0.30022207247E+04  0.26847724909E+04 0.  0.
        5    1    3    3  502    0  0.43383146106E+02  0.47386460648E+03  0.20754370569E+04  0.21292935049E+04  0.46999998093E+01 0.  1.
       -5    1    3    3    0  502 -0.43383146106E+02 -0.47386460648E+03 -0.73181287126E+03  0.87292721987E+03  0.46999998093E+01 0. -1.
</event>
<event>
 5   0  0.7729970E-06  0.2720385E+04  0.7818609E-02  0.8328421E-01
       -2   -1    0    0    0  501  0.00000000000E+00  0.00000000000E+00  0.11021295629E+04  0.11021295629E+04  0.25500000920E-02 0.  1.
        2   -1    0    0  501    0  0.00000000000E+00  0.00000000000E+00 -0.16786809630E+04  0.16786809630E+04  0.25500000920E-02 0. -1.
    10030    2    1    2    0    0  0.00000000000E+00  0.00000000000E+00 -0.57655140007E+03  0.27808105259E+04  0.27203852051E+04 0.  0.
        4    1    3    3  502    0 -0.32942804485E+02  0.13300951501E+04 -0.57719117526E+03  0.14503067270E+04  0.12699999809E+01 0. -1.
       -4    1    3    3    0  502  0.32942804485E+02 -0.13300951501E+04  0.63977519257E+00  0.13305037989E+04  0.12699999809E+01 0.  1.
</event>
<event>
 5   0  0.7838364E-06  0.2643061E+04  0.7818609E-02  0.8353720E-01
        2   -1    0    0  501    0  0.00000000000E+00  0.00000000000E+00  0.14355130026E+04  0.14355130026E+04  0.25500000920E-02 0. -1.
       -2   -1    0    0    0  501  0.00000000000E+00  0.00000000000E+00 -0.12165986106E+04  0.12165986106E+04  0.25500000920E-02 0.  1.
    10030    2    1    2    0    0  0.00000000000E+00  0.00000000000E+00  0.21891439206E+03  0.26521116132E+04  0.26430611983E+04 0.  0.
        2    1    3    3  502    0  0.32167829252E+03  0.11302261870E+04  0.71613893471E+03  0.13761333989E+04  0.25500000920E-02 0. -1.
       -2    1    3    3    0  502 -0.32167829252E+03 -0.11302261870E+04 -0.49722454265E+03  0.12759782143E+04  0.25500000920E-02 0.  1.
</event>
<event>
 5   0  0.3089218E-06  0.2698973E+04  0.7818609E-02  0.8335338E-01
       -1   -1    0    0    0  501  0.00000000000E+00  0.00000000000E+00  0.76956805219E+03  0.76956805221E+03  0.50400001928E-02 0.  1.
        1   -1    0    0  501    0  0.00000000000E+00  0.00000000000E+00 -0.23664099240E+04  0.23664099240E+04  0.50400001928E-02 0. -1.
    10030    2    1    2    0    0  0.00000000000E+00  0.00000000000E+00 -0.15968418718E+04  0.31359779762E+04  0.26989727497E+04 0.  0.
        5    1    3    3  502    0  0.72710789523E+03 -0.16102575144E+03 -0.21060152428E+04  0.22338167957E+04  0.46999998093E+01 0. -1.
       -5    1    3    3    0  502 -0.72710789523E+03  0.16102575144E+03  0.50917337097E+03  0.90216118052E+03  0.46999998093E+01 0.  1.
</event>
<event>
 5   0  0.3013407E-06  0.2691852E+04  0.7818609E-02  0.8337653E-01
       -1   -1    0    0    0  501  0.00000000000E+00  0.00000000000E+00  0.16163669880E+04  0.16163669880E+04  0.50400001928E-02 0. -1.
        1   -1    0    0  501    0  0.00000000000E+00  0.00000000000E+00 -0.11207337884E+04  0.11207337885E+04  0.50400001928E-02 0.  1.
    10030    2    1    2    0    0  0.00000000000E+00  0.00000000000E+00  0.49563319959E+03  0.27371007765E+04  0.26918522233E+04 0.  0.
        4    1    3    3  502    0  0.28050073071E+03  0.11700102749E+03  0.15810184311E+04  0.16099660844E+04  0.12699999809E+01 0. -1.
       -4    1    3    3    0  502 -0.28050073071E+03 -0.11700102749E+03 -0.10853852316E+04  0.11271346921E+04  0.12699999809E+01 0.  1.
</event>
<event>
 5   0  0.7812908E-06  0.2694402E+04  0.7818609E-02  0.8336824E-01
        2   -1    0    0  501    0  0.00000000000E+00  0.00000000000E+00  0.11110565425E+04  0.11110565425E+04  0.25500000920E-02 0.  1.
       -2   -1    0    0    0  501  0.00000000000E+00  0.00000000000E+00 -0.16335358864E+04  0.16335358864E+04  0.25500000920E-02 0. -1.
    10030    2    1    2    0    0  0.00000000000E+00  0.00000000000E+00 -0.52247934392E+03  0.27445924288E+04  0.26944021481E+04 0.  0.
        5    1    3    3  502    0  0.12274123831E+04  0.47387275806E+03 -0.55617079488E+03  0.14284413156E+04  0.46999998093E+01 0.  1.
       -5    1    3    3    0  502 -0.12274123831E+04 -0.47387275806E+03  0.33691450960E+02  0.13161511132E+04  0.46999998093E+01 0. -1.
</event>
<event>
 5   0  0.3046300E-06  0.2667962E+04  0.7818609E-02  0.8345476E-01
       -1   -1    0    0    0  501  0.00000000000E+00  0.00000000000E+00  0.18828676961E+04  0.18828676961E+04  0.50400001928E-02 0.  1.
        1   -1    0    0  501    0  0.00000000000E+00  0.00000000000E+00 -0.94510386847E+03  0.94510386849E+03  0.50400001928E-02 0. -1.
    10030    2    1    2    0    0  0.00000000000E+00  0.00000000000E+00  0.93776382761E+03  0.28279715646E+04  0.26679621762E+04 0.  0.
        2    1    3    3  502    0  0.24647358191E+03 -0.11893457202E+04 -0.11575240812E+03  0.12201192928E+04  0.25500000920E-02 0. -1.
       -2    1    3    3    0  502 -0.24647358191E+03  0.11893457202E+04  0.10535162357E+04  0.16078522717E+04  0.25500000920E-02 0.  1.
</event>
<event>
 5   0  0.3028601E-06  0.2708288E+04  0.7818609E-02  0.8332321E-01
       -1   -1    0    0    0  501  0.00000000000E+00  0.00000000000E+00  0.16267324284E+04  0.16267324284E+04  0.50400001928E-02 0. -1.
        1   -1    0    0  501    0  0.00000000000E+00  0.00000000000E+00 -0.11272326545E+04  0.11272326545E+04  0.50400001928E-02 0.  1.
    10030    2    1    2    0    0  0.00000000000E+00  0.00000000000E+00  0.49949977390E+03  0.27539650830E+04  0.27082879563E+04 0.  0.
        3    1    3    3  502    0 -0.19572529770E+03  0.11388260978E+04 -0.46818366443E+03  0.12467675112E+04  0.10100000352E+00 0.  1.
       -3    1    3    3    0  502  0.19572529770E+03 -0.11388260978E+04  0.96768343833E+03  0.15071975717E+04  0.10100000352E+00 0. -1.
</event>
<event>
 5   0  0.3199840E-06  0.2694507E+04  0.7818609E-02  0.8336790E-01
       -1   -1    0    0    0  501  0.00000000000E+00  0.00000000000E+00  0.90462864305E+03  0.90462864307E+03  0.50400001928E-02 0.  1.
        1   -1    0    0  501    0  0.00000000000E+00  0.00000000000E+00 -0.20064495363E+04  0.20064495363E+04  0.50400001928E-02 0. -1.
    10030    2    1    2    0    0  0.00000000000E+00  0.00000000000E+00 -0.11018208932E+04  0.29110781793E+04  0.26945067982E+04 0.  0.
        1    1    3    3  502    0  0.58854205701E+03 -0.11643907309E+04 -0.91392966986E+03  0.15929390976E+04  0.50400001928E-02 0. -1.
       -1    1    3    3    0  502 -0.58854205701E+03  0.11643907309E+04 -0.18789122335E+03  0.13181390818E+04  0.50400001928E-02 0.  1.
</event>
<event>
 5   0  0.8407622E-06  0.2714623E+04  0.7818609E-02  0.8330276E-01
        2   -1    0    0  501    0  0.00000000000E+00  0.00000000000E+00  0.15779233977E+04  0.15779233977E+04  0.25500000920E-02 0.  1.
       -2   -1    0    0    0  501  0.00000000000E+00  0.00000000000E+00 -0.11675433919E+04  0.11675433919E+04  0.25500000920E-02 0. -1.
    10030    2    1    2    0    0  0.00000000000E+00  0.00000000000E+00  0.41038000579E+03  0.27454667896E+04  0.27146226522E+04 0.  0.
        1    1    3    3  502    0 -0.75528620238E+03 -0.97237079682E+03  0.78293532625E+03  0.14590921627E+04  0.50400001928E-02 0.  1.
       -1    1    3    3    0  502  0.75528620238E+03  0.97237079682E+03 -0.37255532046E+03  0.12863746269E+04  0.50400001928E-02 0. -1.
</event>
<event>
 5   0  0.8213334E-06  0.2477284E+04  0.7818609E-02  0.8411123E-01
       -2   -1    0    0    0  501  0.00000000000E+00  0.00000000000E+00  0.15781091076E+04  0.15781091076E+04  0.25500000920E-02 0.  1.
        2   -1    0    0  501    0  0.00000000000E+00  0.00000000000E+00 -0.97219730919E+03  0.97219730919E+03  0.25500000920E-02 0. -1.
    10030    2    1    2    0    0  0.00000000000E+00  0.00000000000E+00  0.60591179844E+03  0.25503064168E+04  0.24772835349E+04 0.  0.
        3    1    3    3  502    0  0.66125386311E+03 -0.83845797288E+03 -0.34321211083E+03  0.11216340789E+04  0.10100000352E+00 0. -1.
       -3    1    3    3    0  502 -0.66125386311E+03  0.83845797288E+03  0.94912390928E+03  0.14286723379E+04  0.10100000352E+00 0.  1.
</event>
<event>
 5   0  0.7812908E-06  0.2696553E+04  0.7818609E-02  0.8336124E-01
       -2   -1    0    0    0  501  0.00000000000E+00  0.00000000000E+00  0.20909279957E+04  0.20909279957E+04  0.25500000920E-02 0.  1.
        2   -1    0    0  501    0  0.00000000000E+00  0.00000000000E+00 -0.86939826525E+03  0.86939826525E+03  0.25500000920E-02 0. -1.
    10030    2    1    2    0    0  0.00000000000E+00  0.00000000000E+00  0.12215297304E+04  0.29603262609E+04  0.26965527417E+04 0.  0.
        5    1    3    3  502    0 -0.75813234267E+03  0.33690249796E+03  0.17775345745E+04  0.19616113773E+04  0.46999998093E+01 0.  1.
       -5    1    3    3    0  502  0.75813234267E+03 -0.33690249796E+03 -0.55600484406E+03  0.99871488361E+03  0.46999998093E+01 0. -1.
</event>
<event>
 5   0  0.7729970E-06  0.2701388E+04  0.7818609E-02  0.8334555E-01
       -2   -1    0    0    0  501  0.00000000000E+00  0.00000000000E+00  0.15005830601E+04  0.15005830601E+04  0.25500000920E-02 0.  1.
        2   -1    0    0  501    0  0.00000000000E+00  0.00000000000E+00 -0.12157765116E+04  0.12157765116E+04  0.25500000920E-02 0. -1.
    10030    2    1    2    0    0  0.00000000000E+00  0.00000000000E+00  0.28480654850E+03  0.27163595717E+04  0.27013875236E+04 0.  0.
        4    1    3    3  502    0 -0.66690581860E+03 -0.12938751290E+03  0.13162926987E+04  0.14812604703E+04  0.12699999809E+01 0.  1.
       -4    1    3    3    0  502  0.66690581860E+03  0.12938751290E+03 -0.10314861502E+04  0.12350991014E+04  0.12699999809E+01 0. -1.
</event>
<event>
 5   0  0.8407622E-06  0.2752119E+04  0.7818609E-02  0.8318290E-01
        2   -1    0    0  501    0  0.00000000000E+00  0.00000000000E+00  0.11576270995E+04  0.11576270995E+04  0.25500000920E-02 0.  1.
       -2   -1    0    0    0  501  0.00000000000E+00  0.00000000000E+00 -0.16357075260E+04  0.16357075260E+04  0.25500000920E-02 0. -1.
    10030    2    1    2    0    0  0.00000000000E+00  0.00000000000E+00 -0.47808042648E+03  0.27933346255E+04  0.27521187176E+04 0.  0.
        1    1    3    3  502    0  0.55051170783E+03 -0.12604992743E+04 -0.27986443837E+03  0.14036543965E+04  0.50400001928E-02 0. -1.
       -1    1    3    3    0  502 -0.55051170783E+03  0.12604992743E+04 -0.19821598811E+03  0.13896802290E+04  0.50400001928E-02 0.  1.
</event>
<event>
 5   0  0.3046300E-06  0.2710248E+04  0.7818609E-02  0.8331687E-01
       -1   -1    0    0    0  501  0.00000000000E+00  0.00000000000E+00  0.16245247845E+04  0.16245247845E+04  0.50400001928E-02 0.  1.
        1   -1    0    0  501    0  0.00000000000E+00  0.00000000000E+00 -0.11303990501E+04  0.11303990501E+04  0.50400001928E-02 0. -1.
    10030    2    1    2    0    0  0.00000000000E+00  0.00000000000E+00  0.49412573442E+03  0.27549238346E+04  0.27102481608E+04 0.  0.
        2    1    3    3  502    0 -0.12565354487E+04  0.41732126483E+03  0.54047814956E+03  0.14300891588E+04  0.25500000920E-02 0.  1.
       -2    1    3    3    0  502  0.12565354487E+04 -0.41732126483E+03 -0.46352415143E+02  0.13248346758E+04  0.25500000920E-02 0. -1.
</event>
<event>
 5   0  0.3028601E-06  0.2691073E+04  0.7818609E-02  0.8337907E-01
        1   -1    0    0  501    0  0.00000000000E+00  0.00000000000E+00  0.18123077656E+04  0.18123077656E+04  0.50400001928E-02 0.  1.
       -1   -1    0    0    0  501  0.00000000000E+00  0.00000000000E+00 -0.99898530373E+03  0.99898530374E+03  0.50400001928E-02 0. -1.
    10030    2    1    2    0    0  0.00000000000E+00  0.00000000000E+00  0.81332246189E+03  0.28112930694E+04  0.26910732608E+04 0.  0.
        3    1    3    3  502    0 -0.22989433209E+03 -0.84993403314E+03  0.14695771974E+04  0.17131539376E+04  0.10100000352E+00 0.  1.
       -3    1    3    3    0  502  0.22989433209E+03  0.84993403314E+03 -0.65625473551E+03  0.10981391318E+04  0.10100000352E+00 0. -1.
</event>
<event>
 5   0  0.8213334E-06  0.2701296E+04  0.7818609E-02  0.8334585E-01
       -2   -1    0    0    0  501  0.00000000000E+00  0.00000000000E+00  0.15083186297E+04  0.15083186297E+04  0.25500000920E-02 0.  1.
        2   -1    0    0  501    0  0.00000000000E+00  0.00000000000E+00 -0.12094594055E+04  0.12094594055E+04  0.25500000920E-02 0. -1.
    10030    2    1    2    0    0  0.00000000000E+00  0.00000000000E+00  0.29885922416E+03  0.27177780352E+04  0.27012960987E+04 0.  0.
        3    1    3    3  502    0  0.93871917969E+03 -0.15174884680E+03 -0.81560410707E+03  0.12527695241E+04  0.10100000352E+00 0. -1.
       -3    1    3    3    0  502 -0.93871917969E+03  0.15174884680E+03  0.11144633312E+04  0.14650085111E+04  0.10100000352E+00 0.  1.
</event>
<event>
 5   0  0.8213334E-06  0.2696354E+04  0.7818609E-02  0.8336189E-01
       -2   -1    0    0    0  501  0.00000000000E+00  0.00000000000E+00  0.90803366352E+03  0.90803366352E+03  0.25500000920E-02 0.  1.
        2   -1    0    0  501    0  0.00000000000E+00  0.00000000000E+00 -0.20016668614E+04  0.20016668614E+04  0.25500000920E-02 0. -1.
    10030    2    1    2    0    0  0.00000000000E+00  0.00000000000E+00 -0.10936331979E+04  0.29097005250E+04  0.26963537552E+04 0.  0.
        3    1    3    3  502    0 -0.98316466584E+03 -0.82703719723E+03 -0.98777794975E+03  0.16205889590E+04  0.10100000352E+00 0. -1.
       -3    1    3    3    0  502  0.98316466584E+03  0.82703719723E+03 -0.10585524817E+03  0.12891115660E+04  0.10100000352E+00 0.  1.
</event>
<event>
 5   0  0.3013407E-06  0.2714626E+04  0.7818609E-02  0.8330275E-01
        1   -1    0    0  501    0  0.00000000000E+00  0.00000000000E+00  0.22150754174E+04  0.22150754174E+04  0.50400001928E-02 0. -1.
       -1   -1    0    0    0  501  0.00000000000E+00  0.00000000000E+00 -0.83170943360E+03  0.83170943362E+03  0.50400001928E-02 0.  1.
    10030    2    1    2    0    0  0.00000000000E+00  0.00000000000E+00  0.13833659838E+04  0.30467848510E+04  0.27146263985E+04 0.  0.
        4    1    3    3  502    0  0.76850054649E+03  0.87955356891E+03 -0.84361321614E+02  0.11710363000E+04  0.12699999809E+01 0. -1.
       -4    1    3    3    0  502 -0.76850054649E+03 -0.87955356891E+03  0.14677273054E+04  0.18757485510E+04  0.12699999809E+01 0.  1.
</event>
<event>
 5   0  0.3199840E-06  0.2651267E+04  0.7818609E-02  0.8350993E-01
        1   -1    0    0  501    0  0.00000000000E+00  0.00000000000E+00  0.15338420644E+04  0.15338420644E+04  0.50400001928E-02 0.  1.
       -1   -1    0    0    0  501  0.00000000000E+00  0.00000000000E+00 -0.11456878135E+04  0.11456878136E+04  0.50400001928E-02 0. -1.
    10030    2    1    2    0    0  0.00000000000E+00  0.00000000000E+00  0.38815425087E+03  0.26795298780E+04  0.26512669885E+04 0.  0.
        1    1    3    3  502    0  0.10731726759E+04  0.58788851791E+03  0.70940643932E+03  0.14144150727E+04  0.50400001928E-02 0.  1.
       -1    1    3    3    0  502 -0.10731726759E+04 -0.58788851791E+03 -0.32125218845E+03  0.12651148052E+04  0.50400001928E-02 0. -1.
</event>
<event>
 5   0  0.7812908E-06  0.2708258E+04  0.7818609E-02  0.8332330E-01
       -2   -1    0    0    0  501  0.00000000000E+00  0.00000000000E+00  0.95648331978E+03  0.95648331978E+03  0.25500000920E-02 0. -1.
        2   -1    0    0  501    0  0.00000000000E+00  0.00000000000E+00 -0.19170912504E+04  0.19170912504E+04  0.25500000920E-02 0.  1.
    10030    2    1    2    0    0  0.00000000000E+00  0.00000000000E+00 -0.96060793060E+03  0.28735745702E+04  0.27082583359E+04 0.  0.
        5    1    3    3  502    0 -0.83289999634E+03  0.10450903141E+00  0.65253927421E+03  0.10580888475E+04  0.46999998093E+01 0. -1.
       -5    1    3    3    0  502  0.83289999634E+03 -0.10450903141E+00 -0.16131472048E+04  0.18154857227E+04  0.46999998093E+01 0.  1.
</event>
<event>
 5   0  0.3013407E-06  0.2699287E+04  0.7818609E-02  0.8335237E-01
       -1   -1    0    0    0  501  0.00000000000E+00  0.00000000000E+00  0.10685657050E+04  0.10685657050E+04  0.50400001928E-02 0.  1.
        1   -1    0    0  501    0  0.00000000000E+00  0.00000000000E+00 -0.17046559977E+04  0.17046559977E+04  0.50400001928E-02 0. -1.
    10030    2    1    2    0    0  0.00000000000E+00  0.00000000000E+00 -0.63609029268E+03  0.27732217027E+04  0.26992865265E+04 0.  0.
        4    1    3    3  502    0  0.12122524223E+04  0.59011851466E+03 -0.38087181334E+03  0.14010213231E+04  0.12699999809E+01 0. -1.
       -4    1    3    3    0  502 -0.12122524223E+04 -0.59011851466E+03 -0.25521847934E+03  0.13722003796E+04  0.12699999809E+01 0.  1.
</event>
<event>
 5   0  0.3199840E-06  0.2679080E+04  0.7818609E-02  0.8341825E-01
        1   -1    0    0  501    0  0.00000000000E+00  0.00000000000E+00  0.11907915290E+04  0.11907915290E+04  0.50400001928E-02 0.  1.
       -1   -1    0    0    0  501  0.00000000000E+00  0.00000000000E+00 -0.15068700292E+04  0.15068700292E+04  0.50400001928E-02 0. -1.
    10030    2    1    2    0    0  0.00000000000E+00  0.00000000000E+00 -0.31607850022E+03  0.26976615583E+04  0.26790804886E+04 0.  0.
        1    1    3    3  502    0  0.65776063421E+02 -0.63378249920E+03 -0.13444988496E+04  0.14878453896E+04  0.50400001928E-02 0. -1.
       -1    1    3    3    0  502 -0.65776063421E+02  0.63378249920E+03  0.10284203494E+04  0.12098161686E+04  0.50400001928E-02 0.  1.
</event>
<event>
 5   0  0.7729970E-06  0.2685452E+04  0.7818609E-02  0.8339741E-01
       -2   -1    0    0    0  501  0.00000000000E+00  0.00000000000E+00  0.15640988664E+04  0.15640988664E+04  0.25500000920E-02 0.  1.
        2   -1    0    0  501    0  0.00000000000E+00  0.00000000000E+00 -0.11526845103E+04  0.11526845103E+04  0.25500000920E-02 0. -1.
    10030    2    1    2    0    0  0.00000000000E+00  0.00000000000E+00  0.41141435615E+03  0.27167833767E+04  0.26854515717E+04 0.  0.
        4    1    3    3  502    0  0.38836737959E+03  0.10304053878E+04  0.98301163891E+03  0.14761022931E+04  0.12699999809E+01 0.  1.
       -4    1    3    3    0  502 -0.38836737959E+03 -0.10304053878E+04 -0.57159728276E+03  0.12406810836E+04  0.12699999809E+01 0. -1.
</event>
<event>
 5   0  0.3028601E-06  0.2704387E+04  0.7818609E-02  0.8333583E-01
       -1   -1    0    0    0  501  0.00000000000E+00  0.00000000000E+00  0.57579108183E+03  0.57579108185E+03  0.50400001928E-02 0. -1.
        1   -1    0    0  501    0  0.00000000000E+00  0.00000000000E+00 -0.31755054526E+04  0.31755054526E+04  0.50400001928E-02 0.  1.
    10030    2    1    2    0    0  0.00000000000E+00  0.00000000000E+00 -0.25997143707E+04  0.37512965344E+04  0.27043873391E+04 0.  0.
        3    1    3    3  502    0 -0.45457303293E+03  0.12310234079E+04 -0.17522618309E+04  0.21891726307E+04  0.10100000352E+00 0.  1.
       -3    1    3    3    0  502  0.45457303293E+03 -0.12310234079E+04 -0.84745253987E+03  0.15621239037E+04  0.10100000352E+00 0. -1.
</event>
<event>
 5   0  0.3028601E-06  0.2708752E+04  0.7818609E-02  0.8332171E-01
        1   -1    0    0  501    0  0.00000000000E+00  0.00000000000E+00  0.12739616017E+04  0.12739616017E+04  0.50400001928E-02 0. -1.
       -1   -1    0    0    0  501  0.00000000000E+00  0.00000000000E+00 -0.14398661191E+04  0.14398661191E+04  0.50400001928E-02 0.  1.
    10030    2    1    2    0    0  0.00000000000E+00  0.00000000000E+00 -0.16590451740E+03  0.27138277209E+04  0.27087518509E+04 0.  0.
        3    1    3    3  502    0  0.97755069960E+03  0.83241635367E+03 -0.51481891711E+03  0.13833151788E+04  0.10100000352E+00 0. -1.
       -3    1    3    3    0  502 -0.97755069960E+03 -0.83241635367E+03  0.34891439971E+03  0.13305125421E+04  0.10100000352E+00 0.  1.
</event>
<event>
 5   0  0.3199840E-06  0.2698871E+04  0.7818609E-02  0.8335371E-01
       -1   -1    0    0    0  501  0.00000000000E+00  0.00000000000E+00  0.18567056647E+04  0.18567056647E+04  0.50400001928E-02 0. -1.
        1   -1    0    0  501    0  0.00000000000E+00  0.00000000000E+00 -0.98075675998E+03  0.98075675999E+03  0.50400001928E-02 0.  1.
    10030    2    1    2    0    0  0.00000000000E+00  0.00000000000E+00  0.87594890476E+03  0.28374624247E+04  0.26988713434E+04 0.  0.
        1    1    3    3  502    0  0.54513320812E+03  0.64272910284E+03  0.15459940474E+04  0.17607863326E+04  0.50400001928E-02 0. -1.
       -1    1    3    3    0  502 -0.54513320812E+03 -0.64272910284E+03 -0.67004514266E+03  0.10766760922E+04  0.50400001928E-02 0.  1.
</event>
<event>
 5   0  0.3089218E-06  0.2695958E+04  0.7818609E-02  0.8336318E-01
        1   -1    0    0  501    0  0.00000000000E+00  0.00000000000E+00  0.11496486989E+04  0.11496486989E+04  0.50400001928E-02 0.  1.
       -1   -1    0    0    0  501  0.00000000000E+00  0.00000000000E+00 -0.15805238361E+04  0.15805238361E+04  0.50400001928E-02 0. -1.
    10030    2    1    2    0    0  0.00000000000E+00  0.00000000000E+00 -0.43087513718E+03  0.27301725350E+04  0.26959578422E+04 0.  0.
        5    1    3    3  502    0 -0.10026255518E+04  0.37195133885E+03 -0.10464734426E+04  0.14962401384E+04  0.46999998093E+01 0. -1.
       -5    1    3    3    0  502  0.10026255518E+04 -0.37195133885E+03  0.61559830543E+03  0.12339323966E+04  0.46999998093E+01 0.  1.
</event>
<event>
 5   0  0.3089218E-06  0.2697702E+04  0.7818609E-02  0.8335751E-01
       -1   -1    0    0    0  501  0.00000000000E+00  0.00000000000E+00  0.10868220242E+04  0.10868220242E+04  0.50400001928E-02 0. -1.
        1   -1    0    0  501    0  0.00000000000E+00  0.00000000000E+00 -0.16740536915E+04  0.16740536915E+04  0.50400001928E-02 0.  1.
    10030    2    1    2    0    0  0.00000000000E+00  0.00000000000E+00 -0.58723166726E+03  0.27608757157E+04  0.26977015563E+04 0.  0.
        5    1    3    3  502    0 -0.10587878661E+04 -0.26808967654E+03 -0.11036511692E+04  0.15527304381E+04  0.46999998093E+01 0.  1.
       -5    1    3    3    0  502  0.10587878661E+04  0.26808967654E+03  0.51641950195E+03  0.12081452777E+04  0.46999998093E+01 0. -1.
</event>
<event>
 5   0  0.3046300E-06  0.2714340E+04  0.7818609E-02  0.8330367E-01
        1   -1    0    0  501    0  0.00000000000E+00  0.00000000000E+00  0.12002941703E+04  0.12002941703E+04  0.50400001928E-02 0.  1.
       -1   -1    0    0    0  501  0.00000000000E+00  0.00000000000E+00 -0.15345492524E+04  0.15345492525E+04  0.50400001928E-02 0. -1.
    10030    2    1    2    0    0  0.00000000000E+00  0.00000000000E+00 -0.33425508214E+03  0.27348434228E+04  0.27143400832E+04 0.  0.
        2    1    3    3  502    0 -0.86866521694E+03  0.89586318986E+03 -0.70478789033E+03  0.14331350545E+04  0.25500000920E-02 0. -1.
       -2    1    3    3    0  502  0.86866521694E+03 -0.89586318986E+03  0.37053280818E+03  0.13017083683E+04  0.25500000920E-02 0.  1.
</event>
<event>
 5   0  0.3046300E-06  0.2668118E+04  0.7818609E-02  0.8345424E-01
        1   -1    0    0  501    0  0.00000000000E+00  0.00000000000E+00  0.85777432541E+03  0.85777432543E+03  0.50400001928E-02 0.  1.
       -1   -1    0    0    0  501  0.00000000000E+00  0.00000000000E+00 -0.20748041189E+04  0.20748041189E+04  0.50400001928E-02 0. -1.
    10030    2    1    2    0    0  0.00000000000E+00  0.00000000000E+00 -0.12170297935E+04  0.29325784443E+04  0.26681182159E+04 0.  0.
        2    1    3    3  502    0 -0.78479539582E+03  0.45968397925E+03 -0.16812121856E+04  0.19114621594E+04  0.25500000920E-02 0. -1.
       -2    1    3    3    0  502  0.78479539582E+03 -0.45968397925E+03  0.46418239210E+03  0.10211162849E+04  0.25500000920E-02 0.  1.
</event>
<event>
 5   0  0.3046300E-06  0.2698722E+04  0.7818609E-02  0.8335420E-01
        1   -1    0    0  501    0  0.00000000000E+00  0.00000000000E+00  0.20262111556E+04  0.20262111556E+04  0.50400001928E-02 0. -1.
       -1   -1    0    0    0  501  0.00000000000E+00  0.00000000000E+00 -0.89861041607E+03  0.89861041608E+03  0.50400001928E-02 0.  1.
    10030    2    1    2    0    0  0.00000000000E+00  0.00000000000E+00  0.11276007395E+04  0.29248215716E+04  0.26987215118E+04 0.  0.
        2    1    3    3  502    0  0.77339027647E+03  0.48438775427E+03 -0.51346344373E+03  0.10470953750E+04  0.25500000920E-02 0.  1.
       -2    1    3    3    0  502 -0.77339027647E+03 -0.48438775427E+03  0.16410641832E+04  0.18777261967E+04  0.25500000920E-02 0. -1.
</event>
<event>
 5   0  0.7812908E-06  0.2686968E+04  0.7818609E-02  0.8339246E-01
        2   -1    0    0  501    0  0.00000000000E+00  0.00000000000E+00  0.13451307031E+04  0.13451307032E+04  0.25500000920E-02 0.  1.
       -2   -1    0    0    0  501  0.00000000000E+00  0.00000000000E+00 -0.13418397988E+04  0.13418397988E+04  0.25500000920E-02 0. -1.
    10030    2    1    2    0    0  0.00000000000E+00  0.00000000000E+00  0.32909043197E+01  0.26869705020E+04  0.26869684867E+04 0.  0.
        5    1    3    3  502    0 -0.53851336379E+03  0.90990326427E+01 -0.12291472433E+04  0.13419778206E+04  0.46999998093E+01 0. -1.
       -5    1    3    3    0  502  0.53851336379E+03 -0.90990326427E+01  0.12324381476E+04  0.13449926814E+04  0.46999998093E+01 0.  1.
</event>
<event>
 5   0  0.3199840E-06  0.2681768E+04  0.7818609E-02  0.8340945E-01
        1   -1    0    0  501    0  0.00000000000E+00  0.00000000000E+00  0.13972587236E+04  0.13972587236E+04  0.50400001928E-02 0. -1.
       -1   -1    0    0    0  501  0.00000000000E+00  0.00000000000E+00 -0.12867840160E+04  0.12867840161E+04  0.50400001928E-02 0.  1.
    10030    2    1    2    0    0  0.00000000000E+00  0.00000000000E+00  0.11047470751E+03  0.26840427396E+04  0.26817682165E+04 0.  0.
        1    1    3    3  502    0 -0.27046201411E+03  0.84592815278E+03 -0.95021712713E+03  0.13006370476E+04  0.50400001928E-02 0.  1.
       -1    1    3    3    0  502  0.27046201411E+03 -0.84592815278E+03  0.10606918346E+04  0.13834056921E+04  0.50400001928E-02 0. -1.
</event>
<event>
 5   0  0.2654625E-06  0.2418778E+04  0.7818609E-02  0.8432507E-01
        3   -1    0    0  501    0  0.00000000000E+00  0.00000000000E+00  0.11867728989E+04  0.11867729032E+04  0.10100000352E+00 0. -1.
       -3   -1    0    0    0  501  0.00000000000E+00  0.00000000000E+00 -0.12324362694E+04  0.12324362735E+04  0.10100000352E+00 0.  1.
    10030    2    1    2    0    0  0.00000000000E+00  0.00000000000E+00 -0.45663370481E+02  0.24192091767E+04  0.24187781827E+04 0.  0.
        3    1    3    3  502    0  0.27636544478E+02 -0.25598618029E+03 -0.12047060101E+04  0.12319128557E+04  0.10100000352E+00 0.  1.
       -3    1    3    3    0  502 -0.27636544478E+02  0.25598618029E+03  0.11590426396E+04  0.11872963210E+04  0.10100000352E+00 0. -1.
</event>
<event>
 5   0  0.7812908E-06  0.2699157E+04  0.7818609E-02  0.8335279E-01
        2   -1    0    0  501    0  0.00000000000E+00  0.00000000000E+00  0.11605784615E+04  0.11605784615E+04  0.25500000920E-02 0. -1.
       -2   -1    0    0    0  501  0.00000000000E+00  0.00000000000E+00 -0.15693566743E+04  0.15693566743E+04  0.25500000920E-02 0.  1.
    10030    2    1    2    0    0  0.00000000000E+00  0.00000000000E+00 -0.40877821280E+03  0.27299351359E+04  0.26991565755E+04 0.  0.
        5    1    3    3  502    0 -0.31422030889E+03 -0.96529477161E+03  0.69502691380E+03  0.12302897624E+04  0.46999998093E+01 0. -1.
       -5    1    3    3    0  502  0.31422030889E+03  0.96529477161E+03 -0.11038051266E+04  0.14996453735E+04  0.46999998093E+01 0.  1.
</event>
<event>
 5   0  0.3013407E-06  0.2500563E+04  0.7818609E-02  0.8402785E-01
        1   -1    0    0  501    0  0.00000000000E+00  0.00000000000E+00  0.59452068555E+03  0.59452068557E+03  0.50400001928E-02 0.  1.
       -1   -1    0    0    0  501  0.00000000000E+00  0.00000000000E+00 -0.26293510722E+04  0.26293510722E+04  0.50400001928E-02 0. -1.
    10030    2    1    2    0    0  0.00000000000E+00  0.00000000000E+00 -0.20348303867E+04  0.32238717578E+04  0.25005628183E+04 0.  0.
        4    1    3    3  502    0  0.84014177164E+03  0.69242938331E+03 -0.22485637237E+03  0.11116917956E+04  0.12699999809E+01 0.  1.
       -4    1    3    3    0  502 -0.84014177164E+03 -0.69242938331E+03 -0.18099740143E+04  0.21121799622E+04  0.12699999809E+01 0. -1.
</event>
<event>
 5   0  0.7729970E-06  0.2696322E+04  0.7818609E-02  0.8336199E-01
        2   -1    0    0  501    0  0.00000000000E+00  0.00000000000E+00  0.20218811731E+04  0.20218811731E+04  0.25500000920E-02 0. -1.
       -2   -1    0    0    0  501  0.00000000000E+00  0.00000000000E+00 -0.89893443196E+03  0.89893443197E+03  0.25500000920E-02 0.  1.
    10030    2    1    2    0    0  0.00000000000E+00  0.00000000000E+00  0.11229467411E+04  0.29208156051E+04  0.26963223871E+04 0.  0.
        4    1    3    3  502    0  0.10380174809E+04  0.52762464857E+03 -0.17456024027E+03  0.11774298072E+04  0.12699999809E+01 0.  1.
       -4    1    3    3    0  502 -0.10380174809E+04 -0.52762464857E+03  0.12975069814E+04  0.17433857979E+04  0.12699999809E+01 0. -1.
</event>
<event>
 5   0  0.8407622E-06  0.2579552E+04  0.7818609E-02  0.8375180E-01
        2   -1    0    0  501    0  0.00000000000E+00  0.00000000000E+00  0.12632736918E+04  0.12632736918E+04  0.25500000920E-02 0.  1.
       -2   -1    0    0    0  501  0.00000000000E+00  0.00000000000E+00 -0.13168343770E+04  0.13168343770E+04  0.25500000920E-02 0. -1.
    10030    2    1    2    0    0  0.00000000000E+00  0.00000000000E+00 -0.53560685178E+02  0.25801080688E+04  0.25795520735E+04 0.  0.
        1    1    3    3  502    0  0.46264521943E+03 -0.48413786319E+03  0.10757694352E+04  0.12671661088E+04  0.50400001928E-02 0.  1.
       -1    1    3    3    0  502 -0.46264521943E+03  0.48413786319E+03 -0.11293301203E+04  0.13129419600E+04  0.50400001928E-02 0. -1.
</event>
<event>
 5   0  0.3028601E-06  0.2608622E+04  0.7818609E-02  0.8365278E-01
       -1   -1    0    0    0  501  0.00000000000E+00  0.00000000000E+00  0.11862675889E+04  0.11862675890E+04  0.50400001928E-02 0.  1.
        1   -1    0    0  501    0  0.00000000000E+00  0.00000000000E+00 -0.14341007346E+04  0.14341007346E+04  0.50400001928E-02 0. -1.
    10030    2    1    2    0    0  0.00000000000E+00  0.00000000000E+00 -0.24783314567E+03  0.26203683236E+04  0.26086220277E+04 0.  0.
        3    1    3    3  502    0 -0.14170841890E+03 -0.29535496374E+03 -0.13921034919E+04  0.14301286561E+04  0.10100000352E+00 0. -1.
       -3    1    3    3    0  502  0.14170841890E+03  0.29535496374E+03  0.11442703462E+04  0.11902396675E+04  0.10100000352E+00 0.  1.
</event>
<event>
 5   0  0.8213334E-06  0.2677117E+04  0.7818609E-02  0.8342468E-01
       -2   -1    0    0    0  501  0.00000000000E+00  0.00000000000E+00  0.18746569778E+04  0.18746569778E+04  0.25500000920E-02 0. -1.
        2   -1    0    0  501    0  0.00000000000E+00  0.00000000000E+00 -0.95576911517E+03  0.95576911518E+03  0.25500000920E-02 0.  1.
    10030    2    1    2    0    0  0.00000000000E+00  0.00000000000E+00  0.91888786264E+03  0.28304260930E+04  0.26771172861E+04 0.  0.
        3    1    3    3  502    0 -0.47508251152E+02 -0.13313218066E+04  0.59755563842E+03  0.14600505258E+04  0.10100000352E+00 0. -1.
       -3    1    3    3    0  502  0.47508251152E+02  0.13313218066E+04  0.32133222422E+03  0.13703755672E+04  0.10100000352E+00 0.  1.
</event>
<event>
 5   0  0.3013407E-06  0.2705345E+04  0.7818609E-02  0.8333273E-01
        1   -1    0    0  501    0  0.00000000000E+00  0.00000000000E+00  0.18115264045E+04  0.18115264045E+04  0.50400001928E-02 0.  1.
       -1   -1    0    0    0  501  0.00000000000E+00  0.00000000000E+00 -0.10100451602E+04  0.10100451602E+04  0.50400001928E-02 0. -1.
    10030    2    1    2    0    0  0.00000000000E+00  0.00000000000E+00  0.80148124431E+03  0.28215715647E+04  0.27053454326E+04 0.  0.
        4    1    3    3  502    0 -0.32540740026E+03  0.11607053071E+04 -0.23929723735E+03  0.12289798886E+04  0.12699999809E+01 0. -1.
       -4    1    3    3    0  502  0.32540740026E+03 -0.11607053071E+04  0.10407784817E+04  0.15925916761E+04  0.12699999809E+01 0.  1.
</event>
<event>
 5   0  0.7838364E-06  0.2674338E+04  0.7818609E-02  0.8343380E-01
       -2   -1    0    0    0  501  0.00000000000E+00  0.00000000000E+00  0.91318968234E+03  0.91318968234E+03  0.25500000920E-02 0. -1.
        2   -1    0    0  501    0  0.00000000000E+00  0.00000000000E+00 -0.19579956900E+04  0.19579956900E+04  0.25500000920E-02 0.  1.
    10030    2    1    2    0    0  0.00000000000E+00  0.00000000000E+00 -0.10448060076E+04  0.28711853723E+04  0.26743383946E+04 0.  0.
        2    1    3    3  502    0  0.22118357817E+03  0.27083670654E+03  0.86323364863E+03  0.93136836375E+03  0.25500000920E-02 0. -1.
       -2    1    3    3    0  502 -0.22118357817E+03 -0.27083670654E+03 -0.19080396563E+04  0.19398170086E+04  0.25500000920E-02 0.  1.
</event>
<event>
 5   0  0.3013407E-06  0.2654718E+04  0.7818609E-02  0.8349849E-01
        1   -1    0    0  501    0  0.00000000000E+00  0.00000000000E+00  0.97061703025E+03  0.97061703027E+03  0.50400001928E-02 0.  1.
       -1   -1    0    0    0  501  0.00000000000E+00  0.00000000000E+00 -0.18152185371E+04  0.18152185372E+04  0.50400001928E-02 0. -1.
    10030    2    1    2    0    0  0.00000000000E+00  0.00000000000E+00 -0.84460150689E+03  0.27858355674E+04  0.26547180836E+04 0.  0.
        4    1    3    3  502    0 -0.96488139676E+03 -0.25959919723E+03 -0.13392377063E+04  0.16709120563E+04  0.12699999809E+01 0. -1.
       -4    1    3    3    0  502  0.96488139676E+03  0.25959919723E+03  0.49463619939E+03  0.11149235111E+04  0.12699999809E+01 0.  1.
</event>
<event>
 5   0  0.3013407E-06  0.2707486E+04  0.7818609E-02  0.8332580E-01
       -1   -1    0    0    0  501  0.00000000000E+00  0.00000000000E+00  0.67493290051E+03  0.67493290052E+03  0.50400001928E-02 0.  1.
        1   -1    0    0  501    0  0.00000000000E+00  0.00000000000E+00 -0.27152623284E+04  0.27152623284E+04  0.50400001928E-02 0. -1.
    10030    2    1    2    0    0  0.00000000000E+00  0.00000000000E+00 -0.20403294279E+04  0.33901952289E+04  0.27074858293E+04 0.  0.
        4    1    3    3  502    0  0.99564551624E+03 -0.91150823468E+03 -0.89209532775E+03  0.16180213047E+04  0.12699999809E+01 0.  1.
       -4    1    3    3    0  502 -0.99564551624E+03  0.91150823468E+03 -0.11482341001E+04  0.17721739242E+04  0.12699999809E+01 0. -1.
</event>
<event>
 5   0  0.3046300E-06  0.2704334E+04  0.7818609E-02  0.8333600E-01
        1   -1    0    0  501    0  0.00000000000E+00  0.00000000000E+00  0.18852125210E+04  0.18852125210E+04  0.50400001928E-02 0.  1.
       -1   -1    0    0    0  501  0.00000000000E+00  0.00000000000E+00 -0.96984052475E+03  0.96984052477E+03  0.50400001928E-02 0. -1.
    10030    2    1    2    0    0  0.00000000000E+00  0.00000000000E+00  0.91537199625E+03  0.28550530458E+04  0.27043339296E+04 0.  0.
        2    1    3    3  502    0 -0.29508061319E+03  0.11712835044E+04  0.10993228652E+04  0.16332447392E+04  0.25500000920E-02 0.  1.
       -2    1    3    3    0  502  0.29508061319E+03 -0.11712835044E+04 -0.18395086899E+03  0.12218083066E+04  0.25500000920E-02 0. -1.
</event>
<event>
 5   0  0.7838364E-06  0.2674791E+04  0.7818609E-02  0.8343231E-01
        2   -1    0    0  501    0  0.00000000000E+00  0.00000000000E+00  0.25830750778E+04  0.25830750778E+04  0.25500000920E-02 0. -1.
       -2   -1    0    0    0  501  0.00000000000E+00  0.00000000000E+00 -0.69244078456E+03  0.69244078457E+03  0.25500000920E-02 0.  1.
    10030    2    1    2    0    0  0.00000000000E+00  0.00000000000E+00  0.18906342932E+04  0.32755158623E+04  0.26747908579E+04 0.  0.
        2    1    3    3  502    0  0.11539940632E+04  0.31290992005E+03  0.21157388143E+03  0.12142398541E+04  0.25500000920E-02 0.  1.
       -2    1    3    3    0  502 -0.11539940632E+04 -0.31290992005E+03  0.16790604118E+04  0.20612760083E+04  0.25500000920E-02 0. -1.
</event>
<event>
 5   0  0.8407622E-06  0.2645088E+04  0.7818609E-02  0.8353045E-01
       -2   -1    0    0    0  501  0.00000000000E+00  0.00000000000E+00  0.73249423276E+03  0.73249423276E+03  0.25500000920E-02 0.  1.
        2   -1    0    0  501    0  0.00000000000E+00  0.00000000000E+00 -0.23878988894E+04  0.23878988894E+04  0.25500000920E-02 0. -1.
    10030    2    1    2    0    0  0.00000000000E+00  0.00000000000E+00 -0.16554046566E+04  0.31203931222E+04  0.26450876469E+04 0.  0.
        1    1    3    3  502    0 -0.27869070007E+03  0.12486859906E+04 -0.43248390306E+03  0.13505286135E+04  0.50400001928E-02 0.  1.
       -1    1    3    3    0  502  0.27869070007E+03 -0.12486859906E+04 -0.12229207536E+04  0.17698645087E+04  0.50400001928E-02 0. -1.
</event>
<event>
 5   0  0.2654625E-06  0.2712024E+04  0.7818609E-02  0.8331114E-01
        4   -1    0    0  501    0  0.00000000000E+00  0.00000000000E+00  0.11189750959E+04  0.11189758166E+04  0.12699999809E+01 0.  1.
       -4   -1    0    0    0  501  0.00000000000E+00  0.00000000000E+00 -0.16432595060E+04  0.16432599968E+04  0.12699999809E+01 0. -1.
    10030    2    1    2    0    0  0.00000000000E+00  0.00000000000E+00 -0.52428441009E+03  0.27622358134E+04  0.27120236994E+04 0.  0.
        5    1    3    3  502    0 -0.54323810228E+03  0.62841682325E+03 -0.13537745282E+04  0.15883144849E+04  0.46999998093E+01 0. -1.
       -5    1    3    3    0  502  0.54323810228E+03 -0.62841682325E+03  0.82949011813E+03  0.11739213285E+04  0.46999998093E+01 0.  1.
</event>
<event>
 5   0  0.8407622E-06  0.2735472E+04  0.7818609E-02  0.8323586E-01
        2   -1    0    0  501    0  0.00000000000E+00  0.00000000000E+00  0.13955087551E+04  0.13955087551E+04  0.25500000920E-02 0. -1.
       -2   -1    0    0    0  501  0.00000000000E+00  0.00000000000E+00 -0.13405163653E+04  0.13405163653E+04  0.25500000920E-02 0.  1.
    10030    2    1    2    0    0  0.00000000000E+00  0.00000000000E+00  0.54992389851E+02  0.27360251204E+04  0.27354724083E+04 0.  0.
        1    1    3    3  502    0 -0.12525102784E+04 -0.38171984040E+02  0.57575220982E+03  0.13790321624E+04  0.50400001928E-02 0. -1.
       -1    1    3    3    0  502  0.12525102784E+04  0.38171984040E+02 -0.52075981997E+03  0.13569929580E+04  0.50400001928E-02 0.  1.
</event>
<event>
 5   0  0.3199840E-06  0.2675611E+04  0.7818609E-02  0.8342962E-01
        1   -1    0    0  501    0  0.00000000000E+00  0.00000000000E+00  0.13806418231E+04  0.13806418231E+04  0.50400001928E-02 0.  1.
       -1   -1    0    0    0  501  0.00000000000E+00  0.00000000000E+00 -0.12962979831E+04  0.12962979831E+04  0.50400001928E-02 0. -1.
    10030    2    1    2    0    0  0.00000000000E+00  0.00000000000E+00  0.84343839993E+02  0.26769398061E+04  0.26756107419E+04 0.  0.
        1    1    3    3  502    0  0.64742466053E+03 -0.73346690676E+03  0.95508931622E+03  0.13672337022E+04  0.50400001928E-02 0. -1.
       -1    1    3    3    0  502 -0.64742466053E+03  0.73346690676E+03 -0.87074547622E+03  0.13097061040E+04  0.50400001928E-02 0.  1.
</event>
<event>
 5   0  0.7812908E-06  0.2712185E+04  0.7818609E-02  0.8331062E-01
        2   -1    0    0  501    0  0.00000000000E+00  0.00000000000E+00  0.26834068649E+04  0.26834068649E+04  0.25500000920E-02 0.  1.
       -2   -1    0    0    0  501  0.00000000000E+00  0.00000000000E+00 -0.68531769199E+03  0.68531769200E+03  0.25500000920E-02 0. -1.
    10030    2    1    2    0    0  0.00000000000E+00  0.00000000000E+00  0.19980891729E+04  0.33687245569E+04  0.27121845065E+04 0.  0.
        5    1    3    3  502    0  0.27469838702E+03 -0.90449758929E+02 -0.64655771397E+03  0.70830736987E+03  0.46999998093E+01 0. -1.
       -5    1    3    3    0  502 -0.27469838702E+03  0.90449758929E+02  0.26446468869E+04  0.26604171871E+04  0.46999998093E+01 0.  1.
</event>
<event>
 5   0  0.7729970E-06  0.2704211E+04  0.7818609E-02  0.8333640E-01
        2   -1    0    0  501    0  0.00000000000E+00  0.00000000000E+00  0.22808692973E+04  0.22808692973E+04  0.25500000920E-02 0. -1.
       -2   -1    0    0    0  501  0.00000000000E+00  0.00000000000E+00 -0.80153155871E+03  0.80153155872E+03  0.25500000920E-02 0.  1.
    10030    2    1    2    0    0  0.00000000000E+00  0.00000000000E+00  0.14793377386E+04  0.30824008560E+04  0.27042105858E+04 0.  0.
        4    1    3    3  502    0 -0.38468886222E+03 -0.24285739216E+02  0.22169156956E+04  0.22501760225E+04  0.12699999809E+01 0. -1.
       -4    1    3    3    0  502  0.38468886222E+03  0.24285739216E+02 -0.73757795706E+03  0.83222483349E+03  0.12699999809E+01 0.  1.
</event>
<event>
 5   0  0.7729970E-06  0.2716346E+04  0.7818609E-02  0.8329721E-01
       -2   -1    0    0    0  501  0.00000000000E+00  0.00000000000E+00  0.81408943776E+03  0.81408943777E+03  0.25500000920E-02 0.  1.
        2   -1    0    0  501    0  0.00000000000E+00  0.00000000000E+00 -0.22658853957E+04  0.22658853957E+04  0.25500000920E-02 0. -1.
    10030    2    1    2    0    0  0.00000000000E+00  0.00000000000E+00 -0.14517959579E+04  0.30799748335E+04  0.27163456097E+04 0.  0.
        4    1    3    3  502    0  0.38346258938E+03  0.14679205156E+03 -0.21938246771E+04  0.22319184104E+04  0.12699999809E+01 0. -1.
       -4    1    3    3    0  502 -0.38346258938E+03 -0.14679205156E+03  0.74202871914E+03  0.84805642311E+03  0.12699999809E+01 0.  1.
</event>
<event>
 5   0  0.3046300E-06  0.2679494E+04  0.7818609E-02  0.8341689E-01
        1   -1    0    0  501    0  0.00000000000E+00  0.00000000000E+00  0.14498929380E+04  0.14498929380E+04  0.50400001928E-02 0.  1.
       -1   -1    0    0    0  501  0.00000000000E+00  0.00000000000E+00 -0.12379684362E+04  0.12379684363E+04  0.50400001928E-02 0. -1.
    10030    2    1    2    0    0  0.00000000000E+00  0.00000000000E+00  0.21192450175E+03  0.26878613743E+04  0.26794937531E+04 0.  0.
        2    1    3    3  502    0 -0.10375566754E+04  0.72488093598E+03 -0.33466505546E+03  0.13091894154E+04  0.25500000920E-02 0.  1.
       -2    1    3    3    0  502  0.10375566754E+04 -0.72488093598E+03  0.54658955721E+03  0.13786719588E+04  0.25500000920E-02 0. -1.
</event>
<event>
 5   0  0.3028601E-06  0.2691105E+04  0.7818609E-02  0.8337897E-01
        1   -1    0    0  501    0  0.00000000000E+00  0.00000000000E+00  0.15215933071E+04  0.15215933071E+04  0.50400001928E-02 0.  1.
       -1   -1    0    0    0  501  0.00000000000E+00  0.00000000000E+00 -0.11898789560E+04  0.11898789560E+04  0.50400001928E-02 0. -1.
    10030    2    1    2    0    0  0.00000000000E+00  0.00000000000E+00  0.33171435110E+03  0.27114722630E+04  0.26911052418E+04 0.  0.
        3    1    3    3  502    0  0.13307259001E+04  0.15311215385E+03  0.29424641237E+03  0.13714429315E+04  0.10100000352E+00 0.  1.
       -3    1    3    3    0  502 -0.13307259001E+04 -0.15311215385E+03  0.37467938736E+02  0.13400293316E+04  0.10100000352E+00 0. -1.
</event>
<event>
 5   0  0.3089218E-06  0.2703473E+04  0.7818609E-02  0.8333879E-01
       -1   -1    0    0    0  501  0.00000000000E+00  0.00000000000E+00  0.13586258978E+04  0.13586258978E+04  0.50400001928E-02 0. -1.
        1   -1    0    0  501    0  0.00000000000E+00  0.00000000000E+00 -0.13448824342E+04  0.13448824342E+04  0.50400001928E-02 0.  1.
    10030    2    1    2    0    0  0.00000000000E+00  0.00000000000E+00  0.13743463575E+02  0.27035083320E+04  0.27034733989E+04 0.  0.
        5    1    3    3  502    0 -0.94310729860E+03  0.34678808956E+03 -0.89727304905E+03  0.13471578862E+04  0.46999998093E+01 0.  1.
       -5    1    3    3    0  502  0.94310729860E+03 -0.34678808956E+03  0.91101651262E+03  0.13563504459E+04  0.46999998093E+01 0. -1.
</event>
<event>
 5   0  0.7729970E-06  0.2739782E+04  0.7818609E-02  0.8322211E-01
        2   -1    0    0  501    0  0.00000000000E+00  0.00000000000E+00  0.18221771125E+04  0.18221771125E+04  0.25500000920E-02 0. -1.
       -2   -1    0    0    0  501  0.00000000000E+00  0.00000000000E+00 -0.10298677024E+04  0.10298677024E+04  0.25500000920E-02 0.  1.
    10030    2    1    2    0    0  0.00000000000E+00  0.00000000000E+00  0.79230941009E+03  0.28520448149E+04  0.27397820032E+04 0.  0.
        4    1    3    3  502    0 -0.71785626170E+03  0.11130031307E+04  0.76050514946E+03  0.15272404122E+04  0.12699999809E+01 0. -1.
       -4    1    3    3    0  502  0.71785626170E+03 -0.11130031307E+04  0.31804260635E+02  0.13248044027E+04  0.12699999809E+01 0.  1.
</event>
<event>
 5   0  0.7812908E-06  0.2692150E+04  0.7818609E-02  0.8337557E-01
       -2   -1    0    0    0  501  0.00000000000E+00  0.00000000000E+00  0.15402590263E+04  0.15402590263E+04  0.25500000920E-02 0.  1.
        2   -1    0    0  501    0  0.00000000000E+00  0.00000000000E+00 -0.11763721694E+04  0.11763721694E+04  0.25500000920E-02 0. -1.
    10030    2    1    2    0    0  0.00000000000E+00  0.00000000000E+00  0.36388685695E+03  0.27166311957E+04  0.26921499603E+04 0.  0.
        5    1    3    3  502    0 -0.92814468333E+03  0.65010687509E+03 -0.55116444099E+03  0.12601173887E+04  0.46999998093E+01 0. -1.
       -5    1    3    3    0  502  0.92814468333E+03 -0.65010687509E+03  0.91505129794E+03  0.14565138070E+04  0.46999998093E+01 0.  1.
</event>
<event>
 5   0  0.8407622E-06  0.2720444E+04  0.7818609E-02  0.8328402E-01
        2   -1    0    0  501    0  0.00000000000E+00  0.00000000000E+00  0.73453138253E+03  0.73453138254E+03  0.25500000920E-02 0. -1.
       -2   -1    0    0    0  501  0.00000000000E+00  0.00000000000E+00 -0.25188909031E+04  0.25188909031E+04  0.25500000920E-02 0.  1.
    10030    2    1    2    0    0  0.00000000000E+00  0.00000000000E+00 -0.17843595205E+04  0.32534222856E+04  0.27204443883E+04 0.  0.
        1    1    3    3  502    0  0.10935283870E+04  0.71329332854E+03 -0.43582747509E+03  0.13764219171E+04  0.50400001928E-02 0. -1.
       -1    1    3    3    0  502 -0.10935283870E+04 -0.71329332854E+03 -0.13485320454E+04  0.18770003685E+04  0.50400001928E-02 0.  1.
</event>
<event>
 5   0  0.8407622E-06  0.2721826E+04  0.7818609E-02  0.8327958E-01
        2   -1    0    0  501    0  0.00000000000E+00  0.00000000000E+00  0.78876620794E+03  0.78876620794E+03  0.25500000920E-02 0.  1.
       -2   -1    0    0    0  501  0.00000000000E+00  0.00000000000E+00 -0.23480781008E+04  0.23480781008E+04  0.25500000920E-02 0. -1.
    10030    2    1    2    0    0  0.00000000000E+00  0.00000000000E+00 -0.15593118929E+04  0.31368443088E+04  0.27218263424E+04 0.  0.
        1    1    3    3  502    0 -0.10415024382E+04  0.20349067456E+03 -0.17615973434E+04  0.20565410241E+04  0.50400001928E-02 0.  1.
       -1    1    3    3    0  502  0.10415024382E+04 -0.20349067456E+03  0.20228545047E+03  0.10803032847E+04  0.50400001928E-02 0. -1.
</event>
<event>
 5   0  0.2654625E-06  0.2692415E+04  0.7818609E-02  0.8337470E-01
        3   -1    0    0  501    0  0.00000000000E+00  0.00000000000E+00  0.26977306645E+04  0.26977306664E+04  0.10100000352E+00 0. -1.
       -3   -1    0    0    0  501  0.00000000000E+00  0.00000000000E+00 -0.67177763533E+03  0.67177764292E+03  0.10100000352E+00 0.  1.
    10030    2    1    2    0    0  0.00000000000E+00  0.00000000000E+00  0.20259530292E+04  0.33695083093E+04  0.26924153784E+04 0.  0.
        2    1    3    3  502    0  0.12182021278E+04  0.74777191897E+02  0.17238655329E+04  0.21121838054E+04  0.25500000920E-02 0. -1.
       -2    1    3    3    0  502 -0.12182021278E+04 -0.74777191897E+02  0.30208749630E+03  0.12573245039E+04  0.25500000920E-02 0.  1.
</event>
<event>
 5   0  0.2654625E-06  0.2704260E+04  0.7818609E-02  0.8333624E-01
       -3   -1    0    0    0  501  0.00000000000E+00  0.00000000000E+00  0.16127121450E+04  0.16127121482E+04  0.10100000352E+00 0.  1.
        3   -1    0    0  501    0  0.00000000000E+00  0.00000000000E+00 -0.11336527123E+04  0.11336527168E+04  0.10100000352E+00 0. -1.
    10030    2    1    2    0    0  0.00000000000E+00  0.00000000000E+00  0.47905943272E+03  0.27463648650E+04  0.27042599785E+04 0.  0.
        4    1    3    3  502    0 -0.22235828180E+03 -0.12796026442E+04  0.62145387323E+03  0.14398029942E+04  0.12699999809E+01 0.  1.
       -4    1    3    3    0  502  0.22235828180E+03  0.12796026442E+04 -0.14239444051E+03  0.13065618708E+04  0.12699999809E+01 0. -1.
</event>
<event>
 5   0  0.7729970E-06  0.2676137E+04  0.7818609E-02  0.8342789E-01
        2   -1    0    0  501    0  0.00000000000E+00  0.00000000000E+00  0.14018004470E+04  0.14018004470E+04  0.25500000920E-02 0. -1.
       -2   -1    0    0    0  501  0.00000000000E+00  0.00000000000E+00 -0.12772343315E+04  0.12772343315E+04  0.25500000920E-02 0.  1.
    10030    2    1    2    0    0  0.00000000000E+00  0.00000000000E+00  0.12456611545E+03  0.26790347785E+04  0.26761372587E+04 0.  0.
        4    1    3    3  502    0 -0.78475677847E+03 -0.25032788943E+03  0.11179003642E+04  0.13886000471E+04  0.12699999809E+01 0. -1.
       -4    1    3    3    0  502  0.78475677847E+03  0.25032788943E+03 -0.99333424873E+03  0.12904347315E+04  0.12699999809E+01 0.  1.
</event>
<event>
 5   0  0.3013407E-06  0.2725788E+04  0.7818609E-02  0.8326686E-01
        1   -1    0    0  501    0  0.00000000000E+00  0.00000000000E+00  0.12171413241E+04  0.12171413242E+04  0.50400001928E-02 0.  1.
       -1   -1    0    0    0  501  0.00000000000E+00  0.00000000000E+00 -0.15261007026E+04  0.15261007026E+04  0.50400001928E-02 0. -1.
    10030    2    1    2    0    0  0.00000000000E+00  0.00000000000E+00 -0.30895937848E+03  0.27432420268E+04  0.27257881282E+04 0.  0.
        4    1    3    3  502    0 -0.31121515537E+03 -0.12345384286E+04 -0.64394627857E+03  0.14267474994E+04  0.12699999809E+01 0. -1.
       -4    1    3    3    0  502  0.31121515537E+03  0.12345384286E+04  0.33498690009E+03  0.13164945274E+04  0.12699999809E+01 0.  1.
</event>
<event>
 5   0  0.7729970E-06  0.2703757E+04  0.7818609E-02  0.8333787E-01
        2   -1    0    0  501    0  0.00000000000E+00  0.00000000000E+00  0.17359868020E+04  0.17359868020E+04  0.25500000920E-02 0.  1.
       -2   -1    0    0    0  501  0.00000000000E+00  0.00000000000E+00 -0.10527587959E+04  0.10527587959E+04  0.25500000920E-02 0. -1.
    10030    2    1    2    0    0  0.00000000000E+00  0.00000000000E+00  0.68322800614E+03  0.27887455979E+04  0.27037569236E+04 0.  0.
        4    1    3    3  502    0  0.49017295259E+03 -0.12557676350E+04  0.44655640301E+03  0.14200831351E+04  0.12699999809E+01 0.  1.
       -4    1    3    3    0  502 -0.49017295259E+03  0.12557676350E+04  0.23667160313E+03  0.13686624629E+04  0.12699999809E+01 0. -1.
</event>
<event>
 5   0  0.3028601E-06  0.2674802E+04  0.7818609E-02  0.8343227E-01
        1   -1    0    0  501    0  0.00000000000E+00  0.00000000000E+00  0.18582836078E+04  0.18582836078E+04  0.50400001928E-02 0. -1.
       -1   -1    0    0    0  501  0.00000000000E+00  0.00000000000E+00 -0.96252344216E+03  0.96252344217E+03  0.50400001928E-02 0.  1.
    10030    2    1    2    0    0  0.00000000000E+00  0.00000000000E+00  0.89576016567E+03  0.28208070500E+04  0.26748020747E+04 0.  0.
        3    1    3    3  502    0 -0.53666549892E+02 -0.11287934958E+04  0.12021752738E+04  0.16499334089E+04  0.10100000352E+00 0. -1.
       -3    1    3    3    0  502  0.53666549892E+02  0.11287934958E+04 -0.30641510808E+03  0.11708736411E+04  0.10100000352E+00 0.  1.
</event>
<event>
 5   0  0.3013407E-06  0.2698333E+04  0.7818609E-02  0.8335546E-01
        1   -1    0    0  501    0  0.00000000000E+00  0.00000000000E+00  0.14903847097E+04  0.14903847098E+04  0.50400001928E-02 0.  1.
       -1   -1    0    0    0  501  0.00000000000E+00  0.00000000000E+00 -0.12213294589E+04  0.12213294589E+04  0.50400001928E-02 0. -1.
    10030    2    1    2    0    0  0.00000000000E+00  0.00000000000E+00  0.26905525081E+03  0.27117141687E+04  0.26983333754E+04 0.  0.
        4    1    3    3  502    0  0.12772909057E+04  0.22010725088E+03 -0.24193631178E+03  0.13185044754E+04  0.12699999809E+01 0. -1.
       -4    1    3    3    0  502 -0.12772909057E+04 -0.22010725088E+03  0.51099156260E+03  0.13932096933E+04  0.12699999809E+01 0.  1.
</event>
<event>
 5   0  0.3046300E-06  0.2719700E+04  0.7818609E-02  0.8328641E-01
       -1   -1    0    0    0  501  0.00000000000E+00  0.00000000000E+00  0.29851060505E+04  0.29851060505E+04  0.50400001928E-02 0. -1.
        1   -1    0    0  501    0  0.00000000000E+00  0.00000000000E+00 -0.61947272644E+03  0.61947272646E+03  0.50400001928E-02 0.  1.
    10030    2    1    2    0    0  0.00000000000E+00  0.00000000000E+00  0.23656333241E+04  0.36045787770E+04  0.27196998245E+04 0.  0.
        2    1    3    3  502    0  0.58167797703E+03 -0.26184415247E+03 -0.40887287700E+03  0.75768638545E+03  0.25500000920E-02 0.  1.
       -2    1    3    3    0  502 -0.58167797703E+03  0.26184415247E+03  0.27745062011E+04  0.28468923915E+04  0.25500000920E-02 0. -1.
</event>
<event>
 5   0  0.8407622E-06  0.2691124E+04  0.7818609E-02  0.8337891E-01
        2   -1    0    0  501    0  0.00000000000E+00  0.00000000000E+00  0.20172291254E+04  0.20172291254E+04  0.25500000920E-02 0. -1.
       -2   -1    0    0    0  501  0.00000000000E+00  0.00000000000E+00 -0.89753653458E+03  0.89753653458E+03  0.25500000920E-02 0.  1.
    10030    2    1    2    0    0  0.00000000000E+00  0.00000000000E+00  0.11196925908E+04  0.29147656600E+04  0.26911238089E+04 0.  0.
        1    1    3    3  502    0 -0.90696413113E+03  0.76573607518E+03 -0.12653817450E+03  0.11937116828E+04  0.50400001928E-02 0.  1.
       -1    1    3    3    0  502  0.90696413113E+03 -0.76573607518E+03  0.12462307653E+04  0.17210539772E+04  0.50400001928E-02 0. -1.
</event>
<event>
 5   0  0.3028601E-06  0.2728097E+04  0.7818609E-02  0.8325946E-01
       -1   -1    0    0    0  501  0.00000000000E+00  0.00000000000E+00  0.12403492579E+04  0.12403492579E+04  0.50400001928E-02 0. -1.
        1   -1    0    0  501    0  0.00000000000E+00  0.00000000000E+00 -0.15000846767E+04  0.15000846767E+04  0.50400001928E-02 0.  1.
    10030    2    1    2    0    0  0.00000000000E+00  0.00000000000E+00 -0.25973541879E+03  0.27404339347E+04  0.27280974437E+04 0.  0.
        3    1    3    3  502    0 -0.99521174666E+03 -0.52287192213E+03  0.64614582260E+03  0.12966672287E+04  0.10100000352E+00 0. -1.
       -3    1    3    3    0  502  0.99521174666E+03  0.52287192213E+03 -0.90588124140E+03  0.14437667060E+04  0.10100000352E+00 0.  1.
</event>
<event>
 5   0  0.8407622E-06  0.2616217E+04  0.7818609E-02  0.8362713E-01
        2   -1    0    0  501    0  0.00000000000E+00  0.00000000000E+00  0.14096243067E+04  0.14096243067E+04  0.25500000920E-02 0.  1.
       -2   -1    0    0    0  501  0.00000000000E+00  0.00000000000E+00 -0.12139035471E+04  0.12139035471E+04  0.25500000920E-02 0. -1.
    10030    2    1    2    0    0  0.00000000000E+00  0.00000000000E+00  0.19572075959E+03  0.26235278538E+04  0.26162170751E+04 0.  0.
        1    1    3    3  502    0  0.76409507854E+03  0.53111466487E+03 -0.82406926556E+03  0.12429860139E+04  0.50400001928E-02 0. -1.
       -1    1    3    3    0  502 -0.76409507854E+03 -0.53111466487E+03  0.10197900251E+04  0.13805418399E+04  0.50400001928E-02 0.  1.
</event>
<event>
 5   0  0.7838364E-06  0.2702930E+04  0.7818609E-02  0.8334055E-01
       -2   -1    0    0    0  501  0.00000000000E+00  0.00000000000E+00  0.13594158190E+04  0.13594158190E+04  0.25500000920E-02 0.  1.
        2   -1    0    0  501    0  0.00000000000E+00  0.00000000000E+00 -0.13435609097E+04  0.13435609097E+04  0.25500000920E-02 0. -1.
    10030    2    1    2    0    0  0.00000000000E+00  0.00000000000E+00  0.15854909253E+02  0.27029767287E+04  0.27029302281E+04 0.  0.
        2    1    3    3  502    0  0.86471627652E+03  0.26153311717E+03 -0.99723865469E+03  0.13455923397E+04  0.25500000920E-02 0. -1.
       -2    1    3    3    0  502 -0.86471627652E+03 -0.26153311717E+03  0.10130935639E+04  0.13573843890E+04  0.25500000920E-02 0.  1.
</event>
<event>
 5   0  0.7729970E-06  0.2758881E+04  0.7818609E-02  0.8316149E-01
        2   -1    0    0  501    0  0.00000000000E+00  0.00000000000E+00  0.15912804910E+04  0.15912804910E+04  0.25500000920E-02 0. -1.
       -2   -1    0    0    0  501  0.00000000000E+00  0.00000000000E+00 -0.11958016156E+04  0.11958016156E+04  0.25500000920E-02 0.  1.
    10030    2    1    2    0    0  0.00000000000E+00  0.00000000000E+00  0.39547887537E+03  0.27870821066E+04  0.27588807745E+04 0.  0.
        4    1    3    3  502    0  0.10749877761E+04 -0.61456307437E+03  0.81187439822E+03  0.14806850248E+04  0.12699999809E+01 0.  1.
       -4    1    3    3    0  502 -0.10749877761E+04  0.61456307437E+03 -0.41639552285E+03  0.13063970819E+04  0.12699999809E+01 0. -1.
</event>
<event>
 5   0  0.3013407E-06  0.2669253E+04  0.7818609E-02  0.8345051E-01
       -1   -1    0    0    0  501  0.00000000000E+00  0.00000000000E+00  0.98761150759E+03  0.98761150760E+03  0.50400001928E-02 0.  1.
        1   -1    0    0  501    0  0.00000000000E+00  0.00000000000E+00 -0.18035708912E+04  0.18035708912E+04  0.50400001928E-02 0. -1.
    10030    2    1    2    0    0  0.00000000000E+00  0.00000000000E+00 -0.81595938360E+03  0.27911823988E+04  0.26692526047E+04 0.  0.
        4    1    3    3  502    0 -0.10772725592E+04 -0.12472108668E+03 -0.12214310377E+04  0.16333912296E+04  0.12699999809E+01 0.  1.
       -4    1    3    3    0  502  0.10772725592E+04  0.12472108668E+03  0.40547165412E+03  0.11577911692E+04  0.12699999809E+01 0. -1.
</event>
<event>
 5   0  0.3199840E-06  0.2689037E+04  0.7818609E-02  0.8338571E-01
        1   -1    0    0  501    0  0.00000000000E+00  0.00000000000E+00  0.95622518648E+03  0.95622518649E+03  0.50400001928E-02 0.  1.
       -1   -1    0    0    0  501  0.00000000000E+00  0.00000000000E+00 -0.18904861495E+04  0.18904861496E+04  0.50400001928E-02 0. -1.
    10030    2    1    2    0    0  0.00000000000E+00  0.00000000000E+00 -0.93426096307E+03  0.28467113360E+04  0.26890373526E+04 0.  0.
        1    1    3    3  502    0  0.61292614919E+03  0.35149687568E+03  0.74384063151E+03  0.10259275818E+04  0.50400001928E-02 0.  1.
       -1    1    3    3    0  502 -0.61292614919E+03 -0.35149687568E+03 -0.16781015946E+04  0.18207837543E+04  0.50400001928E-02 0. -1.
</event>
<event>
 5   0  0.7729970E-06  0.2696901E+04  0.7818609E-02  0.8336011E-01
        2   -1    0    0  501    0  0.00000000000E+00  0.00000000000E+00  0.90270391936E+03  0.90270391937E+03  0.25500000920E-02 0.  1.
       -2   -1    0    0    0  501  0.00000000000E+00  0.00000000000E+00 -0.20143024183E+04  0.20143024183E+04  0.25500000920E-02 0. -1.
    10030    2    1    2    0    0  0.00000000000E+00  0.00000000000E+00 -0.11115984990E+04  0.29170063377E+04  0.26969009532E+04 0.  0.
        4    1    3    3  502    0 -0.45855878692E+03 -0.35566721244E+03  0.76072639418E+03  0.95680801981E+03  0.12699999809E+01 0.  1.
       -4    1    3    3    0  502  0.45855878692E+03  0.35566721244E+03 -0.18723248931E+04  0.19601983179E+04  0.12699999809E+01 0. -1.
</event>
<event>
 5   0  0.7812908E-06  0.2664260E+04  0.7818609E-02  0.8346695E-01
       -2   -1    0    0    0  501  0.00000000000E+00  0.00000000000E+00  0.96271409646E+03  0.96271409646E+03  0.25500000920E-02 0. -1.
        2   -1    0    0  501    0  0.00000000000E+00  0.00000000000E+00 -0.18432999762E+04  0.18432999763E+04  0.25500000920E-02 0.  1.
    10030    2    1    2    0    0  0.00000000000E+00  0.00000000000E+00 -0.88058587979E+03  0.28060140727E+04  0.26642604010E+04 0.  0.
        5    1    3    3  502    0  0.39999961648E+03  0.12340432555E+03  0.89163558973E+03  0.98502001788E+03  0.46999998093E+01 0. -1.
       -5    1    3    3    0  502 -0.39999961648E+03 -0.12340432555E+03 -0.17722214695E+04  0.18209940548E+04  0.46999998093E+01 0.  1.
</event>
<event>
 5   0  0.3046300E-06  0.2688831E+04  0.7818609E-02  0.8338638E-01
        1   -1    0    0  501    0  0.00000000000E+00  0.00000000000E+00  0.12323753527E+04  0.12323753527E+04  0.50400001928E-02 0.  1.
       -1   -1    0    0    0  501  0.00000000000E+00  0.00000000000E+00 -0.14666418265E+04  0.14666418266E+04  0.50400001928E-02 0. -1.
    10030    2    1    2    0    0  0.00000000000E+00  0.00000000000E+00 -0.23426647388E+03  0.26990171792E+04  0.26888311500E+04 0.  0.
        2    1    3    3  502    0 -0.11041596810E+04 -0.58114346697E+03  0.38531960682E+03  0.13058972125E+04  0.25500000920E-02 0.  1.
       -2    1    3    3    0  502  0.11041596810E+04  0.58114346697E+03 -0.61958608070E+03  0.13931199667E+04  0.25500000920E-02 0. -1.
</event>
<event>
 5   0  0.3028601E-06  0.2659612E+04  0.7818609E-02  0.8348230E-01
       -1   -1    0    0    0  501  0.00000000000E+00  0.00000000000E+00  0.14172661379E+04  0.14172661379E+04  0.50400001928E-02 0. -1.
        1   -1    0    0  501    0  0.00000000000E+00  0.00000000000E+00 -0.12477428911E+04  0.12477428911E+04  0.50400001928E-02 0.  1.
    10030    2    1    2    0    0  0.00000000000E+00  0.00000000000E+00  0.16952324681E+03  0.26650090290E+04  0.26596118126E+04 0.  0.
        3    1    3    3  502    0  0.96775788947E+03 -0.44532956135E+03  0.88231023724E+03  0.13832371871E+04  0.10100000352E+00 0. -1.
       -3    1    3    3    0  502 -0.96775788947E+03  0.44532956135E+03 -0.71278699044E+03  0.12817718419E+04  0.10100000352E+00 0.  1.
</event>
<event>
 5   0  0.7838364E-06  0.2706721E+04  0.7818609E-02  0.8332827E-01
       -2   -1    0    0    0  501  0.00000000000E+00  0.00000000000E+00  0.16847132646E+04  0.16847132646E+04  0.25500000920E-02 0. -1.
        2   -1    0    0  501    0  0.00000000000E+00  0.00000000000E+00 -0.10871791967E+04  0.10871791967E+04  0.25500000920E-02 0.  1.
    10030    2    1    2    0    0  0.00000000000E+00  0.00000000000E+00  0.59753406788E+03  0.27718924613E+04  0.27067214217E+04 0.  0.
        2    1    3    3  502    0  0.77579055670E+03 -0.73828053958E+03  0.11461415367E+04  0.15686138993E+04  0.25500000920E-02 0. -1.
       -2    1    3    3    0  502 -0.77579055670E+03  0.73828053958E+03 -0.54860746878E+03  0.12032785620E+04  0.25500000920E-02 0.  1.
</event>
<event>
 5   0  0.7729970E-06  0.2704131E+04  0.7818609E-02  0.8333666E-01
       -2   -1    0    0    0  501  0.00000000000E+00  0.00000000000E+00  0.10793756675E+04  0.10793756675E+04  0.25500000920E-02 0.  1.
        2   -1    0    0  501    0  0.00000000000E+00  0.00000000000E+00 -0.16936473085E+04  0.16936473085E+04  0.25500000920E-02 0. -1.
    10030    2    1    2    0    0  0.00000000000E+00  0.00000000000E+00 -0.61427164091E+03  0.27730229760E+04  0.27041314274E+04 0.  0.
        4    1    3    3  502    0  0.12101125999E+04  0.59434270730E+03 -0.41203721068E+03  0.14097489259E+04  0.12699999809E+01 0. -1.
       -4    1    3    3    0  502 -0.12101125999E+04 -0.59434270730E+03 -0.20223443023E+03  0.13632740501E+04  0.12699999809E+01 0.  1.
</event>
<event>
 5   0  0.3199840E-06  0.2694509E+04  0.7818609E-02  0.8336789E-01
       -1   -1    0    0    0  501  0.00000000000E+00  0.00000000000E+00  0.12218301701E+04  0.12218301701E+04  0.50400001928E-02 0.  1.
        1   -1    0    0  501    0  0.00000000000E+00  0.00000000000E+00 -0.14855541128E+04  0.14855541129E+04  0.50400001928E-02 0. -1.
    10030    2    1    2    0    0  0.00000000000E+00  0.00000000000E+00 -0.26372394276E+03  0.27073842829E+04  0.26945091088E+04 0.  0.
        1    1    3    3  502    0  0.57215481450E+03 -0.35822806943E+03  0.10396450474E+04  0.12395766641E+04  0.50400001928E-02 0.  1.
       -1    1    3    3    0  502 -0.57215481450E+03  0.35822806943E+03 -0.13033689902E+04  0.14678076189E+04  0.50400001928E-02 0. -1.
</event>
<event>
 5   0  0.3199840E-06  0.2657803E+04  0.7818609E-02  0.8348828E-01
        1   -1    0    0  501    0  0.00000000000E+00  0.00000000000E+00  0.21916835565E+04  0.21916835565E+04  0.50400001928E-02 0.  1.
       -1   -1    0    0    0  501  0.00000000000E+00  0.00000000000E+00 -0.80576390663E+03  0.80576390664E+03  0.50400001928E-02 0. -1.
    10030    2    1    2    0    0  0.00000000000E+00  0.00000000000E+00  0.13859196499E+04  0.29974474631E+04  0.26578032317E+04 0.  0.
        1    1    3    3  502    0 -0.69034018405E+03  0.88315797117E+03 -0.11200351034E+03  0.11265355556E+04  0.50400001928E-02 0. -1.
       -1    1    3    3    0  502  0.69034018405E+03 -0.88315797117E+03  0.14979231602E+04  0.18709119075E+04  0.50400001928E-02 0.  1.
</event>
<event>
 5   0  0.8213334E-06  0.2702379E+04  0.7818609E-02  0.8334233E-01
       -2   -1    0    0    0  501  0.00000000000E+00  0.00000000000E+00  0.14739852292E+04  0.14739852292E+04  0.25500000920E-02 0. -1.
        2   -1    0    0  501    0  0.00000000000E+00  0.00000000000E+00 -0.12386238693E+04  0.12386238693E+04  0.25500000920E-02 0.  1.
    10030    2    1    2    0    0  0.00000000000E+00  0.00000000000E+00  0.23536135991E+03  0.27126090984E+04  0.27023791650E+04 0.  0.
        3    1    3    3  502    0 -0.42216158200E+02  0.29101387549E+03  0.14414762918E+04  0.14711645693E+04  0.10100000352E+00 0. -1.
       -3    1    3    3    0  502  0.42216158200E+02 -0.29101387549E+03 -0.12061149319E+04  0.12414445292E+04  0.10100000352E+00 0.  1.
</event>
<event>
 5   0  0.3013407E-06  0.2780716E+04  0.7818609E-02  0.8309280E-01
       -1   -1    0    0    0  501  0.00000000000E+00  0.00000000000E+00  0.19341571922E+04  0.19341571922E+04  0.50400001928E-02 0.  1.
        1   -1    0    0  501    0  0.00000000000E+00  0.00000000000E+00 -0.99945122746E+03  0.99945122747E+03  0.50400001928E-02 0. -1.
    10030    2    1    2    0    0  0.00000000000E+00  0.00000000000E+00  0.93470596471E+03  0.29336084196E+04  0.27807162961E+04 0.  0.
        4    1    3    3  502    0  0.51083920024E+03 -0.10718114328E+04 -0.29585830272E+03  0.12236299212E+04  0.12699999809E+01 0. -1.
       -4    1    3    3    0  502 -0.51083920024E+03  0.10718114328E+04  0.12305642674E+04  0.17099784984E+04  0.12699999809E+01 0.  1.
</event>
<event>
 5   0  0.3028601E-06  0.2695881E+04  0.7818609E-02  0.8336343E-01
       -1   -1    0    0    0  501  0.00000000000E+00  0.00000000000E+00  0.94100578429E+03  0.94100578430E+03  0.50400001928E-02 0.  1.
        1   -1    0    0  501    0  0.00000000000E+00  0.00000000000E+00 -0.19308527168E+04  0.19308527168E+04  0.50400001928E-02 0. -1.
    10030    2    1    2    0    0  0.00000000000E+00  0.00000000000E+00 -0.98984693255E+03  0.28718585011E+04  0.26958809879E+04 0.  0.
        3    1    3    3  502    0  0.13324602950E+04  0.17193736009E+03 -0.37856586396E+03  0.13958241355E+04  0.10100000352E+00 0.  1.
       -3    1    3    3    0  502 -0.13324602950E+04 -0.17193736009E+03 -0.61128106858E+03  0.14760343657E+04  0.10100000352E+00 0. -1.
</event>
<event>
 5   0  0.3199840E-06  0.2754667E+04  0.7818609E-02  0.8317482E-01
        1   -1    0    0  501    0  0.00000000000E+00  0.00000000000E+00  0.21550879684E+04  0.21550879684E+04  0.50400001928E-02 0.  1.
       -1   -1    0    0    0  501  0.00000000000E+00  0.00000000000E+00 -0.88026434006E+03  0.88026434008E+03  0.50400001928E-02 0. -1.
    10030    2    1    2    0    0  0.00000000000E+00  0.00000000000E+00  0.12748236283E+04  0.30353523084E+04  0.27546666501E+04 0.  0.
        1    1    3    3  502    0  0.81265824658E+03  0.10897268982E+04  0.88164731731E+03  0.16202531070E+04  0.50400001928E-02 0. -1.
       -1    1    3    3    0  502 -0.81265824658E+03 -0.10897268982E+04  0.39317631099E+03  0.14150992015E+04  0.50400001928E-02 0.  1.
</event>
<event>
 5   0  0.3028601E-06  0.2688733E+04  0.7818609E-02  0.8338670E-01
       -1   -1    0    0    0  501  0.00000000000E+00  0.00000000000E+00  0.65967864735E+03  0.65967864737E+03  0.50400001928E-02 0.  1.
        1   -1    0    0  501    0  0.00000000000E+00  0.00000000000E+00 -0.27396986696E+04  0.27396986696E+04  0.50400001928E-02 0. -1.
    10030    2    1    2    0    0  0.00000000000E+00  0.00000000000E+00 -0.20800200223E+04  0.33993773170E+04  0.26887325732E+04 0.  0.
        3    1    3    3  502    0 -0.36583804258E+03  0.11909472739E+04 -0.40140742581E+03  0.13089388123E+04  0.10100000352E+00 0.  1.
       -3    1    3    3    0  502  0.36583804258E+03 -0.11909472739E+04 -0.16786125965E+04  0.20904385047E+04  0.10100000352E+00 0. -1.
</event>
<event>
 5   0  0.2654625E-06  0.2659382E+04  0.7818609E-02  0.8348306E-01
        4   -1    0    0  501    0  0.00000000000E+00  0.00000000000E+00  0.91986850121E+03  0.91986937791E+03  0.12699999809E+01 0.  1.
       -4   -1    0    0    0  501  0.00000000000E+00  0.00000000000E+00 -0.19220973643E+04  0.19220977839E+04  0.12699999809E+01 0. -1.
    10030    2    1    2    0    0  0.00000000000E+00  0.00000000000E+00 -0.10022288631E+04  0.28419671618E+04  0.26593823822E+04 0.  0.
        2    1    3    3  502    0 -0.52050183079E+03 -0.69959690895E+02  0.80433733375E+03  0.96061181581E+03  0.25500000920E-02 0.  1.
       -2    1    3    3    0  502  0.52050183079E+03  0.69959690895E+02 -0.18065661969E+04  0.18813553460E+04  0.25500000920E-02 0. -1.
</event>
<event>
 5   0  0.3013407E-06  0.2658244E+04  0.7818609E-02  0.8348682E-01
       -1   -1    0    0    0  501  0.00000000000E+00  0.00000000000E+00  0.95896882112E+03  0.95896882113E+03  0.50400001928E-02 0. -1.
        1   -1    0    0  501    0  0.00000000000E+00  0.00000000000E+00 -0.18421509502E+04  0.18421509502E+04  0.50400001928E-02 0.  1.
    10030    2    1    2    0    0  0.00000000000E+00  0.00000000000E+00 -0.88318212907E+03  0.28011197713E+04  0.26582440257E+04 0.  0.
        4    1    3    3  502    0 -0.30026990564E+03 -0.83314805028E+02 -0.18031137614E+04  0.18298426770E+04  0.12699999809E+01 0.  1.
       -4    1    3    3    0  502  0.30026990564E+03  0.83314805028E+02  0.91993163233E+03  0.97127709437E+03  0.12699999809E+01 0. -1.
</event>
<event>
 5   0  0.3199840E-06  0.2697086E+04  0.7818609E-02  0.8335951E-01
        1   -1    0    0  501    0  0.00000000000E+00  0.00000000000E+00  0.19482535416E+04  0.19482535417E+04  0.50400001928E-02 0.  1.
       -1   -1    0    0    0  501  0.00000000000E+00  0.00000000000E+00 -0.93343515467E+03  0.93343515468E+03  0.50400001928E-02 0. -1.
    10030    2    1    2    0    0  0.00000000000E+00  0.00000000000E+00  0.10148183870E+04  0.28816886963E+04  0.26970860913E+04 0.  0.
        1    1    3    3  502    0  0.53250794289E+03 -0.11390634705E+03 -0.81073740870E+03  0.97664451620E+03  0.50400001928E-02 0. -1.
       -1    1    3    3    0  502 -0.53250794289E+03  0.11390634705E+03  0.18255557957E+04  0.19050441801E+04  0.50400001928E-02 0.  1.
</event>
<event>
 5   0  0.3028601E-06  0.2694261E+04  0.7818609E-02  0.8336869E-01
       -1   -1    0    0    0  501  0.00000000000E+00  0.00000000000E+00  0.33374722657E+04  0.33374722657E+04  0.50400001928E-02 0.  1.
        1   -1    0    0  501    0  0.00000000000E+00  0.00000000000E+00 -0.54375299057E+03  0.54375299059E+03  0.50400001928E-02 0. -1.
    10030    2    1    2    0    0  0.00000000000E+00  0.00000000000E+00  0.27937192752E+04  0.38812252563E+04  0.26942609565E+04 0.  0.
        3    1    3    3  502    0  0.80270458161E+03  0.75972731928E+03  0.25064035710E+04  0.27392661638E+04  0.10100000352E+00 0.  1.
       -3    1    3    3    0  502 -0.80270458161E+03 -0.75972731928E+03  0.28731570415E+03  0.11419590926E+04  0.10100000352E+00 0. -1.
</event>
<event>
 5   0  0.7812908E-06  0.2710197E+04  0.7818609E-02  0.8331704E-01
       -2   -1    0    0    0  501  0.00000000000E+00  0.00000000000E+00  0.11335109764E+04  0.11335109765E+04  0.25500000920E-02 0.  1.
        2   -1    0    0  501    0  0.00000000000E+00  0.00000000000E+00 -0.16200041087E+04  0.16200041087E+04  0.25500000920E-02 0. -1.
    10030    2    1    2    0    0  0.00000000000E+00  0.00000000000E+00 -0.48649313222E+03  0.27535150851E+04  0.27101973648E+04 0.  0.
        5    1    3    3  502    0 -0.55670352641E+03 -0.77730717564E+03 -0.12188788660E+04  0.15491329968E+04  0.46999998093E+01 0. -1.
       -5    1    3    3    0  502  0.55670352641E+03  0.77730717564E+03  0.73238573382E+03  0.12043820883E+04  0.46999998093E+01 0.  1.
</event>
<event>
 5   0  0.7729970E-06  0.2651550E+04  0.7818609E-02  0.8350899E-01
       -2   -1    0    0    0  501  0.00000000000E+00  0.00000000000E+00  0.68683938537E+03  0.68683938537E+03  0.25500000920E-02 0. -1.
        2   -1    0    0  501    0  0.00000000000E+00  0.00000000000E+00 -0.25590843063E+04  0.25590843063E+04  0.25500000920E-02 0.  1.
    10030    2    1    2    0    0  0.00000000000E+00  0.00000000000E+00 -0.18722449209E+04  0.32459236916E+04  0.26515504084E+04 0.  0.
        4    1    3    3  502    0 -0.68760220074E+03 -0.21291254414E+03  0.42679764266E+03  0.83683115297E+03  0.12699999809E+01 0. -1.
       -4    1    3    3    0  502  0.68760220074E+03  0.21291254414E+03 -0.22990425636E+04  0.24090925387E+04  0.12699999809E+01 0.  1.
</event>
<event>
 5   0  0.3089218E-06  0.2679644E+04  0.7818609E-02  0.8341640E-01
        1   -1    0    0  501    0  0.00000000000E+00  0.00000000000E+00  0.21940665701E+04  0.21940665701E+04  0.50400001928E-02 0.  1.
       -1   -1    0    0    0  501  0.00000000000E+00  0.00000000000E+00 -0.81817153659E+03  0.81817153661E+03  0.50400001928E-02 0. -1.
    10030    2    1    2    0    0  0.00000000000E+00  0.00000000000E+00  0.13758950335E+04  0.30122381067E+04  0.26796438697E+04 0.  0.
        5    1    3    3  502    0 -0.78832833166E+03 -0.97157915178E+03  0.14922230000E+03  0.12600464243E+04  0.46999998093E+01 0. -1.
       -5    1    3    3    0  502  0.78832833166E+03  0.97157915178E+03  0.12266727335E+04  0.17521916824E+04  0.46999998093E+01 0.  1.
</event>
<event>
 5   0  0.7729970E-06  0.2694216E+04  0.7818609E-02  0.8336884E-01
       -2   -1    0    0    0  501  0.00000000000E+00  0.00000000000E+00  0.15291203826E+04  0.15291203826E+04  0.25500000920E-02 0. -1.
        2   -1    0    0  501    0  0.00000000000E+00  0.00000000000E+00 -0.11867607508E+04  0.11867607508E+04  0.25500000920E-02 0.  1.
    10030    2    1    2    0    0  0.00000000000E+00  0.00000000000E+00  0.34235963183E+03  0.27158811333E+04  0.26942160665E+04 0.  0.
        4    1    3    3  502    0 -0.38041082575E+01  0.99358808062E+03 -0.74578695485E+03  0.12423492022E+04  0.12699999809E+01 0.  1.
       -4    1    3    3    0  502  0.38041082575E+01 -0.99358808062E+03  0.10881465867E+04  0.14735319312E+04  0.12699999809E+01 0. -1.
</event>
<event>
 5   0  0.3028601E-06  0.2694971E+04  0.7818609E-02  0.8336638E-01
        1   -1    0    0  501    0  0.00000000000E+00  0.00000000000E+00  0.14526098546E+04  0.14526098546E+04  0.50400001928E-02 0.  1.
       -1   -1    0    0    0  501  0.00000000000E+00  0.00000000000E+00 -0.12499691549E+04  0.12499691549E+04  0.50400001928E-02 0. -1.
    10030    2    1    2    0    0  0.00000000000E+00  0.00000000000E+00  0.20264069970E+03  0.27025790096E+04  0.26949712521E+04 0.  0.
        3    1    3    3  502    0 -0.12030019632E+04 -0.42445024253E+03  0.53653368959E+03  0.13839220145E+04  0.10100000352E+00 0.  1.
       -3    1    3    3    0  502  0.12030019632E+04  0.42445024253E+03 -0.33389298989E+03  0.13186569951E+04  0.10100000352E+00 0. -1.
</event>
<event>
 5   0  0.7838364E-06  0.2705445E+04  0.7818609E-02  0.8333240E-01
       -2   -1    0    0    0  501  0.00000000000E+00  0.00000000000E+00  0.97919657954E+03  0.97919657954E+03  0.25500000920E-02 0.  1.
        2   -1    0    0  501    0  0.00000000000E+00  0.00000000000E+00 -0.18687342522E+04  0.18687342522E+04  0.25500000920E-02 0. -1.
    10030    2    1    2    0    0  0.00000000000E+00  0.00000000000E+00 -0.88953767263E+03  0.28479308317E+04  0.27054450191E+04 0.  0.
        2    1    3    3  502    0  0.12474188166E+03 -0.13033084689E+04 -0.80280645506E+03  0.15357967660E+04  0.25500000920E-02 0. -1.
       -2    1    3    3    0  502 -0.12474188166E+03  0.13033084689E+04 -0.86731217575E+02  0.13121340657E+04  0.25500000920E-02 0.  1.
</event>
<event>
 5   0  0.8407622E-06  0.2704045E+04  0.7818609E-02  0.8333694E-01
       -2   -1    0    0    0  501  0.00000000000E+00  0.00000000000E+00  0.93889580352E+03  0.93889580353E+03  0.25500000920E-02 0. -1.
        2   -1    0    0  501    0  0.00000000000E+00  0.00000000000E+00 -0.19469301778E+04  0.19469301778E+04  0.25500000920E-02 0.  1.
    10030    2    1    2    0    0  0.00000000000E+00  0.00000000000E+00 -0.10080343743E+04  0.28858259813E+04  0.27040448026E+04 0.  0.
        1    1    3    3  502    0 -0.38934504586E+02  0.62904724194E+03  0.77253292185E+03  0.99700724351E+03  0.50400001928E-02 0. -1.
       -1    1    3    3    0  502  0.38934504586E+02 -0.62904724194E+03 -0.17805672961E+04  0.18888187378E+04  0.50400001928E-02 0.  1.
</event>
<event>
 5   0  0.3013407E-06  0.2695741E+04  0.7818609E-02  0.8336388E-01
        1   -1    0    0  501    0  0.00000000000E+00  0.00000000000E+00  0.14222259535E+04  0.14222259535E+04  0.50400001928E-02 0. -1.
       -1   -1    0    0    0  501  0.00000000000E+00  0.00000000000E+00 -0.12774028354E+04  0.12774028354E+04  0.50400001928E-02 0.  1.
    10030    2    1    2    0    0  0.00000000000E+00  0.00000000000E+00  0.14482311810E+03  0.26996287890E+04  0.26957414310E+04 0.  0.
        4    1    3    3  502    0 -0.13319598770E+04  0.18954738500E+03  0.15443527244E+03  0.13542146031E+04  0.12699999809E+01 0.  1.
       -4    1    3    3    0  502  0.13319598770E+04 -0.18954738500E+03 -0.96121543381E+01  0.13454141858E+04  0.12699999809E+01 0. -1.
</event>
<event>
 5   0  0.8407622E-06  0.2711442E+04  0.7818609E-02  0.8331302E-01
       -2   -1    0    0    0  501  0.00000000000E+00  0.00000000000E+00  0.13788513206E+04  0.13788513206E+04  0.25500000920E-02 0. -1.
        2   -1    0    0  501    0  0.00000000000E+00  0.00000000000E+00 -0.13329783835E+04  0.13329783835E+04  0.25500000920E-02 0.  1.
    10030    2    1    2    0    0  0.00000000000E+00  0.00000000000E+00  0.45872937019E+02  0.27118297041E+04  0.27114416862E+04 0.  0.
        1    1    3    3  502    0  0.35753058942E+03 -0.32119262243E+03 -0.12449145268E+04  0.13344680596E+04  0.50400001928E-02 0.  1.
       -1    1    3    3    0  502 -0.35753058942E+03  0.32119262243E+03  0.12907874638E+04  0.13773616445E+04  0.50400001928E-02 0. -1.
</event>
<event>
 5   0  0.3046300E-06  0.2813325E+04  0.7818609E-02  0.8299143E-01
        1   -1    0    0  501    0  0.00000000000E+00  0.00000000000E+00  0.18321370953E+04  0.18321370954E+04  0.50400001928E-02 0.  1.
       -1   -1    0    0    0  501  0.00000000000E+00  0.00000000000E+00 -0.10799952973E+04  0.10799952974E+04  0.50400001928E-02 0. -1.
    10030    2    1    2    0    0  0.00000000000E+00  0.00000000000E+00  0.75214179801E+03  0.29121323927E+04  0.28133250414E+04 0.  0.
        2    1    3    3  502    0  0.51856468221E+03 -0.10719532008E+04 -0.39903132031E+03  0.12558737950E+04  0.25500000920E-02 0. -1.
       -2    1    3    3    0  502 -0.51856468221E+03  0.10719532008E+04  0.11511731183E+04  0.16562585977E+04  0.25500000920E-02 0.  1.
</event>
<event>
 5   0  0.7729970E-06  0.2694846E+04  0.7818609E-02  0.8336679E-01
       -2   -1    0    0    0  501  0.00000000000E+00  0.00000000000E+00  0.14168029526E+04  0.14168029526E+04  0.25500000920E-02 0. -1.
        2   -1    0    0  501    0  0.00000000000E+00  0.00000000000E+00 -0.12814400799E+04  0.12814400799E+04  0.25500000920E-02 0.  1.
    10030    2    1    2    0    0  0.00000000000E+00  0.00000000000E+00  0.13536287264E+03  0.26982430325E+04  0.26948455160E+04 0.  0.
        4    1    3    3  502    0 -0.45699676647E+03  0.67646741530E+03  0.11409901158E+04  0.14029662383E+04  0.12699999809E+01 0. -1.
       -4    1    3    3    0  502  0.45699676647E+03 -0.67646741530E+03 -0.10056272431E+04  0.12952767942E+04  0.12699999809E+01 0.  1.
</event>
<event>
 5   0  0.8213334E-06  0.2701023E+04  0.7818609E-02  0.8334673E-01
       -2   -1    0    0    0  501  0.00000000000E+00  0.00000000000E+00  0.15103607475E+04  0.15103607475E+04  0.25500000920E-02 0.  1.
        2   -1    0    0  501    0  0.00000000000E+00  0.00000000000E+00 -0.12075797613E+04  0.12075797613E+04  0.25500000920E-02 0. -1.
    10030    2    1    2    0    0  0.00000000000E+00  0.00000000000E+00  0.30278098620E+03  0.27179405088E+04  0.27010228218E+04 0.  0.
        3    1    3    3  502    0  0.12183730591E+03  0.11323445669E+04  0.88176898830E+03  0.14403350673E+04  0.10100000352E+00 0. -1.
       -3    1    3    3    0  502 -0.12183730591E+03 -0.11323445669E+04 -0.57898800210E+03  0.12776054415E+04  0.10100000352E+00 0.  1.
</event>
<event>
 5   0  0.3046300E-06  0.2687517E+04  0.7818609E-02  0.8339067E-01
        1   -1    0    0  501    0  0.00000000000E+00  0.00000000000E+00  0.12440711395E+04  0.12440711395E+04  0.50400001928E-02 0.  1.
       -1   -1    0    0    0  501  0.00000000000E+00  0.00000000000E+00 -0.14514337961E+04  0.14514337961E+04  0.50400001928E-02 0. -1.
    10030    2    1    2    0    0  0.00000000000E+00  0.00000000000E+00 -0.20736265666E+03  0.26955049356E+04  0.26875169928E+04 0.  0.
        2    1    3    3  502    0  0.12851743672E+03  0.76239157869E+03  0.99864368079E+03  0.12629516428E+04  0.25500000920E-02 0.  1.
       -2    1    3    3    0  502 -0.12851743672E+03 -0.76239157869E+03 -0.12060063375E+04  0.14325532928E+04  0.25500000920E-02 0. -1.
</event>
<event>
 5   0  0.3013407E-06  0.2733607E+04  0.7818609E-02  0.8324182E-01
        1   -1    0    0  501    0  0.00000000000E+00  0.00000000000E+00  0.12022010325E+04  0.12022010325E+04  0.50400001928E-02 0.  1.
       -1   -1    0    0    0  501  0.00000000000E+00  0.00000000000E+00 -0.15539431450E+04  0.15539431450E+04  0.50400001928E-02 0. -1.
    10030    2    1    2    0    0  0.00000000000E+00  0.00000000000E+00 -0.35174211247E+03  0.27561441775E+04  0.27336071798E+04 0.  0.
        4    1    3    3  502    0 -0.26891312082E+03 -0.30161963745E+03  0.11405972614E+04  0.12100629727E+04  0.12699999809E+01 0.  1.
       -4    1    3    3    0  502  0.26891312082E+03  0.30161963745E+03 -0.14923393739E+04  0.15460812048E+04  0.12699999809E+01 0. -1.
</event>
<event>
 5   0  0.3028601E-06  0.2683944E+04  0.7818609E-02  0.8340234E-01
       -1   -1    0    0    0  501  0.00000000000E+00  0.00000000000E+00  0.83448020481E+03  0.83448020483E+03  0.50400001928E-02 0. -1.
        1   -1    0    0  501    0  0.00000000000E+00  0.00000000000E+00 -0.21580959812E+04  0.21580959812E+04  0.50400001928E-02 0.  1.
    10030    2    1    2    0    0  0.00000000000E+00  0.00000000000E+00 -0.13236157764E+04  0.29925761860E+04  0.26839436480E+04 0.  0.
        3    1    3    3  502    0  0.13698230491E+02  0.19094698902E+03 -0.21427928590E+04  0.21513274136E+04  0.10100000352E+00 0.  1.
       -3    1    3    3    0  502 -0.13698230491E+02 -0.19094698902E+03  0.81917708259E+03  0.84124877235E+03  0.10100000352E+00 0. -1.
</event>
<event>
 5   0  0.3028601E-06  0.2625621E+04  0.7818609E-02  0.8359550E-01
        1   -1    0    0  501    0  0.00000000000E+00  0.00000000000E+00  0.11139557718E+04  0.11139557719E+04  0.50400001928E-02 0. -1.
       -1   -1    0    0    0  501  0.00000000000E+00  0.00000000000E+00 -0.15471634692E+04  0.15471634692E+04  0.50400001928E-02 0.  1.
    10030    2    1    2    0    0  0.00000000000E+00  0.00000000000E+00 -0.43320769734E+03  0.26611192410E+04  0.26256212038E+04 0.  0.
        3    1    3    3  502    0  0.67762582096E+03  0.11588979358E+03 -0.13501452643E+04  0.15150905724E+04  0.10100000352E+00 0.  1.
       -3    1    3    3    0  502 -0.67762582096E+03 -0.11588979358E+03  0.91693756699E+03  0.11460286687E+04  0.10100000352E+00 0. -1.
</event>
<event>
 5   0  0.8213334E-06  0.2718230E+04  0.7818609E-02  0.8329114E-01
        2   -1    0    0  501    0  0.00000000000E+00  0.00000000000E+00  0.18445411261E+04  0.18445411261E+04  0.25500000920E-02 0. -1.
       -2   -1    0    0    0  501  0.00000000000E+00  0.00000000000E+00 -0.10014382668E+04  0.10014382668E+04  0.25500000920E-02 0.  1.
    10030    2    1    2    0    0  0.00000000000E+00  0.00000000000E+00  0.84310285923E+03  0.28459793929E+04  0.27182303570E+04 0.  0.
        3    1    3    3  502    0  0.25777003824E+02  0.63810318767E+03  0.16776661097E+04  0.17951054893E+04  0.10100000352E+00 0. -1.
       -3    1    3    3    0  502 -0.25777003824E+02 -0.63810318767E+03 -0.83456325046E+03  0.10508739036E+04  0.10100000352E+00 0.  1.
</event>
<event>
 5   0  0.7812908E-06  0.2702365E+04  0.7818609E-02  0.8334238E-01
        2   -1    0    0  501    0  0.00000000000E+00  0.00000000000E+00  0.14754690234E+04  0.14754690234E+04  0.25500000920E-02 0. -1.
       -2   -1    0    0    0  501  0.00000000000E+00  0.00000000000E+00 -0.12373649571E+04  0.12373649571E+04  0.25500000920E-02 0.  1.
    10030    2    1    2    0    0  0.00000000000E+00  0.00000000000E+00  0.23810406634E+03  0.27128339805E+04  0.27023646422E+04 0.  0.
        5    1    3    3  502    0  0.81571091540E+03  0.10526935817E+04  0.34824223859E+03  0.13765328987E+04  0.46999998093E+01 0. -1.
       -5    1    3    3    0  502 -0.81571091540E+03 -0.10526935817E+04 -0.11013817225E+03  0.13363010818E+04  0.46999998093E+01 0.  1.
</event>
<event>
 5   0  0.7838364E-06  0.2715528E+04  0.7818609E-02  0.8329984E-01
       -2   -1    0    0    0  501  0.00000000000E+00  0.00000000000E+00  0.10953187805E+04  0.10953187805E+04  0.25500000920E-02 0. -1.
        2   -1    0    0  501    0  0.00000000000E+00  0.00000000000E+00 -0.16830931045E+04  0.16830931045E+04  0.25500000920E-02 0.  1.
    10030    2    1    2    0    0  0.00000000000E+00  0.00000000000E+00 -0.58777432405E+03  0.27784118850E+04  0.27155282998E+04 0.  0.
        2    1    3    3  502    0  0.58281543587E+03 -0.12182262033E+03 -0.15423940487E+04  0.16533281540E+04  0.25500000920E-02 0.  1.
       -2    1    3    3    0  502 -0.58281543587E+03  0.12182262033E+03  0.95461972469E+03  0.11250837311E+04  0.25500000920E-02 0. -1.
</event>
<event>
 5   0  0.3199840E-06  0.2791246E+04  0.7818609E-02  0.8305991E-01
        1   -1    0    0  501    0  0.00000000000E+00  0.00000000000E+00  0.14920974873E+04  0.14920974874E+04  0.50400001928E-02 0.  1.
       -1   -1    0    0    0  501  0.00000000000E+00  0.00000000000E+00 -0.13053864265E+04  0.13053864265E+04  0.50400001928E-02 0. -1.
    10030    2    1    2    0    0  0.00000000000E+00  0.00000000000E+00  0.18671106087E+03  0.27974839138E+04  0.27912461783E+04 0.  0.
        1    1    3    3  502    0 -0.13313318688E+04 -0.40940682860E+03  0.53794647927E+01  0.13928702146E+04  0.50400001928E-02 0.  1.
       -1    1    3    3    0  502  0.13313318688E+04  0.40940682860E+03  0.18133159607E+03  0.14046136992E+04  0.50400001928E-02 0. -1.
</event>
<event>
 5   0  0.7838364E-06  0.2702135E+04  0.7818609E-02  0.8334312E-01
        2   -1    0    0  501    0  0.00000000000E+00  0.00000000000E+00  0.17176151786E+04  0.17176151786E+04  0.25500000920E-02 0. -1.
       -2   -1    0    0    0  501  0.00000000000E+00  0.00000000000E+00 -0.10627431281E+04  0.10627431281E+04  0.25500000920E-02 0.  1.
    10030    2    1    2    0    0  0.00000000000E+00  0.00000000000E+00  0.65487205049E+03  0.27803583066E+04  0.27021352502E+04 0.  0.
        2    1    3    3  502    0 -0.87509610409E+03  0.10240184429E+04  0.43523902949E+03  0.14155705477E+04  0.25500000920E-02 0.  1.
       -2    1    3    3    0  502  0.87509610409E+03 -0.10240184429E+04  0.21963302100E+03  0.13647877589E+04  0.25500000920E-02 0. -1.
</event>
<event>
 5   0  0.3199840E-06  0.2693989E+04  0.7818609E-02  0.8336958E-01
        1   -1    0    0  501    0  0.00000000000E+00  0.00000000000E+00  0.10494113956E+04  0.10494113956E+04  0.50400001928E-02 0.  1.
       -1   -1    0    0    0  501  0.00000000000E+00  0.00000000000E+00 -0.17289637558E+04  0.17289637558E+04  0.50400001928E-02 0. -1.
    10030    2    1    2    0    0  0.00000000000E+00  0.00000000000E+00 -0.67955236017E+03  0.27783751514E+04  0.26939890631E+04 0.  0.
        1    1    3    3  502    0  0.83232055934E+03  0.52223261428E+03 -0.12899998503E+04  0.16215992202E+04  0.50400001928E-02 0. -1.
       -1    1    3    3    0  502 -0.83232055934E+03 -0.52223261428E+03  0.61044749016E+03  0.11567759313E+04  0.50400001928E-02 0.  1.
</event>
<event>
 5   0  0.3089218E-06  0.2703723E+04  0.7818609E-02  0.8333798E-01
       -1   -1    0    0    0  501  0.00000000000E+00  0.00000000000E+00  0.10189173005E+04  0.10189173005E+04  0.50400001928E-02 0.  1.
        1   -1    0    0  501    0  0.00000000000E+00  0.00000000000E+00 -0.17935992752E+04  0.17935992752E+04  0.50400001928E-02 0. -1.
    10030    2    1    2    0    0  0.00000000000E+00  0.00000000000E+00 -0.77468197467E+03  0.28125165758E+04  0.27037228643E+04 0.  0.
        5    1    3    3  502    0  0.12771950442E+04 -0.43197638290E+03 -0.48966823449E+03  0.14344433925E+04  0.46999998093E+01 0. -1.
       -5    1    3    3    0  502 -0.12771950442E+04  0.43197638290E+03 -0.28501374018E+03  0.13780731833E+04  0.46999998093E+01 0.  1.
</event>
<event>
 5   0  0.7729970E-06  0.2661688E+04  0.7818609E-02  0.8347544E-01
        2   -1    0    0  501    0  0.00000000000E+00  0.00000000000E+00  0.10079885448E+04  0.10079885448E+04  0.25500000920E-02 0.  1.
       -2   -1    0    0    0  501  0.00000000000E+00  0.00000000000E+00 -0.17571088758E+04  0.17571088758E+04  0.25500000920E-02 0. -1.
    10030    2    1    2    0    0  0.00000000000E+00  0.00000000000E+00 -0.74912033106E+03  0.27650974206E+04  0.26616878996E+04 0.  0.
        4    1    3    3  502    0 -0.53758823332E+03  0.98993879521E+03 -0.11107267977E+04  0.15819910110E+04  0.12699999809E+01 0. -1.
       -4    1    3    3    0  502  0.53758823332E+03 -0.98993879521E+03  0.36160646660E+03  0.11831064096E+04  0.12699999809E+01 0.  1.
</event>
<event>
 5   0  0.3028601E-06  0.2704654E+04  0.7818609E-02  0.8333496E-01
       -1   -1    0    0    0  501  0.00000000000E+00  0.00000000000E+00  0.18458616188E+04  0.18458616189E+04  0.50400001928E-02 0.  1.
        1   -1    0    0  501    0  0.00000000000E+00  0.00000000000E+00 -0.99075074999E+03  0.99075075000E+03  0.50400001928E-02 0. -1.
    10030    2    1    2    0    0  0.00000000000E+00  0.00000000000E+00  0.85511086886E+03  0.28366123689E+04  0.27046543463E+04 0.  0.
        3    1    3    3  502    0 -0.10512346726E+04 -0.49549565033E+02 -0.46313729351E+03  0.11498024435E+04  0.10100000352E+00 0. -1.
       -3    1    3    3    0  502  0.10512346726E+04  0.49549565033E+02  0.13182481624E+04  0.16868099253E+04  0.10100000352E+00 0.  1.
</event>
<event>
 5   0  0.2654625E-06  0.2704612E+04  0.7818609E-02  0.8333510E-01
       -3   -1    0    0    0  501  0.00000000000E+00  0.00000000000E+00  0.11994979697E+04  0.11994979739E+04  0.10100000352E+00 0.  1.
        3   -1    0    0  501    0  0.00000000000E+00  0.00000000000E+00 -0.15245802294E+04  0.15245802328E+04  0.10100000352E+00 0. -1.
    10030    2    1    2    0    0  0.00000000000E+00  0.00000000000E+00 -0.32508225978E+03  0.27240782067E+04  0.27046115434E+04 0.  0.
        3    1    3    3  502    0  0.22728210583E+03 -0.22203228273E+03  0.11613684281E+04  0.12040482242E+04  0.10100000352E+00 0.  1.
       -3    1    3    3    0  502 -0.22728210583E+03  0.22203228273E+03 -0.14864506879E+04  0.15200299825E+04  0.10100000352E+00 0. -1.
</event>
<event>
 5   0  0.3199840E-06  0.2713077E+04  0.7818609E-02  0.8330774E-01
       -1   -1    0    0    0  501  0.00000000000E+00  0.00000000000E+00  0.13993509487E+04  0.13993509487E+04  0.50400001928E-02 0.  1.
        1   -1    0    0  501    0  0.00000000000E+00  0.00000000000E+00 -0.13150360505E+04  0.13150360505E+04  0.50400001928E-02 0. -1.
    10030    2    1    2    0    0  0.00000000000E+00  0.00000000000E+00  0.84314898277E+02  0.27143869992E+04  0.27130771790E+04 0.  0.
        1    1    3    3  502    0  0.65681339667E+02  0.13046011672E+04 -0.32394092506E+03  0.13458216697E+04  0.50400001928E-02 0. -1.
       -1    1    3    3    0  502 -0.65681339667E+02 -0.13046011672E+04  0.40825582333E+03  0.13685653295E+04  0.50400001928E-02 0.  1.
</event>
<event>
 5   0  0.3046300E-06  0.2705813E+04  0.7818609E-02  0.8333121E-01
       -1   -1    0    0    0  501  0.00000000000E+00  0.00000000000E+00  0.12330905925E+04  0.12330905925E+04  0.50400001928E-02 0.  1.
        1   -1    0    0  501    0  0.00000000000E+00  0.00000000000E+00 -0.14843644746E+04  0.14843644746E+04  0.50400001928E-02 0. -1.
    10030    2    1    2    0    0  0.00000000000E+00  0.00000000000E+00 -0.25127388213E+03  0.27174550671E+04  0.27058129052E+04 0.  0.
        2    1    3    3  502    0  0.88369525060E+03  0.67511075497E+03 -0.89944808593E+03  0.14302792338E+04  0.25500000920E-02 0.  1.
       -2    1    3    3    0  502 -0.88369525060E+03 -0.67511075497E+03  0.64817420380E+03  0.12871758333E+04  0.25500000920E-02 0. -1.
</event>
<event>
 5   0  0.3013407E-06  0.2698643E+04  0.7818609E-02  0.8335445E-01
       -1   -1    0    0    0  501  0.00000000000E+00  0.00000000000E+00  0.12808187110E+04  0.12808187110E+04  0.50400001928E-02 0.  1.
        1   -1    0    0  501    0  0.00000000000E+00  0.00000000000E+00 -0.14214881202E+04  0.14214881202E+04  0.50400001928E-02 0. -1.
    10030    2    1    2    0    0  0.00000000000E+00  0.00000000000E+00 -0.14066940919E+03  0.27023068312E+04  0.26986430530E+04 0.  0.
        4    1    3    3  502    0 -0.10722215441E+04  0.79698964298E+03 -0.25984130906E+03  0.13610182399E+04  0.12699999809E+01 0. -1.
       -4    1    3    3    0  502  0.10722215441E+04 -0.79698964298E+03  0.11917189987E+03  0.13412885913E+04  0.12699999809E+01 0.  1.
</event>
<event>
 5   0  0.2654625E-06  0.2700476E+04  0.7818609E-02  0.8334851E-01
       -3   -1    0    0    0  501  0.00000000000E+00  0.00000000000E+00  0.73723281808E+03  0.73723282500E+03  0.10100000352E+00 0. -1.
        3   -1    0    0  501    0  0.00000000000E+00  0.00000000000E+00 -0.24729539219E+04  0.24729539240E+04  0.10100000352E+00 0.  1.
    10030    2    1    2    0    0  0.00000000000E+00  0.00000000000E+00 -0.17357211038E+04  0.32101867490E+04  0.27004761086E+04 0.  0.
        2    1    3    3  502    0 -0.26968019624E+03 -0.11892220882E+04 -0.15570950289E+04  0.19777566868E+04  0.25500000920E-02 0.  1.
       -2    1    3    3    0  502  0.26968019624E+03  0.11892220882E+04 -0.17862607493E+03  0.12324300621E+04  0.25500000920E-02 0. -1.
</event>
<event>
 5   0  0.8407622E-06  0.2396176E+04  0.7818609E-02  0.8440937E-01
        2   -1    0    0  501    0  0.00000000000E+00  0.00000000000E+00  0.17403887861E+04  0.17403887861E+04  0.25500000920E-02 0.  1.
       -2   -1    0    0    0  501  0.00000000000E+00  0.00000000000E+00 -0.82476659444E+03  0.82476659445E+03  0.25500000920E-02 0. -1.
    10030    2    1    2    0    0  0.00000000000E+00  0.00000000000E+00  0.91562219165E+03  0.25651553805E+04  0.23961757299E+04 0.  0.
        1    1    3    3  502    0  0.67846963903E+03 -0.66754516191E+03 -0.32115496525E+03  0.10045287980E+04  0.50400001928E-02 0. -1.
       -1    1    3    3    0  502 -0.67846963903E+03  0.66754516191E+03  0.12367771569E+04  0.15606265825E+04  0.50400001928E-02 0.  1.
</event>
<event>
 5   0  0.3046300E-06  0.2703129E+04  0.7818609E-02  0.8333990E-01
        1   -1    0    0  501    0  0.00000000000E+00  0.00000000000E+00  0.18390745600E+04  0.18390745600E+04  0.50400001928E-02 0.  1.
       -1   -1    0    0    0  501  0.00000000000E+00  0.00000000000E+00 -0.99328604034E+03  0.99328604035E+03  0.50400001928E-02 0. -1.
    10030    2    1    2    0    0  0.00000000000E+00  0.00000000000E+00  0.84578851964E+03  0.28323606003E+04  0.27031293625E+04 0.  0.
        2    1    3    3  502    0  0.92894199217E+03 -0.20873886086E+03  0.14280376215E+04  0.17163323062E+04  0.25500000920E-02 0.  1.
       -2    1    3    3    0  502 -0.92894199217E+03  0.20873886086E+03 -0.58224910182E+03  0.11160282942E+04  0.25500000920E-02 0. -1.
</event>
<event>
 5   0  0.8213334E-06  0.2707908E+04  0.7818609E-02  0.8332444E-01
       -2   -1    0    0    0  501  0.00000000000E+00  0.00000000000E+00  0.11541527375E+04  0.11541527375E+04  0.25500000920E-02 0.  1.
        2   -1    0    0  501    0  0.00000000000E+00  0.00000000000E+00 -0.15883441333E+04  0.15883441333E+04  0.25500000920E-02 0. -1.
    10030    2    1    2    0    0  0.00000000000E+00  0.00000000000E+00 -0.43419139578E+03  0.27424968709E+04  0.27079082183E+04 0.  0.
        3    1    3    3  502    0  0.31852410000E+03 -0.12109121706E+04 -0.73887133176E+03  0.14538558189E+04  0.10100000352E+00 0. -1.
       -3    1    3    3    0  502 -0.31852410000E+03  0.12109121706E+04  0.30467993599E+03  0.12886410519E+04  0.10100000352E+00 0.  1.
</event>
<event>
 5   0  0.3013407E-06  0.2664944E+04  0.7818609E-02  0.8346470E-01
       -1   -1    0    0    0  501  0.00000000000E+00  0.00000000000E+00  0.13973212133E+04  0.13973212133E+04  0.50400001928E-02 0.  1.
        1   -1    0    0  501    0  0.00000000000E+00  0.00000000000E+00 -0.12706323766E+04  0.12706323766E+04  0.50400001928E-02 0. -1.
    10030    2    1    2    0    0  0.00000000000E+00  0.00000000000E+00  0.12668883676E+03  0.26679535899E+04  0.26649439575E+04 0.  0.
        4    1    3    3  502    0 -0.11386700063E+04 -0.27275923716E+03 -0.57338720414E+03  0.13037413407E+04  0.12699999809E+01 0. -1.
       -4    1    3    3    0  502  0.11386700063E+04  0.27275923716E+03  0.70007604090E+03  0.13642122492E+04  0.12699999809E+01 0.  1.
</event>
<event>
 5   0  0.8407622E-06  0.2725994E+04  0.7818609E-02  0.8326620E-01
       -2   -1    0    0    0  501  0.00000000000E+00  0.00000000000E+00  0.75432203636E+03  0.75432203637E+03  0.25500000920E-02 0. -1.
        2   -1    0    0  501    0  0.00000000000E+00  0.00000000000E+00 -0.24628217757E+04  0.24628217757E+04  0.25500000920E-02 0.  1.
    10030    2    1    2    0    0  0.00000000000E+00  0.00000000000E+00 -0.17084997394E+04  0.32171438121E+04  0.27259939377E+04 0.  0.
        1    1    3    3  502    0 -0.82984744209E+03 -0.10410093956E+04 -0.50933764288E+03  0.14254024601E+04  0.50400001928E-02 0. -1.
       -1    1    3    3    0  502  0.82984744209E+03  0.10410093956E+04 -0.11991620965E+04  0.17917413520E+04  0.50400001928E-02 0.  1.
</event>
<event>
 5   0  0.3028601E-06  0.2983268E+04  0.7818609E-02  0.8248525E-01
        1   -1    0    0  501    0  0.00000000000E+00  0.00000000000E+00  0.14995168143E+04  0.14995168143E+04  0.50400001928E-02 0.  1.
       -1   -1    0    0    0  501  0.00000000000E+00  0.00000000000E+00 -0.14837925309E+04  0.14837925309E+04  0.50400001928E-02 0. -1.
    10030    2    1    2    0    0  0.00000000000E+00  0.00000000000E+00  0.15724283347E+02  0.29833093452E+04  0.29832679055E+04 0.  0.
        3    1    3    3  502    0 -0.48398178408E+03  0.14078275365E+04  0.10143212762E+03  0.14921478568E+04  0.10100000352E+00 0. -1.
       -3    1    3    3    0  502  0.48398178408E+03 -0.14078275365E+04 -0.85707844276E+02  0.14911614884E+04  0.10100000352E+00 0.  1.
</event>
<event>
 5   0  0.7729970E-06  0.2700189E+04  0.7818609E-02  0.8334944E-01
        2   -1    0    0  501    0  0.00000000000E+00  0.00000000000E+00  0.17065692431E+04  0.17065692431E+04  0.25500000920E-02 0.  1.
       -2   -1    0    0    0  501  0.00000000000E+00  0.00000000000E+00 -0.10680814574E+04  0.10680814574E+04  0.25500000920E-02 0. -1.
    10030    2    1    2    0    0  0.00000000000E+00  0.00000000000E+00  0.63848778563E+03  0.27746507005E+04  0.27001888559E+04 0.  0.
        4    1    3    3  502    0  0.25919097518E+02  0.57010897113E+03 -0.93804011282E+03  0.10980058765E+04  0.12699999809E+01 0. -1.
       -4    1    3    3    0  502 -0.25919097518E+02 -0.57010897113E+03  0.15765278985E+04  0.16766448241E+04  0.12699999809E+01 0.  1.
</event>
<event>
 5   0  0.7729970E-06  0.2721673E+04  0.7818609E-02  0.8328007E-01
       -2   -1    0    0    0  501  0.00000000000E+00  0.00000000000E+00  0.68723259514E+03  0.68723259514E+03  0.25500000920E-02 0. -1.
        2   -1    0    0  501    0  0.00000000000E+00  0.00000000000E+00 -0.26946859009E+04  0.26946859009E+04  0.25500000920E-02 0.  1.
    10030    2    1    2    0    0  0.00000000000E+00  0.00000000000E+00 -0.20074533058E+04  0.33819184961E+04  0.27216730037E+04 0.  0.
        4    1    3    3  502    0  0.22475266601E+03 -0.13063647188E+04 -0.62119548167E+03  0.14638947977E+04  0.12699999809E+01 0. -1.
       -4    1    3    3    0  502 -0.22475266601E+03  0.13063647188E+04 -0.13862578241E+04  0.19180236983E+04  0.12699999809E+01 0.  1.
</event>
<event>
 5   0  0.7812908E-06  0.2698902E+04  0.7818609E-02  0.8335361E-01
        2   -1    0    0  501    0  0.00000000000E+00  0.00000000000E+00  0.96769397507E+03  0.96769397507E+03  0.25500000920E-02 0.  1.
       -2   -1    0    0    0  501  0.00000000000E+00  0.00000000000E+00 -0.18818116165E+04  0.18818116165E+04  0.25500000920E-02 0. -1.
    10030    2    1    2    0    0  0.00000000000E+00  0.00000000000E+00 -0.91411764139E+03  0.28495055915E+04  0.26989018237E+04 0.  0.
        5    1    3    3  502    0 -0.41546578320E+03  0.54700505439E+02  0.89724804247E+03  0.99029293748E+03  0.46999998093E+01 0.  1.
       -5    1    3    3    0  502  0.41546578320E+03 -0.54700505439E+02 -0.18113656839E+04  0.18592126541E+04  0.46999998093E+01 0. -1.
</event>
<event>
 5   0  0.7838364E-06  0.2669447E+04  0.7818609E-02  0.8344987E-01
        2   -1    0    0  501    0  0.00000000000E+00  0.00000000000E+00  0.13499858695E+04  0.13499858695E+04  0.25500000920E-02 0.  1.
       -2   -1    0    0    0  501  0.00000000000E+00  0.00000000000E+00 -0.13196336135E+04  0.13196336135E+04  0.25500000920E-02 0. -1.
    10030    2    1    2    0    0  0.00000000000E+00  0.00000000000E+00  0.30352255962E+02  0.26696194830E+04  0.26694469323E+04 0.  0.
        2    1    3    3  502    0  0.26666624358E+02  0.11138353923E+04 -0.71981786700E+03  0.13264532225E+04  0.25500000920E-02 0. -1.
       -2    1    3    3    0  502 -0.26666624358E+02 -0.11138353923E+04  0.75017012296E+03  0.13431662605E+04  0.25500000920E-02 0.  1.
</event>
<event>
 5   0  0.8213334E-06  0.2630308E+04  0.7818609E-02  0.8357979E-01
        2   -1    0    0  501    0  0.00000000000E+00  0.00000000000E+00  0.15336054245E+04  0.15336054245E+04  0.25500000920E-02 0.  1.
       -2   -1    0    0    0  501  0.00000000000E+00  0.00000000000E+00 -0.11278195922E+04  0.11278195922E+04  0.25500000920E-02 0. -1.
    10030    2    1    2    0    0  0.00000000000E+00  0.00000000000E+00  0.40578583224E+03  0.26614250167E+04  0.26303081527E+04 0.  0.
        3    1    3    3  502    0 -0.13050479243E+03 -0.22890992216E+03 -0.11008371322E+04  0.11319335913E+04  0.10100000352E+00 0. -1.
       -3    1    3    3    0  502  0.13050479243E+03  0.22890992216E+03  0.15066229644E+04  0.15294914254E+04  0.10100000352E+00 0.  1.
</event>
<event>
 5   0  0.8213334E-06  0.2696829E+04  0.7818609E-02  0.8336035E-01
       -2   -1    0    0    0  501  0.00000000000E+00  0.00000000000E+00  0.14075943052E+04  0.14075943052E+04  0.25500000920E-02 0.  1.
        2   -1    0    0  501    0  0.00000000000E+00  0.00000000000E+00 -0.12917224770E+04  0.12917224770E+04  0.25500000920E-02 0. -1.
    10030    2    1    2    0    0  0.00000000000E+00  0.00000000000E+00  0.11587182819E+03  0.26993167821E+04  0.26968286579E+04 0.  0.
        3    1    3    3  502    0  0.69426214546E+03  0.68953001938E+03 -0.87069677005E+03  0.13097955756E+04  0.10100000352E+00 0. -1.
       -3    1    3    3    0  502 -0.69426214546E+03 -0.68953001938E+03  0.98656859824E+03  0.13895212066E+04  0.10100000352E+00 0.  1.
</event>
<event>
 5   0  0.7838364E-06  0.2663729E+04  0.7818609E-02  0.8346870E-01
       -2   -1    0    0    0  501  0.00000000000E+00  0.00000000000E+00  0.11391215902E+04  0.11391215902E+04  0.25500000920E-02 0. -1.
        2   -1    0    0  501    0  0.00000000000E+00  0.00000000000E+00 -0.15572201840E+04  0.15572201840E+04  0.25500000920E-02 0.  1.
    10030    2    1    2    0    0  0.00000000000E+00  0.00000000000E+00 -0.41809859380E+03  0.26963417742E+04  0.26637290645E+04 0.  0.
        2    1    3    3  502    0 -0.33102015811E+03 -0.24645247173E+03 -0.14908666283E+04  0.15469313072E+04  0.25500000920E-02 0.  1.
       -2    1    3    3    0  502  0.33102015811E+03  0.24645247173E+03  0.10727680345E+04  0.11494104670E+04  0.25500000920E-02 0. -1.
</event>
<event>
 5   0  0.2654625E-06  0.2697818E+04  0.7818609E-02  0.8335713E-01
        4   -1    0    0  501    0  0.00000000000E+00  0.00000000000E+00  0.10844062917E+04  0.10844070354E+04  0.12699999809E+01 0. -1.
       -4   -1    0    0    0  501  0.00000000000E+00  0.00000000000E+00 -0.16779263912E+04  0.16779268718E+04  0.12699999809E+01 0.  1.
    10030    2    1    2    0    0  0.00000000000E+00  0.00000000000E+00 -0.59352009950E+03  0.27623339072E+04  0.26978181010E+04 0.  0.
        5    1    3    3  502    0  0.10836244274E+03  0.13395972462E+04 -0.41471181949E+03  0.14065102859E+04  0.46999998093E+01 0. -1.
       -5    1    3    3    0  502 -0.10836244274E+03 -0.13395972462E+04 -0.17880828001E+03  0.13558236213E+04  0.46999998093E+01 0.  1.
</event>
<event>
 5   0  0.8213334E-06  0.2751901E+04  0.7818609E-02  0.8318359E-01
       -2   -1    0    0    0  501  0.00000000000E+00  0.00000000000E+00  0.11629912145E+04  0.11629912145E+04  0.25500000920E-02 0. -1.
        2   -1    0    0  501    0  0.00000000000E+00  0.00000000000E+00 -0.16279060711E+04  0.16279060711E+04  0.25500000920E-02 0.  1.
    10030    2    1    2    0    0  0.00000000000E+00  0.00000000000E+00 -0.46491485662E+03  0.27908972855E+04  0.27519014943E+04 0.  0.
        3    1    3    3  502    0  0.12461781815E+04 -0.54137925361E+03 -0.12149127950E+02  0.13587491188E+04  0.10100000352E+00 0. -1.
       -3    1    3    3    0  502 -0.12461781815E+04  0.54137925361E+03 -0.45276572867E+03  0.14321481668E+04  0.10100000352E+00 0.  1.
</event>
<event>
 5   0  0.3013407E-06  0.2705718E+04  0.7818609E-02  0.8333152E-01
        1   -1    0    0  501    0  0.00000000000E+00  0.00000000000E+00  0.17915976135E+04  0.17915976135E+04  0.50400001928E-02 0. -1.
       -1   -1    0    0    0  501  0.00000000000E+00  0.00000000000E+00 -0.10215616843E+04  0.10215616843E+04  0.50400001928E-02 0.  1.
    10030    2    1    2    0    0  0.00000000000E+00  0.00000000000E+00  0.77003592924E+03  0.28131592978E+04  0.27057180013E+04 0.  0.
        4    1    3    3  502    0  0.30985812259E+03 -0.20503737892E+03 -0.96747257614E+03  0.10363673004E+04  0.12699999809E+01 0.  1.
       -4    1    3    3    0  502 -0.30985812259E+03  0.20503737892E+03  0.17375085054E+04  0.17767919974E+04  0.12699999809E+01 0. -1.
</event>
<event>
 5   0  0.8407622E-06  0.2714487E+04  0.7818609E-02  0.8330320E-01
        2   -1    0    0  501    0  0.00000000000E+00  0.00000000000E+00  0.21612433532E+04  0.21612433532E+04  0.25500000920E-02 0. -1.
       -2   -1    0    0    0  501  0.00000000000E+00  0.00000000000E+00 -0.85233799407E+03  0.85233799407E+03  0.25500000920E-02 0.  1.
    10030    2    1    2    0    0  0.00000000000E+00  0.00000000000E+00  0.13089053591E+04  0.30135813473E+04  0.27144869308E+04 0.  0.
        1    1    3    3  502    0 -0.73201887814E+03  0.75942968702E+03 -0.29378056063E+03  0.10949393158E+04  0.50400001928E-02 0.  1.
       -1    1    3    3    0  502  0.73201887814E+03 -0.75942968702E+03  0.16026859198E+04  0.19186420315E+04  0.50400001928E-02 0. -1.
</event>
<event>
 5   0  0.7838364E-06  0.2401536E+04  0.7818609E-02  0.8438929E-01
       -2   -1    0    0    0  501  0.00000000000E+00  0.00000000000E+00  0.84223766457E+03  0.84223766457E+03  0.25500000920E-02 0.  1.
        2   -1    0    0  501    0  0.00000000000E+00  0.00000000000E+00 -0.17119198576E+04  0.17119198576E+04  0.25500000920E-02 0. -1.
    10030    2    1    2    0    0  0.00000000000E+00  0.00000000000E+00 -0.86968219305E+03  0.25541575222E+04  0.24015356610E+04 0.  0.
        2    1    3    3  502    0 -0.81818858156E+03  0.45340694242E+03  0.36588907025E+03  0.10044327863E+04  0.25500000920E-02 0.  1.
       -2    1    3    3    0  502  0.81818858156E+03 -0.45340694242E+03 -0.12355712633E+04  0.15497247359E+04  0.25500000920E-02 0. -1.
</event>
<event>
 5   0  0.3046300E-06  0.2722406E+04  0.7818609E-02  0.8327771E-01
        1   -1    0    0  501    0  0.00000000000E+00  0.00000000000E+00  0.16992478269E+04  0.16992478269E+04  0.50400001928E-02 0. -1.
       -1   -1    0    0    0  501  0.00000000000E+00  0.00000000000E+00 -0.10904082709E+04  0.10904082710E+04  0.50400001928E-02 0.  1.
    10030    2    1    2    0    0  0.00000000000E+00  0.00000000000E+00  0.60883955596E+03  0.27896560979E+04  0.27224062040E+04 0.  0.
        2    1    3    3  502    0  0.45194541567E+03 -0.43673998050E+03 -0.93283245448E+03  0.11247990298E+04  0.25500000920E-02 0.  1.
       -2    1    3    3    0  502 -0.45194541567E+03  0.43673998050E+03  0.15416720104E+04  0.16648570681E+04  0.25500000920E-02 0. -1.
</event>
<event>
 5   0  0.7812908E-06  0.2705212E+04  0.7818609E-02  0.8333316E-01
        2   -1    0    0  501    0  0.00000000000E+00  0.00000000000E+00  0.10976817051E+04  0.10976817051E+04  0.25500000920E-02 0. -1.
       -2   -1    0    0    0  501  0.00000000000E+00  0.00000000000E+00 -0.16667336957E+04  0.16667336957E+04  0.25500000920E-02 0.  1.
    10030    2    1    2    0    0  0.00000000000E+00  0.00000000000E+00 -0.56905199061E+03  0.27644154008E+04  0.27052120693E+04 0.  0.
        5    1    3    3  502    0  0.97046994973E+03 -0.18637388138E+03  0.65925199589E+03  0.11879319977E+04  0.46999998093E+01 0. -1.
       -5    1    3    3    0  502 -0.97046994973E+03  0.18637388138E+03 -0.12283039865E+04  0.15764834031E+04  0.46999998093E+01 0.  1.
</event>
<event>
 5   0  0.3028601E-06  0.2692522E+04  0.7818609E-02  0.8337436E-01
        1   -1    0    0  501    0  0.00000000000E+00  0.00000000000E+00  0.14174571142E+04  0.14174571142E+04  0.50400001928E-02 0. -1.
       -1   -1    0    0    0  501  0.00000000000E+00  0.00000000000E+00 -0.12786404717E+04  0.12786404717E+04  0.50400001928E-02 0.  1.
    10030    2    1    2    0    0  0.00000000000E+00  0.00000000000E+00  0.13881664247E+03  0.26960975859E+04  0.26925215194E+04 0.  0.
        3    1    3    3  502    0  0.10768091839E+04  0.80110675820E+03 -0.36220960106E+02  0.13426101537E+04  0.10100000352E+00 0.  1.
       -3    1    3    3    0  502 -0.10768091839E+04 -0.80110675820E+03  0.17503760258E+03  0.13534874322E+04  0.10100000352E+00 0. -1.
</event>
<event>
 5   0  0.3028601E-06  0.2699425E+04  0.7818609E-02  0.8335192E-01
        1   -1    0    0  501    0  0.00000000000E+00  0.00000000000E+00  0.11397151626E+04  0.11397151626E+04  0.50400001928E-02 0. -1.
       -1   -1    0    0    0  501  0.00000000000E+00  0.00000000000E+00 -0.15984022183E+04  0.15984022183E+04  0.50400001928E-02 0.  1.
    10030    2    1    2    0    0  0.00000000000E+00  0.00000000000E+00 -0.45868705565E+03  0.27381173809E+04  0.26994245639E+04 0.  0.
        3    1    3    3  502    0  0.38219454261E+03  0.12901593036E+04 -0.33640037105E+03  0.13869927602E+04  0.10100000352E+00 0. -1.
       -3    1    3    3    0  502 -0.38219454261E+03 -0.12901593036E+04 -0.12228668460E+03  0.13511246206E+04  0.10100000352E+00 0.  1.
</event>
<event>
 5   0  0.3013407E-06  0.2894758E+04  0.7818609E-02  0.8274439E-01
       -1   -1    0    0    0  501  0.00000000000E+00  0.00000000000E+00  0.14948265289E+04  0.14948265289E+04  0.50400001928E-02 0.  1.
        1   -1    0    0  501    0  0.00000000000E+00  0.00000000000E+00 -0.14014374139E+04  0.14014374139E+04  0.50400001928E-02 0. -1.
    10030    2    1    2    0    0  0.00000000000E+00  0.00000000000E+00  0.93389115014E+02  0.28962639428E+04  0.28947579000E+04 0.  0.
        4    1    3    3  502    0  0.11960687898E+04 -0.73947015586E+03  0.38966664477E+03  0.14591909979E+04  0.12699999809E+01 0. -1.
       -4    1    3    3    0  502 -0.11960687898E+04  0.73947015586E+03 -0.29627752975E+03  0.14370729449E+04  0.12699999809E+01 0.  1.
</event>
<event>
 5   0  0.7729970E-06  0.2700697E+04  0.7818609E-02  0.8334779E-01
        2   -1    0    0  501    0  0.00000000000E+00  0.00000000000E+00  0.13182874533E+04  0.13182874533E+04  0.25500000920E-02 0.  1.
       -2   -1    0    0    0  501  0.00000000000E+00  0.00000000000E+00 -0.13831892545E+04  0.13831892545E+04  0.25500000920E-02 0. -1.
    10030    2    1    2    0    0  0.00000000000E+00  0.00000000000E+00 -0.64901801164E+02  0.27014767077E+04  0.27006969765E+04 0.  0.
        4    1    3    3  502    0  0.99287437569E+03  0.91026070496E+03  0.62788719588E+02  0.13484502635E+04  0.12699999809E+01 0. -1.
       -4    1    3    3    0  502 -0.99287437569E+03 -0.91026070496E+03 -0.12769052075E+03  0.13530264443E+04  0.12699999809E+01 0.  1.
</event>
<event>
 5   0  0.7838364E-06  0.2482245E+04  0.7818609E-02  0.8409338E-01
        2   -1    0    0  501    0  0.00000000000E+00  0.00000000000E+00  0.18877546837E+04  0.18877546837E+04  0.25500000920E-02 0. -1.
       -2   -1    0    0    0  501  0.00000000000E+00  0.00000000000E+00 -0.81598820374E+03  0.81598820374E+03  0.25500000920E-02 0.  1.
    10030    2    1    2    0    0  0.00000000000E+00  0.00000000000E+00  0.10717664800E+04  0.27037428875E+04  0.24822453976E+04 0.  0.
        2    1    3    3  502    0 -0.74800362526E+03  0.29795253033E+03  0.15646751671E+04  0.17596856288E+04  0.25500000920E-02 0. -1.
       -2    1    3    3    0  502  0.74800362526E+03 -0.29795253033E+03 -0.49290868713E+03  0.94405725864E+03  0.25500000920E-02 0.  1.
</event>
<event>
 5   0  0.7729970E-06  0.2707221E+04  0.7818609E-02  0.8332666E-01
        2   -1    0    0  501    0  0.00000000000E+00  0.00000000000E+00  0.22961398836E+04  0.22961398836E+04  0.25500000920E-02 0.  1.
       -2   -1    0    0    0  501  0.00000000000E+00  0.00000000000E+00 -0.79797453524E+03  0.79797453524E+03  0.25500000920E-02 0. -1.
    10030    2    1    2    0    0  0.00000000000E+00  0.00000000000E+00  0.14981653484E+04  0.30941144188E+04  0.27072208306E+04 0.  0.
        4    1    3    3  502    0 -0.65009354449E+02  0.54442442915E+03  0.21635417279E+04  0.22319360646E+04  0.12699999809E+01 0.  1.
       -4    1    3    3    0  502  0.65009354449E+02 -0.54442442915E+03 -0.66537637952E+03  0.86217835425E+03  0.12699999809E+01 0. -1.
</event>
<event>
 5   0  0.8407622E-06  0.2700290E+04  0.7818609E-02  0.8334911E-01
        2   -1    0    0  501    0  0.00000000000E+00  0.00000000000E+00  0.11727421589E+04  0.11727421589E+04  0.25500000920E-02 0.  1.
       -2   -1    0    0    0  501  0.00000000000E+00  0.00000000000E+00 -0.15543836189E+04  0.15543836189E+04  0.25500000920E-02 0. -1.
    10030    2    1    2    0    0  0.00000000000E+00  0.00000000000E+00 -0.38164146000E+03  0.27271257777E+04  0.27002897629E+04 0.  0.
        1    1    3    3  502    0  0.11157216650E+04  0.71562866993E+03 -0.45014480497E+03  0.13998534111E+04  0.50400001928E-02 0. -1.
       -1    1    3    3    0  502 -0.11157216650E+04 -0.71562866993E+03  0.68503344966E+02  0.13272723667E+04  0.50400001928E-02 0.  1.
</event>
<event>
 5   0  0.8213334E-06  0.2718033E+04  0.7818609E-02  0.8329177E-01
       -2   -1    0    0    0  501  0.00000000000E+00  0.00000000000E+00  0.12911935884E+04  0.12911935884E+04  0.25500000920E-02 0.  1.
        2   -1    0    0  501    0  0.00000000000E+00  0.00000000000E+00 -0.14304021990E+04  0.14304021990E+04  0.25500000920E-02 0. -1.
    10030    2    1    2    0    0  0.00000000000E+00  0.00000000000E+00 -0.13920861055E+03  0.27215957874E+04  0.27180332214E+04 0.  0.
        3    1    3    3  502    0 -0.11615358598E+04 -0.49624807787E+03 -0.57175781480E+03  0.13864828586E+04  0.10100000352E+00 0. -1.
       -3    1    3    3    0  502  0.11615358598E+04  0.49624807787E+03  0.43254920425E+03  0.13351129288E+04  0.10100000352E+00 0.  1.
</event>
<event>
 5   0  0.3199840E-06  0.2738966E+04  0.7818609E-02  0.8322471E-01
       -1   -1    0    0    0  501  0.00000000000E+00  0.00000000000E+00  0.15720217940E+04  0.15720217940E+04  0.50400001928E-02 0.  1.
        1   -1    0    0  501    0  0.00000000000E+00  0.00000000000E+00 -0.11930392740E+04  0.11930392740E+04  0.50400001928E-02 0. -1.
    10030    2    1    2    0    0  0.00000000000E+00  0.00000000000E+00  0.37898252007E+03  0.27650610680E+04  0.27389660384E+04 0.  0.
        1    1    3    3  502    0  0.66197765555E+03  0.79651012397E+03  0.10940417997E+04  0.15065092942E+04  0.50400001928E-02 0.  1.
       -1    1    3    3    0  502 -0.66197765555E+03 -0.79651012397E+03 -0.71505927960E+03  0.12585517738E+04  0.50400001928E-02 0. -1.
</event>
<event>
 5   0  0.7838364E-06  0.2729347E+04  0.7818609E-02  0.8325545E-01
       -2   -1    0    0    0  501  0.00000000000E+00  0.00000000000E+00  0.71759130350E+03  0.71759130351E+03  0.25500000920E-02 0. -1.
        2   -1    0    0  501    0  0.00000000000E+00  0.00000000000E+00 -0.25952576643E+04  0.25952576643E+04  0.25500000920E-02 0.  1.
    10030    2    1    2    0    0  0.00000000000E+00  0.00000000000E+00 -0.18776663608E+04  0.33128489678E+04  0.27293474167E+04 0.  0.
        2    1    3    3  502    0  0.98256245199E+03 -0.74794275864E+03 -0.16439666564E+04  0.20560821262E+04  0.25500000920E-02 0.  1.
       -2    1    3    3    0  502 -0.98256245199E+03  0.74794275864E+03 -0.23369970436E+03  0.12567668416E+04  0.25500000920E-02 0. -1.
</event>
<event>
 5   0  0.3013407E-06  0.2696719E+04  0.7818609E-02  0.8336070E-01
        1   -1    0    0  501    0  0.00000000000E+00  0.00000000000E+00  0.11963906805E+04  0.11963906805E+04  0.50400001928E-02 0.  1.
       -1   -1    0    0    0  501  0.00000000000E+00  0.00000000000E+00 -0.15196322357E+04  0.15196322357E+04  0.50400001928E-02 0. -1.
    10030    2    1    2    0    0  0.00000000000E+00  0.00000000000E+00 -0.32324155522E+03  0.27160229162E+04  0.26967193733E+04 0.  0.
        4    1    3    3  502    0 -0.73647300214E+03  0.73414706849E+03 -0.10260816043E+04  0.14608933817E+04  0.12699999809E+01 0. -1.
       -4    1    3    3    0  502  0.73647300214E+03 -0.73414706849E+03  0.70284004905E+03  0.12551295346E+04  0.12699999809E+01 0.  1.
</event>
<event>
 5   0  0.7838364E-06  0.2731204E+04  0.7818609E-02  0.8324951E-01
        2   -1    0    0  501    0  0.00000000000E+00  0.00000000000E+00  0.24086215778E+04  0.24086215778E+04  0.25500000920E-02 0. -1.
       -2   -1    0    0    0  501  0.00000000000E+00  0.00000000000E+00 -0.77424708900E+03  0.77424708900E+03  0.25500000920E-02 0.  1.
    10030    2    1    2    0    0  0.00000000000E+00  0.00000000000E+00  0.16343744888E+04  0.31828686668E+04  0.27312035773E+04 0.  0.
        2    1    3    3  502    0 -0.98586954271E+03 -0.20688624833E+03 -0.25731344066E+03  0.10396878771E+04  0.25500000920E-02 0.  1.
       -2    1    3    3    0  502  0.98586954271E+03  0.20688624833E+03  0.18916879295E+04  0.21431807897E+04  0.25500000920E-02 0. -1.
</event>
<event>
 5   0  0.7729970E-06  0.2713425E+04  0.7818609E-02  0.8330662E-01
       -2   -1    0    0    0  501  0.00000000000E+00  0.00000000000E+00  0.13593266379E+04  0.13593266379E+04  0.25500000920E-02 0.  1.
        2   -1    0    0  501    0  0.00000000000E+00  0.00000000000E+00 -0.13541033959E+04  0.13541033959E+04  0.25500000920E-02 0. -1.
    10030    2    1    2    0    0  0.00000000000E+00  0.00000000000E+00  0.52232419614E+01  0.27134300338E+04  0.27134250065E+04 0.  0.
        4    1    3    3  502    0  0.31621273884E+03  0.27177579343E+02 -0.13164579503E+04  0.13541758619E+04  0.12699999809E+01 0. -1.
       -4    1    3    3    0  502 -0.31621273884E+03 -0.27177579343E+02  0.13216811923E+04  0.13592541719E+04  0.12699999809E+01 0.  1.
</event>
<event>
 5   0  0.3199840E-06  0.2702732E+04  0.7818609E-02  0.8334119E-01
       -1   -1    0    0    0  501  0.00000000000E+00  0.00000000000E+00  0.10157751853E+04  0.10157751853E+04  0.50400001928E-02 0.  1.
        1   -1    0    0  501    0  0.00000000000E+00  0.00000000000E+00 -0.17978287169E+04  0.17978287169E+04  0.50400001928E-02 0. -1.
    10030    2    1    2    0    0  0.00000000000E+00  0.00000000000E+00 -0.78205353162E+03  0.28136039022E+04  0.27027318018E+04 0.  0.
        1    1    3    3  502    0 -0.77602025662E+03  0.79842267816E+03  0.40622472843E+03  0.11852024054E+04  0.50400001928E-02 0.  1.
       -1    1    3    3    0  502  0.77602025662E+03 -0.79842267816E+03 -0.11882782600E+04  0.16284014969E+04  0.50400001928E-02 0. -1.
</event>
<event>
 5   0  0.3028601E-06  0.2692386E+04  0.7818609E-02  0.8337480E-01
        1   -1    0    0  501    0  0.00000000000E+00  0.00000000000E+00  0.11614418400E+04  0.11614418400E+04  0.50400001928E-02 0.  1.
       -1   -1    0    0    0  501  0.00000000000E+00  0.00000000000E+00 -0.15603327066E+04  0.15603327066E+04  0.50400001928E-02 0. -1.
    10030    2    1    2    0    0  0.00000000000E+00  0.00000000000E+00 -0.39889086664E+03  0.27217745466E+04  0.26923860717E+04 0.  0.
        3    1    3    3  502    0  0.77712210352E+03 -0.10523664073E+04 -0.52046776006E+03  0.14079348417E+04  0.10100000352E+00 0. -1.
       -3    1    3    3    0  502 -0.77712210352E+03  0.10523664073E+04  0.12157689342E+03  0.13138397049E+04  0.10100000352E+00 0.  1.
</event>
<event>
 5   0  0.8213334E-06  0.2707642E+04  0.7818609E-02  0.8332530E-01
       -2   -1    0    0    0  501  0.00000000000E+00  0.00000000000E+00  0.84308853411E+03  0.84308853411E+03  0.25500000920E-02 0. -1.
        2   -1    0    0  501    0  0.00000000000E+00  0.00000000000E+00 -0.21739483364E+04  0.21739483364E+04  0.25500000920E-02 0.  1.
    10030    2    1    2    0    0  0.00000000000E+00  0.00000000000E+00 -0.13308598022E+04  0.30170368705E+04  0.27076417164E+04 0.  0.
        3    1    3    3  502    0 -0.24107113196E+03  0.12297011832E+04 -0.94482709370E+02  0.12566651436E+04  0.10100000352E+00 0. -1.
       -3    1    3    3    0  502  0.24107113196E+03 -0.12297011832E+04 -0.12363770929E+04  0.17603717268E+04  0.10100000352E+00 0.  1.
</event>
<event>
 5   0  0.3089218E-06  0.2693046E+04  0.7818609E-02  0.8337265E-01
        1   -1    0    0  501    0  0.00000000000E+00  0.00000000000E+00  0.15519298507E+04  0.15519298507E+04  0.50400001928E-02 0. -1.
       -1   -1    0    0    0  501  0.00000000000E+00  0.00000000000E+00 -0.11683026095E+04  0.11683026096E+04  0.50400001928E-02 0.  1.
    10030    2    1    2    0    0  0.00000000000E+00  0.00000000000E+00  0.38362724111E+03  0.27202324602E+04  0.26930456323E+04 0.  0.
        5    1    3    3  502    0 -0.71886562763E+03  0.11374463020E+04  0.14080907491E+03  0.13529231930E+04  0.46999998093E+01 0.  1.
       -5    1    3    3    0  502  0.71886562763E+03 -0.11374463020E+04  0.24281816620E+03  0.13673092673E+04  0.46999998093E+01 0. -1.
</event>
<event>
 5   0  0.3013407E-06  0.2700636E+04  0.7818609E-02  0.8334799E-01
        1   -1    0    0  501    0  0.00000000000E+00  0.00000000000E+00  0.15431331240E+04  0.15431331240E+04  0.50400001928E-02 0. -1.
       -1   -1    0    0    0  501  0.00000000000E+00  0.00000000000E+00 -0.11815954286E+04  0.11815954286E+04  0.50400001928E-02 0.  1.
    10030    2    1    2    0    0  0.00000000000E+00  0.00000000000E+00  0.36153769541E+03  0.27247285526E+04  0.27006362547E+04 0.  0.
        4    1    3    3  502    0 -0.56062765522E+03 -0.10512097021E+04  0.82205875268E+03  0.14474554954E+04  0.12699999809E+01 0. -1.
       -4    1    3    3    0  502  0.56062765522E+03  0.10512097021E+04 -0.46052105727E+03  0.12772730572E+04  0.12699999809E+01 0.  1.
</event>
<event>
 5   0  0.7729970E-06  0.2662223E+04  0.7818609E-02  0.8347367E-01
       -2   -1    0    0    0  501  0.00000000000E+00  0.00000000000E+00  0.90478707410E+03  0.90478707411E+03  0.25500000920E-02 0.  1.
        2   -1    0    0  501    0  0.00000000000E+00  0.00000000000E+00 -0.19583151034E+04  0.19583151034E+04  0.25500000920E-02 0. -1.
    10030    2    1    2    0    0  0.00000000000E+00  0.00000000000E+00 -0.10535280293E+04  0.28631021775E+04  0.26622232758E+04 0.  0.
        4    1    3    3  502    0 -0.10723827419E+04 -0.57349205704E+03 -0.11088612912E+04  0.16457438624E+04  0.12699999809E+01 0. -1.
       -4    1    3    3    0  502  0.10723827419E+04  0.57349205704E+03  0.55333261910E+02  0.12173583151E+04  0.12699999809E+01 0.  1.
</event>
<event>
 5   0  0.8407622E-06  0.2700125E+04  0.7818609E-02  0.8334964E-01
       -2   -1    0    0    0  501  0.00000000000E+00  0.00000000000E+00  0.95685261638E+03  0.95685261638E+03  0.25500000920E-02 0. -1.
        2   -1    0    0  501    0  0.00000000000E+00  0.00000000000E+00 -0.19048586010E+04  0.19048586010E+04  0.25500000920E-02 0.  1.
    10030    2    1    2    0    0  0.00000000000E+00  0.00000000000E+00 -0.94800598459E+03  0.28617112174E+04  0.27001251350E+04 0.  0.
        1    1    3    3  502    0  0.95430645646E+03 -0.37842591651E+03 -0.14032642985E+04  0.17386942453E+04  0.50400001928E-02 0.  1.
       -1    1    3    3    0  502 -0.95430645646E+03  0.37842591651E+03  0.45525831391E+03  0.11230169721E+04  0.50400001928E-02 0. -1.
</event>
<event>
 5   0  0.3046300E-06  0.2701021E+04  0.7818609E-02  0.8334674E-01
        1   -1    0    0  501    0  0.00000000000E+00  0.00000000000E+00  0.23126731758E+04  0.23126731758E+04  0.50400001928E-02 0. -1.
       -1   -1    0    0    0  501  0.00000000000E+00  0.00000000000E+00 -0.78864546828E+03  0.78864546830E+03  0.50400001928E-02 0.  1.
    10030    2    1    2    0    0  0.00000000000E+00  0.00000000000E+00  0.15240277075E+04  0.31013186441E+04  0.27010214510E+04 0.  0.
        2    1    3    3  502    0  0.12909591511E+04  0.57019630813E+02  0.31135006457E+03  0.13291973633E+04  0.25500000920E-02 0.  1.
       -2    1    3    3    0  502 -0.12909591511E+04 -0.57019630813E+02  0.12126776429E+04  0.17721212807E+04  0.25500000920E-02 0. -1.
</event>
<event>
 5   0  0.7838364E-06  0.2698382E+04  0.7818609E-02  0.8335530E-01
        2   -1    0    0  501    0  0.00000000000E+00  0.00000000000E+00  0.22665118283E+04  0.22665118283E+04  0.25500000920E-02 0.  1.
       -2   -1    0    0    0  501  0.00000000000E+00  0.00000000000E+00 -0.80313570801E+03  0.80313570801E+03  0.25500000920E-02 0. -1.
    10030    2    1    2    0    0  0.00000000000E+00  0.00000000000E+00  0.14633761203E+04  0.30696475363E+04  0.26983821686E+04 0.  0.
        2    1    3    3  502    0  0.71285754754E+03  0.10422016130E+04  0.12724511984E+04  0.17926187931E+04  0.25500000920E-02 0.  1.
       -2    1    3    3    0  502 -0.71285754754E+03 -0.10422016130E+04  0.19092492192E+03  0.12770287432E+04  0.25500000920E-02 0. -1.
</event>
<event>
 5   0  0.8407622E-06  0.2673684E+04  0.7818609E-02  0.8343595E-01
        2   -1    0    0  501    0  0.00000000000E+00  0.00000000000E+00  0.11462517787E+04  0.11462517787E+04  0.25500000920E-02 0.  1.
       -2   -1    0    0    0  501  0.00000000000E+00  0.00000000000E+00 -0.15591217788E+04  0.15591217788E+04  0.25500000920E-02 0. -1.
    10030    2    1    2    0    0  0.00000000000E+00  0.00000000000E+00 -0.41287000011E+03  0.27053735575E+04  0.26736836853E+04 0.  0.
        1    1    3    3  502    0  0.12814896689E+04 -0.36378015861E+03 -0.31998963616E+03  0.13700164752E+04  0.50400001928E-02 0. -1.
       -1    1    3    3    0  502 -0.12814896689E+04  0.36378015861E+03 -0.92880363943E+02  0.13353570823E+04  0.50400001928E-02 0.  1.
</event>
<event>
 5   0  0.8213334E-06  0.2709518E+04  0.7818609E-02  0.8331923E-01
       -2   -1    0    0    0  501  0.00000000000E+00  0.00000000000E+00  0.14273813465E+04  0.14273813465E+04  0.25500000920E-02 0.  1.
        2   -1    0    0  501    0  0.00000000000E+00  0.00000000000E+00 -0.12858317606E+04  0.12858317606E+04  0.25500000920E-02 0. -1.
    10030    2    1    2    0    0  0.00000000000E+00  0.00000000000E+00  0.14154958589E+03  0.27132131070E+04  0.27095182374E+04 0.  0.
        3    1    3    3  502    0 -0.27221580567E+03 -0.35457922110E+03  0.13514028008E+04  0.14234175105E+04  0.10100000352E+00 0.  1.
       -3    1    3    3    0  502  0.27221580567E+03  0.35457922110E+03 -0.12098532150E+04  0.12897955965E+04  0.10100000352E+00 0. -1.
</event>
<event>
 5   0  0.7838364E-06  0.2680081E+04  0.7818609E-02  0.8341497E-01
        2   -1    0    0  501    0  0.00000000000E+00  0.00000000000E+00  0.24511527320E+04  0.24511527320E+04  0.25500000920E-02 0. -1.
       -2   -1    0    0    0  501  0.00000000000E+00  0.00000000000E+00 -0.73259736370E+03  0.73259736371E+03  0.25500000920E-02 0.  1.
    10030    2    1    2    0    0  0.00000000000E+00  0.00000000000E+00  0.17185553683E+04  0.31837500957E+04  0.26800806178E+04 0.  0.
        2    1    3    3  502    0  0.26759563690E+03 -0.10160335622E+04  0.18473164525E+04  0.21252081545E+04  0.25500000920E-02 0. -1.
       -2    1    3    3    0  502 -0.26759563690E+03  0.10160335622E+04 -0.12876108418E+03  0.10585419412E+04  0.25500000920E-02 0.  1.
</event>
<event>
 5   0  0.3089218E-06  0.2672970E+04  0.7818609E-02  0.8343829E-01
       -1   -1    0    0    0  501  0.00000000000E+00  0.00000000000E+00  0.11319134703E+04  0.11319134703E+04  0.50400001928E-02 0. -1.
        1   -1    0    0  501    0  0.00000000000E+00  0.00000000000E+00 -0.15780283329E+04  0.15780283329E+04  0.50400001928E-02 0.  1.
    10030    2    1    2    0    0  0.00000000000E+00  0.00000000000E+00 -0.44611486260E+03  0.27099418032E+04  0.26729695296E+04 0.  0.
        5    1    3    3  502    0 -0.72234590852E+03 -0.61464484993E+03 -0.11776745447E+04  0.15121214654E+04  0.46999998093E+01 0.  1.
       -5    1    3    3    0  502  0.72234590852E+03  0.61464484993E+03  0.73155968205E+03  0.11978203377E+04  0.46999998093E+01 0. -1.
</event>
<event>
 5   0  0.7729970E-06  0.2705267E+04  0.7818609E-02  0.8333298E-01
       -2   -1    0    0    0  501  0.00000000000E+00  0.00000000000E+00  0.10174167863E+04  0.10174167863E+04  0.25500000920E-02 0.  1.
        2   -1    0    0  501    0  0.00000000000E+00  0.00000000000E+00 -0.17982967732E+04  0.17982967732E+04  0.25500000920E-02 0. -1.
    10030    2    1    2    0    0  0.00000000000E+00  0.00000000000E+00 -0.78087998694E+03  0.28157135595E+04  0.27052669545E+04 0.  0.
        4    1    3    3  502    0  0.79546457066E+03  0.52640119139E+03  0.60775203219E+03  0.11310288427E+04  0.12699999809E+01 0.  1.
       -4    1    3    3    0  502 -0.79546457066E+03 -0.52640119139E+03 -0.13886320191E+04  0.16846847168E+04  0.12699999809E+01 0. -1.
</event>
<event>
 5   0  0.3028601E-06  0.2690405E+04  0.7818609E-02  0.8338125E-01
       -1   -1    0    0    0  501  0.00000000000E+00  0.00000000000E+00  0.68312840202E+03  0.68312840204E+03  0.50400001928E-02 0. -1.
        1   -1    0    0  501    0  0.00000000000E+00  0.00000000000E+00 -0.26489448727E+04  0.26489448728E+04  0.50400001928E-02 0.  1.
    10030    2    1    2    0    0  0.00000000000E+00  0.00000000000E+00 -0.19658164707E+04  0.33320732748E+04  0.26904047859E+04 0.  0.
        3    1    3    3  502    0 -0.20886332355E+03  0.78572778305E+03 -0.23102325667E+04  0.24491154647E+04  0.10100000352E+00 0.  1.
       -3    1    3    3    0  502  0.20886332355E+03 -0.78572778305E+03  0.34441609599E+03  0.88295781007E+03  0.10100000352E+00 0. -1.
</event>
<event>
 5   0  0.3028601E-06  0.2702087E+04  0.7818609E-02  0.8334328E-01
       -1   -1    0    0    0  501  0.00000000000E+00  0.00000000000E+00  0.13617843845E+04  0.13617843845E+04  0.50400001928E-02 0. -1.
        1   -1    0    0  501    0  0.00000000000E+00  0.00000000000E+00 -0.13403870981E+04  0.13403870981E+04  0.50400001928E-02 0.  1.
    10030    2    1    2    0    0  0.00000000000E+00  0.00000000000E+00  0.21397286404E+02  0.27021714827E+04  0.27020867636E+04 0.  0.
        3    1    3    3  502    0 -0.11631718710E+03  0.13460034284E+04  0.18654518226E+02  0.13511487404E+04  0.10100000352E+00 0.  1.
       -3    1    3    3    0  502  0.11631718710E+03 -0.13460034284E+04  0.27427681788E+01  0.13510227423E+04  0.10100000352E+00 0. -1.
</event>
<event>
 5   0  0.8213334E-06  0.2685073E+04  0.7818609E-02  0.8339864E-01
       -2   -1    0    0    0  501  0.00000000000E+00  0.00000000000E+00  0.71285571050E+03  0.71285571051E+03  0.25500000920E-02 0.  1.
        2   -1    0    0  501    0  0.00000000000E+00  0.00000000000E+00 -0.25284286604E+04  0.25284286605E+04  0.25500000920E-02 0. -1.
    10030    2    1    2    0    0  0.00000000000E+00  0.00000000000E+00 -0.18155729499E+04  0.32412843710E+04  0.26850734137E+04 0.  0.
        3    1    3    3  502    0 -0.11798493299E+04 -0.17589461742E+03 -0.16421639627E+03  0.12041388594E+04  0.10100000352E+00 0. -1.
       -3    1    3    3    0  502  0.11798493299E+04  0.17589461742E+03 -0.16513565537E+04  0.20371455116E+04  0.10100000352E+00 0.  1.
</event>
<event>
 5   0  0.2654625E-06  0.2684546E+04  0.7818609E-02  0.8340037E-01
       -3   -1    0    0    0  501  0.00000000000E+00  0.00000000000E+00  0.10367171496E+04  0.10367171545E+04  0.10100000352E+00 0.  1.
        3   -1    0    0  501    0  0.00000000000E+00  0.00000000000E+00 -0.17378870484E+04  0.17378870514E+04  0.10100000352E+00 0. -1.
    10030    2    1    2    0    0  0.00000000000E+00  0.00000000000E+00 -0.70116989888E+03  0.27746042059E+04  0.26845463811E+04 0.  0.
        3    1    3    3  502    0  0.68116842318E+03 -0.11214549771E+04 -0.64299945936E+03  0.14611981390E+04  0.10100000352E+00 0. -1.
       -3    1    3    3    0  502 -0.68116842318E+03  0.11214549771E+04 -0.58170439516E+02  0.13134060669E+04  0.10100000352E+00 0.  1.
</event>
<event>
 5   0  0.3028601E-06  0.2737130E+04  0.7818609E-02  0.8323057E-01
        1   -1    0    0  501    0  0.00000000000E+00  0.00000000000E+00  0.17587342797E+04  0.17587342797E+04  0.50400001928E-02 0. -1.
       -1   -1    0    0    0  501  0.00000000000E+00  0.00000000000E+00 -0.10649535191E+04  0.10649535191E+04  0.50400001928E-02 0.  1.
    10030    2    1    2    0    0  0.00000000000E+00  0.00000000000E+00  0.69378076059E+03  0.28236877987E+04  0.27371300738E+04 0.  0.
        3    1    3    3  502    0 -0.91363988363E+03 -0.12044619574E+03  0.13906798768E+04  0.16683032258E+04  0.10100000352E+00 0. -1.
       -3    1    3    3    0  502  0.91363988363E+03  0.12044619574E+03 -0.69689911626E+03  0.11553845730E+04  0.10100000352E+00 0.  1.
</event>
<event>
 5   0  0.3013407E-06  0.2675375E+04  0.7818609E-02  0.8343039E-01
       -1   -1    0    0    0  501  0.00000000000E+00  0.00000000000E+00  0.10210979623E+04  0.10210979623E+04  0.50400001928E-02 0. -1.
        1   -1    0    0  501    0  0.00000000000E+00  0.00000000000E+00 -0.17524348912E+04  0.17524348912E+04  0.50400001928E-02 0.  1.
    10030    2    1    2    0    0  0.00000000000E+00  0.00000000000E+00 -0.73133692883E+03  0.27735328535E+04  0.26753748870E+04 0.  0.
        4    1    3    3  502    0 -0.10232835676E+03 -0.12873851146E+04 -0.42003302368E+01  0.12914529731E+04  0.12699999809E+01 0. -1.
       -4    1    3    3    0  502  0.10232835676E+03  0.12873851146E+04 -0.72713659859E+03  0.14820798804E+04  0.12699999809E+01 0.  1.
</event>
<event>
 5   0  0.3089218E-06  0.2687644E+04  0.7818609E-02  0.8339025E-01
        1   -1    0    0  501    0  0.00000000000E+00  0.00000000000E+00  0.98913243720E+03  0.98913243721E+03  0.50400001928E-02 0.  1.
       -1   -1    0    0    0  501  0.00000000000E+00  0.00000000000E+00 -0.18256978920E+04  0.18256978920E+04  0.50400001928E-02 0. -1.
    10030    2    1    2    0    0  0.00000000000E+00  0.00000000000E+00 -0.83656545479E+03  0.28148303292E+04  0.26876435817E+04 0.  0.
        5    1    3    3  502    0  0.60213032670E+03 -0.11122673896E+04  0.57224002267E+02  0.12660949225E+04  0.46999998093E+01 0.  1.
       -5    1    3    3    0  502 -0.60213032670E+03  0.11122673896E+04 -0.89378945706E+03  0.15487354067E+04  0.46999998093E+01 0. -1.
</event>
<event>
 5   0  0.3013407E-06  0.2677200E+04  0.7818609E-02  0.8342441E-01
        1   -1    0    0  501    0  0.00000000000E+00  0.00000000000E+00  0.16714693807E+04  0.16714693808E+04  0.50400001928E-02 0.  1.
       -1   -1    0    0    0  501  0.00000000000E+00  0.00000000000E+00 -0.10720204515E+04  0.10720204515E+04  0.50400001928E-02 0. -1.
    10030    2    1    2    0    0  0.00000000000E+00  0.00000000000E+00  0.59944892925E+03  0.27434898323E+04  0.26771995519E+04 0.  0.
        4    1    3    3  502    0  0.40975314220E+02 -0.12257026658E+04  0.84949873768E+03  0.14918698736E+04  0.12699999809E+01 0.  1.
       -4    1    3    3    0  502 -0.40975314220E+02  0.12257026658E+04 -0.25004980843E+03  0.12516199587E+04  0.12699999809E+01 0. -1.
</event>
<event>
 5   0  0.8213334E-06  0.2705054E+04  0.7818609E-02  0.8333367E-01
       -2   -1    0    0    0  501  0.00000000000E+00  0.00000000000E+00  0.12879745487E+04  0.12879745487E+04  0.25500000920E-02 0.  1.
        2   -1    0    0  501    0  0.00000000000E+00  0.00000000000E+00 -0.14203152778E+04  0.14203152778E+04  0.25500000920E-02 0. -1.
    10030    2    1    2    0    0  0.00000000000E+00  0.00000000000E+00 -0.13234072916E+03  0.27082898265E+04  0.27050544756E+04 0.  0.
        3    1    3    3  502    0  0.10082914433E+04 -0.67923818749E+03  0.52725582398E+03  0.13251471104E+04  0.10100000352E+00 0.  1.
       -3    1    3    3    0  502 -0.10082914433E+04  0.67923818749E+03 -0.65959655314E+03  0.13831427161E+04  0.10100000352E+00 0. -1.
</event>
<event>
 5   0  0.3199840E-06  0.2716370E+04  0.7818609E-02  0.8329713E-01
       -1   -1    0    0    0  501  0.00000000000E+00  0.00000000000E+00  0.97845473762E+03  0.97845473764E+03  0.50400001928E-02 0. -1.
        1   -1    0    0  501    0  0.00000000000E+00  0.00000000000E+00 -0.18852850578E+04  0.18852850578E+04  0.50400001928E-02 0.  1.
    10030    2    1    2    0    0  0.00000000000E+00  0.00000000000E+00 -0.90683032020E+03  0.28637397955E+04  0.27163697073E+04 0.  0.
        1    1    3    3  502    0 -0.28929976483E+01 -0.87598985672E+03  0.64082564217E+03  0.10853681874E+04  0.50400001928E-02 0. -1.
       -1    1    3    3    0  502  0.28929976483E+01  0.87598985672E+03 -0.15476559624E+04  0.17783716081E+04  0.50400001928E-02 0.  1.
</event>
<event>
 5   0  0.8213334E-06  0.2700914E+04  0.7818609E-02  0.8334708E-01
        2   -1    0    0  501    0  0.00000000000E+00  0.00000000000E+00  0.24848099423E+04  0.24848099423E+04  0.25500000920E-02 0. -1.
       -2   -1    0    0    0  501  0.00000000000E+00  0.00000000000E+00 -0.73395340267E+03  0.73395340268E+03  0.25500000920E-02 0.  1.
    10030    2    1    2    0    0  0.00000000000E+00  0.00000000000E+00  0.17508565397E+04  0.32187633450E+04  0.27009144468E+04 0.  0.
        3    1    3    3  502    0 -0.40539932788E+03 -0.89620229093E+03  0.19781545970E+04  0.22092131588E+04  0.10100000352E+00 0. -1.
       -3    1    3    3    0  502  0.40539932788E+03  0.89620229093E+03 -0.22729805735E+03  0.10095501862E+04  0.10100000352E+00 0.  1.
</event>
<event>
 5   0  0.7729970E-06  0.2695678E+04  0.7818609E-02  0.8336409E-01
       -2   -1    0    0    0  501  0.00000000000E+00  0.00000000000E+00  0.85609815857E+03  0.85609815858E+03  0.25500000920E-02 0.  1.
        2   -1    0    0  501    0  0.00000000000E+00  0.00000000000E+00 -0.21220353693E+04  0.21220353693E+04  0.25500000920E-02 0. -1.
    10030    2    1    2    0    0  0.00000000000E+00  0.00000000000E+00 -0.12659372107E+04  0.29781335278E+04  0.26956784467E+04 0.  0.
        4    1    3    3  502    0  0.45896279012E+03 -0.32232845310E+02  0.76665519729E+03  0.89411833862E+03  0.12699999809E+01 0.  1.
       -4    1    3    3    0  502 -0.45896279012E+03  0.32232845310E+02 -0.20325924080E+04  0.20840151892E+04  0.12699999809E+01 0. -1.
</event>
<event>
 5   0  0.3013407E-06  0.2711161E+04  0.7818609E-02  0.8331393E-01
        1   -1    0    0  501    0  0.00000000000E+00  0.00000000000E+00  0.22663842163E+04  0.22663842163E+04  0.50400001928E-02 0.  1.
       -1   -1    0    0    0  501  0.00000000000E+00  0.00000000000E+00 -0.81080654856E+03  0.81080654857E+03  0.50400001928E-02 0. -1.
    10030    2    1    2    0    0  0.00000000000E+00  0.00000000000E+00  0.14555776677E+04  0.30771907649E+04  0.27111614959E+04 0.  0.
        4    1    3    3  502    0  0.49288365002E+03  0.11854965980E+04  0.23401316779E+03  0.13050288319E+04  0.12699999809E+01 0. -1.
       -4    1    3    3    0  502 -0.49288365002E+03 -0.11854965980E+04  0.12215644999E+04  0.17721619330E+04  0.12699999809E+01 0.  1.
</event>
<event>
 5   0  0.3199840E-06  0.2706008E+04  0.7818609E-02  0.8333058E-01
        1   -1    0    0  501    0  0.00000000000E+00  0.00000000000E+00  0.19216680791E+04  0.19216680791E+04  0.50400001928E-02 0.  1.
       -1   -1    0    0    0  501  0.00000000000E+00  0.00000000000E+00 -0.95262039237E+03  0.95262039238E+03  0.50400001928E-02 0. -1.
    10030    2    1    2    0    0  0.00000000000E+00  0.00000000000E+00  0.96904768674E+03  0.28742884715E+04  0.27060082776E+04 0.  0.
        1    1    3    3  502    0 -0.93035221402E+03 -0.58133851076E+02 -0.55711639075E+03  0.10859619973E+04  0.50400001928E-02 0. -1.
       -1    1    3    3    0  502  0.93035221402E+03  0.58133851076E+02  0.15261640775E+04  0.17883264742E+04  0.50400001928E-02 0.  1.
</event>
<event>
 5   0  0.7838364E-06  0.2698026E+04  0.7818609E-02  0.8335646E-01
        2   -1    0    0  501    0  0.00000000000E+00  0.00000000000E+00  0.19998059254E+04  0.19998059254E+04  0.25500000920E-02 0.  1.
       -2   -1    0    0    0  501  0.00000000000E+00  0.00000000000E+00 -0.91000648508E+03  0.91000648508E+03  0.25500000920E-02 0. -1.
    10030    2    1    2    0    0  0.00000000000E+00  0.00000000000E+00  0.10897994403E+04  0.29098124105E+04  0.26980262126E+04 0.  0.
        2    1    3    3  502    0 -0.13079261882E+04 -0.17225800680E+03  0.84897579469E+03  0.15687905005E+04  0.25500000920E-02 0. -1.
       -2    1    3    3    0  502  0.13079261882E+04  0.17225800680E+03  0.24082364561E+03  0.13410219099E+04  0.25500000920E-02 0.  1.
</event>
<event>
 5   0  0.8213334E-06  0.2689566E+04  0.7818609E-02  0.8338398E-01
        2   -1    0    0  501    0  0.00000000000E+00  0.00000000000E+00  0.12334976978E+04  0.12334976978E+04  0.25500000920E-02 0.  1.
       -2   -1    0    0    0  501  0.00000000000E+00  0.00000000000E+00 -0.14661082390E+04  0.14661082390E+04  0.25500000920E-02 0. -1.
    10030    2    1    2    0    0  0.00000000000E+00  0.00000000000E+00 -0.23261054114E+03  0.26996059368E+04  0.26895658665E+04 0.  0.
        3    1    3    3  502    0 -0.80597087058E+02 -0.93686684412E+03 -0.10812606310E+04  0.14329479880E+04  0.10100000352E+00 0. -1.
       -3    1    3    3    0  502  0.80597087058E+02  0.93686684412E+03  0.84865008983E+03  0.12666579488E+04  0.10100000352E+00 0.  1.
</event>
<event>
 5   0  0.3013407E-06  0.2672392E+04  0.7818609E-02  0.8344019E-01
       -1   -1    0    0    0  501  0.00000000000E+00  0.00000000000E+00  0.11571230185E+04  0.11571230185E+04  0.50400001928E-02 0.  1.
        1   -1    0    0  501    0  0.00000000000E+00  0.00000000000E+00 -0.15429812814E+04  0.15429812814E+04  0.50400001928E-02 0. -1.
    10030    2    1    2    0    0  0.00000000000E+00  0.00000000000E+00 -0.38585826290E+03  0.27001043000E+04  0.26723915566E+04 0.  0.
        4    1    3    3  502    0 -0.87743332522E+03 -0.82616176246E+03 -0.77596169997E+03  0.14333703885E+04  0.12699999809E+01 0.  1.
       -4    1    3    3    0  502  0.87743332522E+03  0.82616176246E+03  0.39010343707E+03  0.12667339115E+04  0.12699999809E+01 0. -1.
</event>
<event>
 5   0  0.3046300E-06  0.2655827E+04  0.7818609E-02  0.8349481E-01
       -1   -1    0    0    0  501  0.00000000000E+00  0.00000000000E+00  0.12171689746E+04  0.12171689746E+04  0.50400001928E-02 0.  1.
        1   -1    0    0  501    0  0.00000000000E+00  0.00000000000E+00 -0.14487346513E+04  0.14487346513E+04  0.50400001928E-02 0. -1.
    10030    2    1    2    0    0  0.00000000000E+00  0.00000000000E+00 -0.23156567669E+03  0.26659036259E+04  0.26558274567E+04 0.  0.
        2    1    3    3  502    0  0.62597408912E+03 -0.74827173686E+03 -0.10200896456E+04  0.14115016959E+04  0.25500000920E-02 0. -1.
       -2    1    3    3    0  502 -0.62597408912E+03  0.74827173686E+03  0.78852396890E+03  0.12544019300E+04  0.25500000920E-02 0.  1.
</event>
<event>
 5   0  0.3199840E-06  0.2684135E+04  0.7818609E-02  0.8340171E-01
        1   -1    0    0  501    0  0.00000000000E+00  0.00000000000E+00  0.10424490672E+04  0.10424490672E+04  0.50400001928E-02 0.  1.
       -1   -1    0    0    0  501  0.00000000000E+00  0.00000000000E+00 -0.17278014531E+04  0.17278014531E+04  0.50400001928E-02 0. -1.
    10030    2    1    2    0    0  0.00000000000E+00  0.00000000000E+00 -0.68535238596E+03  0.27702505203E+04  0.26841348797E+04 0.  0.
        1    1    3    3  502    0 -0.87862383687E+03  0.81146849498E+03 -0.97104795160E+03  0.15405827110E+04  0.50400001928E-02 0. -1.
       -1    1    3    3    0  502  0.87862383687E+03 -0.81146849498E+03  0.28569556564E+03  0.12296678093E+04  0.50400001928E-02 0.  1.
</event>
<event>
 5   0  0.7838364E-06  0.2659193E+04  0.7818609E-02  0.8348368E-01
       -2   -1    0    0    0  501  0.00000000000E+00  0.00000000000E+00  0.16395958780E+04  0.16395958780E+04  0.25500000920E-02 0. -1.
        2   -1    0    0  501    0  0.00000000000E+00  0.00000000000E+00 -0.10782088176E+04  0.10782088176E+04  0.25500000920E-02 0.  1.
    10030    2    1    2    0    0  0.00000000000E+00  0.00000000000E+00  0.56138706036E+03  0.27178046956E+04  0.26591929099E+04 0.  0.
        2    1    3    3  502    0 -0.67305120266E+03 -0.29857868503E+03 -0.85081250816E+03  0.11251795753E+04  0.25500000920E-02 0.  1.
       -2    1    3    3    0  502  0.67305120266E+03  0.29857868503E+03  0.14121995685E+04  0.15926251203E+04  0.25500000920E-02 0. -1.
</event>
<event>
 5   0  0.3089218E-06  0.2699527E+04  0.7818609E-02  0.8335158E-01
        1   -1    0    0  501    0  0.00000000000E+00  0.00000000000E+00  0.97271367555E+03  0.97271367557E+03  0.50400001928E-02 0. -1.
       -1   -1    0    0    0  501  0.00000000000E+00  0.00000000000E+00 -0.18729683341E+04  0.18729683341E+04  0.50400001928E-02 0.  1.
    10030    2    1    2    0    0  0.00000000000E+00  0.00000000000E+00 -0.90025465858E+03  0.28456820097E+04  0.26995273012E+04 0.  0.
        5    1    3    3  502    0  0.11532585593E+04  0.65015572532E+03 -0.17296234396E+03  0.13351576065E+04  0.46999998093E+01 0. -1.
       -5    1    3    3    0  502 -0.11532585593E+04 -0.65015572532E+03 -0.72729231462E+03  0.15105244032E+04  0.46999998093E+01 0.  1.
</event>
<event>
 5   0  0.3028601E-06  0.2709768E+04  0.7818609E-02  0.8331843E-01
        1   -1    0    0  501    0  0.00000000000E+00  0.00000000000E+00  0.18436237018E+04  0.18436237018E+04  0.50400001928E-02 0.  1.
       -1   -1    0    0    0  501  0.00000000000E+00  0.00000000000E+00 -0.99570790064E+03  0.99570790065E+03  0.50400001928E-02 0. -1.
    10030    2    1    2    0    0  0.00000000000E+00  0.00000000000E+00  0.84791580113E+03  0.28393316024E+04  0.27097680238E+04 0.  0.
        3    1    3    3  502    0 -0.12153149665E+04  0.94265389479E+02  0.10437059407E+04  0.16047425128E+04  0.10100000352E+00 0.  1.
       -3    1    3    3    0  502  0.12153149665E+04 -0.94265389479E+02 -0.19579013960E+03  0.12345890897E+04  0.10100000352E+00 0. -1.
</event>
<event>
 5   0  0.8213334E-06  0.2688140E+04  0.7818609E-02  0.8338864E-01
        2   -1    0    0  501    0  0.00000000000E+00  0.00000000000E+00  0.18759069102E+04  0.18759069102E+04  0.25500000920E-02 0. -1.
       -2   -1    0    0    0  501  0.00000000000E+00  0.00000000000E+00 -0.96301346024E+03  0.96301346025E+03  0.25500000920E-02 0.  1.
    10030    2    1    2    0    0  0.00000000000E+00  0.00000000000E+00  0.91289344991E+03  0.28389203704E+04  0.26881395832E+04 0.  0.
        3    1    3    3  502    0 -0.50089832391E+03  0.12157836953E+04  0.16245388685E+03  0.13249227903E+04  0.10100000352E+00 0.  1.
       -3    1    3    3    0  502  0.50089832391E+03 -0.12157836953E+04  0.75043956306E+03  0.15139975801E+04  0.10100000352E+00 0. -1.
</event>
<event>
 5   0  0.8213334E-06  0.2581539E+04  0.7818609E-02  0.8374499E-01
        2   -1    0    0  501    0  0.00000000000E+00  0.00000000000E+00  0.15139737089E+04  0.15139737089E+04  0.25500000920E-02 0. -1.
       -2   -1    0    0    0  501  0.00000000000E+00  0.00000000000E+00 -0.11004721252E+04  0.11004721252E+04  0.25500000920E-02 0.  1.
    10030    2    1    2    0    0  0.00000000000E+00  0.00000000000E+00  0.41350158367E+03  0.26144458341E+04  0.25815389712E+04 0.  0.
        3    1    3    3  502    0  0.75264835383E+02  0.55734757854E+03 -0.96986106173E+03  0.11211296125E+04  0.10100000352E+00 0.  1.
       -3    1    3    3    0  502 -0.75264835383E+02 -0.55734757854E+03  0.13833626454E+04  0.14933162216E+04  0.10100000352E+00 0. -1.
</event>
<event>
 5   0  0.3199840E-06  0.2704409E+04  0.7818609E-02  0.8333576E-01
        1   -1    0    0  501    0  0.00000000000E+00  0.00000000000E+00  0.12644526109E+04  0.12644526109E+04  0.50400001928E-02 0. -1.
       -1   -1    0    0    0  501  0.00000000000E+00  0.00000000000E+00 -0.14460460940E+04  0.14460460940E+04  0.50400001928E-02 0.  1.
    10030    2    1    2    0    0  0.00000000000E+00  0.00000000000E+00 -0.18159348306E+03  0.27104987049E+04  0.27044088145E+04 0.  0.
        1    1    3    3  502    0 -0.17794592122E+03 -0.12729277238E+03 -0.14281885244E+04  0.14448497022E+04  0.50400001928E-02 0.  1.
       -1    1    3    3    0  502  0.17794592122E+03  0.12729277238E+03  0.12465950414E+04  0.12656490027E+04  0.50400001928E-02 0. -1.
</event>
<event>
 5   0  0.8407622E-06  0.2662485E+04  0.7818609E-02  0.8347281E-01
       -2   -1    0    0    0  501  0.00000000000E+00  0.00000000000E+00  0.10309682215E+04  0.10309682215E+04  0.25500000920E-02 0.  1.
        2   -1    0    0  501    0  0.00000000000E+00  0.00000000000E+00 -0.17189731703E+04  0.17189731703E+04  0.25500000920E-02 0. -1.
    10030    2    1    2    0    0  0.00000000000E+00  0.00000000000E+00 -0.68800494882E+03  0.27499413918E+04  0.26624850889E+04 0.  0.
        1    1    3    3  502    0 -0.14269376366E+03 -0.28492050191E+03  0.99099673097E+03  0.10409686467E+04  0.50400001928E-02 0.  1.
       -1    1    3    3    0  502  0.14269376366E+03  0.28492050191E+03 -0.16790016798E+04  0.17089727451E+04  0.50400001928E-02 0. -1.
</event>
<event>
 5   0  0.3046300E-06  0.2677532E+04  0.7818609E-02  0.8342332E-01
       -1   -1    0    0    0  501  0.00000000000E+00  0.00000000000E+00  0.13938626079E+04  0.13938626079E+04  0.50400001928E-02 0.  1.
        1   -1    0    0  501    0  0.00000000000E+00  0.00000000000E+00 -0.12858469079E+04  0.12858469080E+04  0.50400001928E-02 0. -1.
    10030    2    1    2    0    0  0.00000000000E+00  0.00000000000E+00  0.10801569995E+03  0.26797095159E+04  0.26775316427E+04 0.  0.
        2    1    3    3  502    0  0.12124386043E+04 -0.33679633260E+03 -0.40337020359E+03  0.13214184273E+04  0.25500000920E-02 0. -1.
       -2    1    3    3    0  502 -0.12124386043E+04  0.33679633260E+03  0.51138590354E+03  0.13582910885E+04  0.25500000920E-02 0.  1.
</event>
<event>
 5   0  0.3199840E-06  0.2648381E+04  0.7818609E-02  0.8351950E-01
        1   -1    0    0  501    0  0.00000000000E+00  0.00000000000E+00  0.16951896762E+04  0.16951896762E+04  0.50400001928E-02 0.  1.
       -1   -1    0    0    0  501  0.00000000000E+00  0.00000000000E+00 -0.10343862103E+04  0.10343862103E+04  0.50400001928E-02 0. -1.
    10030    2    1    2    0    0  0.00000000000E+00  0.00000000000E+00  0.66080346585E+03  0.27295758865E+04  0.26483812602E+04 0.  0.
        1    1    3    3  502    0  0.56049791355E+03  0.72797693846E+03 -0.65244448968E+03  0.11268505430E+04  0.50400001928E-02 0. -1.
       -1    1    3    3    0  502 -0.56049791355E+03 -0.72797693846E+03  0.13132479555E+04  0.16027253435E+04  0.50400001928E-02 0.  1.
</event>
<event>
 5   0  0.3046300E-06  0.2703441E+04  0.7818609E-02  0.8333889E-01
        1   -1    0    0  501    0  0.00000000000E+00  0.00000000000E+00  0.18731835326E+04  0.18731835326E+04  0.50400001928E-02 0. -1.
       -1   -1    0    0    0  501  0.00000000000E+00  0.00000000000E+00 -0.97542405451E+03  0.97542405452E+03  0.50400001928E-02 0.  1.
    10030    2    1    2    0    0  0.00000000000E+00  0.00000000000E+00  0.89775947806E+03  0.28486075871E+04  0.27034409749E+04 0.  0.
        2    1    3    3  502    0  0.96938570001E+03  0.37294789957E+03  0.13604034551E+04  0.17115771475E+04  0.25500000920E-02 0. -1.
       -2    1    3    3    0  502 -0.96938570001E+03 -0.37294789957E+03 -0.46264397700E+03  0.11370304396E+04  0.25500000920E-02 0.  1.
</event>
<event>
 5   0  0.8407622E-06  0.2750914E+04  0.7818609E-02  0.8318672E-01
       -2   -1    0    0    0  501  0.00000000000E+00  0.00000000000E+00  0.85002654706E+03  0.85002654707E+03  0.25500000920E-02 0.  1.
        2   -1    0    0  501    0  0.00000000000E+00  0.00000000000E+00 -0.22256739494E+04  0.22256739494E+04  0.25500000920E-02 0. -1.
    10030    2    1    2    0    0  0.00000000000E+00  0.00000000000E+00 -0.13756474023E+04  0.30757004964E+04  0.27509139878E+04 0.  0.
        1    1    3    3  502    0 -0.47194601254E+03  0.24184267764E+03 -0.21067802791E+04  0.21724971954E+04  0.50400001928E-02 0. -1.
       -1    1    3    3    0  502  0.47194601254E+03 -0.24184267764E+03  0.73113287680E+03  0.90320330106E+03  0.50400001928E-02 0.  1.
</event>
<event>
 5   0  0.3013407E-06  0.2696909E+04  0.7818609E-02  0.8336009E-01
        1   -1    0    0  501    0  0.00000000000E+00  0.00000000000E+00  0.11026909053E+04  0.11026909053E+04  0.50400001928E-02 0. -1.
       -1   -1    0    0    0  501  0.00000000000E+00  0.00000000000E+00 -0.16489925417E+04  0.16489925417E+04  0.50400001928E-02 0.  1.
    10030    2    1    2    0    0  0.00000000000E+00  0.00000000000E+00 -0.54630163647E+03  0.27516834470E+04  0.26969086589E+04 0.  0.
        4    1    3    3  502    0 -0.56061304088E+03  0.12176262907E+04 -0.42250241916E+03  0.14054930354E+04  0.12699999809E+01 0.  1.
       -4    1    3    3    0  502  0.56061304088E+03 -0.12176262907E+04 -0.12379921731E+03  0.13461904117E+04  0.12699999809E+01 0. -1.
</event>
<event>
 5   0  0.3046300E-06  0.2700879E+04  0.7818609E-02  0.8334720E-01
        1   -1    0    0  501    0  0.00000000000E+00  0.00000000000E+00  0.15106066434E+04  0.15106066434E+04  0.50400001928E-02 0.  1.
       -1   -1    0    0    0  501  0.00000000000E+00  0.00000000000E+00 -0.12072547652E+04  0.12072547653E+04  0.50400001928E-02 0. -1.
    10030    2    1    2    0    0  0.00000000000E+00  0.00000000000E+00  0.30335187815E+03  0.27178614086E+04  0.27008791670E+04 0.  0.
        2    1    3    3  502    0  0.56859866514E+03  0.77687899050E+03 -0.80129583869E+03  0.12525655388E+04  0.25500000920E-02 0. -1.
       -2    1    3    3    0  502 -0.56859866514E+03 -0.77687899050E+03  0.11046477168E+04  0.14652958699E+04  0.25500000920E-02 0.  1.
</event>
<event>
 5   0  0.7838364E-06  0.2700807E+04  0.7818609E-02  0.8334743E-01
        2   -1    0    0  501    0  0.00000000000E+00  0.00000000000E+00  0.17340069621E+04  0.17340069621E+04  0.25500000920E-02 0.  1.
       -2   -1    0    0    0  501  0.00000000000E+00  0.00000000000E+00 -0.10516621707E+04  0.10516621707E+04  0.25500000920E-02 0. -1.
    10030    2    1    2    0    0  0.00000000000E+00  0.00000000000E+00  0.68234479145E+03  0.27856691328E+04  0.27008069355E+04 0.  0.
        2    1    3    3  502    0 -0.41206430542E+03  0.44380392983E+03  0.15860897472E+04  0.16977748985E+04  0.25500000920E-02 0.  1.
       -2    1    3    3    0  502  0.41206430542E+03 -0.44380392983E+03 -0.90374495575E+03  0.10878942343E+04  0.25500000920E-02 0. -1.
</event>
<event>
 5   0  0.3028601E-06  0.2705645E+04  0.7818609E-02  0.8333176E-01
       -1   -1    0    0    0  501  0.00000000000E+00  0.00000000000E+00  0.69247772649E+03  0.69247772651E+03  0.50400001928E-02 0. -1.
        1   -1    0    0  501    0  0.00000000000E+00  0.00000000000E+00 -0.26428710145E+04  0.26428710145E+04  0.50400001928E-02 0.  1.
    10030    2    1    2    0    0  0.00000000000E+00  0.00000000000E+00 -0.19503932881E+04  0.33353487411E+04  0.27056454399E+04 0.  0.
        3    1    3    3  502    0  0.14282399648E+03 -0.53798886016E+02 -0.26322243425E+04  0.26366452195E+04  0.10100000352E+00 0.  1.
       -3    1    3    3    0  502 -0.14282399648E+03  0.53798886016E+02  0.68183105441E+03  0.69870352158E+03  0.10100000352E+00 0. -1.
</event>
<event>
 5   0  0.7812908E-06  0.2737000E+04  0.7818609E-02  0.8323099E-01
       -2   -1    0    0    0  501  0.00000000000E+00  0.00000000000E+00  0.12305774926E+04  0.12305774926E+04  0.25500000920E-02 0. -1.
        2   -1    0    0  501    0  0.00000000000E+00  0.00000000000E+00 -0.15218809278E+04  0.15218809278E+04  0.25500000920E-02 0.  1.
    10030    2    1    2    0    0  0.00000000000E+00  0.00000000000E+00 -0.29130343519E+03  0.27524584205E+04  0.27370001215E+04 0.  0.
        5    1    3    3  502    0  0.96879590352E+03 -0.35558144008E+02  0.82569194330E+03  0.12734281132E+04  0.46999998093E+01 0. -1.
       -5    1    3    3    0  502 -0.96879590352E+03  0.35558144008E+02 -0.11169953785E+04  0.14790303073E+04  0.46999998093E+01 0.  1.
</event>
<event>
 5   0  0.3028601E-06  0.2685464E+04  0.7818609E-02  0.8339737E-01
        1   -1    0    0  501    0  0.00000000000E+00  0.00000000000E+00  0.19481813437E+04  0.19481813437E+04  0.50400001928E-02 0.  1.
       -1   -1    0    0    0  501  0.00000000000E+00  0.00000000000E+00 -0.92544199766E+03  0.92544199767E+03  0.50400001928E-02 0. -1.
    10030    2    1    2    0    0  0.00000000000E+00  0.00000000000E+00  0.10227393460E+04  0.28736233414E+04  0.26854637101E+04 0.  0.
        3    1    3    3  502    0  0.72285749274E+03 -0.46383608918E+03  0.16158011161E+04  0.18298852776E+04  0.10100000352E+00 0.  1.
       -3    1    3    3    0  502 -0.72285749274E+03  0.46383608918E+03 -0.59306177003E+03  0.10437380637E+04  0.10100000352E+00 0. -1.
</event>
<event>
 5   0  0.7838364E-06  0.2688036E+04  0.7818609E-02  0.8338897E-01
        2   -1    0    0  501    0  0.00000000000E+00  0.00000000000E+00  0.24644797606E+04  0.24644797606E+04  0.25500000920E-02 0. -1.
       -2   -1    0    0    0  501  0.00000000000E+00  0.00000000000E+00 -0.73296780460E+03  0.73296780461E+03  0.25500000920E-02 0.  1.
    10030    2    1    2    0    0  0.00000000000E+00  0.00000000000E+00  0.17315119560E+04  0.31974475652E+04  0.26880359519E+04 0.  0.
        2    1    3    3  502    0  0.74695357359E+03  0.99454191946E+03  0.26000291813E+03  0.12706906737E+04  0.25500000920E-02 0.  1.
       -2    1    3    3    0  502 -0.74695357359E+03 -0.99454191946E+03  0.14715090379E+04  0.19267568916E+04  0.25500000920E-02 0. -1.
</event>
<event>
 5   0  0.7838364E-06  0.2708262E+04  0.7818609E-02  0.8332329E-01
       -2   -1    0    0    0  501  0.00000000000E+00  0.00000000000E+00  0.17426523169E+04  0.17426523169E+04  0.25500000920E-02 0. -1.
        2   -1    0    0  501    0  0.00000000000E+00  0.00000000000E+00 -0.10522297003E+04  0.10522297003E+04  0.25500000920E-02 0.  1.
    10030    2    1    2    0    0  0.00000000000E+00  0.00000000000E+00  0.69042261664E+03  0.27948820172E+04  0.27082618228E+04 0.  0.
        2    1    3    3  502    0  0.73852669059E+03  0.10859121109E+04  0.44320130466E+01  0.13132579442E+04  0.25500000920E-02 0.  1.
       -2    1    3    3    0  502 -0.73852669059E+03 -0.10859121109E+04  0.68599060359E+03  0.14816240730E+04  0.25500000920E-02 0. -1.
</event>
<event>
 5   0  0.3199840E-06  0.2706234E+04  0.7818609E-02  0.8332985E-01
       -1   -1    0    0    0  501  0.00000000000E+00  0.00000000000E+00  0.12334119314E+04  0.12334119314E+04  0.50400001928E-02 0. -1.
        1   -1    0    0  501    0  0.00000000000E+00  0.00000000000E+00 -0.14844391828E+04  0.14844391828E+04  0.50400001928E-02 0.  1.
    10030    2    1    2    0    0  0.00000000000E+00  0.00000000000E+00 -0.25102725142E+03  0.27178511143E+04  0.27062335447E+04 0.  0.
        1    1    3    3  502    0 -0.17825239927E+02 -0.11342606460E+04  0.61525709214E+03  0.12905061959E+04  0.50400001928E-02 0. -1.
       -1    1    3    3    0  502  0.17825239927E+02  0.11342606460E+04 -0.86628434356E+03  0.14273449184E+04  0.50400001928E-02 0.  1.
</event>
<event>
 5   0  0.8213334E-06  0.2713598E+04  0.7818609E-02  0.8330606E-01
        2   -1    0    0  501    0  0.00000000000E+00  0.00000000000E+00  0.17845116875E+04  0.17845116875E+04  0.25500000920E-02 0. -1.
       -2   -1    0    0    0  501  0.00000000000E+00  0.00000000000E+00 -0.10316008961E+04  0.10316008961E+04  0.25500000920E-02 0.  1.
    10030    2    1    2    0    0  0.00000000000E+00  0.00000000000E+00  0.75291079140E+03  0.28161125836E+04  0.27135982429E+04 0.  0.
        3    1    3    3  502    0  0.74662995170E+03  0.54201645413E+03  0.14088571374E+04  0.16840773632E+04  0.10100000352E+00 0. -1.
       -3    1    3    3    0  502 -0.74662995170E+03 -0.54201645413E+03 -0.65594634599E+03  0.11320352205E+04  0.10100000352E+00 0.  1.
</event>
<event>
 5   0  0.7838364E-06  0.2700104E+04  0.7818609E-02  0.8334971E-01
       -2   -1    0    0    0  501  0.00000000000E+00  0.00000000000E+00  0.84388014169E+03  0.84388014169E+03  0.25500000920E-02 0.  1.
        2   -1    0    0  501    0  0.00000000000E+00  0.00000000000E+00 -0.21598335528E+04  0.21598335528E+04  0.25500000920E-02 0. -1.
    10030    2    1    2    0    0  0.00000000000E+00  0.00000000000E+00 -0.13159534111E+04  0.30037136945E+04  0.27001041792E+04 0.  0.
        2    1    3    3  502    0  0.98433726369E+02 -0.78859756542E+03  0.55609909987E+03  0.96995954944E+03  0.25500000920E-02 0.  1.
       -2    1    3    3    0  502 -0.98433726369E+02  0.78859756542E+03 -0.18720525110E+04  0.20337541451E+04  0.25500000920E-02 0. -1.
</event>
<event>
 5   0  0.3028601E-06  0.2599175E+04  0.7818609E-02  0.8368482E-01
        1   -1    0    0  501    0  0.00000000000E+00  0.00000000000E+00  0.13739411419E+04  0.13739411419E+04  0.50400001928E-02 0. -1.
       -1   -1    0    0    0  501  0.00000000000E+00  0.00000000000E+00 -0.12292574874E+04  0.12292574874E+04  0.50400001928E-02 0.  1.
    10030    2    1    2    0    0  0.00000000000E+00  0.00000000000E+00  0.14468365452E+03  0.26031986293E+04  0.25991748198E+04 0.  0.
        3    1    3    3  502    0 -0.22918861705E+03  0.50801297259E+03 -0.11034956268E+04  0.12362472289E+04  0.10100000352E+00 0.  1.
       -3    1    3    3    0  502  0.22918861705E+03 -0.50801297259E+03  0.12481792813E+04  0.13669514004E+04  0.10100000352E+00 0. -1.
</event>
<event>
 5   0  0.3028601E-06  0.2742246E+04  0.7818609E-02  0.8321426E-01
       -1   -1    0    0    0  501  0.00000000000E+00  0.00000000000E+00  0.13534742453E+04  0.13534742453E+04  0.50400001928E-02 0. -1.
        1   -1    0    0  501    0  0.00000000000E+00  0.00000000000E+00 -0.13890014235E+04  0.13890014235E+04  0.50400001928E-02 0.  1.
    10030    2    1    2    0    0  0.00000000000E+00  0.00000000000E+00 -0.35527178189E+02  0.27424756688E+04  0.27422455421E+04 0.  0.
        3    1    3    3  502    0  0.73327252253E+03  0.23100848455E+03  0.11176396303E+04  0.13565293456E+04  0.10100000352E+00 0. -1.
       -3    1    3    3    0  502 -0.73327252253E+03 -0.23100848455E+03 -0.11531668085E+04  0.13859463231E+04  0.10100000352E+00 0.  1.
</event>
<event>
 5   0  0.3013407E-06  0.2691854E+04  0.7818609E-02  0.8337653E-01
        1   -1    0    0  501    0  0.00000000000E+00  0.00000000000E+00  0.19923353369E+04  0.19923353369E+04  0.50400001928E-02 0.  1.
       -1   -1    0    0    0  501  0.00000000000E+00  0.00000000000E+00 -0.90924434885E+03  0.90924434887E+03  0.50400001928E-02 0. -1.
    10030    2    1    2    0    0  0.00000000000E+00  0.00000000000E+00  0.10830909881E+04  0.29015796858E+04  0.26918541165E+04 0.  0.
        4    1    3    3  502    0  0.26644141657E+03  0.12518468657E+04  0.99041032601E+03  0.16183404557E+04  0.12699999809E+01 0.  1.
       -4    1    3    3    0  502 -0.26644141657E+03 -0.12518468657E+04  0.92680662056E+02  0.12832392301E+04  0.12699999809E+01 0. -1.
</event>
<event>
 5   0  0.8213334E-06  0.2656178E+04  0.7818609E-02  0.8349365E-01
       -2   -1    0    0    0  501  0.00000000000E+00  0.00000000000E+00  0.10008006353E+04  0.10008006353E+04  0.25500000920E-02 0.  1.
        2   -1    0    0  501    0  0.00000000000E+00  0.00000000000E+00 -0.17624096623E+04  0.17624096623E+04  0.25500000920E-02 0. -1.
    10030    2    1    2    0    0  0.00000000000E+00  0.00000000000E+00 -0.76160902698E+03  0.27632102977E+04  0.26561782393E+04 0.  0.
        3    1    3    3  502    0 -0.30516658154E+03  0.46781342397E+03  0.87267372805E+03  0.10361155766E+04  0.10100000352E+00 0.  1.
       -3    1    3    3    0  502  0.30516658154E+03 -0.46781342397E+03 -0.16342827550E+04  0.17270947211E+04  0.10100000352E+00 0. -1.
</event>
<event>
 5   0  0.7838364E-06  0.2698668E+04  0.7818609E-02  0.8335437E-01
        2   -1    0    0  501    0  0.00000000000E+00  0.00000000000E+00  0.13367322105E+04  0.13367322105E+04  0.25500000920E-02 0.  1.
       -2   -1    0    0    0  501  0.00000000000E+00  0.00000000000E+00 -0.13620546593E+04  0.13620546593E+04  0.25500000920E-02 0. -1.
    10030    2    1    2    0    0  0.00000000000E+00  0.00000000000E+00 -0.25322448814E+02  0.26987868698E+04  0.26986680681E+04 0.  0.
        2    1    3    3  502    0 -0.11480598879E+04  0.70763233239E+03 -0.56450267448E+02  0.13498043031E+04  0.25500000920E-02 0.  1.
       -2    1    3    3    0  502  0.11480598879E+04 -0.70763233239E+03  0.31127818634E+02  0.13489825666E+04  0.25500000920E-02 0. -1.
</event>
<event>
 5   0  0.7729970E-06  0.2705091E+04  0.7818609E-02  0.8333355E-01
        2   -1    0    0  501    0  0.00000000000E+00  0.00000000000E+00  0.17798690346E+04  0.17798690346E+04  0.25500000920E-02 0. -1.
       -2   -1    0    0    0  501  0.00000000000E+00  0.00000000000E+00 -0.10278169871E+04  0.10278169871E+04  0.25500000920E-02 0.  1.
    10030    2    1    2    0    0  0.00000000000E+00  0.00000000000E+00  0.75205204752E+03  0.28076860218E+04  0.27050912211E+04 0.  0.
        4    1    3    3  502    0  0.11810881850E+04 -0.64670896175E+03  0.24401647902E+03  0.13684836268E+04  0.12699999809E+01 0.  1.
       -4    1    3    3    0  502 -0.11810881850E+04  0.64670896175E+03  0.50803556851E+03  0.14392023950E+04  0.12699999809E+01 0. -1.
</event>
<event>
 5   0  0.3046300E-06  0.2683045E+04  0.7818609E-02  0.8340527E-01
        1   -1    0    0  501    0  0.00000000000E+00  0.00000000000E+00  0.72914699567E+03  0.72914699568E+03  0.50400001928E-02 0.  1.
       -1   -1    0    0    0  501  0.00000000000E+00  0.00000000000E+00 -0.24682022003E+04  0.24682022003E+04  0.50400001928E-02 0. -1.
    10030    2    1    2    0    0  0.00000000000E+00  0.00000000000E+00 -0.17390552047E+04  0.31973491960E+04  0.26830447026E+04 0.  0.
        2    1    3    3  502    0 -0.36506729926E+03 -0.11748125472E+04 -0.15070784900E+04  0.19454419110E+04  0.25500000920E-02 0. -1.
       -2    1    3    3    0  502  0.36506729926E+03  0.11748125472E+04 -0.23197671469E+03  0.12519072850E+04  0.25500000920E-02 0.  1.
</event>
<event>
 5   0  0.8213334E-06  0.2743390E+04  0.7818609E-02  0.8321062E-01
        2   -1    0    0  501    0  0.00000000000E+00  0.00000000000E+00  0.20653497078E+04  0.20653497078E+04  0.25500000920E-02 0. -1.
       -2   -1    0    0    0  501  0.00000000000E+00  0.00000000000E+00 -0.91100626049E+03  0.91100626049E+03  0.25500000920E-02 0.  1.
    10030    2    1    2    0    0  0.00000000000E+00  0.00000000000E+00  0.11543434473E+04  0.29763559683E+04  0.27433895195E+04 0.  0.
        3    1    3    3  502    0 -0.82279537807E+03 -0.67222536859E+03  0.15184085846E+04  0.18532252481E+04  0.10100000352E+00 0. -1.
       -3    1    3    3    0  502  0.82279537807E+03  0.67222536859E+03 -0.36406513722E+03  0.11231307202E+04  0.10100000352E+00 0.  1.
</event>
<event>
 5   0  0.7838364E-06  0.2684285E+04  0.7818609E-02  0.8340122E-01
       -2   -1    0    0    0  501  0.00000000000E+00  0.00000000000E+00  0.13273248871E+04  0.13273248871E+04  0.25500000920E-02 0. -1.
        2   -1    0    0  501    0  0.00000000000E+00  0.00000000000E+00 -0.13571255255E+04  0.13571255255E+04  0.25500000920E-02 0.  1.
    10030    2    1    2    0    0  0.00000000000E+00  0.00000000000E+00 -0.29800638443E+02  0.26844504126E+04  0.26842849960E+04 0.  0.
        2    1    3    3  502    0  0.81838294808E+03 -0.43832761178E+03  0.95441930343E+03  0.13314645890E+04  0.25500000920E-02 0. -1.
       -2    1    3    3    0  502 -0.81838294808E+03  0.43832761178E+03 -0.98421994188E+03  0.13529858236E+04  0.25500000920E-02 0.  1.
</event>
<event>
 5   0  0.3199840E-06  0.2704724E+04  0.7818609E-02  0.8333474E-01
       -1   -1    0    0    0  501  0.00000000000E+00  0.00000000000E+00  0.80636247741E+03  0.80636247742E+03  0.50400001928E-02 0.  1.
        1   -1    0    0  501    0  0.00000000000E+00  0.00000000000E+00 -0.22680655719E+04  0.22680655719E+04  0.50400001928E-02 0. -1.
    10030    2    1    2    0    0  0.00000000000E+00  0.00000000000E+00 -0.14617030945E+04  0.30744280493E+04  0.27047239959E+04 0.  0.
        1    1    3    3  502    0  0.10166145161E+04  0.44422401182E+03 -0.16098893631E+04  0.19551429126E+04  0.50400001928E-02 0. -1.
       -1    1    3    3    0  502 -0.10166145161E+04 -0.44422401182E+03  0.14818626862E+03  0.11192851367E+04  0.50400001928E-02 0.  1.
</event>
<event>
 5   0  0.3028601E-06  0.2436210E+04  0.7818609E-02  0.8426070E-01
        1   -1    0    0  501    0  0.00000000000E+00  0.00000000000E+00  0.14330133711E+04  0.14330133711E+04  0.50400001928E-02 0. -1.
       -1   -1    0    0    0  501  0.00000000000E+00  0.00000000000E+00 -0.10354263945E+04  0.10354263946E+04  0.50400001928E-02 0.  1.
    10030    2    1    2    0    0  0.00000000000E+00  0.00000000000E+00  0.39758697651E+03  0.24684397656E+04  0.24362100633E+04 0.  0.
        3    1    3    3  502    0 -0.14161354818E+03  0.90426328970E+03 -0.61560184240E+03  0.11030467500E+04  0.10100000352E+00 0.  1.
       -3    1    3    3    0  502  0.14161354818E+03 -0.90426328970E+03  0.10131888189E+04  0.13653930156E+04  0.10100000352E+00 0. -1.
</event>
<event>
 5   0  0.3013407E-06  0.2710772E+04  0.7818609E-02  0.8331518E-01
       -1   -1    0    0    0  501  0.00000000000E+00  0.00000000000E+00  0.11610734493E+04  0.11610734494E+04  0.50400001928E-02 0. -1.
        1   -1    0    0  501    0  0.00000000000E+00  0.00000000000E+00 -0.15822174313E+04  0.15822174313E+04  0.50400001928E-02 0.  1.
    10030    2    1    2    0    0  0.00000000000E+00  0.00000000000E+00 -0.42114398199E+03  0.27432908807E+04  0.27107715881E+04 0.  0.
        4    1    3    3  502    0 -0.45444908940E+03  0.11227586358E+04 -0.82611047415E+03  0.14661415544E+04  0.12699999809E+01 0.  1.
       -4    1    3    3    0  502  0.45444908940E+03 -0.11227586358E+04  0.40496649215E+03  0.12771493263E+04  0.12699999809E+01 0. -1.
</event>
<event>
 5   0  0.3028601E-06  0.2708823E+04  0.7818609E-02  0.8332148E-01
        1   -1    0    0  501    0  0.00000000000E+00  0.00000000000E+00  0.11563717697E+04  0.11563717697E+04  0.50400001928E-02 0.  1.
       -1   -1    0    0    0  501  0.00000000000E+00  0.00000000000E+00 -0.15863674142E+04  0.15863674142E+04  0.50400001928E-02 0. -1.
    10030    2    1    2    0    0  0.00000000000E+00  0.00000000000E+00 -0.42999564454E+03  0.27427391839E+04  0.27088229873E+04 0.  0.
        3    1    3    3  502    0  0.16083940914E+03 -0.48821951433E+03 -0.14837645140E+04  0.15702817432E+04  0.10100000352E+00 0. -1.
       -3    1    3    3    0  502 -0.16083940914E+03  0.48821951433E+03  0.10537688695E+04  0.11724574407E+04  0.10100000352E+00 0.  1.
</event>
<event>
 5   0  0.8213334E-06  0.2750594E+04  0.7818609E-02  0.8318773E-01
       -2   -1    0    0    0  501  0.00000000000E+00  0.00000000000E+00  0.57170752727E+03  0.57170752727E+03  0.25500000920E-02 0. -1.
        2   -1    0    0  501    0  0.00000000000E+00  0.00000000000E+00 -0.33084074580E+04  0.33084074580E+04  0.25500000920E-02 0.  1.
    10030    2    1    2    0    0  0.00000000000E+00  0.00000000000E+00 -0.27366999307E+04  0.38801149853E+04  0.27505937155E+04 0.  0.
        3    1    3    3  502    0  0.27142869883E+03  0.12925144586E+04 -0.82717948558E+03  0.15583623057E+04  0.10100000352E+00 0.  1.
       -3    1    3    3    0  502 -0.27142869883E+03 -0.12925144586E+04 -0.19095204451E+04  0.23217526795E+04  0.10100000352E+00 0. -1.
</event>
<event>
 5   0  0.3013407E-06  0.2685413E+04  0.7818609E-02  0.8339753E-01
       -1   -1    0    0    0  501  0.00000000000E+00  0.00000000000E+00  0.85895614423E+03  0.85895614425E+03  0.50400001928E-02 0. -1.
        1   -1    0    0  501    0  0.00000000000E+00  0.00000000000E+00 -0.20988976629E+04  0.20988976629E+04  0.50400001928E-02 0.  1.
    10030    2    1    2    0    0  0.00000000000E+00  0.00000000000E+00 -0.12399415187E+04  0.29578538072E+04  0.26854132224E+04 0.  0.
        4    1    3    3  502    0 -0.76936804524E+02  0.78583575033E+02 -0.20939278963E+04  0.20968143213E+04  0.12699999809E+01 0.  1.
       -4    1    3    3    0  502  0.76936804524E+02 -0.78583575033E+02  0.85398637763E+03  0.86103948587E+03  0.12699999809E+01 0. -1.
</event>
<event>
 5   0  0.8407622E-06  0.2698672E+04  0.7818609E-02  0.8335436E-01
        2   -1    0    0  501    0  0.00000000000E+00  0.00000000000E+00  0.75423620999E+03  0.75423621000E+03  0.25500000920E-02 0.  1.
       -2   -1    0    0    0  501  0.00000000000E+00  0.00000000000E+00 -0.24139756055E+04  0.24139756055E+04  0.25500000920E-02 0. -1.
    10030    2    1    2    0    0  0.00000000000E+00  0.00000000000E+00 -0.16597393955E+04  0.31682118155E+04  0.26986721266E+04 0.  0.
        1    1    3    3  502    0  0.47126644820E+03  0.10020501981E+04 -0.17350687422E+04  0.20583148945E+04  0.50400001928E-02 0. -1.
       -1    1    3    3    0  502 -0.47126644820E+03 -0.10020501981E+04  0.75329346674E+02  0.11098969210E+04  0.50400001928E-02 0.  1.
</event>
<event>
 5   0  0.3046300E-06  0.2685002E+04  0.7818609E-02  0.8339888E-01
       -1   -1    0    0    0  501  0.00000000000E+00  0.00000000000E+00  0.10838274817E+04  0.10838274817E+04  0.50400001928E-02 0.  1.
        1   -1    0    0  501    0  0.00000000000E+00  0.00000000000E+00 -0.16629109599E+04  0.16629109600E+04  0.50400001928E-02 0. -1.
    10030    2    1    2    0    0  0.00000000000E+00  0.00000000000E+00 -0.57908347823E+03  0.27467384417E+04  0.26850017490E+04 0.  0.
        2    1    3    3  502    0 -0.56806110463E+03 -0.81325304718E+03  0.63582027734E+03  0.11782789833E+04  0.25500000920E-02 0.  1.
       -2    1    3    3    0  502  0.56806110463E+03  0.81325304718E+03 -0.12149037556E+04  0.15684594584E+04  0.25500000920E-02 0. -1.
</event>
<event>
 5   0  0.3028601E-06  0.2703297E+04  0.7818609E-02  0.8333936E-01
       -1   -1    0    0    0  501  0.00000000000E+00  0.00000000000E+00  0.11172809009E+04  0.11172809009E+04  0.50400001928E-02 0.  1.
        1   -1    0    0  501    0  0.00000000000E+00  0.00000000000E+00 -0.16351788430E+04  0.16351788430E+04  0.50400001928E-02 0. -1.
    10030    2    1    2    0    0  0.00000000000E+00  0.00000000000E+00 -0.51789794204E+03  0.27524597439E+04  0.27032973132E+04 0.  0.
        3    1    3    3  502    0 -0.52740694138E+03 -0.70517714064E+03 -0.13030347477E+04  0.15726831993E+04  0.10100000352E+00 0. -1.
       -3    1    3    3    0  502  0.52740694138E+03  0.70517714064E+03  0.78513680561E+03  0.11797765446E+04  0.10100000352E+00 0.  1.
</event>
<event>
 5   0  0.7729970E-06  0.2679467E+04  0.7818609E-02  0.8341698E-01
        2   -1    0    0  501    0  0.00000000000E+00  0.00000000000E+00  0.10041044503E+04  0.10041044503E+04  0.25500000920E-02 0. -1.
       -2   -1    0    0    0  501  0.00000000000E+00  0.00000000000E+00 -0.17875489931E+04  0.17875489931E+04  0.25500000920E-02 0.  1.
    10030    2    1    2    0    0  0.00000000000E+00  0.00000000000E+00 -0.78344454275E+03  0.27916534434E+04  0.26794670359E+04 0.  0.
        4    1    3    3  502    0 -0.12584788645E+03  0.98331139862E+03  0.54720066887E+03  0.11323290962E+04  0.12699999809E+01 0. -1.
       -4    1    3    3    0  502  0.12584788645E+03 -0.98331139862E+03 -0.13306452116E+04  0.16593243472E+04  0.12699999809E+01 0.  1.
</event>
<event>
 5   0  0.3013407E-06  0.2716174E+04  0.7818609E-02  0.8329776E-01
        1   -1    0    0  501    0  0.00000000000E+00  0.00000000000E+00  0.13021926146E+04  0.13021926146E+04  0.50400001928E-02 0. -1.
       -1   -1    0    0    0  501  0.00000000000E+00  0.00000000000E+00 -0.14163806017E+04  0.14163806017E+04  0.50400001928E-02 0.  1.
    10030    2    1    2    0    0  0.00000000000E+00  0.00000000000E+00 -0.11418798712E+03  0.27185732162E+04  0.27161740437E+04 0.  0.
        4    1    3    3  502    0 -0.48615643980E+03  0.79242954741E+03  0.93378353531E+03  0.13176668681E+04  0.12699999809E+01 0. -1.
       -4    1    3    3    0  502  0.48615643980E+03 -0.79242954741E+03 -0.10479715224E+04  0.14009063481E+04  0.12699999809E+01 0.  1.
</event>
<event>
 5   0  0.7838364E-06  0.2705264E+04  0.7818609E-02  0.8333299E-01
        2   -1    0    0  501    0  0.00000000000E+00  0.00000000000E+00  0.13776329064E+04  0.13776329064E+04  0.25500000920E-02 0.  1.
       -2   -1    0    0    0  501  0.00000000000E+00  0.00000000000E+00 -0.13280844156E+04  0.13280844156E+04  0.25500000920E-02 0. -1.
    10030    2    1    2    0    0  0.00000000000E+00  0.00000000000E+00  0.49548490797E+02  0.27057173220E+04  0.27052636052E+04 0.  0.
        2    1    3    3  502    0 -0.31568868416E+03 -0.13100228478E+03 -0.12841819891E+04  0.13288883795E+04  0.25500000920E-02 0. -1.
       -2    1    3    3    0  502  0.31568868416E+03  0.13100228478E+03  0.13337304799E+04  0.13768289425E+04  0.25500000920E-02 0.  1.
</event>
<event>
 5   0  0.3089218E-06  0.2713887E+04  0.7818609E-02  0.8330513E-01
        1   -1    0    0  501    0  0.00000000000E+00  0.00000000000E+00  0.16914505215E+04  0.16914505215E+04  0.50400001928E-02 0. -1.
       -1   -1    0    0    0  501  0.00000000000E+00  0.00000000000E+00 -0.10885894652E+04  0.10885894652E+04  0.50400001928E-02 0.  1.
    10030    2    1    2    0    0  0.00000000000E+00  0.00000000000E+00  0.60286105629E+03  0.27800399867E+04  0.27138866731E+04 0.  0.
        5    1    3    3  502    0  0.93292951348E+03 -0.94905461366E+03  0.29998002303E+02  0.13311589338E+04  0.46999998093E+01 0. -1.
       -5    1    3    3    0  502 -0.93292951348E+03  0.94905461366E+03  0.57286305398E+03  0.14488810529E+04  0.46999998093E+01 0.  1.
</event>
<event>
 5   0  0.8213334E-06  0.2711216E+04  0.7818609E-02  0.8331375E-01
        2   -1    0    0  501    0  0.00000000000E+00  0.00000000000E+00  0.19094207466E+04  0.19094207466E+04  0.25500000920E-02 0. -1.
       -2   -1    0    0    0  501  0.00000000000E+00  0.00000000000E+00 -0.96242416045E+03  0.96242416046E+03  0.25500000920E-02 0.  1.
    10030    2    1    2    0    0  0.00000000000E+00  0.00000000000E+00  0.94699658618E+03  0.28718449071E+04  0.27112157118E+04 0.  0.
        3    1    3    3  502    0  0.31799172112E+03  0.83224193188E+02  0.18665691891E+04  0.18952903601E+04  0.10100000352E+00 0. -1.
       -3    1    3    3    0  502 -0.31799172112E+03 -0.83224193188E+02 -0.91957260293E+03  0.97655454702E+03  0.10100000352E+00 0.  1.
</event>
<event>
 5   0  0.3046300E-06  0.2725449E+04  0.7818609E-02  0.8326795E-01
        1   -1    0    0  501    0  0.00000000000E+00  0.00000000000E+00  0.12681268748E+04  0.12681268748E+04  0.50400001928E-02 0. -1.
       -1   -1    0    0    0  501  0.00000000000E+00  0.00000000000E+00 -0.14643784010E+04  0.14643784011E+04  0.50400001928E-02 0.  1.
    10030    2    1    2    0    0  0.00000000000E+00  0.00000000000E+00 -0.19625152623E+03  0.27325052759E+04  0.27254486642E+04 0.  0.
        2    1    3    3  502    0  0.42887663682E+03 -0.31296939887E+03  0.11601666028E+04  0.12758807000E+04  0.25500000920E-02 0. -1.
       -2    1    3    3    0  502 -0.42887663682E+03  0.31296939887E+03 -0.13564181291E+04  0.14566245759E+04  0.25500000920E-02 0.  1.
</event>
<event>
 5   0  0.7838364E-06  0.2714480E+04  0.7818609E-02  0.8330322E-01
        2   -1    0    0  501    0  0.00000000000E+00  0.00000000000E+00  0.17198054576E+04  0.17198054576E+04  0.25500000920E-02 0.  1.
       -2   -1    0    0    0  501  0.00000000000E+00  0.00000000000E+00 -0.10711093970E+04  0.10711093970E+04  0.25500000920E-02 0. -1.
    10030    2    1    2    0    0  0.00000000000E+00  0.00000000000E+00  0.64869606056E+03  0.27909148547E+04  0.27144795352E+04 0.  0.
        2    1    3    3  502    0 -0.66877582957E+03 -0.71860939441E+03  0.12879903690E+04  0.16194381008E+04  0.25500000920E-02 0.  1.
       -2    1    3    3    0  502  0.66877582957E+03  0.71860939441E+03 -0.63929430840E+03  0.11714767538E+04  0.25500000920E-02 0. -1.
</event>
<event>
 5   0  0.8407622E-06  0.2693573E+04  0.7818609E-02  0.8337093E-01
       -2   -1    0    0    0  501  0.00000000000E+00  0.00000000000E+00  0.14751147690E+04  0.14751147690E+04  0.25500000920E-02 0.  1.
        2   -1    0    0  501    0  0.00000000000E+00  0.00000000000E+00 -0.12296218307E+04  0.12296218307E+04  0.25500000920E-02 0. -1.
    10030    2    1    2    0    0  0.00000000000E+00  0.00000000000E+00  0.24549293823E+03  0.27047365997E+04  0.26935725888E+04 0.  0.
        1    1    3    3  502    0  0.71523904661E+03  0.11083565526E+04  0.39555648688E+03  0.13771296511E+04  0.50400001928E-02 0. -1.
       -1    1    3    3    0  502 -0.71523904661E+03 -0.11083565526E+04 -0.15006354866E+03  0.13276069487E+04  0.50400001928E-02 0.  1.
</event>
<event>
 5   0  0.3028601E-06  0.2702070E+04  0.7818609E-02  0.8334334E-01
        1   -1    0    0  501    0  0.00000000000E+00  0.00000000000E+00  0.14253032313E+04  0.14253032313E+04  0.50400001928E-02 0.  1.
       -1   -1    0    0    0  501  0.00000000000E+00  0.00000000000E+00 -0.12806362532E+04  0.12806362532E+04  0.50400001928E-02 0. -1.
    10030    2    1    2    0    0  0.00000000000E+00  0.00000000000E+00  0.14466697811E+03  0.27059394845E+04  0.27020695696E+04 0.  0.
        3    1    3    3  502    0 -0.48218734287E+03 -0.27246913790E+02  0.13359044179E+04  0.14205237245E+04  0.10100000352E+00 0.  1.
       -3    1    3    3    0  502  0.48218734287E+03  0.27246913790E+02 -0.11912374398E+04  0.12854157600E+04  0.10100000352E+00 0. -1.
</event>
<event>
 5   0  0.3013407E-06  0.2699710E+04  0.7818609E-02  0.8335099E-01
       -1   -1    0    0    0  501  0.00000000000E+00  0.00000000000E+00  0.14150610045E+04  0.14150610045E+04  0.50400001928E-02 0.  1.
        1   -1    0    0  501    0  0.00000000000E+00  0.00000000000E+00 -0.12876532727E+04  0.12876532727E+04  0.50400001928E-02 0. -1.
    10030    2    1    2    0    0  0.00000000000E+00  0.00000000000E+00  0.12740773182E+03  0.27027142771E+04  0.26997095647E+04 0.  0.
        4    1    3    3  502    0 -0.11543425892E+04 -0.69941851359E+03  0.84055045139E+02  0.13523165066E+04  0.12699999809E+01 0. -1.
       -4    1    3    3    0  502  0.11543425892E+04  0.69941851359E+03  0.43352686679E+02  0.13503977706E+04  0.12699999809E+01 0.  1.
</event>
<event>
 5   0  0.7838364E-06  0.2706275E+04  0.7818609E-02  0.8332972E-01
        2   -1    0    0  501    0  0.00000000000E+00  0.00000000000E+00  0.22742888116E+04  0.22742888116E+04  0.25500000920E-02 0.  1.
       -2   -1    0    0    0  501  0.00000000000E+00  0.00000000000E+00 -0.80507835929E+03  0.80507835929E+03  0.25500000920E-02 0. -1.
    10030    2    1    2    0    0  0.00000000000E+00  0.00000000000E+00  0.14692104524E+04  0.30793671709E+04  0.27062747126E+04 0.  0.
        2    1    3    3  502    0 -0.53592090119E+03  0.12397257040E+04  0.82877780597E+03  0.15846146804E+04  0.25500000920E-02 0. -1.
       -2    1    3    3    0  502  0.53592090119E+03 -0.12397257040E+04  0.64043264638E+03  0.14947524906E+04  0.25500000920E-02 0.  1.
</event>
<event>
 5   0  0.7729970E-06  0.2770086E+04  0.7818609E-02  0.8312616E-01
       -2   -1    0    0    0  501  0.00000000000E+00  0.00000000000E+00  0.10365535045E+04  0.10365535045E+04  0.25500000920E-02 0.  1.
        2   -1    0    0  501    0  0.00000000000E+00  0.00000000000E+00 -0.18506946161E+04  0.18506946161E+04  0.25500000920E-02 0. -1.
    10030    2    1    2    0    0  0.00000000000E+00  0.00000000000E+00 -0.81414111162E+03  0.28872481207E+04  0.27700859122E+04 0.  0.
        4    1    3    3  502    0 -0.30788089159E+02 -0.13846924882E+04 -0.41186784454E+03  0.14449767913E+04  0.12699999809E+01 0.  1.
       -4    1    3    3    0  502  0.30788089159E+02  0.13846924882E+04 -0.40227326708E+03  0.14422713294E+04  0.12699999809E+01 0. -1.
</event>
<event>
 5   0  0.8213334E-06  0.2672557E+04  0.7818609E-02  0.8343965E-01
        2   -1    0    0  501    0  0.00000000000E+00  0.00000000000E+00  0.13427699567E+04  0.13427699567E+04  0.25500000920E-02 0. -1.
       -2   -1    0    0    0  501  0.00000000000E+00  0.00000000000E+00 -0.13298180949E+04  0.13298180949E+04  0.25500000920E-02 0.  1.
    10030    2    1    2    0    0  0.00000000000E+00  0.00000000000E+00  0.12951861792E+02  0.26725880516E+04  0.26725566679E+04 0.  0.
        3    1    3    3  502    0  0.57595856056E+03 -0.11600325501E+04 -0.32252032559E+03  0.13346996484E+04  0.10100000352E+00 0.  1.
       -3    1    3    3    0  502 -0.57595856056E+03  0.11600325501E+04  0.33547218738E+03  0.13378884032E+04  0.10100000352E+00 0. -1.
</event>
<event>
 5   0  0.7812908E-06  0.2510288E+04  0.7818609E-02  0.8399330E-01
        2   -1    0    0  501    0  0.00000000000E+00  0.00000000000E+00  0.33663320857E+04  0.33663320857E+04  0.25500000920E-02 0.  1.
       -2   -1    0    0    0  501  0.00000000000E+00  0.00000000000E+00 -0.46798309087E+03  0.46798309088E+03  0.25500000920E-02 0. -1.
    10030    2    1    2    0    0  0.00000000000E+00  0.00000000000E+00  0.28983489948E+04  0.38343151766E+04  0.25102880268E+04 0.  0.
        5    1    3    3  502    0 -0.10915830892E+04  0.45268586808E+03  0.80314439263E+03  0.14288250912E+04  0.46999998093E+01 0. -1.
       -5    1    3    3    0  502  0.10915830892E+04 -0.45268586808E+03  0.20952046022E+04  0.24054900854E+04  0.46999998093E+01 0.  1.
</event>
<event>
 5   0  0.3013407E-06  0.2730641E+04  0.7818609E-02  0.8325131E-01
       -1   -1    0    0    0  501  0.00000000000E+00  0.00000000000E+00  0.85996441142E+03  0.85996441143E+03  0.50400001928E-02 0.  1.
        1   -1    0    0  501    0  0.00000000000E+00  0.00000000000E+00 -0.21676485220E+04  0.21676485220E+04  0.50400001928E-02 0. -1.
    10030    2    1    2    0    0  0.00000000000E+00  0.00000000000E+00 -0.13076841105E+04  0.30276129334E+04  0.27306413791E+04 0.  0.
        4    1    3    3  502    0 -0.87496544144E+03  0.66654335028E+03  0.24298564613E+03  0.11264493769E+04  0.12699999809E+01 0.  1.
       -4    1    3    3    0  502  0.87496544144E+03 -0.66654335028E+03 -0.15506697567E+04  0.19011635565E+04  0.12699999809E+01 0. -1.
</event>
<event>
 5   0  0.3089218E-06  0.2702756E+04  0.7818609E-02  0.8334111E-01
       -1   -1    0    0    0  501  0.00000000000E+00  0.00000000000E+00  0.11803866733E+04  0.11803866733E+04  0.50400001928E-02 0. -1.
        1   -1    0    0  501    0  0.00000000000E+00  0.00000000000E+00 -0.15471388507E+04  0.15471388507E+04  0.50400001928E-02 0.  1.
    10030    2    1    2    0    0  0.00000000000E+00  0.00000000000E+00 -0.36675217736E+03  0.27275255240E+04  0.27027556909E+04 0.  0.
        5    1    3    3  502    0  0.90345067181E+03 -0.79382256921E+03  0.43856956331E+03  0.12801338757E+04  0.46999998093E+01 0.  1.
       -5    1    3    3    0  502 -0.90345067181E+03  0.79382256921E+03 -0.80532174068E+03  0.14473916484E+04  0.46999998093E+01 0. -1.
</event>
<event>
 5   0  0.3199840E-06  0.2706709E+04  0.7818609E-02  0.8332831E-01
       -1   -1    0    0    0  501  0.00000000000E+00  0.00000000000E+00  0.11417284319E+04  0.11417284319E+04  0.50400001928E-02 0. -1.
        1   -1    0    0  501    0  0.00000000000E+00  0.00000000000E+00 -0.16042070786E+04  0.16042070786E+04  0.50400001928E-02 0.  1.
    10030    2    1    2    0    0  0.00000000000E+00  0.00000000000E+00 -0.46247864676E+03  0.27459355105E+04  0.27067093175E+04 0.  0.
        1    1    3    3  502    0  0.94777435581E+02  0.63683046597E+02  0.11368328672E+04  0.11425529575E+04  0.50400001928E-02 0. -1.
       -1    1    3    3    0  502 -0.94777435581E+02 -0.63683046597E+02 -0.15993115139E+04  0.16033825530E+04  0.50400001928E-02 0.  1.
</event>
<event>
 5   0  0.7729970E-06  0.2667022E+04  0.7818609E-02  0.8345785E-01
        2   -1    0    0  501    0  0.00000000000E+00  0.00000000000E+00  0.17393906181E+04  0.17393906181E+04  0.25500000920E-02 0.  1.
       -2   -1    0    0    0  501  0.00000000000E+00  0.00000000000E+00 -0.10223413958E+04  0.10223413958E+04  0.25500000920E-02 0. -1.
    10030    2    1    2    0    0  0.00000000000E+00  0.00000000000E+00  0.71704922225E+03  0.27617320139E+04  0.26670215839E+04 0.  0.
        4    1    3    3  502    0  0.71746624973E+03 -0.49163091735E+03 -0.68820850429E+03  0.11090948276E+04  0.12699999809E+01 0. -1.
       -4    1    3    3    0  502 -0.71746624973E+03  0.49163091735E+03  0.14052577265E+04  0.16526371862E+04  0.12699999809E+01 0.  1.
</event>
<event>
 5   0  0.7729970E-06  0.2442323E+04  0.7818609E-02  0.8423826E-01
       -2   -1    0    0    0  501  0.00000000000E+00  0.00000000000E+00  0.11759737824E+04  0.11759737824E+04  0.25500000920E-02 0.  1.
        2   -1    0    0  501    0  0.00000000000E+00  0.00000000000E+00 -0.12680860052E+04  0.12680860053E+04  0.25500000920E-02 0. -1.
    10030    2    1    2    0    0  0.00000000000E+00  0.00000000000E+00 -0.92112222825E+02  0.24440597877E+04  0.24423233988E+04 0.  0.
        4    1    3    3  502    0 -0.60949431732E+03  0.19263296600E+03 -0.10872974262E+04  0.12612724085E+04  0.12699999809E+01 0. -1.
       -4    1    3    3    0  502  0.60949431732E+03 -0.19263296600E+03  0.99518520339E+03  0.11827873792E+04  0.12699999809E+01 0.  1.
</event>
<event>
 5   0  0.2654625E-06  0.2720927E+04  0.7818609E-02  0.8328247E-01
        3   -1    0    0  501    0  0.00000000000E+00  0.00000000000E+00  0.14097315443E+04  0.14097315480E+04  0.10100000352E+00 0. -1.
       -3   -1    0    0    0  501  0.00000000000E+00  0.00000000000E+00 -0.13129175845E+04  0.13129175884E+04  0.10100000352E+00 0.  1.
    10030    2    1    2    0    0  0.00000000000E+00  0.00000000000E+00  0.96813959861E+02  0.27226491363E+04  0.27209273009E+04 0.  0.
        4    1    3    3  502    0 -0.96230860168E+03  0.30411231526E+03 -0.86449572346E+03  0.13288629026E+04  0.12699999809E+01 0.  1.
       -4    1    3    3    0  502  0.96230860168E+03 -0.30411231526E+03  0.96130968332E+03  0.13937862337E+04  0.12699999809E+01 0. -1.
</event>
<event>
 5   0  0.7838364E-06  0.2699579E+04  0.7818609E-02  0.8335142E-01
       -2   -1    0    0    0  501  0.00000000000E+00  0.00000000000E+00  0.10097807310E+04  0.10097807310E+04  0.25500000920E-02 0. -1.
        2   -1    0    0  501    0  0.00000000000E+00  0.00000000000E+00 -0.18042845613E+04  0.18042845613E+04  0.25500000920E-02 0.  1.
    10030    2    1    2    0    0  0.00000000000E+00  0.00000000000E+00 -0.79450383033E+03  0.28140652923E+04  0.26995790659E+04 0.  0.
        2    1    3    3  502    0  0.12203266764E+04  0.98833217228E+02 -0.98965445417E+03  0.15742875026E+04  0.25500000920E-02 0.  1.
       -2    1    3    3    0  502 -0.12203266764E+04 -0.98833217228E+02  0.19515062385E+03  0.12397777898E+04  0.25500000920E-02 0. -1.
</event>
<event>
 5   0  0.3046300E-06  0.2721143E+04  0.7818609E-02  0.8328177E-01
        1   -1    0    0  501    0  0.00000000000E+00  0.00000000000E+00  0.13996130272E+04  0.13996130272E+04  0.50400001928E-02 0.  1.
       -1   -1    0    0    0  501  0.00000000000E+00  0.00000000000E+00 -0.13226193275E+04  0.13226193275E+04  0.50400001928E-02 0. -1.
    10030    2    1    2    0    0  0.00000000000E+00  0.00000000000E+00  0.76993699707E+02  0.27222323547E+04  0.27211433191E+04 0.  0.
        2    1    3    3  502    0  0.11084321733E+04 -0.96063702286E+02  0.82194826889E+03  0.13832747646E+04  0.25500000920E-02 0.  1.
       -2    1    3    3    0  502 -0.11084321733E+04  0.96063702286E+02 -0.74495456918E+03  0.13389575900E+04  0.25500000920E-02 0. -1.
</event>
<event>
 5   0  0.3028601E-06  0.2690213E+04  0.7818609E-02  0.8338188E-01
       -1   -1    0    0    0  501  0.00000000000E+00  0.00000000000E+00  0.10147378693E+04  0.10147378693E+04  0.50400001928E-02 0. -1.
        1   -1    0    0  501    0  0.00000000000E+00  0.00000000000E+00 -0.17830328847E+04  0.17830328847E+04  0.50400001928E-02 0.  1.
    10030    2    1    2    0    0  0.00000000000E+00  0.00000000000E+00 -0.76829501547E+03  0.27977707540E+04  0.26902126238E+04 0.  0.
        3    1    3    3  502    0  0.12949814603E+04 -0.29355663848E+03 -0.60758258359E+03  0.14602428184E+04  0.10100000352E+00 0. -1.
       -3    1    3    3    0  502 -0.12949814603E+04  0.29355663848E+03 -0.16071243188E+03  0.13375279356E+04  0.10100000352E+00 0.  1.
</event>
<event>
 5   0  0.7812908E-06  0.2678923E+04  0.7818609E-02  0.8341876E-01
       -2   -1    0    0    0  501  0.00000000000E+00  0.00000000000E+00  0.19956035487E+04  0.19956035487E+04  0.25500000920E-02 0. -1.
        2   -1    0    0  501    0  0.00000000000E+00  0.00000000000E+00 -0.89905513309E+03  0.89905513310E+03  0.25500000920E-02 0.  1.
    10030    2    1    2    0    0  0.00000000000E+00  0.00000000000E+00  0.10965484156E+04  0.28946586818E+04  0.26789233764E+04 0.  0.
        5    1    3    3  502    0 -0.31602046604E+03  0.12031720395E+04  0.11647820674E+02  0.12440456798E+04  0.46999998093E+01 0. -1.
       -5    1    3    3    0  502  0.31602046604E+03 -0.12031720395E+04  0.10849005950E+04  0.16506130021E+04  0.46999998093E+01 0.  1.
</event>
<event>
 5   0  0.8407622E-06  0.2591629E+04  0.7818609E-02  0.8371050E-01
        2   -1    0    0  501    0  0.00000000000E+00  0.00000000000E+00  0.75020775726E+03  0.75020775726E+03  0.25500000920E-02 0.  1.
       -2   -1    0    0    0  501  0.00000000000E+00  0.00000000000E+00 -0.22382266975E+04  0.22382266975E+04  0.25500000920E-02 0. -1.
    10030    2    1    2    0    0  0.00000000000E+00  0.00000000000E+00 -0.14880189402E+04  0.29884344547E+04  0.25916288553E+04 0.  0.
        1    1    3    3  502    0  0.65734151086E+03 -0.90965441272E+02 -0.20274180716E+04  0.21332596209E+04  0.50400001928E-02 0. -1.
       -1    1    3    3    0  502 -0.65734151086E+03  0.90965441272E+02  0.53939913136E+03  0.85517483379E+03  0.50400001928E-02 0.  1.
</event>
<event>
 5   0  0.3013407E-06  0.2691409E+04  0.7818609E-02  0.8337798E-01
        1   -1    0    0  501    0  0.00000000000E+00  0.00000000000E+00  0.17083539996E+04  0.17083539996E+04  0.50400001928E-02 0. -1.
       -1   -1    0    0    0  501  0.00000000000E+00  0.00000000000E+00 -0.10600380663E+04  0.10600380663E+04  0.50400001928E-02 0.  1.
    10030    2    1    2    0    0  0.00000000000E+00  0.00000000000E+00  0.64831593330E+03  0.27683920660E+04  0.26914087541E+04 0.  0.
        4    1    3    3  502    0  0.12866888956E+04 -0.14350347567E+03  0.70175081207E+03  0.14726226186E+04  0.12699999809E+01 0. -1.
       -4    1    3    3    0  502 -0.12866888956E+04  0.14350347567E+03 -0.53434878773E+02  0.12957694474E+04  0.12699999809E+01 0.  1.
</event>
<event>
 5   0  0.3013407E-06  0.2711691E+04  0.7818609E-02  0.8331222E-01
       -1   -1    0    0    0  501  0.00000000000E+00  0.00000000000E+00  0.13871108826E+04  0.13871108826E+04  0.50400001928E-02 0. -1.
        1   -1    0    0  501    0  0.00000000000E+00  0.00000000000E+00 -0.13252851238E+04  0.13252851239E+04  0.50400001928E-02 0.  1.
    10030    2    1    2    0    0  0.00000000000E+00  0.00000000000E+00  0.61825758750E+02  0.27123960065E+04  0.27116912935E+04 0.  0.
        4    1    3    3  502    0 -0.60426672238E+03  0.10349902358E+04  0.66509085215E+03  0.13706533166E+04  0.12699999809E+01 0. -1.
       -4    1    3    3    0  502  0.60426672238E+03 -0.10349902358E+04 -0.60326509340E+03  0.13417426898E+04  0.12699999809E+01 0.  1.
</event>
<event>
 5   0  0.3089218E-06  0.2686140E+04  0.7818609E-02  0.8339516E-01
       -1   -1    0    0    0  501  0.00000000000E+00  0.00000000000E+00  0.17100987034E+04  0.17100987034E+04  0.50400001928E-02 0.  1.
        1   -1    0    0  501    0  0.00000000000E+00  0.00000000000E+00 -0.10548146987E+04  0.10548146987E+04  0.50400001928E-02 0. -1.
    10030    2    1    2    0    0  0.00000000000E+00  0.00000000000E+00  0.65528400470E+03  0.27649134020E+04  0.26861401665E+04 0.  0.
        5    1    3    3  502    0  0.65679337960E+03 -0.56495906848E+02 -0.87682130907E+03  0.10969991016E+04  0.46999998093E+01 0. -1.
       -5    1    3    3    0  502 -0.65679337960E+03  0.56495906848E+02  0.15321053138E+04  0.16679143004E+04  0.46999998093E+01 0.  1.
</event>
<event>
 5   0  0.7729970E-06  0.2670770E+04  0.7818609E-02  0.8344552E-01
        2   -1    0    0  501    0  0.00000000000E+00  0.00000000000E+00  0.15518849229E+04  0.15518849229E+04  0.25500000920E-02 0.  1.
       -2   -1    0    0    0  501  0.00000000000E+00  0.00000000000E+00 -0.11490887491E+04  0.11490887491E+04  0.25500000920E-02 0. -1.
    10030    2    1    2    0    0  0.00000000000E+00  0.00000000000E+00  0.40279617374E+03  0.27009736720E+04  0.26707703045E+04 0.  0.
        4    1    3    3  502    0  0.78528745621E+03 -0.31855566153E+03  0.12451049868E+04  0.15061348344E+04  0.12699999809E+01 0.  1.
       -4    1    3    3    0  502 -0.78528745621E+03  0.31855566153E+03 -0.84230881307E+03  0.11948388376E+04  0.12699999809E+01 0. -1.
</event>
<event>
 5   0  0.3089218E-06  0.2723130E+04  0.7818609E-02  0.8327539E-01
        1   -1    0    0  501    0  0.00000000000E+00  0.00000000000E+00  0.14716490917E+04  0.14716490917E+04  0.50400001928E-02 0.  1.
       -1   -1    0    0    0  501  0.00000000000E+00  0.00000000000E+00 -0.12597157875E+04  0.12597157875E+04  0.50400001928E-02 0. -1.
    10030    2    1    2    0    0  0.00000000000E+00  0.00000000000E+00  0.21193330421E+03  0.27313648791E+04  0.27231302535E+04 0.  0.
        5    1    3    3  502    0 -0.71665864896E+03 -0.64918034581E+03  0.10674072398E+04  0.14402829743E+04  0.46999998093E+01 0.  1.
       -5    1    3    3    0  502  0.71665864896E+03  0.64918034581E+03 -0.85547393559E+03  0.12910819048E+04  0.46999998093E+01 0. -1.
</event>
<event>
 5   0  0.8213334E-06  0.2691802E+04  0.7818609E-02  0.8337670E-01
       -2   -1    0    0    0  501  0.00000000000E+00  0.00000000000E+00  0.10661027856E+04  0.10661027856E+04  0.25500000920E-02 0. -1.
        2   -1    0    0  501    0  0.00000000000E+00  0.00000000000E+00 -0.16991318921E+04  0.16991318921E+04  0.25500000920E-02 0.  1.
    10030    2    1    2    0    0  0.00000000000E+00  0.00000000000E+00 -0.63302910648E+03  0.27652346777E+04  0.26918018080E+04 0.  0.
        3    1    3    3  502    0  0.73733437305E+03 -0.10040699130E+03  0.83555427823E+03  0.11188809158E+04  0.10100000352E+00 0. -1.
       -3    1    3    3    0  502 -0.73733437305E+03  0.10040699130E+03 -0.14685833847E+04  0.16463537620E+04  0.10100000352E+00 0.  1.
</event>
<event>
 5   0  0.8213334E-06  0.2642559E+04  0.7818609E-02  0.8353887E-01
        2   -1    0    0  501    0  0.00000000000E+00  0.00000000000E+00  0.19276060670E+04  0.19276060670E+04  0.25500000920E-02 0.  1.
       -2   -1    0    0    0  501  0.00000000000E+00  0.00000000000E+00 -0.90567217094E+03  0.90567217094E+03  0.25500000920E-02 0. -1.
    10030    2    1    2    0    0  0.00000000000E+00  0.00000000000E+00  0.10219338961E+04  0.28332782380E+04  0.26425587384E+04 0.  0.
        3    1    3    3  502    0 -0.10361549629E+04  0.21035540340E+03  0.13605663450E+04  0.17230807562E+04  0.10100000352E+00 0.  1.
       -3    1    3    3    0  502  0.10361549629E+04 -0.21035540340E+03 -0.33863244891E+03  0.11101974818E+04  0.10100000352E+00 0. -1.
</event>
<event>
 5   0  0.2654625E-06  0.2715002E+04  0.7818609E-02  0.8330154E-01
       -3   -1    0    0    0  501  0.00000000000E+00  0.00000000000E+00  0.12818954057E+04  0.12818954097E+04  0.10100000352E+00 0. -1.
        3   -1    0    0  501    0  0.00000000000E+00  0.00000000000E+00 -0.14375655402E+04  0.14375655438E+04  0.10100000352E+00 0.  1.
    10030    2    1    2    0    0  0.00000000000E+00  0.00000000000E+00 -0.15567013451E+03  0.27194609535E+04  0.27150017840E+04 0.  0.
        3    1    3    3  502    0 -0.64660287119E+03 -0.49475324666E+03  0.10101960366E+04  0.12974482998E+04  0.10100000352E+00 0. -1.
       -3    1    3    3    0  502  0.64660287119E+03  0.49475324666E+03 -0.11658661711E+04  0.14220126537E+04  0.10100000352E+00 0.  1.
</event>
<event>
 5   0  0.3089218E-06  0.2659529E+04  0.7818609E-02  0.8348257E-01
       -1   -1    0    0    0  501  0.00000000000E+00  0.00000000000E+00  0.10815100377E+04  0.10815100377E+04  0.50400001928E-02 0. -1.
        1   -1    0    0  501    0  0.00000000000E+00  0.00000000000E+00 -0.16350042747E+04  0.16350042747E+04  0.50400001928E-02 0.  1.
    10030    2    1    2    0    0  0.00000000000E+00  0.00000000000E+00 -0.55349423702E+03  0.27165143124E+04  0.26595289318E+04 0.  0.
        5    1    3    3  502    0 -0.94194418589E+03 -0.93553641473E+03 -0.19919792975E+03  0.13424563821E+04  0.46999998093E+01 0.  1.
       -5    1    3    3    0  502  0.94194418589E+03  0.93553641473E+03 -0.35429630727E+03  0.13740579303E+04  0.46999998093E+01 0. -1.
</event>
<event>
 5   0  0.8213334E-06  0.2701849E+04  0.7818609E-02  0.8334405E-01
       -2   -1    0    0    0  501  0.00000000000E+00  0.00000000000E+00  0.10057371118E+04  0.10057371118E+04  0.25500000920E-02 0. -1.
        2   -1    0    0  501    0  0.00000000000E+00  0.00000000000E+00 -0.18145867103E+04  0.18145867103E+04  0.25500000920E-02 0.  1.
    10030    2    1    2    0    0  0.00000000000E+00  0.00000000000E+00 -0.80884959845E+03  0.28203238221E+04  0.27018491424E+04 0.  0.
        3    1    3    3  502    0  0.54665943068E+03  0.29451531009E+03  0.84794289052E+03  0.10509914161E+04  0.10100000352E+00 0. -1.
       -3    1    3    3    0  502 -0.54665943068E+03 -0.29451531009E+03 -0.16567924890E+04  0.17693324059E+04  0.10100000352E+00 0.  1.
</event>
<event>
 5   0  0.7838364E-06  0.2696499E+04  0.7818609E-02  0.8336142E-01
        2   -1    0    0  501    0  0.00000000000E+00  0.00000000000E+00  0.17150762497E+04  0.17150762497E+04  0.25500000920E-02 0.  1.
       -2   -1    0    0    0  501  0.00000000000E+00  0.00000000000E+00 -0.10598813381E+04  0.10598813381E+04  0.25500000920E-02 0. -1.
    10030    2    1    2    0    0  0.00000000000E+00  0.00000000000E+00  0.65519491159E+03  0.27749575878E+04  0.26964994422E+04 0.  0.
        2    1    3    3  502    0 -0.61244839951E+02  0.13298151219E+04  0.10779896074E+03  0.13355821969E+04  0.25500000920E-02 0. -1.
       -2    1    3    3    0  502  0.61244839951E+02 -0.13298151219E+04  0.54739595085E+03  0.14393753908E+04  0.25500000920E-02 0.  1.
</event>
<event>
 5   0  0.8407622E-06  0.2701815E+04  0.7818609E-02  0.8334416E-01
        2   -1    0    0  501    0  0.00000000000E+00  0.00000000000E+00  0.19506900559E+04  0.19506900559E+04  0.25500000920E-02 0. -1.
       -2   -1    0    0    0  501  0.00000000000E+00  0.00000000000E+00 -0.93554156750E+03  0.93554156750E+03  0.25500000920E-02 0.  1.
    10030    2    1    2    0    0  0.00000000000E+00  0.00000000000E+00  0.10151484884E+04  0.28862316234E+04  0.27018154138E+04 0.  0.
        1    1    3    3  502    0  0.38800158853E+03 -0.11943897369E+04  0.10393895314E+04  0.16301664561E+04  0.50400001928E-02 0. -1.
       -1    1    3    3    0  502 -0.38800158853E+03  0.11943897369E+04 -0.24241043054E+02  0.12560651673E+04  0.50400001928E-02 0.  1.
</event>
<event>
 5   0  0.3199840E-06  0.2603947E+04  0.7818609E-02  0.8366862E-01
        1   -1    0    0  501    0  0.00000000000E+00  0.00000000000E+00  0.13352529243E+04  0.13352529243E+04  0.50400001928E-02 0.  1.
       -1   -1    0    0    0  501  0.00000000000E+00  0.00000000000E+00 -0.12695237883E+04  0.12695237883E+04  0.50400001928E-02 0. -1.
    10030    2    1    2    0    0  0.00000000000E+00  0.00000000000E+00  0.65729136002E+02  0.26047767126E+04  0.26039472735E+04 0.  0.
        1    1    3    3  502    0  0.27361771335E+02 -0.71941335334E+03 -0.10522994500E+04  0.12750052439E+04  0.50400001928E-02 0. -1.
       -1    1    3    3    0  502 -0.27361771335E+02  0.71941335334E+03  0.11180285861E+04  0.13297714686E+04  0.50400001928E-02 0.  1.
</event>
<event>
 5   0  0.7729970E-06  0.2628660E+04  0.7818609E-02  0.8358531E-01
       -2   -1    0    0    0  501  0.00000000000E+00  0.00000000000E+00  0.81570676468E+03  0.81570676469E+03  0.25500000920E-02 0. -1.
        2   -1    0    0  501    0  0.00000000000E+00  0.00000000000E+00 -0.21177499685E+04  0.21177499685E+04  0.25500000920E-02 0.  1.
    10030    2    1    2    0    0  0.00000000000E+00  0.00000000000E+00 -0.13020432038E+04  0.29334567332E+04  0.26286597157E+04 0.  0.
        4    1    3    3  502    0 -0.64999139213E+03  0.58511764618E+03  0.44386836894E+03  0.98075084072E+03  0.12699999809E+01 0. -1.
       -4    1    3    3    0  502  0.64999139213E+03 -0.58511764618E+03 -0.17459115727E+04  0.19527058925E+04  0.12699999809E+01 0.  1.
</event>
<event>
 5   0  0.7729970E-06  0.2701253E+04  0.7818609E-02  0.8334599E-01
       -2   -1    0    0    0  501  0.00000000000E+00  0.00000000000E+00  0.11571068856E+04  0.11571068856E+04  0.25500000920E-02 0.  1.
        2   -1    0    0  501    0  0.00000000000E+00  0.00000000000E+00 -0.15765110644E+04  0.15765110644E+04  0.25500000920E-02 0. -1.
    10030    2    1    2    0    0  0.00000000000E+00  0.00000000000E+00 -0.41940417877E+03  0.27336179500E+04  0.27012529003E+04 0.  0.
        4    1    3    3  502    0 -0.47400224894E+03 -0.12366085609E+04 -0.47804197339E+03  0.14079789083E+04  0.12699999809E+01 0. -1.
       -4    1    3    3    0  502  0.47400224894E+03  0.12366085609E+04  0.58637794625E+02  0.13256390417E+04  0.12699999809E+01 0.  1.
</event>
<event>
 5   0  0.7812908E-06  0.2701487E+04  0.7818609E-02  0.8334523E-01
        2   -1    0    0  501    0  0.00000000000E+00  0.00000000000E+00  0.15974924003E+04  0.15974924003E+04  0.25500000920E-02 0. -1.
       -2   -1    0    0    0  501  0.00000000000E+00  0.00000000000E+00 -0.11421077717E+04  0.11421077718E+04  0.25500000920E-02 0.  1.
    10030    2    1    2    0    0  0.00000000000E+00  0.00000000000E+00  0.45538462852E+03  0.27396001720E+04  0.27014873575E+04 0.  0.
        5    1    3    3  502    0 -0.59997350279E+03 -0.11327598814E+04  0.65958003273E+03  0.14415897691E+04  0.46999998093E+01 0.  1.
       -5    1    3    3    0  502  0.59997350279E+03  0.11327598814E+04 -0.20419540422E+03  0.12980104029E+04  0.46999998093E+01 0. -1.
</event>
<event>
 5   0  0.3013407E-06  0.2709661E+04  0.7818609E-02  0.8331877E-01
        1   -1    0    0  501    0  0.00000000000E+00  0.00000000000E+00  0.11803811748E+04  0.11803811748E+04  0.50400001928E-02 0. -1.
       -1   -1    0    0    0  501  0.00000000000E+00  0.00000000000E+00 -0.15550619564E+04  0.15550619564E+04  0.50400001928E-02 0.  1.
    10030    2    1    2    0    0  0.00000000000E+00  0.00000000000E+00 -0.37468078168E+03  0.27354431312E+04  0.27096611293E+04 0.  0.
        4    1    3    3  502    0 -0.20300839182E+03  0.12990916142E+04 -0.51711787558E+03  0.14128920480E+04  0.12699999809E+01 0.  1.
       -4    1    3    3    0  502  0.20300839182E+03 -0.12990916142E+04  0.14243709390E+03  0.13225510832E+04  0.12699999809E+01 0. -1.
</event>
<event>
 5   0  0.3046300E-06  0.2697608E+04  0.7818609E-02  0.8335782E-01
        1   -1    0    0  501    0  0.00000000000E+00  0.00000000000E+00  0.97672221588E+03  0.97672221589E+03  0.50400001928E-02 0. -1.
       -1   -1    0    0    0  501  0.00000000000E+00  0.00000000000E+00 -0.18626299962E+04  0.18626299962E+04  0.50400001928E-02 0.  1.
    10030    2    1    2    0    0  0.00000000000E+00  0.00000000000E+00 -0.88590778028E+03  0.28393522121E+04  0.26976079013E+04 0.  0.
        2    1    3    3  502    0 -0.19369439887E+03 -0.41705569766E+03  0.89167044197E+03  0.10032592647E+04  0.25500000920E-02 0. -1.
       -2    1    3    3    0  502  0.19369439887E+03  0.41705569766E+03 -0.17775782223E+04  0.18360929474E+04  0.25500000920E-02 0.  1.
</event>
<event>
 5   0  0.8213334E-06  0.2425751E+04  0.7818609E-02  0.8429925E-01
       -2   -1    0    0    0  501  0.00000000000E+00  0.00000000000E+00  0.16365054296E+04  0.16365054296E+04  0.25500000920E-02 0.  1.
        2   -1    0    0  501    0  0.00000000000E+00  0.00000000000E+00 -0.89890773813E+03  0.89890773813E+03  0.25500000920E-02 0. -1.
    10030    2    1    2    0    0  0.00000000000E+00  0.00000000000E+00  0.73759769149E+03  0.25354131677E+04  0.24257513427E+04 0.  0.
        3    1    3    3  502    0  0.37524914234E+03  0.97209834389E+03  0.10175689792E+04  0.14564455866E+04  0.10100000352E+00 0.  1.
       -3    1    3    3    0  502 -0.37524914234E+03 -0.97209834389E+03 -0.27997128773E+03  0.10789675812E+04  0.10100000352E+00 0. -1.
</event>
<event>
 5   0  0.7729970E-06  0.2713033E+04  0.7818609E-02  0.8330789E-01
       -2   -1    0    0    0  501  0.00000000000E+00  0.00000000000E+00  0.94255817534E+03  0.94255817534E+03  0.25500000920E-02 0.  1.
        2   -1    0    0  501    0  0.00000000000E+00  0.00000000000E+00 -0.19522791327E+04  0.19522791327E+04  0.25500000920E-02 0. -1.
    10030    2    1    2    0    0  0.00000000000E+00  0.00000000000E+00 -0.10097209573E+04  0.28948373080E+04  0.27130327363E+04 0.  0.
        4    1    3    3  502    0 -0.74285202370E+03  0.10469767001E+04 -0.97257889107E+03  0.16105591116E+04  0.12699999809E+01 0.  1.
       -4    1    3    3    0  502  0.74285202370E+03 -0.10469767001E+04 -0.37142066256E+02  0.12842781964E+04  0.12699999809E+01 0. -1.
</event>
<event>
 5   0  0.7729970E-06  0.2437168E+04  0.7818609E-02  0.8425718E-01
        2   -1    0    0  501    0  0.00000000000E+00  0.00000000000E+00  0.13046420003E+04  0.13046420003E+04  0.25500000920E-02 0.  1.
       -2   -1    0    0    0  501  0.00000000000E+00  0.00000000000E+00 -0.11382024420E+04  0.11382024420E+04  0.25500000920E-02 0. -1.
    10030    2    1    2    0    0  0.00000000000E+00  0.00000000000E+00  0.16643955834E+03  0.24428444424E+04  0.24371677913E+04 0.  0.
        4    1    3    3  502    0  0.51609839161E+03  0.11018390214E+04  0.15695820659E+02  0.12168215771E+04  0.12699999809E+01 0. -1.
       -4    1    3    3    0  502 -0.51609839161E+03 -0.11018390214E+04  0.15074373768E+03  0.12260228653E+04  0.12699999809E+01 0.  1.
</event>
<event>
 5   0  0.3028601E-06  0.2696987E+04  0.7818609E-02  0.8335983E-01
        1   -1    0    0  501    0  0.00000000000E+00  0.00000000000E+00  0.12225755441E+04  0.12225755441E+04  0.50400001928E-02 0.  1.
       -1   -1    0    0    0  501  0.00000000000E+00  0.00000000000E+00 -0.14873804524E+04  0.14873804524E+04  0.50400001928E-02 0. -1.
    10030    2    1    2    0    0  0.00000000000E+00  0.00000000000E+00 -0.26480490834E+03  0.27099559965E+04  0.26969871827E+04 0.  0.
        3    1    3    3  502    0  0.12274400151E+04  0.25631819682E+03 -0.63089990164E+03  0.14036889630E+04  0.10100000352E+00 0. -1.
       -3    1    3    3    0  502 -0.12274400151E+04 -0.25631819682E+03  0.36609499330E+03  0.13062670336E+04  0.10100000352E+00 0.  1.
</event>
<event>
 5   0  0.3199840E-06  0.2689718E+04  0.7818609E-02  0.8338349E-01
       -1   -1    0    0    0  501  0.00000000000E+00  0.00000000000E+00  0.11826363708E+04  0.11826363708E+04  0.50400001928E-02 0. -1.
        1   -1    0    0  501    0  0.00000000000E+00  0.00000000000E+00 -0.15293341916E+04  0.15293341916E+04  0.50400001928E-02 0.  1.
    10030    2    1    2    0    0  0.00000000000E+00  0.00000000000E+00 -0.34669782078E+03  0.27119705624E+04  0.26897183779E+04 0.  0.
        1    1    3    3  502    0  0.88243435880E+02  0.83005305905E+03  0.88982769516E+03  0.12200689783E+04  0.50400001928E-02 0. -1.
       -1    1    3    3    0  502 -0.88243435880E+02 -0.83005305905E+03 -0.12365255159E+04  0.14919015840E+04  0.50400001928E-02 0.  1.
</event>
<event>
 5   0  0.3013407E-06  0.2444538E+04  0.7818609E-02  0.8423015E-01
       -1   -1    0    0    0  501  0.00000000000E+00  0.00000000000E+00  0.18379201848E+04  0.18379201848E+04  0.50400001928E-02 0. -1.
        1   -1    0    0  501    0  0.00000000000E+00  0.00000000000E+00 -0.81284380570E+03  0.81284380572E+03  0.50400001928E-02 0.  1.
    10030    2    1    2    0    0  0.00000000000E+00  0.00000000000E+00  0.10250763791E+04  0.26507639905E+04  0.24445384330E+04 0.  0.
        4    1    3    3  502    0  0.40427970971E+02  0.59100867865E+03 -0.64677321766E+03  0.87706492750E+03  0.12699999809E+01 0.  1.
       -4    1    3    3    0  502 -0.40427970971E+02 -0.59100867865E+03  0.16718495967E+04  0.17736990630E+04  0.12699999809E+01 0. -1.
</event>
<event>
 5   0  0.8407622E-06  0.2678261E+04  0.7818609E-02  0.8342093E-01
        2   -1    0    0  501    0  0.00000000000E+00  0.00000000000E+00  0.95027803388E+03  0.95027803388E+03  0.25500000920E-02 0.  1.
       -2   -1    0    0    0  501  0.00000000000E+00  0.00000000000E+00 -0.18871007041E+04  0.18871007041E+04  0.25500000920E-02 0. -1.
    10030    2    1    2    0    0  0.00000000000E+00  0.00000000000E+00 -0.93682267022E+03  0.28373787380E+04  0.26782608886E+04 0.  0.
        1    1    3    3  502    0 -0.30567995435E+02  0.36754890303E+03 -0.18322331267E+04  0.18689849730E+04  0.50400001928E-02 0. -1.
       -1    1    3    3    0  502  0.30567995435E+02 -0.36754890303E+03  0.89541045651E+03  0.96839376501E+03  0.50400001928E-02 0.  1.
</event>
<event>
 5   0  0.7729970E-06  0.2696321E+04  0.7818609E-02  0.8336200E-01
       -2   -1    0    0    0  501  0.00000000000E+00  0.00000000000E+00  0.15070996361E+04  0.15070996361E+04  0.25500000920E-02 0. -1.
        2   -1    0    0  501    0  0.00000000000E+00  0.00000000000E+00 -0.12059832798E+04  0.12059832798E+04  0.25500000920E-02 0.  1.
    10030    2    1    2    0    0  0.00000000000E+00  0.00000000000E+00  0.30111635635E+03  0.27130829159E+04  0.26963211694E+04 0.  0.
        4    1    3    3  502    0 -0.20699403994E+03  0.10031267056E+04  0.10326064754E+04  0.14544371646E+04  0.12699999809E+01 0. -1.
       -4    1    3    3    0  502  0.20699403994E+03 -0.10031267056E+04 -0.73149011902E+03  0.12586457512E+04  0.12699999809E+01 0.  1.
</event>
<event>
 5   0  0.3089218E-06  0.2675931E+04  0.7818609E-02  0.8342857E-01
        1   -1    0    0  501    0  0.00000000000E+00  0.00000000000E+00  0.11897318300E+04  0.11897318300E+04  0.50400001928E-02 0. -1.
       -1   -1    0    0    0  501  0.00000000000E+00  0.00000000000E+00 -0.15046679307E+04  0.15046679307E+04  0.50400001928E-02 0.  1.
    10030    2    1    2    0    0  0.00000000000E+00  0.00000000000E+00 -0.31493610070E+03  0.26943997608E+04  0.26759307396E+04 0.  0.
        5    1    3    3  502    0 -0.42555426221E+03 -0.10857947533E+04 -0.81780117119E+03  0.14243832076E+04  0.46999998093E+01 0.  1.
       -5    1    3    3    0  502  0.42555426221E+03  0.10857947533E+04  0.50286507050E+03  0.12700165532E+04  0.46999998093E+01 0. -1.
</event>
<event>
 5   0  0.8407622E-06  0.2649608E+04  0.7818609E-02  0.8351543E-01
       -2   -1    0    0    0  501  0.00000000000E+00  0.00000000000E+00  0.12509333301E+04  0.12509333301E+04  0.25500000920E-02 0. -1.
        2   -1    0    0  501    0  0.00000000000E+00  0.00000000000E+00 -0.14030373811E+04  0.14030373811E+04  0.25500000920E-02 0.  1.
    10030    2    1    2    0    0  0.00000000000E+00  0.00000000000E+00 -0.15210405096E+03  0.26539707112E+04  0.26496084416E+04 0.  0.
        1    1    3    3  502    0  0.78826062041E+03  0.17918360282E+03 -0.11273726701E+04  0.13872385183E+04  0.50400001928E-02 0.  1.
       -1    1    3    3    0  502 -0.78826062041E+03 -0.17918360282E+03  0.97526861914E+03  0.12667321930E+04  0.50400001928E-02 0. -1.
</event>
<event>
 5   0  0.3028601E-06  0.2696289E+04  0.7818609E-02  0.8336210E-01
       -1   -1    0    0    0  501  0.00000000000E+00  0.00000000000E+00  0.94572602985E+03  0.94572602986E+03  0.50400001928E-02 0.  1.
        1   -1    0    0  501    0  0.00000000000E+00  0.00000000000E+00 -0.19217965069E+04  0.19217965069E+04  0.50400001928E-02 0. -1.
    10030    2    1    2    0    0  0.00000000000E+00  0.00000000000E+00 -0.97607047707E+03  0.28675225368E+04  0.26962885459E+04 0.  0.
        3    1    3    3  502    0  0.85665326495E+03  0.54693189050E+03 -0.14300071666E+04  0.17543972799E+04  0.10100000352E+00 0. -1.
       -3    1    3    3    0  502 -0.85665326495E+03 -0.54693189050E+03  0.45393668949E+03  0.11131252569E+04  0.10100000352E+00 0.  1.
</event>
<event>
 5   0  0.2654625E-06  0.2407465E+04  0.7818609E-02  0.8436714E-01
        3   -1    0    0  501    0  0.00000000000E+00  0.00000000000E+00  0.25966004528E+04  0.25966004548E+04  0.10100000352E+00 0.  1.
       -3   -1    0    0    0  501  0.00000000000E+00  0.00000000000E+00 -0.55802634242E+03  0.55802635156E+03  0.10100000352E+00 0. -1.
    10030    2    1    2    0    0  0.00000000000E+00  0.00000000000E+00  0.20385741104E+04  0.31546268063E+04  0.24074646173E+04 0.  0.
        2    1    3    3  502    0 -0.11774829977E+04  0.13126808308E+03  0.74047453221E+03  0.13971399545E+04  0.25500000920E-02 0. -1.
       -2    1    3    3    0  502  0.11774829977E+04 -0.13126808308E+03  0.12980995782E+04  0.17574868518E+04  0.25500000920E-02 0.  1.
</event>
<event>
 5   0  0.3089218E-06  0.2691618E+04  0.7818609E-02  0.8337730E-01
       -1   -1    0    0    0  501  0.00000000000E+00  0.00000000000E+00  0.10611701853E+04  0.10611701853E+04  0.50400001928E-02 0. -1.
        1   -1    0    0  501    0  0.00000000000E+00  0.00000000000E+00 -0.17067972771E+04  0.17067972771E+04  0.50400001928E-02 0.  1.
    10030    2    1    2    0    0  0.00000000000E+00  0.00000000000E+00 -0.64562709182E+03  0.27679674624E+04  0.26916183851E+04 0.  0.
        5    1    3    3  502    0  0.37068686917E+02  0.91228329373E+03  0.69394062386E+03  0.11468263055E+04  0.46999998093E+01 0. -1.
       -5    1    3    3    0  502 -0.37068686917E+02 -0.91228329373E+03 -0.13395677157E+04  0.16211411569E+04  0.46999998093E+01 0.  1.
</event>
<event>
 5   0  0.2654625E-06  0.2703514E+04  0.7818609E-02  0.8333866E-01
        4   -1    0    0  501    0  0.00000000000E+00  0.00000000000E+00  0.86953489088E+03  0.86953581833E+03  0.12699999809E+01 0.  1.
       -4   -1    0    0    0  501  0.00000000000E+00  0.00000000000E+00 -0.21014047075E+04  0.21014050912E+04  0.12699999809E+01 0. -1.
    10030    2    1    2    0    0  0.00000000000E+00  0.00000000000E+00 -0.12318698166E+04  0.29709409096E+04  0.27035137586E+04 0.  0.
        5    1    3    3  502    0 -0.12679880091E+04  0.21381639305E+02 -0.11301697663E+04  0.16986926021E+04  0.46999998093E+01 0. -1.
       -5    1    3    3    0  502  0.12679880091E+04 -0.21381639305E+02 -0.10170005029E+03  0.12722483075E+04  0.46999998093E+01 0.  1.
</event>
<event>
 5   0  0.7812908E-06  0.2710252E+04  0.7818609E-02  0.8331686E-01
       -2   -1    0    0    0  501  0.00000000000E+00  0.00000000000E+00  0.98087766048E+03  0.98087766048E+03  0.25500000920E-02 0.  1.
        2   -1    0    0  501    0  0.00000000000E+00  0.00000000000E+00 -0.18721669251E+04  0.18721669251E+04  0.25500000920E-02 0. -1.
    10030    2    1    2    0    0  0.00000000000E+00  0.00000000000E+00 -0.89128926462E+03  0.28530445856E+04  0.27102521754E+04 0.  0.
        5    1    3    3  502    0  0.10787044076E+04  0.34391752545E+03 -0.12294979724E+04  0.16713975641E+04  0.46999998093E+01 0. -1.
       -5    1    3    3    0  502 -0.10787044076E+04 -0.34391752545E+03  0.33820870776E+03  0.11816470214E+04  0.46999998093E+01 0.  1.
</event>
<event>
 5   0  0.7838364E-06  0.2701914E+04  0.7818609E-02  0.8334384E-01
       -2   -1    0    0    0  501  0.00000000000E+00  0.00000000000E+00  0.99311784774E+03  0.99311784774E+03  0.25500000920E-02 0. -1.
        2   -1    0    0  501    0  0.00000000000E+00  0.00000000000E+00 -0.18377326149E+04  0.18377326149E+04  0.25500000920E-02 0.  1.
    10030    2    1    2    0    0  0.00000000000E+00  0.00000000000E+00 -0.84461476714E+03  0.28308504626E+04  0.27019141801E+04 0.  0.
        2    1    3    3  502    0 -0.96332297253E+03 -0.70295994996E+03  0.24276088256E+03  0.12169949411E+04  0.25500000920E-02 0. -1.
       -2    1    3    3    0  502  0.96332297253E+03  0.70295994996E+03 -0.10873756497E+04  0.16138555215E+04  0.25500000920E-02 0.  1.
</event>
<event>
 5   0  0.3199840E-06  0.2686141E+04  0.7818609E-02  0.8339516E-01
        1   -1    0    0  501    0  0.00000000000E+00  0.00000000000E+00  0.10466296245E+04  0.10466296246E+04  0.50400001928E-02 0.  1.
       -1   -1    0    0    0  501  0.00000000000E+00  0.00000000000E+00 -0.17234739573E+04  0.17234739573E+04  0.50400001928E-02 0. -1.
    10030    2    1    2    0    0  0.00000000000E+00  0.00000000000E+00 -0.67684433272E+03  0.27701035818E+04  0.26861413967E+04 0.  0.
        1    1    3    3  502    0 -0.61419993869E+03  0.60247378711E+03 -0.14019795622E+04  0.16449203390E+04  0.50400001928E-02 0. -1.
       -1    1    3    3    0  502  0.61419993869E+03 -0.60247378711E+03  0.72513522948E+03  0.11251832428E+04  0.50400001928E-02 0.  1.
</event>
<event>
 5   0  0.7812908E-06  0.2710639E+04  0.7818609E-02  0.8331561E-01
        2   -1    0    0  501    0  0.00000000000E+00  0.00000000000E+00  0.23669221725E+04  0.23669221725E+04  0.25500000920E-02 0. -1.
       -2   -1    0    0    0  501  0.00000000000E+00  0.00000000000E+00 -0.77606711054E+03  0.77606711055E+03  0.25500000920E-02 0.  1.
    10030    2    1    2    0    0  0.00000000000E+00  0.00000000000E+00  0.15908550619E+04  0.31429892830E+04  0.27106386342E+04 0.  0.
        5    1    3    3  502    0  0.98063415708E+01 -0.37484723902E+03  0.23055692656E+04  0.23358677928E+04  0.46999998093E+01 0. -1.
       -5    1    3    3    0  502 -0.98063415708E+01  0.37484723902E+03 -0.71471420371E+03  0.80712149019E+03  0.46999998093E+01 0.  1.
</event>
<event>
 5   0  0.3089218E-06  0.2688133E+04  0.7818609E-02  0.8338866E-01
        1   -1    0    0  501    0  0.00000000000E+00  0.00000000000E+00  0.14189164464E+04  0.14189164464E+04  0.50400001928E-02 0. -1.
       -1   -1    0    0    0  501  0.00000000000E+00  0.00000000000E+00 -0.12731646434E+04  0.12731646434E+04  0.50400001928E-02 0.  1.
    10030    2    1    2    0    0  0.00000000000E+00  0.00000000000E+00  0.14575180300E+03  0.26920810898E+04  0.26881326244E+04 0.  0.
        5    1    3    3  502    0  0.25672778253E+03 -0.10687663505E+04 -0.70177271301E+03  0.13041003401E+04  0.46999998093E+01 0.  1.
       -5    1    3    3    0  502 -0.25672778253E+03  0.10687663505E+04  0.84752451601E+03  0.13879807497E+04  0.46999998093E+01 0. -1.
</event>
<event>
 5   0  0.8213334E-06  0.2703675E+04  0.7818609E-02  0.8333813E-01
       -2   -1    0    0    0  501  0.00000000000E+00  0.00000000000E+00  0.11330265208E+04  0.11330265208E+04  0.25500000920E-02 0. -1.
        2   -1    0    0  501    0  0.00000000000E+00  0.00000000000E+00 -0.16129060116E+04  0.16129060116E+04  0.25500000920E-02 0.  1.
    10030    2    1    2    0    0  0.00000000000E+00  0.00000000000E+00 -0.47987949076E+03  0.27459325324E+04  0.27036754884E+04 0.  0.
        3    1    3    3  502    0 -0.48449894092E+03 -0.78471276842E+03 -0.12437968452E+04  0.15484004504E+04  0.10100000352E+00 0.  1.
       -3    1    3    3    0  502  0.48449894092E+03  0.78471276842E+03  0.76391735441E+03  0.11975320819E+04  0.10100000352E+00 0. -1.
</event>
<event>
 5   0  0.7812908E-06  0.2697185E+04  0.7818609E-02  0.8335919E-01
        2   -1    0    0  501    0  0.00000000000E+00  0.00000000000E+00  0.19273951482E+04  0.19273951482E+04  0.25500000920E-02 0.  1.
       -2   -1    0    0    0  501  0.00000000000E+00  0.00000000000E+00 -0.94360586889E+03  0.94360586890E+03  0.25500000920E-02 0. -1.
    10030    2    1    2    0    0  0.00000000000E+00  0.00000000000E+00  0.98378927934E+03  0.28710010171E+04  0.26971847349E+04 0.  0.
        5    1    3    3  502    0 -0.52138954787E+03  0.90021382355E+03  0.14053629570E+04  0.17485134028E+04  0.46999998093E+01 0.  1.
       -5    1    3    3    0  502  0.52138954787E+03 -0.90021382355E+03 -0.42157367766E+03  0.11224876144E+04  0.46999998093E+01 0. -1.
</event>
<event>
 5   0  0.3013407E-06  0.2678577E+04  0.7818609E-02  0.8341990E-01
       -1   -1    0    0    0  501  0.00000000000E+00  0.00000000000E+00  0.84368077432E+03  0.84368077434E+03  0.50400001928E-02 0. -1.
        1   -1    0    0  501    0  0.00000000000E+00  0.00000000000E+00 -0.21260334745E+04  0.21260334745E+04  0.50400001928E-02 0.  1.
    10030    2    1    2    0    0  0.00000000000E+00  0.00000000000E+00 -0.12823527002E+04  0.29697142488E+04  0.26785769118E+04 0.  0.
        4    1    3    3  502    0  0.10128921517E+04  0.42653251500E+03 -0.14897498646E+04  0.18512797653E+04  0.12699999809E+01 0.  1.
       -4    1    3    3    0  502 -0.10128921517E+04 -0.42653251500E+03  0.20739716447E+03  0.11184344836E+04  0.12699999809E+01 0. -1.
</event>
<event>
 5   0  0.8213334E-06  0.2616636E+04  0.7818609E-02  0.8362572E-01
        2   -1    0    0  501    0  0.00000000000E+00  0.00000000000E+00  0.20283411728E+04  0.20283411728E+04  0.25500000920E-02 0. -1.
       -2   -1    0    0    0  501  0.00000000000E+00  0.00000000000E+00 -0.84388934327E+03  0.84388934327E+03  0.25500000920E-02 0.  1.
    10030    2    1    2    0    0  0.00000000000E+00  0.00000000000E+00  0.11844518295E+04  0.28722305160E+04  0.26166356263E+04 0.  0.
        3    1    3    3  502    0  0.66877746171E+03  0.77476283348E+03 -0.30235004268E+03  0.10672095858E+04  0.10100000352E+00 0.  1.
       -3    1    3    3    0  502 -0.66877746171E+03 -0.77476283348E+03  0.14868018722E+04  0.18050209303E+04  0.10100000352E+00 0. -1.
</event>
<event>
 5   0  0.7838364E-06  0.2698408E+04  0.7818609E-02  0.8335522E-01
       -2   -1    0    0    0  501  0.00000000000E+00  0.00000000000E+00  0.10803149971E+04  0.10803149971E+04  0.25500000920E-02 0. -1.
        2   -1    0    0  501    0  0.00000000000E+00  0.00000000000E+00 -0.16850185318E+04  0.16850185318E+04  0.25500000920E-02 0.  1.
    10030    2    1    2    0    0  0.00000000000E+00  0.00000000000E+00 -0.60470353464E+03  0.27653335289E+04  0.26984075232E+04 0.  0.
        2    1    3    3  502    0 -0.49101923356E+03  0.30064103182E+03 -0.15528059051E+04  0.16561072118E+04  0.25500000920E-02 0.  1.
       -2    1    3    3    0  502  0.49101923356E+03 -0.30064103182E+03  0.94810237051E+03  0.11092263172E+04  0.25500000920E-02 0. -1.
</event>
<event>
 5   0  0.7729970E-06  0.2710382E+04  0.7818609E-02  0.8331644E-01
       -2   -1    0    0    0  501  0.00000000000E+00  0.00000000000E+00  0.76378592693E+03  0.76378592693E+03  0.25500000920E-02 0.  1.
        2   -1    0    0  501    0  0.00000000000E+00  0.00000000000E+00 -0.24045261427E+04  0.24045261427E+04  0.25500000920E-02 0. -1.
    10030    2    1    2    0    0  0.00000000000E+00  0.00000000000E+00 -0.16407402158E+04  0.31683120697E+04  0.27103824297E+04 0.  0.
        4    1    3    3  502    0 -0.12574840081E+04 -0.50228222348E+03 -0.88426980554E+03  0.16172470945E+04  0.12699999809E+01 0. -1.
       -4    1    3    3    0  502  0.12574840081E+04  0.50228222348E+03 -0.75647041025E+03  0.15510649752E+04  0.12699999809E+01 0.  1.
</event>
<event>
 5   0  0.7812908E-06  0.2709769E+04  0.7818609E-02  0.8331842E-01
       -2   -1    0    0    0  501  0.00000000000E+00  0.00000000000E+00  0.64979347015E+03  0.64979347015E+03  0.25500000920E-02 0.  1.
        2   -1    0    0  501    0  0.00000000000E+00  0.00000000000E+00 -0.28250698681E+04  0.28250698681E+04  0.25500000920E-02 0. -1.
    10030    2    1    2    0    0  0.00000000000E+00  0.00000000000E+00 -0.21752763980E+04  0.34748633383E+04  0.27097689592E+04 0.  0.
        5    1    3    3  502    0 -0.26301821503E+03 -0.99034912620E+03  0.49044733484E+02  0.10258642450E+04  0.46999998093E+01 0. -1.
       -5    1    3    3    0  502  0.26301821503E+03  0.99034912620E+03 -0.22243211315E+04  0.24489990933E+04  0.46999998093E+01 0.  1.
</event>
<event>
 5   0  0.8407622E-06  0.2700993E+04  0.7818609E-02  0.8334683E-01
        2   -1    0    0  501    0  0.00000000000E+00  0.00000000000E+00  0.17614107024E+04  0.17614107024E+04  0.25500000920E-02 0. -1.
       -2   -1    0    0    0  501  0.00000000000E+00  0.00000000000E+00 -0.10354430529E+04  0.10354430530E+04  0.25500000920E-02 0.  1.
    10030    2    1    2    0    0  0.00000000000E+00  0.00000000000E+00  0.72596764943E+03  0.27968537553E+04  0.27009927621E+04 0.  0.
        1    1    3    3  502    0  0.58143745754E+02 -0.13301431420E+04  0.59724064476E+03  0.14592319422E+04  0.50400001928E-02 0. -1.
       -1    1    3    3    0  502 -0.58143745754E+02  0.13301431420E+04  0.12872700467E+03  0.13376218132E+04  0.50400001928E-02 0.  1.
</event>
<event>
 5   0  0.8407622E-06  0.2704018E+04  0.7818609E-02  0.8333702E-01
        2   -1    0    0  501    0  0.00000000000E+00  0.00000000000E+00  0.10876928617E+04  0.10876928617E+04  0.25500000920E-02 0.  1.
       -2   -1    0    0    0  501  0.00000000000E+00  0.00000000000E+00 -0.16805557801E+04  0.16805557802E+04  0.25500000920E-02 0. -1.
    10030    2    1    2    0    0  0.00000000000E+00  0.00000000000E+00 -0.59286291843E+03  0.27682486419E+04  0.27040181403E+04 0.  0.
        1    1    3    3  502    0  0.66652868523E+03  0.94402922000E+03  0.42200508204E+03  0.12302601130E+04  0.50400001928E-02 0.  1.
       -1    1    3    3    0  502 -0.66652868523E+03 -0.94402922000E+03 -0.10148680005E+04  0.15379885288E+04  0.50400001928E-02 0. -1.
</event>
<event>
 5   0  0.3199840E-06  0.2706998E+04  0.7818609E-02  0.8332738E-01
        1   -1    0    0  501    0  0.00000000000E+00  0.00000000000E+00  0.16455985723E+04  0.16455985723E+04  0.50400001928E-02 0.  1.
       -1   -1    0    0    0  501  0.00000000000E+00  0.00000000000E+00 -0.11132479891E+04  0.11132479891E+04  0.50400001928E-02 0. -1.
    10030    2    1    2    0    0  0.00000000000E+00  0.00000000000E+00  0.53235058316E+03  0.27588465614E+04  0.27069978215E+04 0.  0.
        1    1    3    3  502    0 -0.37117739158E+03 -0.81445745072E+02  0.15901155298E+04  0.16348924930E+04  0.50400001928E-02 0.  1.
       -1    1    3    3    0  502  0.37117739158E+03  0.81445745072E+02 -0.10577649467E+04  0.11239540684E+04  0.50400001928E-02 0. -1.
</event>
<event>
 5   0  0.3046300E-06  0.2706721E+04  0.7818609E-02  0.8332827E-01
        1   -1    0    0  501    0  0.00000000000E+00  0.00000000000E+00  0.21516447579E+04  0.21516447579E+04  0.50400001928E-02 0.  1.
       -1   -1    0    0    0  501  0.00000000000E+00  0.00000000000E+00 -0.85124873392E+03  0.85124873393E+03  0.50400001928E-02 0. -1.
    10030    2    1    2    0    0  0.00000000000E+00  0.00000000000E+00  0.13003960240E+04  0.30028934919E+04  0.27067211722E+04 0.  0.
        2    1    3    3  502    0 -0.16840261261E+03  0.57378155801E+03  0.19971284708E+04  0.20847318401E+04  0.25500000920E-02 0.  1.
       -2    1    3    3    0  502  0.16840261261E+03 -0.57378155801E+03 -0.69673244683E+03  0.91816165173E+03  0.25500000920E-02 0. -1.
</event>
<event>
 5   0  0.8407622E-06  0.2663068E+04  0.7818609E-02  0.8347089E-01
        2   -1    0    0  501    0  0.00000000000E+00  0.00000000000E+00  0.12677292347E+04  0.12677292347E+04  0.25500000920E-02 0. -1.
       -2   -1    0    0    0  501  0.00000000000E+00  0.00000000000E+00 -0.13985499704E+04  0.13985499704E+04  0.25500000920E-02 0.  1.
    10030    2    1    2    0    0  0.00000000000E+00  0.00000000000E+00 -0.13082073570E+03  0.26662792051E+04  0.26630679177E+04 0.  0.
        1    1    3    3  502    0  0.12491740827E+04  0.45793263090E+03 -0.11880853789E+03  0.13357595787E+04  0.50400001928E-02 0.  1.
       -1    1    3    3    0  502 -0.12491740827E+04 -0.45793263090E+03 -0.12012197815E+02  0.13305196264E+04  0.50400001928E-02 0. -1.
</event>
<event>
 5   0  0.3089218E-06  0.2785284E+04  0.7818609E-02  0.8307852E-01
        1   -1    0    0  501    0  0.00000000000E+00  0.00000000000E+00  0.24412987807E+04  0.24412987807E+04  0.50400001928E-02 0. -1.
       -1   -1    0    0    0  501  0.00000000000E+00  0.00000000000E+00 -0.79443417654E+03  0.79443417656E+03  0.50400001928E-02 0.  1.
    10030    2    1    2    0    0  0.00000000000E+00  0.00000000000E+00  0.16468646042E+04  0.32357329573E+04  0.27852836025E+04 0.  0.
        5    1    3    3  502    0 -0.13299881560E+03  0.37146357280E+03 -0.72813593097E+03  0.82817745371E+03  0.46999998093E+01 0.  1.
       -5    1    3    3    0  502  0.13299881560E+03 -0.37146357280E+03  0.23750005352E+04  0.24075555036E+04  0.46999998093E+01 0. -1.
</event>
<event>
 5   0  0.7812908E-06  0.2684985E+04  0.7818609E-02  0.8339893E-01
       -2   -1    0    0    0  501  0.00000000000E+00  0.00000000000E+00  0.11097104089E+04  0.11097104089E+04  0.25500000920E-02 0. -1.
        2   -1    0    0  501    0  0.00000000000E+00  0.00000000000E+00 -0.16241048957E+04  0.16241048957E+04  0.25500000920E-02 0.  1.
    10030    2    1    2    0    0  0.00000000000E+00  0.00000000000E+00 -0.51439448680E+03  0.27338153046E+04  0.26849849966E+04 0.  0.
        5    1    3    3  502    0 -0.44929884964E+02 -0.10769906147E+04 -0.10719605264E+04  0.15202134518E+04  0.46999998093E+01 0.  1.
       -5    1    3    3    0  502  0.44929884964E+02  0.10769906147E+04  0.55756603965E+03  0.12136018529E+04  0.46999998093E+01 0. -1.
</event>
<event>
 5   0  0.3028601E-06  0.2697219E+04  0.7818609E-02  0.8335908E-01
        1   -1    0    0  501    0  0.00000000000E+00  0.00000000000E+00  0.97779408783E+03  0.97779408784E+03  0.50400001928E-02 0.  1.
       -1   -1    0    0    0  501  0.00000000000E+00  0.00000000000E+00 -0.18600519557E+04  0.18600519557E+04  0.50400001928E-02 0. -1.
    10030    2    1    2    0    0  0.00000000000E+00  0.00000000000E+00 -0.88225786791E+03  0.28378460436E+04  0.26972191645E+04 0.  0.
        3    1    3    3  502    0  0.71249997558E+02  0.13034761336E+04 -0.79733808608E+03  0.15296648740E+04  0.10100000352E+00 0. -1.
       -3    1    3    3    0  502 -0.71249997558E+02 -0.13034761336E+04 -0.84919781834E+02  0.13081811696E+04  0.10100000352E+00 0.  1.
</event>
<event>
 5   0  0.7838364E-06  0.2715126E+04  0.7818609E-02  0.8330114E-01
        2   -1    0    0  501    0  0.00000000000E+00  0.00000000000E+00  0.10530272692E+04  0.10530272692E+04  0.25500000920E-02 0. -1.
       -2   -1    0    0    0  501  0.00000000000E+00  0.00000000000E+00 -0.17501708355E+04  0.17501708355E+04  0.25500000920E-02 0.  1.
    10030    2    1    2    0    0  0.00000000000E+00  0.00000000000E+00 -0.69714356629E+03  0.28031981047E+04  0.27151262332E+04 0.  0.
        2    1    3    3  502    0  0.45614122645E+03  0.34840867576E+02  0.97105090818E+03  0.10734144450E+04  0.25500000920E-02 0. -1.
       -2    1    3    3    0  502 -0.45614122645E+03 -0.34840867576E+02 -0.16681944745E+04  0.17297836597E+04  0.25500000920E-02 0.  1.
</event>
<event>
 5   0  0.3013407E-06  0.2683170E+04  0.7818609E-02  0.8340487E-01
       -1   -1    0    0    0  501  0.00000000000E+00  0.00000000000E+00  0.10470282124E+04  0.10470282124E+04  0.50400001928E-02 0.  1.
        1   -1    0    0  501    0  0.00000000000E+00  0.00000000000E+00 -0.17190079617E+04  0.17190079617E+04  0.50400001928E-02 0. -1.
    10030    2    1    2    0    0  0.00000000000E+00  0.00000000000E+00 -0.67197974923E+03  0.27660361741E+04  0.26831696430E+04 0.  0.
        4    1    3    3  502    0  0.53622854255E+03 -0.12067019488E+04 -0.91651755325E+02  0.13236586797E+04  0.12699999809E+01 0.  1.
       -4    1    3    3    0  502 -0.53622854255E+03  0.12067019488E+04 -0.58032799391E+03  0.14423774945E+04  0.12699999809E+01 0. -1.
</event>
<event>
 5   0  0.3089218E-06  0.2703948E+04  0.7818609E-02  0.8333725E-01
       -1   -1    0    0    0  501  0.00000000000E+00  0.00000000000E+00  0.96048044761E+03  0.96048044762E+03  0.50400001928E-02 0. -1.
        1   -1    0    0  501    0  0.00000000000E+00  0.00000000000E+00 -0.19030412712E+04  0.19030412712E+04  0.50400001928E-02 0.  1.
    10030    2    1    2    0    0  0.00000000000E+00  0.00000000000E+00 -0.94256082363E+03  0.28635217189E+04  0.27039481741E+04 0.  0.
        5    1    3    3  502    0 -0.12700804377E+04  0.41240970180E+02 -0.96004390092E+03  0.15926429348E+04  0.46999998093E+01 0.  1.
       -5    1    3    3    0  502  0.12700804377E+04 -0.41240970180E+02  0.17483077290E+02  0.12708787841E+04  0.46999998093E+01 0. -1.
</event>
<event>
 5   0  0.3199840E-06  0.2599917E+04  0.7818609E-02  0.8368230E-01
        1   -1    0    0  501    0  0.00000000000E+00  0.00000000000E+00  0.12319507666E+04  0.12319507666E+04  0.50400001928E-02 0. -1.
       -1   -1    0    0    0  501  0.00000000000E+00  0.00000000000E+00 -0.13717199565E+04  0.13717199565E+04  0.50400001928E-02 0.  1.
    10030    2    1    2    0    0  0.00000000000E+00  0.00000000000E+00 -0.13976918998E+03  0.26036707231E+04  0.25999165002E+04 0.  0.
        1    1    3    3  502    0  0.81731919910E+03 -0.30616451898E+03 -0.10346780656E+04  0.13536270112E+04  0.50400001928E-02 0.  1.
       -1    1    3    3    0  502 -0.81731919910E+03  0.30616451898E+03  0.89490887567E+03  0.12500437119E+04  0.50400001928E-02 0. -1.
</event>
<event>
 5   0  0.3046300E-06  0.2694757E+04  0.7818609E-02  0.8336708E-01
        1   -1    0    0  501    0  0.00000000000E+00  0.00000000000E+00  0.17199564823E+04  0.17199564823E+04  0.50400001928E-02 0. -1.
       -1   -1    0    0    0  501  0.00000000000E+00  0.00000000000E+00 -0.10555087432E+04  0.10555087432E+04  0.50400001928E-02 0.  1.
    10030    2    1    2    0    0  0.00000000000E+00  0.00000000000E+00  0.66444773911E+03  0.27754652255E+04  0.26947572098E+04 0.  0.
        2    1    3    3  502    0 -0.33687142240E+03 -0.10633323174E+04  0.11106856356E+04  0.15740967422E+04  0.25500000920E-02 0. -1.
       -2    1    3    3    0  502  0.33687142240E+03  0.10633323174E+04 -0.44623789653E+03  0.12013684833E+04  0.25500000920E-02 0.  1.
</event>
<event>
 5   0  0.8213334E-06  0.2693649E+04  0.7818609E-02  0.8337069E-01
        2   -1    0    0  501    0  0.00000000000E+00  0.00000000000E+00  0.21681955998E+04  0.21681955998E+04  0.25500000920E-02 0. -1.
       -2   -1    0    0    0  501  0.00000000000E+00  0.00000000000E+00 -0.83661108039E+03  0.83661108039E+03  0.25500000920E-02 0.  1.
    10030    2    1    2    0    0  0.00000000000E+00  0.00000000000E+00  0.13315845194E+04  0.30048066802E+04  0.26936491704E+04 0.  0.
        3    1    3    3  502    0 -0.10860632516E+04  0.23170050497E+03 -0.18428446908E+03  0.11256905819E+04  0.10100000352E+00 0.  1.
       -3    1    3    3    0  502  0.10860632516E+04 -0.23170050497E+03  0.15158689885E+04  0.18791160983E+04  0.10100000352E+00 0. -1.
</event>
<event>
 5   0  0.8407622E-06  0.2714621E+04  0.7818609E-02  0.8330276E-01
       -2   -1    0    0    0  501  0.00000000000E+00  0.00000000000E+00  0.75751285603E+03  0.75751285603E+03  0.25500000920E-02 0. -1.
        2   -1    0    0  501    0  0.00000000000E+00  0.00000000000E+00 -0.24320277739E+04  0.24320277739E+04  0.25500000920E-02 0.  1.
    10030    2    1    2    0    0  0.00000000000E+00  0.00000000000E+00 -0.16745149179E+04  0.31895406300E+04  0.27146213769E+04 0.  0.
        1    1    3    3  502    0 -0.64103021062E+03  0.16560404484E+01  0.56844952915E+03  0.85677146346E+03  0.50400001928E-02 0. -1.
       -1    1    3    3    0  502  0.64103021062E+03 -0.16560404484E+01 -0.22429644470E+04  0.23327691665E+04  0.50400001928E-02 0.  1.
</event>
<event>
 5   0  0.3046300E-06  0.2706321E+04  0.7818609E-02  0.8332957E-01
       -1   -1    0    0    0  501  0.00000000000E+00  0.00000000000E+00  0.11538402560E+04  0.11538402560E+04  0.50400001928E-02 0.  1.
        1   -1    0    0  501    0  0.00000000000E+00  0.00000000000E+00 -0.15869118450E+04  0.15869118450E+04  0.50400001928E-02 0. -1.
    10030    2    1    2    0    0  0.00000000000E+00  0.00000000000E+00 -0.43307158907E+03  0.27407521010E+04  0.27063205793E+04 0.  0.
        2    1    3    3  502    0  0.89395777112E+03  0.95237622598E+03  0.14131773613E+03  0.13138309156E+04  0.25500000920E-02 0.  1.
       -2    1    3    3    0  502 -0.89395777112E+03 -0.95237622598E+03 -0.57438932519E+03  0.14269211854E+04  0.25500000920E-02 0. -1.
</event>
<event>
 5   0  0.3013407E-06  0.2706587E+04  0.7818609E-02  0.8332871E-01
        1   -1    0    0  501    0  0.00000000000E+00  0.00000000000E+00  0.11528933985E+04  0.11528933985E+04  0.50400001928E-02 0.  1.
       -1   -1    0    0    0  501  0.00000000000E+00  0.00000000000E+00 -0.15885275972E+04  0.15885275972E+04  0.50400001928E-02 0. -1.
    10030    2    1    2    0    0  0.00000000000E+00  0.00000000000E+00 -0.43563419869E+03  0.27414209958E+04  0.27065867658E+04 0.  0.
        4    1    3    3  502    0  0.11012404579E+04 -0.36141396998E+03 -0.92541458145E+03  0.14831535202E+04  0.12699999809E+01 0. -1.
       -4    1    3    3    0  502 -0.11012404579E+04  0.36141396998E+03  0.48978038277E+03  0.12582674756E+04  0.12699999809E+01 0.  1.
</event>
<event>
 5   0  0.3028601E-06  0.2684461E+04  0.7818609E-02  0.8340064E-01
        1   -1    0    0  501    0  0.00000000000E+00  0.00000000000E+00  0.10239285731E+04  0.10239285731E+04  0.50400001928E-02 0.  1.
       -1   -1    0    0    0  501  0.00000000000E+00  0.00000000000E+00 -0.17594811224E+04  0.17594811224E+04  0.50400001928E-02 0. -1.
    10030    2    1    2    0    0  0.00000000000E+00  0.00000000000E+00 -0.73555254930E+03  0.27834096955E+04  0.26844612085E+04 0.  0.
        3    1    3    3  502    0 -0.51702022250E+03 -0.64441687711E+03  0.72904291240E+03  0.11018559798E+04  0.10100000352E+00 0.  1.
       -3    1    3    3    0  502  0.51702022250E+03  0.64441687711E+03 -0.14645954617E+04  0.16815537157E+04  0.10100000352E+00 0. -1.
</event>
<event>
 5   0  0.3013407E-06  0.2635965E+04  0.7818609E-02  0.8356086E-01
       -1   -1    0    0    0  501  0.00000000000E+00  0.00000000000E+00  0.78372937617E+03  0.78372937619E+03  0.50400001928E-02 0.  1.
        1   -1    0    0  501    0  0.00000000000E+00  0.00000000000E+00 -0.22164253738E+04  0.22164253738E+04  0.50400001928E-02 0. -1.
    10030    2    1    2    0    0  0.00000000000E+00  0.00000000000E+00 -0.14326959976E+04  0.30001547500E+04  0.26359648523E+04 0.  0.
        4    1    3    3  502    0 -0.93988402343E+03 -0.76597078307E+03 -0.12825539239E+03  0.12192392204E+04  0.12699999809E+01 0.  1.
       -4    1    3    3    0  502  0.93988402343E+03  0.76597078307E+03 -0.13044406052E+04  0.17809155296E+04  0.12699999809E+01 0. -1.
</event>
<event>
 5   0  0.7838364E-06  0.2729950E+04  0.7818609E-02  0.8325352E-01
       -2   -1    0    0    0  501  0.00000000000E+00  0.00000000000E+00  0.10014381665E+04  0.10014381665E+04  0.25500000920E-02 0.  1.
        2   -1    0    0  501    0  0.00000000000E+00  0.00000000000E+00 -0.18604811181E+04  0.18604811181E+04  0.25500000920E-02 0. -1.
    10030    2    1    2    0    0  0.00000000000E+00  0.00000000000E+00 -0.85904295159E+03  0.28619192847E+04  0.27299500360E+04 0.  0.
        2    1    3    3  502    0 -0.13173962754E+03 -0.13571050833E+03 -0.18466773026E+04  0.18563377202E+04  0.25500000920E-02 0. -1.
       -2    1    3    3    0  502  0.13173962754E+03  0.13571050833E+03  0.98763435100E+03  0.10055815645E+04  0.25500000920E-02 0.  1.
</event>
<event>
 5   0  0.8407622E-06  0.2697662E+04  0.7818609E-02  0.8335764E-01
       -2   -1    0    0    0  501  0.00000000000E+00  0.00000000000E+00  0.91456869442E+03  0.91456869443E+03  0.25500000920E-02 0.  1.
        2   -1    0    0  501    0  0.00000000000E+00  0.00000000000E+00 -0.19892933730E+04  0.19892933730E+04  0.25500000920E-02 0. -1.
    10030    2    1    2    0    0  0.00000000000E+00  0.00000000000E+00 -0.10747246786E+04  0.29038620674E+04  0.26976622791E+04 0.  0.
        1    1    3    3  502    0  0.51950344237E+03  0.40481914555E+03 -0.18044442457E+04  0.19208803718E+04  0.50400001928E-02 0. -1.
       -1    1    3    3    0  502 -0.51950344237E+03 -0.40481914555E+03  0.72971956708E+03  0.98298169558E+03  0.50400001928E-02 0.  1.
</event>
<event>
 5   0  0.3199840E-06  0.2732903E+04  0.7818609E-02  0.8324407E-01
        1   -1    0    0  501    0  0.00000000000E+00  0.00000000000E+00  0.21822015166E+04  0.21822015166E+04  0.50400001928E-02 0. -1.
       -1   -1    0    0    0  501  0.00000000000E+00  0.00000000000E+00 -0.85564500002E+03  0.85564500004E+03  0.50400001928E-02 0.  1.
    10030    2    1    2    0    0  0.00000000000E+00  0.00000000000E+00  0.13265565166E+04  0.30378465167E+04  0.27329030841E+04 0.  0.
        1    1    3    3  502    0 -0.71908798352E+03  0.88395728802E+03 -0.17500643397E+03  0.11528639413E+04  0.50400001928E-02 0. -1.
       -1    1    3    3    0  502  0.71908798352E+03 -0.88395728802E+03  0.15015629506E+04  0.18849825754E+04  0.50400001928E-02 0.  1.
</event>
<event>
 5   0  0.7838364E-06  0.2702177E+04  0.7818609E-02  0.8334299E-01
       -2   -1    0    0    0  501  0.00000000000E+00  0.00000000000E+00  0.10999459823E+04  0.10999459823E+04  0.25500000920E-02 0.  1.
        2   -1    0    0  501    0  0.00000000000E+00  0.00000000000E+00 -0.16595726123E+04  0.16595726123E+04  0.25500000920E-02 0. -1.
    10030    2    1    2    0    0  0.00000000000E+00  0.00000000000E+00 -0.55962662993E+03  0.27595185946E+04  0.27021770684E+04 0.  0.
        2    1    3    3  502    0  0.73764068484E+03  0.11692253485E+03  0.86998099458E+03  0.11465825701E+04  0.25500000920E-02 0.  1.
       -2    1    3    3    0  502 -0.73764068484E+03 -0.11692253485E+03 -0.14296076245E+04  0.16129360245E+04  0.25500000920E-02 0. -1.
</event>
<event>
 5   0  0.3028601E-06  0.2804156E+04  0.7818609E-02  0.8301979E-01
        1   -1    0    0  501    0  0.00000000000E+00  0.00000000000E+00  0.16256792078E+04  0.16256792078E+04  0.50400001928E-02 0.  1.
       -1   -1    0    0    0  501  0.00000000000E+00  0.00000000000E+00 -0.12092316386E+04  0.12092316386E+04  0.50400001928E-02 0. -1.
    10030    2    1    2    0    0  0.00000000000E+00  0.00000000000E+00  0.41644756919E+03  0.28349108464E+04  0.28041560101E+04 0.  0.
        3    1    3    3  502    0  0.12801497031E+04  0.55194129077E+03  0.56915094081E+02  0.13952282211E+04  0.10100000352E+00 0. -1.
       -3    1    3    3    0  502 -0.12801497031E+04 -0.55194129077E+03  0.35953247511E+03  0.14396826253E+04  0.10100000352E+00 0.  1.
</event>
<event>
 5   0  0.8407622E-06  0.2727236E+04  0.7818609E-02  0.8326222E-01
       -2   -1    0    0    0  501  0.00000000000E+00  0.00000000000E+00  0.15292945950E+04  0.15292945950E+04  0.25500000920E-02 0.  1.
        2   -1    0    0  501    0  0.00000000000E+00  0.00000000000E+00 -0.12158902052E+04  0.12158902052E+04  0.25500000920E-02 0. -1.
    10030    2    1    2    0    0  0.00000000000E+00  0.00000000000E+00  0.31340438979E+03  0.27451848003E+04  0.27272361973E+04 0.  0.
        1    1    3    3  502    0 -0.19017993783E+03 -0.16322372532E+03  0.15059130910E+04  0.15266252425E+04  0.50400001928E-02 0.  1.
       -1    1    3    3    0  502  0.19017993783E+03  0.16322372532E+03 -0.11925087012E+04  0.12185595578E+04  0.50400001928E-02 0. -1.
</event>
<event>
 5   0  0.3028601E-06  0.2700790E+04  0.7818609E-02  0.8334749E-01
       -1   -1    0    0    0  501  0.00000000000E+00  0.00000000000E+00  0.11134744719E+04  0.11134744719E+04  0.50400001928E-02 0.  1.
        1   -1    0    0  501    0  0.00000000000E+00  0.00000000000E+00 -0.16377266154E+04  0.16377266154E+04  0.50400001928E-02 0. -1.
    10030    2    1    2    0    0  0.00000000000E+00  0.00000000000E+00 -0.52425214349E+03  0.27512010873E+04  0.27007900905E+04 0.  0.
        3    1    3    3  502    0  0.40292833341E+03 -0.92963584506E+03  0.64728174045E+03  0.12023093229E+04  0.10100000352E+00 0.  1.
       -3    1    3    3    0  502 -0.40292833341E+03  0.92963584506E+03 -0.11715338839E+04  0.15488917644E+04  0.10100000352E+00 0. -1.
</event>
<event>
 5   0  0.7812908E-06  0.2678984E+04  0.7818609E-02  0.8341856E-01
       -2   -1    0    0    0  501  0.00000000000E+00  0.00000000000E+00  0.87677749441E+03  0.87677749441E+03  0.25500000920E-02 0.  1.
        2   -1    0    0  501    0  0.00000000000E+00  0.00000000000E+00 -0.20464021480E+04  0.20464021480E+04  0.25500000920E-02 0. -1.
    10030    2    1    2    0    0  0.00000000000E+00  0.00000000000E+00 -0.11696246536E+04  0.29231796424E+04  0.26789843955E+04 0.  0.
        5    1    3    3  502    0  0.81030535604E+03  0.11525991071E+03  0.57218857305E+03  0.99864982360E+03  0.46999998093E+01 0.  1.
       -5    1    3    3    0  502 -0.81030535604E+03 -0.11525991071E+03 -0.17418132266E+04  0.19245298188E+04  0.46999998093E+01 0. -1.
</event>
<event>
 5   0  0.8407622E-06  0.2681317E+04  0.7818609E-02  0.8341092E-01
       -2   -1    0    0    0  501  0.00000000000E+00  0.00000000000E+00  0.11581752805E+04  0.11581752805E+04  0.25500000920E-02 0. -1.
        2   -1    0    0  501    0  0.00000000000E+00  0.00000000000E+00 -0.15518944831E+04  0.15518944831E+04  0.25500000920E-02 0.  1.
    10030    2    1    2    0    0  0.00000000000E+00  0.00000000000E+00 -0.39371920269E+03  0.27100697636E+04  0.26813174584E+04 0.  0.
        1    1    3    3  502    0  0.59099595511E+03 -0.60525958941E+03  0.85436562667E+03  0.12023127769E+04  0.50400001928E-02 0. -1.
       -1    1    3    3    0  502 -0.59099595511E+03  0.60525958941E+03 -0.12480848294E+04  0.15077569867E+04  0.50400001928E-02 0.  1.
</event>
<event>
 5   0  0.3046300E-06  0.2605590E+04  0.7818609E-02  0.8366305E-01
       -1   -1    0    0    0  501  0.00000000000E+00  0.00000000000E+00  0.12923347694E+04  0.12923347694E+04  0.50400001928E-02 0.  1.
        1   -1    0    0  501    0  0.00000000000E+00  0.00000000000E+00 -0.13133397190E+04  0.13133397190E+04  0.50400001928E-02 0. -1.
    10030    2    1    2    0    0  0.00000000000E+00  0.00000000000E+00 -0.21004949581E+02  0.26056744884E+04  0.26055898242E+04 0.  0.
        2    1    3    3  502    0  0.12427822517E+04 -0.43063642650E+02  0.37798457501E+03  0.12997055595E+04  0.25500000920E-02 0.  1.
       -2    1    3    3    0  502 -0.12427822517E+04  0.43063642650E+02 -0.39898952459E+03  0.13059689289E+04  0.25500000920E-02 0. -1.
</event>
<event>
 5   0  0.7838364E-06  0.2699672E+04  0.7818609E-02  0.8335111E-01
        2   -1    0    0  501    0  0.00000000000E+00  0.00000000000E+00  0.23284069572E+04  0.23284069572E+04  0.25500000920E-02 0. -1.
       -2   -1    0    0    0  501  0.00000000000E+00  0.00000000000E+00 -0.78253370166E+03  0.78253370167E+03  0.25500000920E-02 0.  1.
    10030    2    1    2    0    0  0.00000000000E+00  0.00000000000E+00  0.15458732555E+04  0.31109406588E+04  0.26996717691E+04 0.  0.
        2    1    3    3  502    0 -0.35094807859E+03 -0.10694785321E+04 -0.85621130596E+02  0.11288400518E+04  0.25500000920E-02 0.  1.
       -2    1    3    3    0  502  0.35094807859E+03  0.10694785321E+04  0.16314943861E+04  0.19821006070E+04  0.25500000920E-02 0. -1.
</event>
<event>
 5   0  0.8407622E-06  0.2701289E+04  0.7818609E-02  0.8334587E-01
       -2   -1    0    0    0  501  0.00000000000E+00  0.00000000000E+00  0.73436111428E+03  0.73436111428E+03  0.25500000920E-02 0.  1.
        2   -1    0    0  501    0  0.00000000000E+00  0.00000000000E+00 -0.24841188074E+04  0.24841188074E+04  0.25500000920E-02 0. -1.
    10030    2    1    2    0    0  0.00000000000E+00  0.00000000000E+00 -0.17497576932E+04  0.32184799217E+04  0.27012887705E+04 0.  0.
        1    1    3    3  502    0  0.99375606446E+03 -0.74684281773E+03 -0.15041179217E+04  0.19513318611E+04  0.50400001928E-02 0. -1.
       -1    1    3    3    0  502 -0.99375606446E+03  0.74684281773E+03 -0.24563977150E+03  0.12671480606E+04  0.50400001928E-02 0.  1.
</event>
<event>
 5   0  0.3046300E-06  0.2695526E+04  0.7818609E-02  0.8336458E-01
        1   -1    0    0  501    0  0.00000000000E+00  0.00000000000E+00  0.15248408375E+04  0.15248408375E+04  0.50400001928E-02 0.  1.
       -1   -1    0    0    0  501  0.00000000000E+00  0.00000000000E+00 -0.11912485990E+04  0.11912485991E+04  0.50400001928E-02 0. -1.
    10030    2    1    2    0    0  0.00000000000E+00  0.00000000000E+00  0.33359223845E+03  0.27160894366E+04  0.26955255602E+04 0.  0.
        2    1    3    3  502    0 -0.24225641612E+03  0.94976783100E+03  0.10989031750E+04  0.14725268392E+04  0.25500000920E-02 0.  1.
       -2    1    3    3    0  502  0.24225641612E+03 -0.94976783100E+03 -0.76531093659E+03  0.12435625974E+04  0.25500000920E-02 0. -1.
</event>
<event>
 5   0  0.3013407E-06  0.2727424E+04  0.7818609E-02  0.8326161E-01
        1   -1    0    0  501    0  0.00000000000E+00  0.00000000000E+00  0.11961524495E+04  0.11961524495E+04  0.50400001928E-02 0.  1.
       -1   -1    0    0    0  501  0.00000000000E+00  0.00000000000E+00 -0.15547434381E+04  0.15547434382E+04  0.50400001928E-02 0. -1.
    10030    2    1    2    0    0  0.00000000000E+00  0.00000000000E+00 -0.35859098862E+03  0.27508958877E+04  0.27274238189E+04 0.  0.
        4    1    3    3  502    0  0.79550274497E+03  0.10263279484E+04 -0.59945570319E+03  0.14302176156E+04  0.12699999809E+01 0. -1.
       -4    1    3    3    0  502 -0.79550274497E+03 -0.10263279484E+04  0.24086471457E+03  0.13206782721E+04  0.12699999809E+01 0.  1.
</event>
<event>
 5   0  0.7812908E-06  0.2710904E+04  0.7818609E-02  0.8331476E-01
        2   -1    0    0  501    0  0.00000000000E+00  0.00000000000E+00  0.19904890538E+04  0.19904890538E+04  0.25500000920E-02 0.  1.
       -2   -1    0    0    0  501  0.00000000000E+00  0.00000000000E+00 -0.92301417400E+03  0.92301417400E+03  0.25500000920E-02 0. -1.
    10030    2    1    2    0    0  0.00000000000E+00  0.00000000000E+00  0.10674748798E+04  0.29135032278E+04  0.27109036204E+04 0.  0.
        5    1    3    3  502    0 -0.28329617553E+03  0.12042885013E+04 -0.61417432496E+02  0.12386935490E+04  0.46999998093E+01 0. -1.
       -5    1    3    3    0  502  0.28329617553E+03 -0.12042885013E+04  0.11288923123E+04  0.16748096788E+04  0.46999998093E+01 0.  1.
</event>
<event>
 5   0  0.3089218E-06  0.2661085E+04  0.7818609E-02  0.8347743E-01
        1   -1    0    0  501    0  0.00000000000E+00  0.00000000000E+00  0.13527848986E+04  0.13527848986E+04  0.50400001928E-02 0. -1.
       -1   -1    0    0    0  501  0.00000000000E+00  0.00000000000E+00 -0.13086660483E+04  0.13086660483E+04  0.50400001928E-02 0.  1.
    10030    2    1    2    0    0  0.00000000000E+00  0.00000000000E+00  0.44118850309E+02  0.26614509468E+04  0.26610852428E+04 0.  0.
        5    1    3    3  502    0  0.76865257749E+03  0.72281851911E+03 -0.78862471784E+03  0.13172867691E+04  0.46999998093E+01 0.  1.
       -5    1    3    3    0  502 -0.76865257749E+03 -0.72281851911E+03  0.83274356814E+03  0.13441641777E+04  0.46999998093E+01 0. -1.
</event>
<event>
 5   0  0.3028601E-06  0.2698831E+04  0.7818609E-02  0.8335384E-01
        1   -1    0    0  501    0  0.00000000000E+00  0.00000000000E+00  0.14459943749E+04  0.14459943749E+04  0.50400001928E-02 0.  1.
       -1   -1    0    0    0  501  0.00000000000E+00  0.00000000000E+00 -0.12592871940E+04  0.12592871940E+04  0.50400001928E-02 0. -1.
    10030    2    1    2    0    0  0.00000000000E+00  0.00000000000E+00  0.18670718086E+03  0.27052815689E+04  0.26988310054E+04 0.  0.
        3    1    3    3  502    0  0.95118722370E+03  0.47927654093E+03 -0.73715494607E+03  0.12953225706E+04  0.10100000352E+00 0. -1.
       -3    1    3    3    0  502 -0.95118722370E+03 -0.47927654093E+03  0.92386212693E+03  0.14099589983E+04  0.10100000352E+00 0.  1.
</event>
<event>
 5   0  0.8213334E-06  0.2683250E+04  0.7818609E-02  0.8340460E-01
       -2   -1    0    0    0  501  0.00000000000E+00  0.00000000000E+00  0.12544409622E+04  0.12544409622E+04  0.25500000920E-02 0.  1.
        2   -1    0    0  501    0  0.00000000000E+00  0.00000000000E+00 -0.14348680420E+04  0.14348680420E+04  0.25500000920E-02 0. -1.
    10030    2    1    2    0    0  0.00000000000E+00  0.00000000000E+00 -0.18042707977E+03  0.26893090041E+04  0.26832497067E+04 0.  0.
        3    1    3    3  502    0  0.70615019159E+02  0.13006499225E+04 -0.41231215328E+03  0.13662642584E+04  0.10100000352E+00 0. -1.
       -3    1    3    3    0  502 -0.70615019159E+02 -0.13006499225E+04  0.23188507351E+03  0.13230447458E+04  0.10100000352E+00 0.  1.
</event>
<event>
 5   0  0.7812908E-06  0.2692060E+04  0.7818609E-02  0.8337586E-01
       -2   -1    0    0    0  501  0.00000000000E+00  0.00000000000E+00  0.84431818855E+03  0.84431818856E+03  0.25500000920E-02 0. -1.
        2   -1    0    0  501    0  0.00000000000E+00  0.00000000000E+00 -0.21458693740E+04  0.21458693740E+04  0.25500000920E-02 0.  1.
    10030    2    1    2    0    0  0.00000000000E+00  0.00000000000E+00 -0.13015511855E+04  0.29901875626E+04  0.26920598379E+04 0.  0.
        5    1    3    3  502    0 -0.27573755900E+03  0.64062179399E+03 -0.19295045978E+04  0.20516913919E+04  0.46999998093E+01 0.  1.
       -5    1    3    3    0  502  0.27573755900E+03 -0.64062179399E+03  0.62795341236E+03  0.93849617073E+03  0.46999998093E+01 0. -1.
</event>
<event>
 5   0  0.3089218E-06  0.2699902E+04  0.7818609E-02  0.8335037E-01
        1   -1    0    0  501    0  0.00000000000E+00  0.00000000000E+00  0.72639296893E+03  0.72639296895E+03  0.50400001928E-02 0.  1.
       -1   -1    0    0    0  501  0.00000000000E+00  0.00000000000E+00 -0.25087896871E+04  0.25087896871E+04  0.50400001928E-02 0. -1.
    10030    2    1    2    0    0  0.00000000000E+00  0.00000000000E+00 -0.17823967182E+04  0.32351826561E+04  0.26999016199E+04 0.  0.
        5    1    3    3  502    0 -0.12294125528E+03  0.22453844385E+03 -0.24794292497E+04  0.24926138007E+04  0.46999998093E+01 0. -1.
       -5    1    3    3    0  502  0.12294125528E+03 -0.22453844385E+03  0.69703253151E+03  0.74256885540E+03  0.46999998093E+01 0.  1.
</event>
<event>
 5   0  0.3046300E-06  0.2704514E+04  0.7818609E-02  0.8333542E-01
       -1   -1    0    0    0  501  0.00000000000E+00  0.00000000000E+00  0.16381335896E+04  0.16381335896E+04  0.50400001928E-02 0. -1.
        1   -1    0    0  501    0  0.00000000000E+00  0.00000000000E+00 -0.11162701041E+04  0.11162701041E+04  0.50400001928E-02 0.  1.
    10030    2    1    2    0    0  0.00000000000E+00  0.00000000000E+00  0.52186348547E+03  0.27544036937E+04  0.27045144131E+04 0.  0.
        2    1    3    3  502    0  0.12707531362E+04  0.15277341386E+03 -0.18351995092E+03  0.12929937438E+04  0.25500000920E-02 0. -1.
       -2    1    3    3    0  502 -0.12707531362E+04 -0.15277341386E+03  0.70538343638E+03  0.14614099499E+04  0.25500000920E-02 0.  1.
</event>
<event>
 5   0  0.7729970E-06  0.2710246E+04  0.7818609E-02  0.8331688E-01
        2   -1    0    0  501    0  0.00000000000E+00  0.00000000000E+00  0.11636445807E+04  0.11636445807E+04  0.25500000920E-02 0.  1.
       -2   -1    0    0    0  501  0.00000000000E+00  0.00000000000E+00 -0.15781094284E+04  0.15781094284E+04  0.25500000920E-02 0. -1.
    10030    2    1    2    0    0  0.00000000000E+00  0.00000000000E+00 -0.41446484765E+03  0.27417540091E+04  0.27102461025E+04 0.  0.
        4    1    3    3  502    0  0.28075238631E+03 -0.86240831353E+03 -0.12258076044E+04  0.15248527462E+04  0.12699999809E+01 0. -1.
       -4    1    3    3    0  502 -0.28075238631E+03  0.86240831353E+03  0.81134275678E+03  0.12169012629E+04  0.12699999809E+01 0.  1.
</event>
<event>
 5   0  0.7812908E-06  0.2695896E+04  0.7818609E-02  0.8336338E-01
        2   -1    0    0  501    0  0.00000000000E+00  0.00000000000E+00  0.20419759824E+04  0.20419759824E+04  0.25500000920E-02 0. -1.
       -2   -1    0    0    0  501  0.00000000000E+00  0.00000000000E+00 -0.88980670127E+03  0.88980670127E+03  0.25500000920E-02 0.  1.
    10030    2    1    2    0    0  0.00000000000E+00  0.00000000000E+00  0.11521692811E+04  0.29317826836E+04  0.26958960759E+04 0.  0.
        5    1    3    3  502    0 -0.84429282993E+02 -0.11165934612E+04 -0.23992517865E+03  0.11452054151E+04  0.46999998093E+01 0.  1.
       -5    1    3    3    0  502  0.84429282993E+02  0.11165934612E+04  0.13920944597E+04  0.17865772685E+04  0.46999998093E+01 0. -1.
</event>
<event>
 5   0  0.3199840E-06  0.2686587E+04  0.7818609E-02  0.8339370E-01
        1   -1    0    0  501    0  0.00000000000E+00  0.00000000000E+00  0.94320862842E+03  0.94320862843E+03  0.50400001928E-02 0. -1.
       -1   -1    0    0    0  501  0.00000000000E+00  0.00000000000E+00 -0.19130838596E+04  0.19130838597E+04  0.50400001928E-02 0.  1.
    10030    2    1    2    0    0  0.00000000000E+00  0.00000000000E+00 -0.96987523123E+03  0.28562924881E+04  0.26865868334E+04 0.  0.
        1    1    3    3  502    0  0.72718884952E+02  0.13412245542E+04 -0.50227286888E+03  0.14340325575E+04  0.50400001928E-02 0.  1.
       -1    1    3    3    0  502 -0.72718884952E+02 -0.13412245542E+04 -0.46760236235E+03  0.14222599306E+04  0.50400001928E-02 0. -1.
</event>
<event>
 5   0  0.7838364E-06  0.2672503E+04  0.7818609E-02  0.8343982E-01
       -2   -1    0    0    0  501  0.00000000000E+00  0.00000000000E+00  0.93418228950E+03  0.93418228950E+03  0.25500000920E-02 0.  1.
        2   -1    0    0  501    0  0.00000000000E+00  0.00000000000E+00 -0.19113699079E+04  0.19113699079E+04  0.25500000920E-02 0. -1.
    10030    2    1    2    0    0  0.00000000000E+00  0.00000000000E+00 -0.97718761836E+03  0.28455521974E+04  0.26725028843E+04 0.  0.
        2    1    3    3  502    0  0.21261797066E+03 -0.24499023878E+03  0.89162240351E+03  0.94879772818E+03  0.25500000920E-02 0.  1.
       -2    1    3    3    0  502 -0.21261797066E+03  0.24499023878E+03 -0.18688100219E+04  0.18967544692E+04  0.25500000920E-02 0. -1.
</event>
<event>
 5   0  0.3046300E-06  0.2645271E+04  0.7818609E-02  0.8352984E-01
        1   -1    0    0  501    0  0.00000000000E+00  0.00000000000E+00  0.17028104675E+04  0.17028104675E+04  0.50400001928E-02 0. -1.
       -1   -1    0    0    0  501  0.00000000000E+00  0.00000000000E+00 -0.10273398978E+04  0.10273398978E+04  0.50400001928E-02 0.  1.
    10030    2    1    2    0    0  0.00000000000E+00  0.00000000000E+00  0.67547056973E+03  0.27301503653E+04  0.26452713521E+04 0.  0.
        2    1    3    3  502    0  0.24321893980E+03  0.32791615279E+03  0.16361486824E+04  0.16863175759E+04  0.25500000920E-02 0. -1.
       -2    1    3    3    0  502 -0.24321893980E+03 -0.32791615279E+03 -0.96067811267E+03  0.10438327893E+04  0.25500000920E-02 0.  1.
</event>
<event>
 5   0  0.8407622E-06  0.2672253E+04  0.7818609E-02  0.8344065E-01
       -2   -1    0    0    0  501  0.00000000000E+00  0.00000000000E+00  0.32582048775E+04  0.32582048775E+04  0.25500000920E-02 0. -1.
        2   -1    0    0  501    0  0.00000000000E+00  0.00000000000E+00 -0.54791931315E+03  0.54791931316E+03  0.25500000920E-02 0.  1.
    10030    2    1    2    0    0  0.00000000000E+00  0.00000000000E+00  0.27102855643E+04  0.38061241906E+04  0.26722525170E+04 0.  0.
        1    1    3    3  502    0  0.48490801907E+03  0.87613115944E+03  0.95215869117E+02  0.10058865032E+04  0.50400001928E-02 0.  1.
       -1    1    3    3    0  502 -0.48490801907E+03 -0.87613115944E+03  0.26150696952E+04  0.28002376875E+04  0.50400001928E-02 0. -1.
</event>
<event>
 5   0  0.3028601E-06  0.2680584E+04  0.7818609E-02  0.8341332E-01
        1   -1    0    0  501    0  0.00000000000E+00  0.00000000000E+00  0.17597944395E+04  0.17597944395E+04  0.50400001928E-02 0.  1.
       -1   -1    0    0    0  501  0.00000000000E+00  0.00000000000E+00 -0.10207909272E+04  0.10207909272E+04  0.50400001928E-02 0. -1.
    10030    2    1    2    0    0  0.00000000000E+00  0.00000000000E+00  0.73900351231E+03  0.27805853668E+04  0.26805836661E+04 0.  0.
        3    1    3    3  502    0  0.71804714811E+03 -0.11286205428E+04  0.45632711951E+03  0.14133684894E+04  0.10100000352E+00 0. -1.
       -3    1    3    3    0  502 -0.71804714811E+03  0.11286205428E+04  0.28267639280E+03  0.13672168774E+04  0.10100000352E+00 0.  1.
</event>
<event>
 5   0  0.3028601E-06  0.2710527E+04  0.7818609E-02  0.8331597E-01
       -1   -1    0    0    0  501  0.00000000000E+00  0.00000000000E+00  0.89299425173E+03  0.89299425175E+03  0.50400001928E-02 0. -1.
        1   -1    0    0  501    0  0.00000000000E+00  0.00000000000E+00 -0.20568327240E+04  0.20568327240E+04  0.50400001928E-02 0.  1.
    10030    2    1    2    0    0  0.00000000000E+00  0.00000000000E+00 -0.11638384723E+04  0.29498269758E+04  0.27105274759E+04 0.  0.
        3    1    3    3  502    0 -0.35660743929E+03  0.12990416980E+04 -0.42027466028E+03  0.14111374842E+04  0.10100000352E+00 0. -1.
       -3    1    3    3    0  502  0.35660743929E+03 -0.12990416980E+04 -0.74356381202E+03  0.15386894916E+04  0.10100000352E+00 0.  1.
</event>
<event>
 5   0  0.7729970E-06  0.2641159E+04  0.7818609E-02  0.8354353E-01
       -2   -1    0    0    0  501  0.00000000000E+00  0.00000000000E+00  0.10310716109E+04  0.10310716109E+04  0.25500000920E-02 0. -1.
        2   -1    0    0  501    0  0.00000000000E+00  0.00000000000E+00 -0.16913765126E+04  0.16913765126E+04  0.25500000920E-02 0.  1.
    10030    2    1    2    0    0  0.00000000000E+00  0.00000000000E+00 -0.66030490169E+03  0.27224481235E+04  0.26411590679E+04 0.  0.
        4    1    3    3  502    0 -0.55081157425E+03 -0.31729560002E+03 -0.15233011502E+04  0.16506113701E+04  0.12699999809E+01 0.  1.
       -4    1    3    3    0  502  0.55081157425E+03  0.31729560002E+03  0.86299624847E+03  0.10718367534E+04  0.12699999809E+01 0. -1.
</event>
<event>
 5   0  0.8407622E-06  0.2700407E+04  0.7818609E-02  0.8334873E-01
       -2   -1    0    0    0  501  0.00000000000E+00  0.00000000000E+00  0.10194137665E+04  0.10194137665E+04  0.25500000920E-02 0. -1.
        2   -1    0    0  501    0  0.00000000000E+00  0.00000000000E+00 -0.17883311301E+04  0.17883311301E+04  0.25500000920E-02 0.  1.
    10030    2    1    2    0    0  0.00000000000E+00  0.00000000000E+00 -0.76891736358E+03  0.28077448966E+04  0.27004069124E+04 0.  0.
        1    1    3    3  502    0  0.75674120240E+03 -0.75483940807E+03  0.47332438510E+03  0.11689635379E+04  0.50400001928E-02 0. -1.
       -1    1    3    3    0  502 -0.75674120240E+03  0.75483940807E+03 -0.12422417487E+04  0.16387813587E+04  0.50400001928E-02 0.  1.
</event>
<event>
 5   0  0.3046300E-06  0.2722836E+04  0.7818609E-02  0.8327633E-01
        1   -1    0    0  501    0  0.00000000000E+00  0.00000000000E+00  0.21664500832E+04  0.21664500832E+04  0.50400001928E-02 0. -1.
       -1   -1    0    0    0  501  0.00000000000E+00  0.00000000000E+00 -0.85552834409E+03  0.85552834411E+03  0.50400001928E-02 0.  1.
    10030    2    1    2    0    0  0.00000000000E+00  0.00000000000E+00  0.13109217391E+04  0.30219784273E+04  0.27228363537E+04 0.  0.
        2    1    3    3  502    0  0.10501248455E+04  0.57639489406E+02 -0.30402611555E+03  0.10947677292E+04  0.25500000920E-02 0.  1.
       -2    1    3    3    0  502 -0.10501248455E+04 -0.57639489406E+02  0.16149478546E+04  0.19272106982E+04  0.25500000920E-02 0. -1.
</event>
<event>
 5   0  0.3013407E-06  0.2668794E+04  0.7818609E-02  0.8345202E-01
        1   -1    0    0  501    0  0.00000000000E+00  0.00000000000E+00  0.25654526081E+04  0.25654526081E+04  0.50400001928E-02 0. -1.
       -1   -1    0    0    0  501  0.00000000000E+00  0.00000000000E+00 -0.69407454994E+03  0.69407454995E+03  0.50400001928E-02 0.  1.
    10030    2    1    2    0    0  0.00000000000E+00  0.00000000000E+00  0.18713780581E+04  0.32595271580E+04  0.26687940081E+04 0.  0.
        4    1    3    3  502    0  0.71192886592E+03 -0.45862969592E+03 -0.32379879086E+03  0.90665935057E+03  0.12699999809E+01 0.  1.
       -4    1    3    3    0  502 -0.71192886592E+03  0.45862969592E+03  0.21951768490E+04  0.23528678075E+04  0.12699999809E+01 0. -1.
</event>
<event>
 5   0  0.3089218E-06  0.2702856E+04  0.7818609E-02  0.8334079E-01
        1   -1    0    0  501    0  0.00000000000E+00  0.00000000000E+00  0.15526796960E+04  0.15526796960E+04  0.50400001928E-02 0. -1.
       -1   -1    0    0    0  501  0.00000000000E+00  0.00000000000E+00 -0.11762616399E+04  0.11762616399E+04  0.50400001928E-02 0.  1.
    10030    2    1    2    0    0  0.00000000000E+00  0.00000000000E+00  0.37641805603E+03  0.27289413359E+04  0.27028559455E+04 0.  0.
        5    1    3    3  502    0 -0.12695860125E+04  0.14441835636E+03 -0.25607204720E+03  0.13031885083E+04  0.46999998093E+01 0.  1.
       -5    1    3    3    0  502  0.12695860125E+04 -0.14441835636E+03  0.63249010323E+03  0.14257528276E+04  0.46999998093E+01 0. -1.
</event>
<event>
 5   0  0.7838364E-06  0.2695093E+04  0.7818609E-02  0.8336599E-01
        2   -1    0    0  501    0  0.00000000000E+00  0.00000000000E+00  0.20556753779E+04  0.20556753779E+04  0.25500000920E-02 0.  1.
       -2   -1    0    0    0  501  0.00000000000E+00  0.00000000000E+00 -0.88335003181E+03  0.88335003182E+03  0.25500000920E-02 0. -1.
    10030    2    1    2    0    0  0.00000000000E+00  0.00000000000E+00  0.11723253461E+04  0.29390254097E+04  0.26950925108E+04 0.  0.
        2    1    3    3  502    0 -0.67922033848E+03  0.33699534593E+03  0.18009804576E+04  0.19540820710E+04  0.25500000920E-02 0.  1.
       -2    1    3    3    0  502  0.67922033848E+03 -0.33699534593E+03 -0.62865511150E+03  0.98494333878E+03  0.25500000920E-02 0. -1.
</event>
<event>
 5   0  0.3013407E-06  0.2700470E+04  0.7818609E-02  0.8334852E-01
        1   -1    0    0  501    0  0.00000000000E+00  0.00000000000E+00  0.13381202289E+04  0.13381202289E+04  0.50400001928E-02 0.  1.
       -1   -1    0    0    0  501  0.00000000000E+00  0.00000000000E+00 -0.13624596520E+04  0.13624596520E+04  0.50400001928E-02 0. -1.
    10030    2    1    2    0    0  0.00000000000E+00  0.00000000000E+00 -0.24339423077E+02  0.27005798810E+04  0.27004701972E+04 0.  0.
        4    1    3    3  502    0 -0.40088610422E+03  0.82586550884E+03 -0.10023461309E+04  0.13592140693E+04  0.12699999809E+01 0. -1.
       -4    1    3    3    0  502  0.40088610422E+03 -0.82586550884E+03  0.97800670781E+03  0.13413658117E+04  0.12699999809E+01 0.  1.
</event>
<event>
 5   0  0.7812908E-06  0.2697495E+04  0.7818609E-02  0.8335818E-01
       -2   -1    0    0    0  501  0.00000000000E+00  0.00000000000E+00  0.19499883350E+04  0.19499883350E+04  0.25500000920E-02 0. -1.
        2   -1    0    0  501    0  0.00000000000E+00  0.00000000000E+00 -0.93288771838E+03  0.93288771838E+03  0.25500000920E-02 0.  1.
    10030    2    1    2    0    0  0.00000000000E+00  0.00000000000E+00  0.10171006166E+04  0.28828760533E+04  0.26974952594E+04 0.  0.
        5    1    3    3  502    0  0.76698681366E+03 -0.63942568925E+03  0.14774787492E+04  0.17832833563E+04  0.46999998093E+01 0. -1.
       -5    1    3    3    0  502 -0.76698681366E+03  0.63942568925E+03 -0.46037813264E+03  0.10995926971E+04  0.46999998093E+01 0.  1.
</event>
<event>
 5   0  0.3089218E-06  0.2695579E+04  0.7818609E-02  0.8336441E-01
       -1   -1    0    0    0  501  0.00000000000E+00  0.00000000000E+00  0.10270811974E+04  0.10270811974E+04  0.50400001928E-02 0. -1.
        1   -1    0    0  501    0  0.00000000000E+00  0.00000000000E+00 -0.17686390165E+04  0.17686390165E+04  0.50400001928E-02 0.  1.
    10030    2    1    2    0    0  0.00000000000E+00  0.00000000000E+00 -0.74155781912E+03  0.27957202139E+04  0.26955785121E+04 0.  0.
        5    1    3    3  502    0  0.58794182336E+03 -0.33066193481E+03  0.83940307907E+03  0.10768623505E+04  0.46999998093E+01 0. -1.
       -5    1    3    3    0  502 -0.58794182336E+03  0.33066193481E+03 -0.15809608982E+04  0.17188578633E+04  0.46999998093E+01 0.  1.
</event>
<event>
 5   0  0.3199840E-06  0.2654922E+04  0.7818609E-02  0.8349781E-01
        1   -1    0    0  501    0  0.00000000000E+00  0.00000000000E+00  0.12814974052E+04  0.12814974052E+04  0.50400001928E-02 0. -1.
       -1   -1    0    0    0  501  0.00000000000E+00  0.00000000000E+00 -0.13750733930E+04  0.13750733930E+04  0.50400001928E-02 0.  1.
    10030    2    1    2    0    0  0.00000000000E+00  0.00000000000E+00 -0.93575987788E+02  0.26565707983E+04  0.26549222099E+04 0.  0.
        1    1    3    3  502    0 -0.12088132497E+04  0.51879181361E+03  0.13158814005E+03  0.13220022152E+04  0.50400001928E-02 0.  1.
       -1    1    3    3    0  502  0.12088132497E+04 -0.51879181361E+03 -0.22516412783E+03  0.13345685831E+04  0.50400001928E-02 0. -1.
</event>
<event>
 5   0  0.7838364E-06  0.2679585E+04  0.7818609E-02  0.8341659E-01
        2   -1    0    0  501    0  0.00000000000E+00  0.00000000000E+00  0.11443787472E+04  0.11443787472E+04  0.25500000920E-02 0. -1.
       -2   -1    0    0    0  501  0.00000000000E+00  0.00000000000E+00 -0.15685755148E+04  0.15685755148E+04  0.25500000920E-02 0.  1.
    10030    2    1    2    0    0  0.00000000000E+00  0.00000000000E+00 -0.42419676766E+03  0.27129542620E+04  0.26795854027E+04 0.  0.
        2    1    3    3  502    0  0.84917900012E+03  0.12371071132E+03  0.82961448052E+03  0.11935951997E+04  0.25500000920E-02 0. -1.
       -2    1    3    3    0  502 -0.84917900012E+03 -0.12371071132E+03 -0.12538112482E+04  0.15193590624E+04  0.25500000920E-02 0.  1.
</event>
<event>
 5   0  0.3089218E-06  0.2693785E+04  0.7818609E-02  0.8337024E-01
        1   -1    0    0  501    0  0.00000000000E+00  0.00000000000E+00  0.10488916306E+04  0.10488916306E+04  0.50400001928E-02 0.  1.
       -1   -1    0    0    0  501  0.00000000000E+00  0.00000000000E+00 -0.17295587383E+04  0.17295587383E+04  0.50400001928E-02 0. -1.
    10030    2    1    2    0    0  0.00000000000E+00  0.00000000000E+00 -0.68066710774E+03  0.27784503689E+04  0.26937852069E+04 0.  0.
        5    1    3    3  502    0 -0.62913003361E+03  0.82580676322E+02  0.88506124635E+03  0.10890269359E+04  0.46999998093E+01 0.  1.
       -5    1    3    3    0  502  0.62913003361E+03 -0.82580676322E+02 -0.15657283541E+04  0.16894234330E+04  0.46999998093E+01 0. -1.
</event>
<event>
 5   0  0.8407622E-06  0.2693025E+04  0.7818609E-02  0.8337272E-01
       -2   -1    0    0    0  501  0.00000000000E+00  0.00000000000E+00  0.72171090765E+03  0.72171090766E+03  0.25500000920E-02 0.  1.
        2   -1    0    0  501    0  0.00000000000E+00  0.00000000000E+00 -0.25122190273E+04  0.25122190273E+04  0.25500000920E-02 0. -1.
    10030    2    1    2    0    0  0.00000000000E+00  0.00000000000E+00 -0.17905081196E+04  0.32339299349E+04  0.26930249716E+04 0.  0.
        1    1    3    3  502    0 -0.10552179196E+04 -0.77396659437E+03 -0.12761098523E+04  0.18278308188E+04  0.50400001928E-02 0.  1.
       -1    1    3    3    0  502  0.10552179196E+04  0.77396659437E+03 -0.51439826729E+03  0.14060991161E+04  0.50400001928E-02 0. -1.
</event>
<event>
 5   0  0.3199840E-06  0.2696856E+04  0.7818609E-02  0.8336026E-01
        1   -1    0    0  501    0  0.00000000000E+00  0.00000000000E+00  0.19240019748E+04  0.19240019748E+04  0.50400001928E-02 0.  1.
       -1   -1    0    0    0  501  0.00000000000E+00  0.00000000000E+00 -0.94503974896E+03  0.94503974897E+03  0.50400001928E-02 0. -1.
    10030    2    1    2    0    0  0.00000000000E+00  0.00000000000E+00  0.97896222583E+03  0.28690417238E+04  0.26968562018E+04 0.  0.
        1    1    3    3  502    0  0.62596056574E+03  0.11483055955E+04  0.83881504022E+03  0.15537191002E+04  0.50400001928E-02 0.  1.
       -1    1    3    3    0  502 -0.62596056574E+03 -0.11483055955E+04  0.14014718561E+03  0.13153226236E+04  0.50400001928E-02 0. -1.
</event>
<event>
 5   0  0.3046300E-06  0.2689442E+04  0.7818609E-02  0.8338439E-01
       -1   -1    0    0    0  501  0.00000000000E+00  0.00000000000E+00  0.19128153937E+04  0.19128153937E+04  0.50400001928E-02 0.  1.
        1   -1    0    0  501    0  0.00000000000E+00  0.00000000000E+00 -0.94534704944E+03  0.94534704945E+03  0.50400001928E-02 0. -1.
    10030    2    1    2    0    0  0.00000000000E+00  0.00000000000E+00  0.96746834422E+03  0.28581624431E+04  0.26894418667E+04 0.  0.
        2    1    3    3  502    0  0.92438962885E+03  0.92728726056E+03  0.15805064947E+03  0.13188395874E+04  0.25500000920E-02 0.  1.
       -2    1    3    3    0  502 -0.92438962885E+03 -0.92728726056E+03  0.80941769475E+03  0.15393228557E+04  0.25500000920E-02 0. -1.
</event>
<event>
 5   0  0.7729970E-06  0.2695728E+04  0.7818609E-02  0.8336393E-01
       -2   -1    0    0    0  501  0.00000000000E+00  0.00000000000E+00  0.92596561750E+03  0.92596561751E+03  0.25500000920E-02 0. -1.
        2   -1    0    0  501    0  0.00000000000E+00  0.00000000000E+00 -0.19619916770E+04  0.19619916770E+04  0.25500000920E-02 0.  1.
    10030    2    1    2    0    0  0.00000000000E+00  0.00000000000E+00 -0.10360260595E+04  0.28879572945E+04  0.26957276084E+04 0.  0.
        4    1    3    3  502    0  0.38290252033E+03  0.29458366680E+03 -0.18660507249E+04  0.19275738112E+04  0.12699999809E+01 0.  1.
       -4    1    3    3    0  502 -0.38290252033E+03 -0.29458366680E+03  0.83002466544E+03  0.96038348328E+03  0.12699999809E+01 0. -1.
</event>
<event>
 5   0  0.7838364E-06  0.2686783E+04  0.7818609E-02  0.8339306E-01
        2   -1    0    0  501    0  0.00000000000E+00  0.00000000000E+00  0.10755258736E+04  0.10755258736E+04  0.25500000920E-02 0.  1.
       -2   -1    0    0    0  501  0.00000000000E+00  0.00000000000E+00 -0.16779700485E+04  0.16779700485E+04  0.25500000920E-02 0. -1.
    10030    2    1    2    0    0  0.00000000000E+00  0.00000000000E+00 -0.60244417496E+03  0.27534959221E+04  0.26867826129E+04 0.  0.
        2    1    3    3  502    0 -0.38845333107E+01  0.38869418900E+03 -0.16190763786E+04  0.16650845570E+04  0.25500000920E-02 0. -1.
       -2    1    3    3    0  502  0.38845333107E+01 -0.38869418900E+03  0.10166322037E+04  0.10884113651E+04  0.25500000920E-02 0.  1.
</event>
<event>
 5   0  0.7729970E-06  0.2691938E+04  0.7818609E-02  0.8337625E-01
       -2   -1    0    0    0  501  0.00000000000E+00  0.00000000000E+00  0.15657462680E+04  0.15657462680E+04  0.25500000920E-02 0.  1.
        2   -1    0    0  501    0  0.00000000000E+00  0.00000000000E+00 -0.11570413761E+04  0.11570413761E+04  0.25500000920E-02 0. -1.
    10030    2    1    2    0    0  0.00000000000E+00  0.00000000000E+00  0.40870489183E+03  0.27227876441E+04  0.26919384960E+04 0.  0.
        4    1    3    3  502    0  0.97933103367E+03  0.22096271886E+03 -0.70242442332E+03  0.12252817962E+04  0.12699999809E+01 0. -1.
       -4    1    3    3    0  502 -0.97933103367E+03 -0.22096271886E+03  0.11111293151E+04  0.14975058479E+04  0.12699999809E+01 0.  1.
</event>
<event>
 5   0  0.3046300E-06  0.2700433E+04  0.7818609E-02  0.8334865E-01
        1   -1    0    0  501    0  0.00000000000E+00  0.00000000000E+00  0.25165196085E+04  0.25165196085E+04  0.50400001928E-02 0.  1.
       -1   -1    0    0    0  501  0.00000000000E+00  0.00000000000E+00 -0.72444659258E+03  0.72444659260E+03  0.50400001928E-02 0. -1.
    10030    2    1    2    0    0  0.00000000000E+00  0.00000000000E+00  0.17920730160E+04  0.32409662011E+04  0.27004325991E+04 0.  0.
        2    1    3    3  502    0  0.43277421638E+03 -0.12784435039E+04  0.94050325744E+03  0.16450707256E+04  0.25500000920E-02 0. -1.
       -2    1    3    3    0  502 -0.43277421638E+03  0.12784435039E+04  0.85156975852E+03  0.15958954755E+04  0.25500000920E-02 0.  1.
</event>
<event>
 5   0  0.8407622E-06  0.2750704E+04  0.7818609E-02  0.8318738E-01
       -2   -1    0    0    0  501  0.00000000000E+00  0.00000000000E+00  0.12404311157E+04  0.12404311157E+04  0.25500000920E-02 0. -1.
        2   -1    0    0  501    0  0.00000000000E+00  0.00000000000E+00 -0.15249478662E+04  0.15249478662E+04  0.25500000920E-02 0.  1.
    10030    2    1    2    0    0  0.00000000000E+00  0.00000000000E+00 -0.28451675055E+03  0.27653789819E+04  0.27507037522E+04 0.  0.
        1    1    3    3  502    0 -0.87233169296E+03  0.22040368455E+03  0.90350875530E+03  0.12750954622E+04  0.50400001928E-02 0. -1.
       -1    1    3    3    0  502  0.87233169296E+03 -0.22040368455E+03 -0.11880255059E+04  0.14902835198E+04  0.50400001928E-02 0.  1.
</event>
<event>
 5   0  0.3013407E-06  0.2705482E+04  0.7818609E-02  0.8333228E-01
       -1   -1    0    0    0  501  0.00000000000E+00  0.00000000000E+00  0.11578195735E+04  0.11578195735E+04  0.50400001928E-02 0.  1.
        1   -1    0    0  501    0  0.00000000000E+00  0.00000000000E+00 -0.15804777004E+04  0.15804777004E+04  0.50400001928E-02 0. -1.
    10030    2    1    2    0    0  0.00000000000E+00  0.00000000000E+00 -0.42265812686E+03  0.27382972739E+04  0.27054818550E+04 0.  0.
        4    1    3    3  502    0  0.63363653086E+03  0.57105582858E+03  0.85131331397E+03  0.12051290321E+04  0.12699999809E+01 0.  1.
       -4    1    3    3    0  502 -0.63363653086E+03 -0.57105582858E+03 -0.12739714408E+04  0.15331682418E+04  0.12699999809E+01 0. -1.
</event>
<event>
 5   0  0.3046300E-06  0.2712649E+04  0.7818609E-02  0.8330912E-01
       -1   -1    0    0    0  501  0.00000000000E+00  0.00000000000E+00  0.22258023932E+04  0.22258023932E+04  0.50400001928E-02 0. -1.
        1   -1    0    0  501    0  0.00000000000E+00  0.00000000000E+00 -0.82649600506E+03  0.82649600507E+03  0.50400001928E-02 0.  1.
    10030    2    1    2    0    0  0.00000000000E+00  0.00000000000E+00  0.13993063881E+04  0.30522983983E+04  0.27126494695E+04 0.  0.
        2    1    3    3  502    0  0.10957357362E+04  0.57152696922E+03  0.70806237846E+02  0.12378583939E+04  0.25500000920E-02 0.  1.
       -2    1    3    3    0  502 -0.10957357362E+04 -0.57152696922E+03  0.13285001503E+04  0.18144400044E+04  0.25500000920E-02 0. -1.
</event>
<event>
 5   0  0.3199840E-06  0.2700035E+04  0.7818609E-02  0.8334994E-01
       -1   -1    0    0    0  501  0.00000000000E+00  0.00000000000E+00  0.86672547030E+03  0.86672547031E+03  0.50400001928E-02 0.  1.
        1   -1    0    0  501    0  0.00000000000E+00  0.00000000000E+00 -0.21027963025E+04  0.21027963025E+04  0.50400001928E-02 0. -1.
    10030    2    1    2    0    0  0.00000000000E+00  0.00000000000E+00 -0.12360708322E+04  0.29695217728E+04  0.27000348992E+04 0.  0.
        1    1    3    3  502    0 -0.12951144785E+04  0.34349179571E+03 -0.43652037349E+03  0.14092047979E+04  0.50400001928E-02 0.  1.
       -1    1    3    3    0  502  0.12951144785E+04 -0.34349179571E+03 -0.79955045870E+03  0.15603169749E+04  0.50400001928E-02 0. -1.
</event>
<event>
 5   0  0.8407622E-06  0.2712687E+04  0.7818609E-02  0.8330900E-01
        2   -1    0    0  501    0  0.00000000000E+00  0.00000000000E+00  0.17377065709E+04  0.17377065709E+04  0.25500000920E-02 0. -1.
       -2   -1    0    0    0  501  0.00000000000E+00  0.00000000000E+00 -0.10586758168E+04  0.10586758168E+04  0.25500000920E-02 0.  1.
    10030    2    1    2    0    0  0.00000000000E+00  0.00000000000E+00  0.67903075410E+03  0.27963823876E+04  0.27126871719E+04 0.  0.
        1    1    3    3  502    0 -0.45945207639E+03 -0.23040158730E+03 -0.95439510718E+03  0.10839977503E+04  0.50400001928E-02 0.  1.
       -1    1    3    3    0  502  0.45945207639E+03  0.23040158730E+03  0.16334258613E+04  0.17123846374E+04  0.50400001928E-02 0. -1.
</event>
<event>
 5   0  0.3028601E-06  0.2672948E+04  0.7818609E-02  0.8343836E-01
        1   -1    0    0  501    0  0.00000000000E+00  0.00000000000E+00  0.91383924192E+03  0.91383924194E+03  0.50400001928E-02 0.  1.
       -1   -1    0    0    0  501  0.00000000000E+00  0.00000000000E+00 -0.19545704613E+04  0.19545704613E+04  0.50400001928E-02 0. -1.
    10030    2    1    2    0    0  0.00000000000E+00  0.00000000000E+00 -0.10407312194E+04  0.28684097032E+04  0.26729483262E+04 0.  0.
        3    1    3    3  502    0 -0.10121146653E+04 -0.68217948676E+03 -0.11046214673E+04  0.16461875786E+04  0.10100000352E+00 0. -1.
       -3    1    3    3    0  502  0.10121146653E+04  0.68217948676E+03  0.63890247904E+02  0.12222221246E+04  0.10100000352E+00 0.  1.
</event>
<event>
 5   0  0.3089218E-06  0.2686171E+04  0.7818609E-02  0.8339506E-01
       -1   -1    0    0    0  501  0.00000000000E+00  0.00000000000E+00  0.11960794899E+04  0.11960794899E+04  0.50400001928E-02 0. -1.
        1   -1    0    0  501    0  0.00000000000E+00  0.00000000000E+00 -0.15081593885E+04  0.15081593885E+04  0.50400001928E-02 0.  1.
    10030    2    1    2    0    0  0.00000000000E+00  0.00000000000E+00 -0.31207989858E+03  0.27042388784E+04  0.26861708897E+04 0.  0.
        5    1    3    3  502    0  0.52605410295E+03  0.14170832382E+03 -0.13919137580E+04  0.14947441814E+04  0.46999998093E+01 0.  1.
       -5    1    3    3    0  502 -0.52605410295E+03 -0.14170832382E+03  0.10798338594E+04  0.12094946970E+04  0.46999998093E+01 0. -1.
</event>
<event>
 5   0  0.3028601E-06  0.2698530E+04  0.7818609E-02  0.8335482E-01
       -1   -1    0    0    0  501  0.00000000000E+00  0.00000000000E+00  0.15738984457E+04  0.15738984457E+04  0.50400001928E-02 0.  1.
        1   -1    0    0  501    0  0.00000000000E+00  0.00000000000E+00 -0.11566925691E+04  0.11566925691E+04  0.50400001928E-02 0. -1.
    10030    2    1    2    0    0  0.00000000000E+00  0.00000000000E+00  0.41720587662E+03  0.27305910148E+04  0.26985304420E+04 0.  0.
        3    1    3    3  502    0  0.36875143463E+03 -0.46467757383E+03 -0.10176586692E+04  0.11779355014E+04  0.10100000352E+00 0. -1.
       -3    1    3    3    0  502 -0.36875143463E+03  0.46467757383E+03  0.14348645458E+04  0.15526555134E+04  0.10100000352E+00 0.  1.
</event>
<event>
 5   0  0.7838364E-06  0.2697626E+04  0.7818609E-02  0.8335776E-01
        2   -1    0    0  501    0  0.00000000000E+00  0.00000000000E+00  0.16380681120E+04  0.16380681120E+04  0.25500000920E-02 0.  1.
       -2   -1    0    0    0  501  0.00000000000E+00  0.00000000000E+00 -0.11106351184E+04  0.11106351184E+04  0.25500000920E-02 0. -1.
    10030    2    1    2    0    0  0.00000000000E+00  0.00000000000E+00  0.52743299354E+03  0.27487032304E+04  0.26976256016E+04 0.  0.
        2    1    3    3  502    0  0.22326469243E+03 -0.34069938144E+03 -0.10464653265E+04  0.11229482940E+04  0.25500000920E-02 0. -1.
       -2    1    3    3    0  502 -0.22326469243E+03  0.34069938144E+03  0.15738983201E+04  0.16257549364E+04  0.25500000920E-02 0.  1.
</event>
<event>
 5   0  0.7838364E-06  0.2683005E+04  0.7818609E-02  0.8340540E-01
       -2   -1    0    0    0  501  0.00000000000E+00  0.00000000000E+00  0.13486005099E+04  0.13486005099E+04  0.25500000920E-02 0. -1.
        2   -1    0    0  501    0  0.00000000000E+00  0.00000000000E+00 -0.13344418955E+04  0.13344418955E+04  0.25500000920E-02 0.  1.
    10030    2    1    2    0    0  0.00000000000E+00  0.00000000000E+00  0.14158614408E+02  0.26830424054E+04  0.26830050471E+04 0.  0.
        2    1    3    3  502    0  0.40279253005E+03  0.57926441030E+03 -0.11339185874E+04  0.13355000719E+04  0.25500000920E-02 0.  1.
       -2    1    3    3    0  502 -0.40279253005E+03 -0.57926441030E+03  0.11480772018E+04  0.13475423335E+04  0.25500000920E-02 0. -1.
</event>
<event>
 5   0  0.7729970E-06  0.2714006E+04  0.7818609E-02  0.8330475E-01
       -2   -1    0    0    0  501  0.00000000000E+00  0.00000000000E+00  0.11017240650E+04  0.11017240650E+04  0.25500000920E-02 0. -1.
        2   -1    0    0  501    0  0.00000000000E+00  0.00000000000E+00 -0.16714319698E+04  0.16714319698E+04  0.25500000920E-02 0.  1.
    10030    2    1    2    0    0  0.00000000000E+00  0.00000000000E+00 -0.56970790483E+03  0.27731560348E+04  0.27140057657E+04 0.  0.
        4    1    3    3  502    0 -0.81797154010E+03 -0.24976401748E+03  0.79167122103E+03  0.11654202847E+04  0.12699999809E+01 0. -1.
       -4    1    3    3    0  502  0.81797154010E+03  0.24976401748E+03 -0.13613791259E+04  0.16077357501E+04  0.12699999809E+01 0.  1.
</event>
<event>
 5   0  0.2654625E-06  0.2686643E+04  0.7818609E-02  0.8339352E-01
       -3   -1    0    0    0  501  0.00000000000E+00  0.00000000000E+00  0.13778403370E+04  0.13778403407E+04  0.10100000352E+00 0. -1.
        3   -1    0    0  501    0  0.00000000000E+00  0.00000000000E+00 -0.13096670025E+04  0.13096670064E+04  0.10100000352E+00 0.  1.
    10030    2    1    2    0    0  0.00000000000E+00  0.00000000000E+00  0.68173334532E+02  0.26875073472E+04  0.26866425400E+04 0.  0.
        3    1    3    3  502    0 -0.10210464499E+04  0.50914557350E+03 -0.67518808081E+03  0.13257616764E+04  0.10100000352E+00 0.  1.
       -3    1    3    3    0  502  0.10210464499E+04 -0.50914557350E+03  0.74336141535E+03  0.13617456708E+04  0.10100000352E+00 0. -1.
</event>
<event>
 5   0  0.3028601E-06  0.2719360E+04  0.7818609E-02  0.8328751E-01
        1   -1    0    0  501    0  0.00000000000E+00  0.00000000000E+00  0.16910259828E+04  0.16910259828E+04  0.50400001928E-02 0. -1.
       -1   -1    0    0    0  501  0.00000000000E+00  0.00000000000E+00 -0.10932589968E+04  0.10932589968E+04  0.50400001928E-02 0.  1.
    10030    2    1    2    0    0  0.00000000000E+00  0.00000000000E+00  0.59776698600E+03  0.27842849795E+04  0.27193597551E+04 0.  0.
        3    1    3    3  502    0  0.34046085637E+03 -0.12833636718E+04  0.59878184941E+03  0.14565286205E+04  0.10100000352E+00 0.  1.
       -3    1    3    3    0  502 -0.34046085637E+03  0.12833636718E+04 -0.10148634059E+01  0.13277563591E+04  0.10100000352E+00 0. -1.
</event>
<event>
 5   0  0.3013407E-06  0.2580642E+04  0.7818609E-02  0.8374807E-01
       -1   -1    0    0    0  501  0.00000000000E+00  0.00000000000E+00  0.82607524821E+03  0.82607524822E+03  0.50400001928E-02 0.  1.
        1   -1    0    0  501    0  0.00000000000E+00  0.00000000000E+00 -0.20154679963E+04  0.20154679963E+04  0.50400001928E-02 0. -1.
    10030    2    1    2    0    0  0.00000000000E+00  0.00000000000E+00 -0.11893927481E+04  0.28415432445E+04  0.25806419553E+04 0.  0.
        4    1    3    3  502    0 -0.10713240251E+04 -0.68667098494E+03 -0.35937414056E+03  0.13222721331E+04  0.12699999809E+01 0.  1.
       -4    1    3    3    0  502  0.10713240251E+04  0.68667098494E+03 -0.83001860751E+03  0.15192711114E+04  0.12699999809E+01 0. -1.
</event>
<event>
 5   0  0.7812908E-06  0.2681775E+04  0.7818609E-02  0.8340943E-01
       -2   -1    0    0    0  501  0.00000000000E+00  0.00000000000E+00  0.12973260319E+04  0.12973260319E+04  0.25500000920E-02 0. -1.
        2   -1    0    0  501    0  0.00000000000E+00  0.00000000000E+00 -0.13859114546E+04  0.13859114546E+04  0.25500000920E-02 0.  1.
    10030    2    1    2    0    0  0.00000000000E+00  0.00000000000E+00 -0.88585422672E+02  0.26832374865E+04  0.26817747915E+04 0.  0.
        5    1    3    3  502    0 -0.72330832141E+03  0.81182334024E+03 -0.82940206397E+03  0.13675386420E+04  0.46999998093E+01 0.  1.
       -5    1    3    3    0  502  0.72330832141E+03 -0.81182334024E+03  0.74081664130E+03  0.13156988446E+04  0.46999998093E+01 0. -1.
</event>
<event>
 5   0  0.3089218E-06  0.2677441E+04  0.7818609E-02  0.8342362E-01
        1   -1    0    0  501    0  0.00000000000E+00  0.00000000000E+00  0.11026850877E+04  0.11026850877E+04  0.50400001928E-02 0.  1.
       -1   -1    0    0    0  501  0.00000000000E+00  0.00000000000E+00 -0.16252800887E+04  0.16252800887E+04  0.50400001928E-02 0. -1.
    10030    2    1    2    0    0  0.00000000000E+00  0.00000000000E+00 -0.52259500093E+03  0.27279651764E+04  0.26774406564E+04 0.  0.
        5    1    3    3  502    0 -0.44292942135E+03  0.12439332338E+04 -0.36697995463E+02  0.13209561671E+04  0.46999998093E+01 0. -1.
       -5    1    3    3    0  502  0.44292942135E+03 -0.12439332338E+04 -0.48589700547E+03  0.14070090093E+04  0.46999998093E+01 0.  1.
</event>
<event>
 5   0  0.3046300E-06  0.2689778E+04  0.7818609E-02  0.8338329E-01
        1   -1    0    0  501    0  0.00000000000E+00  0.00000000000E+00  0.11291788731E+04  0.11291788731E+04  0.50400001928E-02 0. -1.
       -1   -1    0    0    0  501  0.00000000000E+00  0.00000000000E+00 -0.16018073380E+04  0.16018073380E+04  0.50400001928E-02 0.  1.
    10030    2    1    2    0    0  0.00000000000E+00  0.00000000000E+00 -0.47262846486E+03  0.27309862111E+04  0.26897784332E+04 0.  0.
        2    1    3    3  502    0  0.84960462345E+03  0.81420361669E+03 -0.89742055599E+03  0.14799051321E+04  0.25500000920E-02 0.  1.
       -2    1    3    3    0  502 -0.84960462345E+03 -0.81420361669E+03  0.42479209113E+03  0.12510810790E+04  0.25500000920E-02 0. -1.
</event>
<event>
 5   0  0.8213334E-06  0.2699720E+04  0.7818609E-02  0.8335096E-01
       -2   -1    0    0    0  501  0.00000000000E+00  0.00000000000E+00  0.13270812327E+04  0.13270812327E+04  0.25500000920E-02 0.  1.
        2   -1    0    0  501    0  0.00000000000E+00  0.00000000000E+00 -0.13730298138E+04  0.13730298138E+04  0.25500000920E-02 0. -1.
    10030    2    1    2    0    0  0.00000000000E+00  0.00000000000E+00 -0.45948581088E+02  0.27001110464E+04  0.26997200579E+04 0.  0.
        3    1    3    3  502    0  0.48905974405E+03  0.26987790944E+03 -0.12520170094E+04  0.13709705034E+04  0.10100000352E+00 0. -1.
       -3    1    3    3    0  502 -0.48905974405E+03 -0.26987790944E+03  0.12060684283E+04  0.13291405430E+04  0.10100000352E+00 0.  1.
</event>
<event>
 5   0  0.3028601E-06  0.2685116E+04  0.7818609E-02  0.8339850E-01
        1   -1    0    0  501    0  0.00000000000E+00  0.00000000000E+00  0.10250853384E+04  0.10250853384E+04  0.50400001928E-02 0. -1.
       -1   -1    0    0    0  501  0.00000000000E+00  0.00000000000E+00 -0.17583530957E+04  0.17583530957E+04  0.50400001928E-02 0.  1.
    10030    2    1    2    0    0  0.00000000000E+00  0.00000000000E+00 -0.73326775727E+03  0.27834384341E+04  0.26851159961E+04 0.  0.
        3    1    3    3  502    0 -0.88498955643E+03 -0.85548964643E+03 -0.92235461014E+03  0.15381180342E+04  0.10100000352E+00 0.  1.
       -3    1    3    3    0  502  0.88498955643E+03  0.85548964643E+03  0.18908685287E+03  0.12453203998E+04  0.10100000352E+00 0. -1.
</event>
<event>
 5   0  0.3028601E-06  0.2722460E+04  0.7818609E-02  0.8327754E-01
       -1   -1    0    0    0  501  0.00000000000E+00  0.00000000000E+00  0.11251660218E+04  0.11251660218E+04  0.50400001928E-02 0.  1.
        1   -1    0    0  501    0  0.00000000000E+00  0.00000000000E+00 -0.16468214963E+04  0.16468214963E+04  0.50400001928E-02 0. -1.
    10030    2    1    2    0    0  0.00000000000E+00  0.00000000000E+00 -0.52165547450E+03  0.27719875181E+04  0.27224603516E+04 0.  0.
        3    1    3    3  502    0  0.82439342164E+03  0.38028737694E+02  0.84139838730E+03  0.11785677558E+04  0.10100000352E+00 0.  1.
       -3    1    3    3    0  502 -0.82439342164E+03 -0.38028737694E+02 -0.13630538618E+04  0.15934197623E+04  0.10100000352E+00 0. -1.
</event>
<event>
 5   0  0.3028601E-06  0.2669175E+04  0.7818609E-02  0.8345077E-01
        1   -1    0    0  501    0  0.00000000000E+00  0.00000000000E+00  0.16698158849E+04  0.16698158849E+04  0.50400001928E-02 0.  1.
       -1   -1    0    0    0  501  0.00000000000E+00  0.00000000000E+00 -0.10666584977E+04  0.10666584977E+04  0.50400001928E-02 0. -1.
    10030    2    1    2    0    0  0.00000000000E+00  0.00000000000E+00  0.60315738724E+03  0.27364743826E+04  0.26691746314E+04 0.  0.
        3    1    3    3  502    0 -0.63115444278E+03  0.21563374211E+03 -0.88353882612E+03  0.11070206452E+04  0.10100000352E+00 0. -1.
       -3    1    3    3    0  502  0.63115444278E+03 -0.21563374211E+03  0.14866962134E+04  0.16294537374E+04  0.10100000352E+00 0.  1.
</event>
<event>
 5   0  0.3046300E-06  0.2727769E+04  0.7818609E-02  0.8326051E-01
       -1   -1    0    0    0  501  0.00000000000E+00  0.00000000000E+00  0.10239544552E+04  0.10239544552E+04  0.50400001928E-02 0.  1.
        1   -1    0    0  501    0  0.00000000000E+00  0.00000000000E+00 -0.18166636585E+04  0.18166636585E+04  0.50400001928E-02 0. -1.
    10030    2    1    2    0    0  0.00000000000E+00  0.00000000000E+00 -0.79270920338E+03  0.28406181137E+04  0.27277689394E+04 0.  0.
        2    1    3    3  502    0  0.91619990017E+03  0.82322027924E+03  0.21359607892E+03  0.12500948645E+04  0.25500000920E-02 0.  1.
       -2    1    3    3    0  502 -0.91619990017E+03 -0.82322027924E+03 -0.10063052823E+04  0.15905232492E+04  0.25500000920E-02 0. -1.
</event>
<event>
 5   0  0.3013407E-06  0.2700933E+04  0.7818609E-02  0.8334702E-01
        1   -1    0    0  501    0  0.00000000000E+00  0.00000000000E+00  0.21075606350E+04  0.21075606350E+04  0.50400001928E-02 0.  1.
       -1   -1    0    0    0  501  0.00000000000E+00  0.00000000000E+00 -0.86534153215E+03  0.86534153217E+03  0.50400001928E-02 0. -1.
    10030    2    1    2    0    0  0.00000000000E+00  0.00000000000E+00  0.12422191029E+04  0.29729021672E+04  0.27009329862E+04 0.  0.
        4    1    3    3  502    0  0.12151238819E+04 -0.48571666966E+03  0.98833827240E+03  0.16398966081E+04  0.12699999809E+01 0.  1.
       -4    1    3    3    0  502 -0.12151238819E+04  0.48571666966E+03  0.25388083047E+03  0.13330055591E+04  0.12699999809E+01 0. -1.
</event>
<event>
 5   0  0.3013407E-06  0.2574049E+04  0.7818609E-02  0.8377070E-01
       -1   -1    0    0    0  501  0.00000000000E+00  0.00000000000E+00  0.81895797088E+03  0.81895797089E+03  0.50400001928E-02 0.  1.
        1   -1    0    0  501    0  0.00000000000E+00  0.00000000000E+00 -0.20226099043E+04  0.20226099044E+04  0.50400001928E-02 0. -1.
    10030    2    1    2    0    0  0.00000000000E+00  0.00000000000E+00 -0.12036519335E+04  0.28415678752E+04  0.25740493415E+04 0.  0.
        4    1    3    3  502    0  0.60129379787E+03 -0.10464873761E+04 -0.10845386018E+03  0.12117978018E+04  0.12699999809E+01 0. -1.
       -4    1    3    3    0  502 -0.60129379787E+03  0.10464873761E+04 -0.10951980733E+04  0.16297700735E+04  0.12699999809E+01 0.  1.
</event>
<event>
 5   0  0.8213334E-06  0.2753924E+04  0.7818609E-02  0.8317717E-01
        2   -1    0    0  501    0  0.00000000000E+00  0.00000000000E+00  0.13496001706E+04  0.13496001707E+04  0.25500000920E-02 0.  1.
       -2   -1    0    0    0  501  0.00000000000E+00  0.00000000000E+00 -0.14048788745E+04  0.14048788745E+04  0.25500000920E-02 0. -1.
    10030    2    1    2    0    0  0.00000000000E+00  0.00000000000E+00 -0.55278703841E+02  0.27544790451E+04  0.27539243045E+04 0.  0.
        3    1    3    3  502    0  0.68456529986E+03 -0.98932123783E+03  0.64230046602E+03  0.13637947280E+04  0.10100000352E+00 0.  1.
       -3    1    3    3    0  502 -0.68456529986E+03  0.98932123783E+03 -0.69757916986E+03  0.13906843171E+04  0.10100000352E+00 0. -1.
</event>
<event>
 5   0  0.7729970E-06  0.2700098E+04  0.7818609E-02  0.8334973E-01
       -2   -1    0    0    0  501  0.00000000000E+00  0.00000000000E+00  0.12005197287E+04  0.12005197287E+04  0.25500000920E-02 0.  1.
        2   -1    0    0  501    0  0.00000000000E+00  0.00000000000E+00 -0.15182022984E+04  0.15182022984E+04  0.25500000920E-02 0. -1.
    10030    2    1    2    0    0  0.00000000000E+00  0.00000000000E+00 -0.31768256974E+03  0.27187220272E+04  0.27000976364E+04 0.  0.
        4    1    3    3  502    0  0.48926993308E+03 -0.93119573221E+03 -0.10109168855E+04  0.14589260164E+04  0.12699999809E+01 0. -1.
       -4    1    3    3    0  502 -0.48926993308E+03  0.93119573221E+03  0.69323431581E+03  0.12597960107E+04  0.12699999809E+01 0.  1.
</event>
<event>
 5   0  0.7729970E-06  0.2713407E+04  0.7818609E-02  0.8330668E-01
        2   -1    0    0  501    0  0.00000000000E+00  0.00000000000E+00  0.20567317182E+04  0.20567317182E+04  0.25500000920E-02 0. -1.
       -2   -1    0    0    0  501  0.00000000000E+00  0.00000000000E+00 -0.89493654071E+03  0.89493654071E+03  0.25500000920E-02 0.  1.
    10030    2    1    2    0    0  0.00000000000E+00  0.00000000000E+00  0.11617951774E+04  0.29516682589E+04  0.27134069868E+04 0.  0.
        4    1    3    3  502    0 -0.67929640456E+03  0.26933052678E+03  0.18243636625E+04  0.19652701911E+04  0.12699999809E+01 0.  1.
       -4    1    3    3    0  502  0.67929640456E+03 -0.26933052678E+03 -0.66256848505E+03  0.98639806781E+03  0.12699999809E+01 0. -1.
</event>
<event>
 5   0  0.3089218E-06  0.2715924E+04  0.7818609E-02  0.8329857E-01
        1   -1    0    0  501    0  0.00000000000E+00  0.00000000000E+00  0.20769704588E+04  0.20769704588E+04  0.50400001928E-02 0. -1.
       -1   -1    0    0    0  501  0.00000000000E+00  0.00000000000E+00 -0.88786083921E+03  0.88786083922E+03  0.50400001928E-02 0.  1.
    10030    2    1    2    0    0  0.00000000000E+00  0.00000000000E+00  0.11891096196E+04  0.29648312981E+04  0.27159239567E+04 0.  0.
        5    1    3    3  502    0 -0.30820853937E+02 -0.53964340415E+03  0.19544660689E+04  0.20278374277E+04  0.46999998093E+01 0. -1.
       -5    1    3    3    0  502  0.30820853937E+02  0.53964340415E+03 -0.76535644927E+03  0.93699387037E+03  0.46999998093E+01 0.  1.
</event>
<event>
 5   0  0.3028601E-06  0.2704288E+04  0.7818609E-02  0.8333615E-01
       -1   -1    0    0    0  501  0.00000000000E+00  0.00000000000E+00  0.10824310953E+04  0.10824310953E+04  0.50400001928E-02 0. -1.
        1   -1    0    0  501    0  0.00000000000E+00  0.00000000000E+00 -0.16890623444E+04  0.16890623444E+04  0.50400001928E-02 0.  1.
    10030    2    1    2    0    0  0.00000000000E+00  0.00000000000E+00 -0.60663124917E+03  0.27714934397E+04  0.27042881529E+04 0.  0.
        3    1    3    3  502    0 -0.12914703899E+04 -0.36653153591E+03 -0.46873456925E+03  0.14219540222E+04  0.10100000352E+00 0. -1.
       -3    1    3    3    0  502  0.12914703899E+04  0.36653153591E+03 -0.13789667992E+03  0.13495394175E+04  0.10100000352E+00 0.  1.
</event>
<event>
 5   0  0.7729970E-06  0.2693828E+04  0.7818609E-02  0.8337010E-01
        2   -1    0    0  501    0  0.00000000000E+00  0.00000000000E+00  0.25936118467E+04  0.25936118467E+04  0.25500000920E-02 0. -1.
       -2   -1    0    0    0  501  0.00000000000E+00  0.00000000000E+00 -0.69947903720E+03  0.69947903720E+03  0.25500000920E-02 0.  1.
    10030    2    1    2    0    0  0.00000000000E+00  0.00000000000E+00  0.18941328095E+04  0.32930908839E+04  0.26938278470E+04 0.  0.
        4    1    3    3  502    0 -0.10045181826E+04 -0.32723251408E+03 -0.74280528441E+02  0.10590831446E+04  0.12699999809E+01 0.  1.
       -4    1    3    3    0  502  0.10045181826E+04  0.32723251408E+03  0.19684133379E+04  0.22340077393E+04  0.12699999809E+01 0. -1.
</event>
<event>
 5   0  0.7812908E-06  0.2682729E+04  0.7818609E-02  0.8340631E-01
       -2   -1    0    0    0  501  0.00000000000E+00  0.00000000000E+00  0.94678962352E+03  0.94678962352E+03  0.25500000920E-02 0.  1.
        2   -1    0    0  501    0  0.00000000000E+00  0.00000000000E+00 -0.19003787519E+04  0.19003787519E+04  0.25500000920E-02 0. -1.
    10030    2    1    2    0    0  0.00000000000E+00  0.00000000000E+00 -0.95358912838E+03  0.28471683754E+04  0.26827291202E+04 0.  0.
        5    1    3    3  502    0 -0.93333561890E+03 -0.81951432312E+03  0.60725880911E+02  0.12435549147E+04  0.46999998093E+01 0.  1.
       -5    1    3    3    0  502  0.93333561890E+03  0.81951432312E+03 -0.10143150093E+04  0.16036134607E+04  0.46999998093E+01 0. -1.
</event>
<event>
 5   0  0.3089218E-06  0.2697678E+04  0.7818609E-02  0.8335759E-01
       -1   -1    0    0    0  501  0.00000000000E+00  0.00000000000E+00  0.14631593078E+04  0.14631593078E+04  0.50400001928E-02 0.  1.
        1   -1    0    0  501    0  0.00000000000E+00  0.00000000000E+00 -0.12434506563E+04  0.12434506563E+04  0.50400001928E-02 0. -1.
    10030    2    1    2    0    0  0.00000000000E+00  0.00000000000E+00  0.21970865154E+03  0.27066099641E+04  0.26976778173E+04 0.  0.
        5    1    3    3  502    0  0.10017326203E+04  0.37600123391E+03  0.93385258828E+03  0.14201929155E+04  0.46999998093E+01 0.  1.
       -5    1    3    3    0  502 -0.10017326203E+04 -0.37600123391E+03 -0.71414393674E+03  0.12864170486E+04  0.46999998093E+01 0. -1.
</event>
<event>
 5   0  0.3028601E-06  0.2704756E+04  0.7818609E-02  0.8333463E-01
        1   -1    0    0  501    0  0.00000000000E+00  0.00000000000E+00  0.19408148259E+04  0.19408148259E+04  0.50400001928E-02 0.  1.
       -1   -1    0    0    0  501  0.00000000000E+00  0.00000000000E+00 -0.94234979332E+03  0.94234979333E+03  0.50400001928E-02 0. -1.
    10030    2    1    2    0    0  0.00000000000E+00  0.00000000000E+00  0.99846503254E+03  0.28831646192E+04  0.27047561443E+04 0.  0.
        3    1    3    3  502    0  0.90532505157E+02  0.13011455262E+04  0.88023064307E+03  0.15735252811E+04  0.10100000352E+00 0.  1.
       -3    1    3    3    0  502 -0.90532505157E+02 -0.13011455262E+04  0.11823438947E+03  0.13096393381E+04  0.10100000352E+00 0. -1.
</event>
<event>
 5   0  0.7838364E-06  0.2716845E+04  0.7818609E-02  0.8329560E-01
        2   -1    0    0  501    0  0.00000000000E+00  0.00000000000E+00  0.20478523955E+04  0.20478523955E+04  0.25500000920E-02 0. -1.
       -2   -1    0    0    0  501  0.00000000000E+00  0.00000000000E+00 -0.90109600172E+03  0.90109600172E+03  0.25500000920E-02 0.  1.
    10030    2    1    2    0    0  0.00000000000E+00  0.00000000000E+00  0.11467563938E+04  0.29489483972E+04  0.27168449390E+04 0.  0.
        2    1    3    3  502    0  0.11125278913E+04  0.23205799723E+03 -0.23433318607E+03  0.11603797934E+04  0.25500000920E-02 0.  1.
       -2    1    3    3    0  502 -0.11125278913E+04 -0.23205799723E+03  0.13810895798E+04  0.17885686038E+04  0.25500000920E-02 0. -1.
</event>
<event>
 5   0  0.7812908E-06  0.2690640E+04  0.7818609E-02  0.8338048E-01
       -2   -1    0    0    0  501  0.00000000000E+00  0.00000000000E+00  0.19948629212E+04  0.19948629212E+04  0.25500000920E-02 0. -1.
        2   -1    0    0  501    0  0.00000000000E+00  0.00000000000E+00 -0.90727318193E+03  0.90727318193E+03  0.25500000920E-02 0.  1.
    10030    2    1    2    0    0  0.00000000000E+00  0.00000000000E+00  0.10875897392E+04  0.29021361031E+04  0.26906397975E+04 0.  0.
        5    1    3    3  502    0  0.35907596483E+02 -0.12680135383E+04  0.60565802422E+02  0.12699755884E+04  0.46999998093E+01 0.  1.
       -5    1    3    3    0  502 -0.35907596483E+02  0.12680135383E+04  0.10270239368E+04  0.16321605147E+04  0.46999998093E+01 0. -1.
</event>
<event>
 5   0  0.8407622E-06  0.2621599E+04  0.7818609E-02  0.8360901E-01
        2   -1    0    0  501    0  0.00000000000E+00  0.00000000000E+00  0.17756119067E+04  0.17756119067E+04  0.25500000920E-02 0. -1.
       -2   -1    0    0    0  501  0.00000000000E+00  0.00000000000E+00 -0.96766393095E+03  0.96766393096E+03  0.25500000920E-02 0.  1.
    10030    2    1    2    0    0  0.00000000000E+00  0.00000000000E+00  0.80794797574E+03  0.27432758377E+04  0.26215992047E+04 0.  0.
        1    1    3    3  502    0 -0.48352796154E+03 -0.12147734001E+04  0.30624833257E+03  0.13428558167E+04  0.50400001928E-02 0.  1.
       -1    1    3    3    0  502  0.48352796154E+03  0.12147734001E+04  0.50169964317E+03  0.14004200210E+04  0.50400001928E-02 0. -1.
</event>
<event>
 5   0  0.7729970E-06  0.2701198E+04  0.7818609E-02  0.8334616E-01
       -2   -1    0    0    0  501  0.00000000000E+00  0.00000000000E+00  0.77264646646E+03  0.77264646646E+03  0.25500000920E-02 0.  1.
        2   -1    0    0  501    0  0.00000000000E+00  0.00000000000E+00 -0.23608693854E+04  0.23608693854E+04  0.25500000920E-02 0. -1.
    10030    2    1    2    0    0  0.00000000000E+00  0.00000000000E+00 -0.15882229190E+04  0.31335158519E+04  0.27011977998E+04 0.  0.
        4    1    3    3  502    0 -0.39442740365E+01  0.60158143859E+03  0.60863408262E+03  0.85577616464E+03  0.12699999809E+01 0.  1.
       -4    1    3    3    0  502  0.39442740365E+01 -0.60158143859E+03 -0.21968570016E+04  0.22777396872E+04  0.12699999809E+01 0. -1.
</event>
<event>
 5   0  0.7812908E-06  0.2693164E+04  0.7818609E-02  0.8337227E-01
       -2   -1    0    0    0  501  0.00000000000E+00  0.00000000000E+00  0.10400794235E+04  0.10400794235E+04  0.25500000920E-02 0.  1.
        2   -1    0    0  501    0  0.00000000000E+00  0.00000000000E+00 -0.17434078514E+04  0.17434078514E+04  0.25500000920E-02 0. -1.
    10030    2    1    2    0    0  0.00000000000E+00  0.00000000000E+00 -0.70332842795E+03  0.27834872749E+04  0.26931636660E+04 0.  0.
        5    1    3    3  502    0 -0.75546231308E+03  0.96048874390E+02  0.79612713139E+03  0.11017210137E+04  0.46999998093E+01 0.  1.
       -5    1    3    3    0  502  0.75546231308E+03 -0.96048874390E+02 -0.14994555593E+04  0.16817662612E+04  0.46999998093E+01 0. -1.
</event>
<event>
 5   0  0.8213334E-06  0.2612206E+04  0.7818609E-02  0.8364067E-01
        2   -1    0    0  501    0  0.00000000000E+00  0.00000000000E+00  0.18661190704E+04  0.18661190704E+04  0.25500000920E-02 0.  1.
       -2   -1    0    0    0  501  0.00000000000E+00  0.00000000000E+00 -0.91414588382E+03  0.91414588382E+03  0.25500000920E-02 0. -1.
    10030    2    1    2    0    0  0.00000000000E+00  0.00000000000E+00  0.95197318655E+03  0.27802649542E+04  0.26122060155E+04 0.  0.
        3    1    3    3  502    0  0.41712545149E+03  0.28389733699E+03 -0.80622414601E+03  0.95109869312E+03  0.10100000352E+00 0. -1.
       -3    1    3    3    0  502 -0.41712545149E+03 -0.28389733699E+03  0.17581973326E+04  0.18291662611E+04  0.10100000352E+00 0.  1.
</event>
<event>
 5   0  0.3013407E-06  0.2678724E+04  0.7818609E-02  0.8341942E-01
       -1   -1    0    0    0  501  0.00000000000E+00  0.00000000000E+00  0.97523488103E+03  0.97523488104E+03  0.50400001928E-02 0. -1.
        1   -1    0    0  501    0  0.00000000000E+00  0.00000000000E+00 -0.18394440365E+04  0.18394440365E+04  0.50400001928E-02 0.  1.
    10030    2    1    2    0    0  0.00000000000E+00  0.00000000000E+00 -0.86420915548E+03  0.28146789176E+04  0.26787235663E+04 0.  0.
        4    1    3    3  502    0 -0.30368118850E+03  0.11479188307E+04  0.21898003360E+03  0.12074327204E+04  0.12699999809E+01 0. -1.
       -4    1    3    3    0  502  0.30368118850E+03 -0.11479188307E+04 -0.10831891891E+04  0.16072461972E+04  0.12699999809E+01 0.  1.
</event>
<event>
 5   0  0.7812908E-06  0.2689340E+04  0.7818609E-02  0.8338472E-01
       -2   -1    0    0    0  501  0.00000000000E+00  0.00000000000E+00  0.96472317840E+03  0.96472317840E+03  0.25500000920E-02 0.  1.
        2   -1    0    0  501    0  0.00000000000E+00  0.00000000000E+00 -0.18742546884E+04  0.18742546884E+04  0.25500000920E-02 0. -1.
    10030    2    1    2    0    0  0.00000000000E+00  0.00000000000E+00 -0.90953150999E+03  0.28389778668E+04  0.26893396514E+04 0.  0.
        5    1    3    3  502    0 -0.34955173695E+03  0.12835610964E+04 -0.66162658373E+03  0.14857615325E+04  0.46999998093E+01 0. -1.
       -5    1    3    3    0  502  0.34955173695E+03 -0.12835610964E+04 -0.24790492626E+03  0.13532163343E+04  0.46999998093E+01 0.  1.
</event>
<event>
 5   0  0.3089218E-06  0.2692818E+04  0.7818609E-02  0.8337339E-01
        1   -1    0    0  501    0  0.00000000000E+00  0.00000000000E+00  0.19946138992E+04  0.19946138992E+04  0.50400001928E-02 0. -1.
       -1   -1    0    0    0  501  0.00000000000E+00  0.00000000000E+00 -0.90885610902E+03  0.90885610903E+03  0.50400001928E-02 0.  1.
    10030    2    1    2    0    0  0.00000000000E+00  0.00000000000E+00  0.10857577901E+04  0.29034700082E+04  0.26928178753E+04 0.  0.
        5    1    3    3  502    0 -0.55584701907E+03 -0.85820748647E+03  0.14873648228E+04  0.18049272020E+04  0.46999998093E+01 0. -1.
       -5    1    3    3    0  502  0.55584701907E+03  0.85820748647E+03 -0.40160703263E+03  0.10985428062E+04  0.46999998093E+01 0.  1.
</event>
<event>
 5   0  0.3089218E-06  0.2669808E+04  0.7818609E-02  0.8344868E-01
       -1   -1    0    0    0  501  0.00000000000E+00  0.00000000000E+00  0.12648256301E+04  0.12648256301E+04  0.50400001928E-02 0. -1.
        1   -1    0    0  501    0  0.00000000000E+00  0.00000000000E+00 -0.14088648359E+04  0.14088648359E+04  0.50400001928E-02 0.  1.
    10030    2    1    2    0    0  0.00000000000E+00  0.00000000000E+00 -0.14403920574E+03  0.26736904660E+04  0.26698077487E+04 0.  0.
        5    1    3    3  502    0  0.24268031167E+03 -0.13066621997E+04 -0.19744721163E+03  0.13436023701E+04  0.46999998093E+01 0.  1.
       -5    1    3    3    0  502 -0.24268031167E+03  0.13066621997E+04  0.53408005897E+02  0.13300880959E+04  0.46999998093E+01 0. -1.
</event>
<event>
 5   0  0.3089218E-06  0.2687364E+04  0.7818609E-02  0.8339116E-01
       -1   -1    0    0    0  501  0.00000000000E+00  0.00000000000E+00  0.15225616848E+04  0.15225616848E+04  0.50400001928E-02 0. -1.
        1   -1    0    0  501    0  0.00000000000E+00  0.00000000000E+00 -0.11858185156E+04  0.11858185156E+04  0.50400001928E-02 0.  1.
    10030    2    1    2    0    0  0.00000000000E+00  0.00000000000E+00  0.33674316922E+03  0.27083802004E+04  0.26873643869E+04 0.  0.
        5    1    3    3  502    0 -0.64383561621E+03 -0.72553556672E+03 -0.76870267388E+03  0.12376801082E+04  0.46999998093E+01 0.  1.
       -5    1    3    3    0  502  0.64383561621E+03  0.72553556672E+03  0.11054458431E+04  0.14707000922E+04  0.46999998093E+01 0. -1.
</event>
<event>
 5   0  0.3199840E-06  0.2710870E+04  0.7818609E-02  0.8331487E-01
        1   -1    0    0  501    0  0.00000000000E+00  0.00000000000E+00  0.11301473130E+04  0.11301473130E+04  0.50400001928E-02 0.  1.
       -1   -1    0    0    0  501  0.00000000000E+00  0.00000000000E+00 -0.16256323443E+04  0.16256323444E+04  0.50400001928E-02 0. -1.
    10030    2    1    2    0    0  0.00000000000E+00  0.00000000000E+00 -0.49548503139E+03  0.27557796573E+04  0.27108699901E+04 0.  0.
        1    1    3    3  502    0 -0.61746362009E+03 -0.11724725034E+04 -0.53751021770E+03  0.14299896250E+04  0.50400001928E-02 0. -1.
       -1    1    3    3    0  502  0.61746362009E+03  0.11724725034E+04  0.42025186310E+02  0.13257900323E+04  0.50400001928E-02 0.  1.
</event>
<event>
 5   0  0.8213334E-06  0.2722336E+04  0.7818609E-02  0.8327794E-01
        2   -1    0    0  501    0  0.00000000000E+00  0.00000000000E+00  0.18165694569E+04  0.18165694569E+04  0.25500000920E-02 0. -1.
       -2   -1    0    0    0  501  0.00000000000E+00  0.00000000000E+00 -0.10199329159E+04  0.10199329159E+04  0.25500000920E-02 0.  1.
    10030    2    1    2    0    0  0.00000000000E+00  0.00000000000E+00  0.79663654100E+03  0.28365023728E+04  0.27223364840E+04 0.  0.
        3    1    3    3  502    0 -0.12935414836E+04 -0.42062460373E+03  0.34514532930E+03  0.14033174749E+04  0.10100000352E+00 0.  1.
       -3    1    3    3    0  502  0.12935414836E+04  0.42062460373E+03  0.45149121169E+03  0.14331848978E+04  0.10100000352E+00 0. -1.
</event>
<event>
 5   0  0.3046300E-06  0.2685183E+04  0.7818609E-02  0.8339828E-01
       -1   -1    0    0    0  501  0.00000000000E+00  0.00000000000E+00  0.11919693780E+04  0.11919693780E+04  0.50400001928E-02 0.  1.
        1   -1    0    0  501    0  0.00000000000E+00  0.00000000000E+00 -0.15122473327E+04  0.15122473327E+04  0.50400001928E-02 0. -1.
    10030    2    1    2    0    0  0.00000000000E+00  0.00000000000E+00 -0.32027795474E+03  0.27042167107E+04  0.26851834295E+04 0.  0.
        2    1    3    3  502    0 -0.75191024088E+02  0.41109591044E+03  0.11247963175E+04  0.11999251200E+04  0.25500000920E-02 0.  1.
       -2    1    3    3    0  502  0.75191024088E+02 -0.41109591044E+03 -0.14450742722E+04  0.15042915907E+04  0.25500000920E-02 0. -1.
</event>
<event>
 5   0  0.3013407E-06  0.2701626E+04  0.7818609E-02  0.8334478E-01
        1   -1    0    0  501    0  0.00000000000E+00  0.00000000000E+00  0.15791553072E+04  0.15791553072E+04  0.50400001928E-02 0.  1.
       -1   -1    0    0    0  501  0.00000000000E+00  0.00000000000E+00 -0.11554883770E+04  0.11554883770E+04  0.50400001928E-02 0. -1.
    10030    2    1    2    0    0  0.00000000000E+00  0.00000000000E+00  0.42366693024E+03  0.27346436842E+04  0.27016258830E+04 0.  0.
        4    1    3    3  502    0  0.11565552108E+03 -0.41222743057E+03 -0.10849902549E+04  0.11664103567E+04  0.12699999809E+01 0. -1.
       -4    1    3    3    0  502 -0.11565552108E+03  0.41222743057E+03  0.15086571852E+04  0.15682333275E+04  0.12699999809E+01 0.  1.
</event>
<event>
 5   0  0.7838364E-06  0.2674954E+04  0.7818609E-02  0.8343177E-01
        2   -1    0    0  501    0  0.00000000000E+00  0.00000000000E+00  0.11992248907E+04  0.11992248907E+04  0.25500000920E-02 0. -1.
       -2   -1    0    0    0  501  0.00000000000E+00  0.00000000000E+00 -0.14916677610E+04  0.14916677610E+04  0.25500000920E-02 0.  1.
    10030    2    1    2    0    0  0.00000000000E+00  0.00000000000E+00 -0.29244287028E+03  0.26908926517E+04  0.26749542857E+04 0.  0.
        2    1    3    3  502    0  0.85088840622E+03  0.69572030622E+03 -0.91286948479E+03  0.14287646834E+04  0.25500000920E-02 0.  1.
       -2    1    3    3    0  502 -0.85088840622E+03 -0.69572030622E+03  0.62042661451E+03  0.12621279683E+04  0.25500000920E-02 0. -1.
</event>
<event>
 5   0  0.7838364E-06  0.2773361E+04  0.7818609E-02  0.8311587E-01
        2   -1    0    0  501    0  0.00000000000E+00  0.00000000000E+00  0.11625800638E+04  0.11625800638E+04  0.25500000920E-02 0.  1.
       -2   -1    0    0    0  501  0.00000000000E+00  0.00000000000E+00 -0.16539787931E+04  0.16539787931E+04  0.25500000920E-02 0. -1.
    10030    2    1    2    0    0  0.00000000000E+00  0.00000000000E+00 -0.49139872929E+03  0.28165588570E+04  0.27733609725E+04 0.  0.
        2    1    3    3  502    0  0.55584634109E+03  0.10116813106E+04 -0.10260547380E+04  0.15444262865E+04  0.25500000920E-02 0. -1.
       -2    1    3    3    0  502 -0.55584634109E+03 -0.10116813106E+04  0.53465600867E+03  0.12721325704E+04  0.25500000920E-02 0.  1.
</event>
<event>
 5   0  0.3199840E-06  0.2641780E+04  0.7818609E-02  0.8354147E-01
        1   -1    0    0  501    0  0.00000000000E+00  0.00000000000E+00  0.10264643310E+04  0.10264643310E+04  0.50400001928E-02 0.  1.
       -1   -1    0    0    0  501  0.00000000000E+00  0.00000000000E+00 -0.16997665630E+04  0.16997665630E+04  0.50400001928E-02 0. -1.
    10030    2    1    2    0    0  0.00000000000E+00  0.00000000000E+00 -0.67330223200E+03  0.27262308939E+04  0.26417795123E+04 0.  0.
        1    1    3    3  502    0  0.28460077707E+03  0.58099310573E+02 -0.16663991941E+04  0.16915257628E+04  0.50400001928E-02 0. -1.
       -1    1    3    3    0  502 -0.28460077707E+03 -0.58099310573E+02  0.99309696209E+03  0.10347051311E+04  0.50400001928E-02 0.  1.
</event>
<event>
 5   0  0.7812908E-06  0.2715820E+04  0.7818609E-02  0.8329890E-01
       -2   -1    0    0    0  501  0.00000000000E+00  0.00000000000E+00  0.11802389311E+04  0.11802389311E+04  0.25500000920E-02 0.  1.
        2   -1    0    0  501    0  0.00000000000E+00  0.00000000000E+00 -0.15623274809E+04  0.15623274809E+04  0.25500000920E-02 0. -1.
    10030    2    1    2    0    0  0.00000000000E+00  0.00000000000E+00 -0.38208854985E+03  0.27425664120E+04  0.27158201089E+04 0.  0.
        5    1    3    3  502    0 -0.38564568046E+03 -0.32907040099E+02 -0.15054355567E+04  0.15544014184E+04  0.46999998093E+01 0. -1.
       -5    1    3    3    0  502  0.38564568046E+03  0.32907040099E+02  0.11233470068E+04  0.11881649936E+04  0.46999998093E+01 0.  1.
</event>
<event>
 5   0  0.3028601E-06  0.2714646E+04  0.7818609E-02  0.8330269E-01
       -1   -1    0    0    0  501  0.00000000000E+00  0.00000000000E+00  0.12858412937E+04  0.12858412937E+04  0.50400001928E-02 0.  1.
        1   -1    0    0  501    0  0.00000000000E+00  0.00000000000E+00 -0.14327780428E+04  0.14327780428E+04  0.50400001928E-02 0. -1.
    10030    2    1    2    0    0  0.00000000000E+00  0.00000000000E+00 -0.14693674907E+03  0.27186193365E+04  0.27146455917E+04 0.  0.
        3    1    3    3  502    0  0.30128098724E+03  0.10506867168E+04  0.73245327904E+03  0.13157509742E+04  0.10100000352E+00 0.  1.
       -3    1    3    3    0  502 -0.30128098724E+03 -0.10506867168E+04 -0.87939002812E+03  0.14028683622E+04  0.10100000352E+00 0. -1.
</event>
<event>
 5   0  0.7729970E-06  0.2703475E+04  0.7818609E-02  0.8333878E-01
       -2   -1    0    0    0  501  0.00000000000E+00  0.00000000000E+00  0.92149419159E+03  0.92149419159E+03  0.25500000920E-02 0. -1.
        2   -1    0    0  501    0  0.00000000000E+00  0.00000000000E+00 -0.19828607799E+04  0.19828607799E+04  0.25500000920E-02 0.  1.
    10030    2    1    2    0    0  0.00000000000E+00  0.00000000000E+00 -0.10613665883E+04  0.29043549715E+04  0.27034753126E+04 0.  0.
        4    1    3    3  502    0 -0.91780535029E+02  0.15239602399E+03  0.90886227570E+03  0.92611039506E+03  0.12699999809E+01 0. -1.
       -4    1    3    3    0  502  0.91780535029E+02 -0.15239602399E+03 -0.19702288640E+04  0.19782445765E+04  0.12699999809E+01 0.  1.
</event>
<event>
 5   0  0.3046300E-06  0.2705524E+04  0.7818609E-02  0.8333215E-01
        1   -1    0    0  501    0  0.00000000000E+00  0.00000000000E+00  0.63242835663E+03  0.63242835665E+03  0.50400001928E-02 0.  1.
       -1   -1    0    0    0  501  0.00000000000E+00  0.00000000000E+00 -0.28935534584E+04  0.28935534584E+04  0.50400001928E-02 0. -1.
    10030    2    1    2    0    0  0.00000000000E+00  0.00000000000E+00 -0.22611251018E+04  0.35259818151E+04  0.27055241700E+04 0.  0.
        2    1    3    3  502    0  0.55559644941E+03  0.12189198122E+04 -0.88496825966E+03  0.16054973509E+04  0.25500000920E-02 0. -1.
       -2    1    3    3    0  502 -0.55559644941E+03 -0.12189198122E+04 -0.13761568421E+04  0.19204844642E+04  0.25500000920E-02 0.  1.
</event>
<event>
 5   0  0.3199840E-06  0.2485978E+04  0.7818609E-02  0.8407998E-01
       -1   -1    0    0    0  501  0.00000000000E+00  0.00000000000E+00  0.93104279686E+03  0.93104279687E+03  0.50400001928E-02 0.  1.
        1   -1    0    0  501    0  0.00000000000E+00  0.00000000000E+00 -0.16594528225E+04  0.16594528225E+04  0.50400001928E-02 0. -1.
    10030    2    1    2    0    0  0.00000000000E+00  0.00000000000E+00 -0.72841002564E+03  0.25904956194E+04  0.24859779542E+04 0.  0.
        1    1    3    3  502    0 -0.23069584063E+03  0.11135173877E+04 -0.88718187828E+03  0.14423013654E+04  0.50400001928E-02 0.  1.
       -1    1    3    3    0  502  0.23069584063E+03 -0.11135173877E+04  0.15877185264E+03  0.11481942539E+04  0.50400001928E-02 0. -1.
</event>
<event>
 5   0  0.3199840E-06  0.2669793E+04  0.7818609E-02  0.8344873E-01
       -1   -1    0    0    0  501  0.00000000000E+00  0.00000000000E+00  0.10259881198E+04  0.10259881198E+04  0.50400001928E-02 0. -1.
        1   -1    0    0  501    0  0.00000000000E+00  0.00000000000E+00 -0.17368117674E+04  0.17368117674E+04  0.50400001928E-02 0.  1.
    10030    2    1    2    0    0  0.00000000000E+00  0.00000000000E+00 -0.71082364755E+03  0.27627998872E+04  0.26697926809E+04 0.  0.
        1    1    3    3  502    0 -0.92970313821E+03 -0.78537502413E+03 -0.92295770888E+03  0.15274203043E+04  0.50400001928E-02 0.  1.
       -1    1    3    3    0  502  0.92970313821E+03  0.78537502413E+03  0.21213406133E+03  0.12353795828E+04  0.50400001928E-02 0. -1.
</event>
<event>
 5   0  0.3028601E-06  0.2691776E+04  0.7818609E-02  0.8337678E-01
       -1   -1    0    0    0  501  0.00000000000E+00  0.00000000000E+00  0.10665114519E+04  0.10665114519E+04  0.50400001928E-02 0. -1.
        1   -1    0    0  501    0  0.00000000000E+00  0.00000000000E+00 -0.16984479160E+04  0.16984479160E+04  0.50400001928E-02 0.  1.
    10030    2    1    2    0    0  0.00000000000E+00  0.00000000000E+00 -0.63193646411E+03  0.27649593680E+04  0.26917757358E+04 0.  0.
        3    1    3    3  502    0 -0.12121526699E+04 -0.53633717876E+03 -0.55564107235E+03  0.14372573451E+04  0.10100000352E+00 0. -1.
       -3    1    3    3    0  502  0.12121526699E+04  0.53633717876E+03 -0.76295391759E+02  0.13277020229E+04  0.10100000352E+00 0.  1.
</event>
<event>
 5   0  0.7729970E-06  0.2659026E+04  0.7818609E-02  0.8348423E-01
       -2   -1    0    0    0  501  0.00000000000E+00  0.00000000000E+00  0.11737190837E+04  0.11737190837E+04  0.25500000920E-02 0.  1.
        2   -1    0    0  501    0  0.00000000000E+00  0.00000000000E+00 -0.15059862053E+04  0.15059862053E+04  0.25500000920E-02 0. -1.
    10030    2    1    2    0    0  0.00000000000E+00  0.00000000000E+00 -0.33226712154E+03  0.26797052890E+04  0.26590259487E+04 0.  0.
        4    1    3    3  502    0  0.12886337562E+04 -0.29886995701E+03 -0.30022066166E+03  0.13564786277E+04  0.12699999809E+01 0.  1.
       -4    1    3    3    0  502 -0.12886337562E+04  0.29886995701E+03 -0.32046459881E+02  0.13232266613E+04  0.12699999809E+01 0. -1.
</event>
<event>
 5   0  0.8407622E-06  0.2704664E+04  0.7818609E-02  0.8333493E-01
        2   -1    0    0  501    0  0.00000000000E+00  0.00000000000E+00  0.21164772294E+04  0.21164772294E+04  0.25500000920E-02 0. -1.
       -2   -1    0    0    0  501  0.00000000000E+00  0.00000000000E+00 -0.86407831766E+03  0.86407831766E+03  0.25500000920E-02 0.  1.
    10030    2    1    2    0    0  0.00000000000E+00  0.00000000000E+00  0.12523989118E+04  0.29805555471E+04  0.27046641816E+04 0.  0.
        1    1    3    3  502    0 -0.10222769544E+04  0.49155856709E+03 -0.18519571994E+03  0.11493378316E+04  0.50400001928E-02 0.  1.
       -1    1    3    3    0  502  0.10222769544E+04 -0.49155856709E+03  0.14375946317E+04  0.18312177155E+04  0.50400001928E-02 0. -1.
</event>
<event>
 5   0  0.3046300E-06  0.2669991E+04  0.7818609E-02  0.8344808E-01
        1   -1    0    0  501    0  0.00000000000E+00  0.00000000000E+00  0.86920230275E+03  0.86920230276E+03  0.50400001928E-02 0. -1.
       -1   -1    0    0    0  501  0.00000000000E+00  0.00000000000E+00 -0.20504008234E+04  0.20504008234E+04  0.50400001928E-02 0.  1.
    10030    2    1    2    0    0  0.00000000000E+00  0.00000000000E+00 -0.11811985207E+04  0.29196031262E+04  0.26699910991E+04 0.  0.
        2    1    3    3  502    0 -0.89793296192E+03  0.29097634047E+03  0.44172651347E+03  0.10421483328E+04  0.25500000920E-02 0. -1.
       -2    1    3    3    0  502  0.89793296192E+03 -0.29097634047E+03 -0.16229250341E+04  0.18774547934E+04  0.25500000920E-02 0.  1.
</event>
<event>
 5   0  0.3046300E-06  0.2709858E+04  0.7818609E-02  0.8331813E-01
        1   -1    0    0  501    0  0.00000000000E+00  0.00000000000E+00  0.18265415388E+04  0.18265415388E+04  0.50400001928E-02 0. -1.
       -1   -1    0    0    0  501  0.00000000000E+00  0.00000000000E+00 -0.10050868415E+04  0.10050868415E+04  0.50400001928E-02 0.  1.
    10030    2    1    2    0    0  0.00000000000E+00  0.00000000000E+00  0.82145469734E+03  0.28316283804E+04  0.27098582001E+04 0.  0.
        2    1    3    3  502    0 -0.74660181583E+03  0.90636626710E+03 -0.29560516328E+03  0.12109073020E+04  0.25500000920E-02 0.  1.
       -2    1    3    3    0  502  0.74660181583E+03 -0.90636626710E+03  0.11170598606E+04  0.16207210783E+04  0.25500000920E-02 0. -1.
</event>
<event>
 5   0  0.2654625E-06  0.2707044E+04  0.7818609E-02  0.8332723E-01
       -3   -1    0    0    0  501  0.00000000000E+00  0.00000000000E+00  0.12226244669E+04  0.12226244711E+04  0.10100000352E+00 0.  1.
        3   -1    0    0  501    0  0.00000000000E+00  0.00000000000E+00 -0.14984333463E+04  0.14984333497E+04  0.10100000352E+00 0. -1.
    10030    2    1    2    0    0  0.00000000000E+00  0.00000000000E+00 -0.27580887938E+03  0.27210578207E+04  0.27070436136E+04 0.  0.
        2    1    3    3  502    0  0.37442523579E+03 -0.11014677915E+04  0.55748313542E+03  0.12900437974E+04  0.25500000920E-02 0.  1.
       -2    1    3    3    0  502 -0.37442523579E+03  0.11014677915E+04 -0.83329201480E+03  0.14310140233E+04  0.25500000920E-02 0. -1.
</event>
<event>
 5   0  0.7729970E-06  0.2690187E+04  0.7818609E-02  0.8338196E-01
        2   -1    0    0  501    0  0.00000000000E+00  0.00000000000E+00  0.12910756404E+04  0.12910756404E+04  0.25500000920E-02 0. -1.
       -2   -1    0    0    0  501  0.00000000000E+00  0.00000000000E+00 -0.14013716175E+04  0.14013716175E+04  0.25500000920E-02 0.  1.
    10030    2    1    2    0    0  0.00000000000E+00  0.00000000000E+00 -0.11029597708E+03  0.26924472579E+04  0.26901871745E+04 0.  0.
        4    1    3    3  502    0 -0.34607193424E+03 -0.71297015320E+03  0.10325874710E+04  0.13016645963E+04  0.12699999809E+01 0. -1.
       -4    1    3    3    0  502  0.34607193424E+03  0.71297015320E+03 -0.11428834481E+04  0.13907826616E+04  0.12699999809E+01 0.  1.
</event>
<event>
 5   0  0.3028601E-06  0.2492369E+04  0.7818609E-02  0.8405709E-01
       -1   -1    0    0    0  501  0.00000000000E+00  0.00000000000E+00  0.90805465228E+03  0.90805465229E+03  0.50400001928E-02 0. -1.
        1   -1    0    0  501    0  0.00000000000E+00  0.00000000000E+00 -0.17102223919E+04  0.17102223919E+04  0.50400001928E-02 0.  1.
    10030    2    1    2    0    0  0.00000000000E+00  0.00000000000E+00 -0.80216773964E+03  0.26182770442E+04  0.24923686721E+04 0.  0.
        3    1    3    3  502    0  0.10621687572E+03 -0.10802301228E+04 -0.10442170717E+04  0.15061767645E+04  0.10100000352E+00 0.  1.
       -3    1    3    3    0  502 -0.10621687572E+03  0.10802301228E+04  0.24204933209E+03  0.11121002797E+04  0.10100000352E+00 0. -1.
</event>
<event>
 5   0  0.7729970E-06  0.2657201E+04  0.7818609E-02  0.8349027E-01
        2   -1    0    0  501    0  0.00000000000E+00  0.00000000000E+00  0.10594227464E+04  0.10594227464E+04  0.25500000920E-02 0. -1.
       -2   -1    0    0    0  501  0.00000000000E+00  0.00000000000E+00 -0.16661702545E+04  0.16661702545E+04  0.25500000920E-02 0.  1.
    10030    2    1    2    0    0  0.00000000000E+00  0.00000000000E+00 -0.60674750810E+03  0.27255930009E+04  0.26572005322E+04 0.  0.
        4    1    3    3  502    0  0.26139191594E+03 -0.81264904292E+03  0.74089299666E+03  0.11303310338E+04  0.12699999809E+01 0. -1.
       -4    1    3    3    0  502 -0.26139191594E+03  0.81264904292E+03 -0.13476405048E+04  0.15952619671E+04  0.12699999809E+01 0.  1.
</event>
<event>
 5   0  0.3028601E-06  0.2672846E+04  0.7818609E-02  0.8343870E-01
       -1   -1    0    0    0  501  0.00000000000E+00  0.00000000000E+00  0.20836888679E+04  0.20836888679E+04  0.50400001928E-02 0.  1.
        1   -1    0    0  501    0  0.00000000000E+00  0.00000000000E+00 -0.85714632363E+03  0.85714632365E+03  0.50400001928E-02 0. -1.
    10030    2    1    2    0    0  0.00000000000E+00  0.00000000000E+00  0.12265425443E+04  0.29408351915E+04  0.26728458637E+04 0.  0.
        3    1    3    3  502    0 -0.11607477979E+04 -0.65912869514E+03  0.68491656579E+03  0.15002989033E+04  0.10100000352E+00 0. -1.
       -3    1    3    3    0  502  0.11607477979E+04  0.65912869514E+03  0.54162597847E+03  0.14405362882E+04  0.10100000352E+00 0.  1.
</event>
<event>
 5   0  0.3028601E-06  0.2691332E+04  0.7818609E-02  0.8337823E-01
       -1   -1    0    0    0  501  0.00000000000E+00  0.00000000000E+00  0.79514518219E+03  0.79514518221E+03  0.50400001928E-02 0.  1.
        1   -1    0    0  501    0  0.00000000000E+00  0.00000000000E+00 -0.22773415914E+04  0.22773415914E+04  0.50400001928E-02 0. -1.
    10030    2    1    2    0    0  0.00000000000E+00  0.00000000000E+00 -0.14821964092E+04  0.30724867736E+04  0.26913321569E+04 0.  0.
        3    1    3    3  502    0 -0.69364494094E+03  0.25692656731E+03 -0.20244280395E+04  0.21553337241E+04  0.10100000352E+00 0. -1.
       -3    1    3    3    0  502  0.69364494094E+03 -0.25692656731E+03  0.54223163029E+03  0.91715304948E+03  0.10100000352E+00 0.  1.
</event>
<event>
 5   0  0.7729970E-06  0.2716774E+04  0.7818609E-02  0.8329583E-01
        2   -1    0    0  501    0  0.00000000000E+00  0.00000000000E+00  0.14966270150E+04  0.14966270150E+04  0.25500000920E-02 0.  1.
       -2   -1    0    0    0  501  0.00000000000E+00  0.00000000000E+00 -0.12329157568E+04  0.12329157568E+04  0.25500000920E-02 0. -1.
    10030    2    1    2    0    0  0.00000000000E+00  0.00000000000E+00  0.26371125816E+03  0.27295427718E+04  0.27167738432E+04 0.  0.
        4    1    3    3  502    0 -0.99045583850E+02 -0.12692037675E+04  0.60792358269E+03  0.14107660779E+04  0.12699999809E+01 0.  1.
       -4    1    3    3    0  502  0.99045583850E+02  0.12692037675E+04 -0.34421232453E+03  0.13187766939E+04  0.12699999809E+01 0. -1.
</event>
<event>
 5   0  0.8407622E-06  0.2694981E+04  0.7818609E-02  0.8336635E-01
        2   -1    0    0  501    0  0.00000000000E+00  0.00000000000E+00  0.12159203371E+04  0.12159203371E+04  0.25500000920E-02 0. -1.
       -2   -1    0    0    0  501  0.00000000000E+00  0.00000000000E+00 -0.14932976435E+04  0.14932976435E+04  0.25500000920E-02 0.  1.
    10030    2    1    2    0    0  0.00000000000E+00  0.00000000000E+00 -0.27737730637E+03  0.27092179806E+04  0.26949812423E+04 0.  0.
        1    1    3    3  502    0  0.22100692748E+03  0.10870720178E+04 -0.90768807897E+03  0.14333413001E+04  0.50400001928E-02 0.  1.
       -1    1    3    3    0  502 -0.22100692748E+03 -0.10870720178E+04  0.63031077260E+03  0.12758766805E+04  0.50400001928E-02 0. -1.
</event>
<event>
 5   0  0.7838364E-06  0.2628401E+04  0.7818609E-02  0.8358618E-01
        2   -1    0    0  501    0  0.00000000000E+00  0.00000000000E+00  0.20430171468E+04  0.20430171468E+04  0.25500000920E-02 0.  1.
       -2   -1    0    0    0  501  0.00000000000E+00  0.00000000000E+00 -0.84537865849E+03  0.84537865849E+03  0.25500000920E-02 0. -1.
    10030    2    1    2    0    0  0.00000000000E+00  0.00000000000E+00  0.11976384883E+04  0.28883958053E+04  0.26284011070E+04 0.  0.
        2    1    3    3  502    0  0.31208959965E+03  0.54222874491E+03  0.18688707748E+04  0.19708094537E+04  0.25500000920E-02 0.  1.
       -2    1    3    3    0  502 -0.31208959965E+03 -0.54222874491E+03 -0.67123228652E+03  0.91758635152E+03  0.25500000920E-02 0. -1.
</event>
<event>
 5   0  0.7729970E-06  0.2705050E+04  0.7818609E-02  0.8333368E-01
        2   -1    0    0  501    0  0.00000000000E+00  0.00000000000E+00  0.11933901089E+04  0.11933901089E+04  0.25500000920E-02 0.  1.
       -2   -1    0    0    0  501  0.00000000000E+00  0.00000000000E+00 -0.15328800648E+04  0.15328800648E+04  0.25500000920E-02 0. -1.
    10030    2    1    2    0    0  0.00000000000E+00  0.00000000000E+00 -0.33948995595E+03  0.27262701737E+04  0.27050500235E+04 0.  0.
        4    1    3    3  502    0 -0.40844251053E+03 -0.43010655356E+02  0.11290250758E+04  0.12014051921E+04  0.12699999809E+01 0.  1.
       -4    1    3    3    0  502  0.40844251053E+03  0.43010655356E+02 -0.14685150317E+04  0.15248649816E+04  0.12699999809E+01 0. -1.
</event>
<event>
 5   0  0.3199840E-06  0.2668920E+04  0.7818609E-02  0.8345160E-01
        1   -1    0    0  501    0  0.00000000000E+00  0.00000000000E+00  0.15874203481E+04  0.15874203481E+04  0.50400001928E-02 0.  1.
       -1   -1    0    0    0  501  0.00000000000E+00  0.00000000000E+00 -0.11218094949E+04  0.11218094949E+04  0.50400001928E-02 0. -1.
    10030    2    1    2    0    0  0.00000000000E+00  0.00000000000E+00  0.46561085321E+03  0.27092298430E+04  0.26689197956E+04 0.  0.
        1    1    3    3  502    0  0.50422474863E+03  0.45477027606E+03  0.13989489025E+04  0.15550294637E+04  0.50400001928E-02 0.  1.
       -1    1    3    3    0  502 -0.50422474863E+03 -0.45477027606E+03 -0.93333804934E+03  0.11542003793E+04  0.50400001928E-02 0. -1.
</event>
<event>
 5   0  0.3028601E-06  0.2691006E+04  0.7818609E-02  0.8337929E-01
        1   -1    0    0  501    0  0.00000000000E+00  0.00000000000E+00  0.73652570237E+03  0.73652570239E+03  0.50400001928E-02 0. -1.
       -1   -1    0    0    0  501  0.00000000000E+00  0.00000000000E+00 -0.24579980500E+04  0.24579980500E+04  0.50400001928E-02 0.  1.
    10030    2    1    2    0    0  0.00000000000E+00  0.00000000000E+00 -0.17214723477E+04  0.31945237524E+04  0.26910063101E+04 0.  0.
        3    1    3    3  502    0  0.27785427693E+03  0.76888413750E+03  0.40785916120E+03  0.91363828821E+03  0.10100000352E+00 0. -1.
       -3    1    3    3    0  502 -0.27785427693E+03 -0.76888413750E+03 -0.21293315088E+04  0.22808854642E+04  0.10100000352E+00 0.  1.
</event>
<event>
 5   0  0.7838364E-06  0.2708187E+04  0.7818609E-02  0.8332354E-01
        2   -1    0    0  501    0  0.00000000000E+00  0.00000000000E+00  0.27159451713E+04  0.27159451713E+04  0.25500000920E-02 0.  1.
       -2   -1    0    0    0  501  0.00000000000E+00  0.00000000000E+00 -0.67511254120E+03  0.67511254121E+03  0.25500000920E-02 0. -1.
    10030    2    1    2    0    0  0.00000000000E+00  0.00000000000E+00  0.20408326301E+04  0.33910577125E+04  0.27081865862E+04 0.  0.
        2    1    3    3  502    0  0.26655020478E+03  0.85313755878E+03 -0.25325912260E+03  0.92899563457E+03  0.25500000920E-02 0. -1.
       -2    1    3    3    0  502 -0.26655020478E+03 -0.85313755878E+03  0.22940917527E+04  0.24620620780E+04  0.25500000920E-02 0.  1.
</event>
<event>
 5   0  0.3046300E-06  0.2700830E+04  0.7818609E-02  0.8334736E-01
        1   -1    0    0  501    0  0.00000000000E+00  0.00000000000E+00  0.13663698639E+04  0.13663698639E+04  0.50400001928E-02 0.  1.
       -1   -1    0    0    0  501  0.00000000000E+00  0.00000000000E+00 -0.13346464594E+04  0.13346464595E+04  0.50400001928E-02 0. -1.
    10030    2    1    2    0    0  0.00000000000E+00  0.00000000000E+00  0.31723404483E+02  0.27010163234E+04  0.27008300215E+04 0.  0.
        2    1    3    3  502    0  0.83853100285E+02  0.15346497275E+03  0.13549977055E+04  0.13662362981E+04  0.25500000920E-02 0.  1.
       -2    1    3    3    0  502 -0.83853100285E+02 -0.15346497275E+03 -0.13232743010E+04  0.13347800253E+04  0.25500000920E-02 0. -1.
</event>
<event>
 5   0  0.3013407E-06  0.2701774E+04  0.7818609E-02  0.8334429E-01
        1   -1    0    0  501    0  0.00000000000E+00  0.00000000000E+00  0.16376215235E+04  0.16376215235E+04  0.50400001928E-02 0.  1.
       -1   -1    0    0    0  501  0.00000000000E+00  0.00000000000E+00 -0.11143577124E+04  0.11143577124E+04  0.50400001928E-02 0. -1.
    10030    2    1    2    0    0  0.00000000000E+00  0.00000000000E+00  0.52326381104E+03  0.27519792359E+04  0.27017743612E+04 0.  0.
        4    1    3    3  502    0 -0.71592959892E+03 -0.15323904995E+03 -0.89474250278E+03  0.11561155462E+04  0.12699999809E+01 0. -1.
       -4    1    3    3    0  502  0.71592959892E+03  0.15323904995E+03  0.14180063138E+04  0.15958636897E+04  0.12699999809E+01 0.  1.
</event>
<event>
 5   0  0.3013407E-06  0.2831176E+04  0.7818609E-02  0.8293654E-01
       -1   -1    0    0    0  501  0.00000000000E+00  0.00000000000E+00  0.15310342598E+04  0.15310342598E+04  0.50400001928E-02 0.  1.
        1   -1    0    0  501    0  0.00000000000E+00  0.00000000000E+00 -0.13088465597E+04  0.13088465597E+04  0.50400001928E-02 0. -1.
    10030    2    1    2    0    0  0.00000000000E+00  0.00000000000E+00  0.22218770009E+03  0.28398808195E+04  0.28311756736E+04 0.  0.
        4    1    3    3  502    0  0.81027262889E+03  0.19380835627E+03  0.12590706734E+04  0.15097562670E+04  0.12699999809E+01 0.  1.
       -4    1    3    3    0  502 -0.81027262889E+03 -0.19380835627E+03 -0.10368829733E+04  0.13301245526E+04  0.12699999809E+01 0. -1.
</event>
<event>
 5   0  0.7838364E-06  0.2668913E+04  0.7818609E-02  0.8345163E-01
       -2   -1    0    0    0  501  0.00000000000E+00  0.00000000000E+00  0.68559744326E+03  0.68559744327E+03  0.25500000920E-02 0.  1.
        2   -1    0    0  501    0  0.00000000000E+00  0.00000000000E+00 -0.25974043754E+04  0.25974043755E+04  0.25500000920E-02 0. -1.
    10030    2    1    2    0    0  0.00000000000E+00  0.00000000000E+00 -0.19118069322E+04  0.32830018187E+04  0.26689127366E+04 0.  0.
        2    1    3    3  502    0  0.59890237946E+03  0.24572246600E+03  0.47951687332E+03  0.80560537624E+03  0.25500000920E-02 0.  1.
       -2    1    3    3    0  502 -0.59890237946E+03 -0.24572246600E+03 -0.23913238055E+04  0.24773964425E+04  0.25500000920E-02 0. -1.
</event>
<event>
 5   0  0.3199840E-06  0.2438822E+04  0.7818609E-02  0.8425110E-01
       -1   -1    0    0    0  501  0.00000000000E+00  0.00000000000E+00  0.22848477676E+04  0.22848477676E+04  0.50400001928E-02 0.  1.
        1   -1    0    0  501    0  0.00000000000E+00  0.00000000000E+00 -0.65079319911E+03  0.65079319913E+03  0.50400001928E-02 0. -1.
    10030    2    1    2    0    0  0.00000000000E+00  0.00000000000E+00  0.16340545685E+04  0.29356409667E+04  0.24388221650E+04 0.  0.
        1    1    3    3  502    0  0.23509326840E+03 -0.18604013425E+03 -0.60574044252E+03  0.67587074217E+03  0.50400001928E-02 0. -1.
       -1    1    3    3    0  502 -0.23509326840E+03  0.18604013425E+03  0.22397950110E+04  0.22597702245E+04  0.50400001928E-02 0.  1.
</event>
<event>
 5   0  0.7838364E-06  0.2707526E+04  0.7818609E-02  0.8332567E-01
        2   -1    0    0  501    0  0.00000000000E+00  0.00000000000E+00  0.28643207369E+04  0.28643207369E+04  0.25500000920E-02 0.  1.
       -2   -1    0    0    0  501  0.00000000000E+00  0.00000000000E+00 -0.63982860498E+03  0.63982860498E+03  0.25500000920E-02 0. -1.
    10030    2    1    2    0    0  0.00000000000E+00  0.00000000000E+00  0.22244921319E+04  0.35041493419E+04  0.27075260599E+04 0.  0.
        2    1    3    3  502    0  0.58187165318E+03  0.95599104534E+03  0.20980525115E+04  0.23778809559E+04  0.25500000920E-02 0. -1.
       -2    1    3    3    0  502 -0.58187165318E+03 -0.95599104534E+03  0.12643962040E+03  0.11262683859E+04  0.25500000920E-02 0.  1.
</event>
<event>
 5   0  0.7838364E-06  0.2694448E+04  0.7818609E-02  0.8336809E-01
        2   -1    0    0  501    0  0.00000000000E+00  0.00000000000E+00  0.15901032982E+04  0.15901032982E+04  0.25500000920E-02 0. -1.
       -2   -1    0    0    0  501  0.00000000000E+00  0.00000000000E+00 -0.11414427322E+04  0.11414427322E+04  0.25500000920E-02 0.  1.
    10030    2    1    2    0    0  0.00000000000E+00  0.00000000000E+00  0.44866056602E+03  0.27315460304E+04  0.26944475153E+04 0.  0.
        2    1    3    3  502    0 -0.26350769356E+02  0.26269292138E+03  0.15636216623E+04  0.15857536495E+04  0.25500000920E-02 0. -1.
       -2    1    3    3    0  502  0.26350769356E+02 -0.26269292138E+03 -0.11149610963E+04  0.11457923809E+04  0.25500000920E-02 0.  1.
</event>
<event>
 5   0  0.7838364E-06  0.2698142E+04  0.7818609E-02  0.8335608E-01
        2   -1    0    0  501    0  0.00000000000E+00  0.00000000000E+00  0.27609637090E+04  0.27609637090E+04  0.25500000920E-02 0. -1.
       -2   -1    0    0    0  501  0.00000000000E+00  0.00000000000E+00 -0.65918765391E+03  0.65918765392E+03  0.25500000920E-02 0.  1.
    10030    2    1    2    0    0  0.00000000000E+00  0.00000000000E+00  0.21017760551E+04  0.34201513629E+04  0.26981424646E+04 0.  0.
        2    1    3    3  502    0  0.61326004537E+03 -0.86027190209E+03  0.21143370330E+04  0.23635940256E+04  0.25500000920E-02 0.  1.
       -2    1    3    3    0  502 -0.61326004537E+03  0.86027190209E+03 -0.12560977956E+02  0.10565573373E+04  0.25500000920E-02 0. -1.
</event>
<event>
 5   0  0.8407622E-06  0.2701805E+04  0.7818609E-02  0.8334419E-01
       -2   -1    0    0    0  501  0.00000000000E+00  0.00000000000E+00  0.71274131135E+03  0.71274131136E+03  0.25500000920E-02 0. -1.
        2   -1    0    0  501    0  0.00000000000E+00  0.00000000000E+00 -0.25604496201E+04  0.25604496201E+04  0.25500000920E-02 0.  1.
    10030    2    1    2    0    0  0.00000000000E+00  0.00000000000E+00 -0.18477083087E+04  0.32731909314E+04  0.27018054851E+04 0.  0.
        1    1    3    3  502    0 -0.40568543775E+03 -0.83797255094E+03  0.26201337145E+03  0.96717613565E+03  0.50400001928E-02 0. -1.
       -1    1    3    3    0  502  0.40568543775E+03  0.83797255094E+03 -0.21097216802E+04  0.23060147958E+04  0.50400001928E-02 0.  1.
</event>
<event>
 5   0  0.3046300E-06  0.2687279E+04  0.7818609E-02  0.8339144E-01
        1   -1    0    0  501    0  0.00000000000E+00  0.00000000000E+00  0.24191879556E+04  0.24191879556E+04  0.50400001928E-02 0.  1.
       -1   -1    0    0    0  501  0.00000000000E+00  0.00000000000E+00 -0.74626999761E+03  0.74626999762E+03  0.50400001928E-02 0. -1.
    10030    2    1    2    0    0  0.00000000000E+00  0.00000000000E+00  0.16729179580E+04  0.31654579532E+04  0.26872792113E+04 0.  0.
        2    1    3    3  502    0 -0.77651977169E+03  0.60470089157E+03 -0.24103328358E+03  0.10132833601E+04  0.25500000920E-02 0. -1.
       -2    1    3    3    0  502  0.77651977169E+03 -0.60470089157E+03  0.19139512416E+04  0.21521745931E+04  0.25500000920E-02 0.  1.
</event>
<event>
 5   0  0.7729970E-06  0.2624028E+04  0.7818609E-02  0.8360085E-01
        2   -1    0    0  501    0  0.00000000000E+00  0.00000000000E+00  0.30888836231E+04  0.30888836231E+04  0.25500000920E-02 0. -1.
       -2   -1    0    0    0  501  0.00000000000E+00  0.00000000000E+00 -0.55728250231E+03  0.55728250231E+03  0.25500000920E-02 0.  1.
    10030    2    1    2    0    0  0.00000000000E+00  0.00000000000E+00  0.25316011208E+04  0.36461661255E+04  0.26240280447E+04 0.  0.
        4    1    3    3  502    0 -0.12687175233E+04  0.46912556243E+02  0.17256788734E+04  0.21423851495E+04  0.12699999809E+01 0. -1.
       -4    1    3    3    0  502  0.12687175233E+04 -0.46912556243E+02  0.80592224748E+03  0.15037809760E+04  0.12699999809E+01 0.  1.
</event>
<event>
 5   0  0.7812908E-06  0.2707282E+04  0.7818609E-02  0.8332646E-01
       -2   -1    0    0    0  501  0.00000000000E+00  0.00000000000E+00  0.81400652067E+03  0.81400652067E+03  0.25500000920E-02 0. -1.
        2   -1    0    0  501    0  0.00000000000E+00  0.00000000000E+00 -0.22510195783E+04  0.22510195783E+04  0.25500000920E-02 0.  1.
    10030    2    1    2    0    0  0.00000000000E+00  0.00000000000E+00 -0.14370130577E+04  0.30650260990E+04  0.27072824861E+04 0.  0.
        5    1    3    3  502    0 -0.70511136154E+03 -0.11529156325E+04 -0.80565961841E+03  0.15733740809E+04  0.46999998093E+01 0.  1.
       -5    1    3    3    0  502  0.70511136154E+03  0.11529156325E+04 -0.63135343924E+03  0.14916520181E+04  0.46999998093E+01 0. -1.
</event>
<event>
 5   0  0.3028601E-06  0.2665965E+04  0.7818609E-02  0.8346133E-01
        1   -1    0    0  501    0  0.00000000000E+00  0.00000000000E+00  0.17792461029E+04  0.17792461029E+04  0.50400001928E-02 0. -1.
       -1   -1    0    0    0  501  0.00000000000E+00  0.00000000000E+00 -0.99864869338E+03  0.99864869339E+03  0.50400001928E-02 0.  1.
    10030    2    1    2    0    0  0.00000000000E+00  0.00000000000E+00  0.78059740953E+03  0.27778947963E+04  0.26659645878E+04 0.  0.
        3    1    3    3  502    0 -0.34642546822E+01 -0.19618176050E+03  0.17641163564E+04  0.17749945953E+04  0.10100000352E+00 0. -1.
       -3    1    3    3    0  502  0.34642546822E+01  0.19618176050E+03 -0.98351894685E+03  0.10029002010E+04  0.10100000352E+00 0.  1.
</event>
<event>
 5   0  0.7812908E-06  0.2706605E+04  0.7818609E-02  0.8332865E-01
        2   -1    0    0  501    0  0.00000000000E+00  0.00000000000E+00  0.21242840904E+04  0.21242840904E+04  0.25500000920E-02 0.  1.
       -2   -1    0    0    0  501  0.00000000000E+00  0.00000000000E+00 -0.86213867351E+03  0.86213867351E+03  0.25500000920E-02 0. -1.
    10030    2    1    2    0    0  0.00000000000E+00  0.00000000000E+00  0.12621454169E+04  0.29864227639E+04  0.27066048606E+04 0.  0.
        5    1    3    3  502    0 -0.74463193889E+03  0.95300585799E+02 -0.61132247690E+03  0.96814058217E+03  0.46999998093E+01 0. -1.
       -5    1    3    3    0  502  0.74463193889E+03 -0.95300585799E+02  0.18734678938E+04  0.20182821818E+04  0.46999998093E+01 0.  1.
</event>
<event>
 5   0  0.3089218E-06  0.2699839E+04  0.7818609E-02  0.8335057E-01
        1   -1    0    0  501    0  0.00000000000E+00  0.00000000000E+00  0.15694934883E+04  0.15694934883E+04  0.50400001928E-02 0. -1.
       -1   -1    0    0    0  501  0.00000000000E+00  0.00000000000E+00 -0.11610644848E+04  0.11610644848E+04  0.50400001928E-02 0.  1.
    10030    2    1    2    0    0  0.00000000000E+00  0.00000000000E+00  0.40842900357E+03  0.27305579731E+04  0.26998393644E+04 0.  0.
        5    1    3    3  502    0 -0.10771736931E+04 -0.63493177233E+03  0.71874604587E+03  0.14422411342E+04  0.46999998093E+01 0. -1.
       -5    1    3    3    0  502  0.10771736931E+04  0.63493177233E+03 -0.31031704230E+03  0.12883168389E+04  0.46999998093E+01 0.  1.
</event>
<event>
 5   0  0.7812908E-06  0.2647728E+04  0.7818609E-02  0.8352167E-01
       -2   -1    0    0    0  501  0.00000000000E+00  0.00000000000E+00  0.21259439139E+04  0.21259439139E+04  0.25500000920E-02 0.  1.
        2   -1    0    0  501    0  0.00000000000E+00  0.00000000000E+00 -0.82439444300E+03  0.82439444300E+03  0.25500000920E-02 0. -1.
    10030    2    1    2    0    0  0.00000000000E+00  0.00000000000E+00  0.13015494709E+04  0.29503383569E+04  0.26477283461E+04 0.  0.
        5    1    3    3  502    0 -0.90036007348E+01  0.36345425899E+03 -0.76766673515E+03  0.84942001946E+03  0.46999998093E+01 0. -1.
       -5    1    3    3    0  502  0.90036007348E+01 -0.36345425899E+03  0.20692162060E+04  0.21009183374E+04  0.46999998093E+01 0.  1.
</event>
<event>
 5   0  0.7838364E-06  0.2702914E+04  0.7818609E-02  0.8334060E-01
        2   -1    0    0  501    0  0.00000000000E+00  0.00000000000E+00  0.13620474010E+04  0.13620474010E+04  0.25500000920E-02 0.  1.
       -2   -1    0    0    0  501  0.00000000000E+00  0.00000000000E+00 -0.13409485587E+04  0.13409485587E+04  0.25500000920E-02 0. -1.
    10030    2    1    2    0    0  0.00000000000E+00  0.00000000000E+00  0.21098842227E+02  0.27029959597E+04  0.27029136126E+04 0.  0.
        2    1    3    3  502    0 -0.28379880386E+03 -0.13543202070E+03  0.13249531532E+04  0.13617578535E+04  0.25500000920E-02 0.  1.
       -2    1    3    3    0  502  0.28379880386E+03  0.13543202070E+03 -0.13038543110E+04  0.13412381062E+04  0.25500000920E-02 0. -1.
</event>
<event>
 5   0  0.3199840E-06  0.2663754E+04  0.7818609E-02  0.8346862E-01
       -1   -1    0    0    0  501  0.00000000000E+00  0.00000000000E+00  0.14935745396E+04  0.14935745396E+04  0.50400001928E-02 0.  1.
        1   -1    0    0  501    0  0.00000000000E+00  0.00000000000E+00 -0.11876848480E+04  0.11876848480E+04  0.50400001928E-02 0. -1.
    10030    2    1    2    0    0  0.00000000000E+00  0.00000000000E+00  0.30588969159E+03  0.26812593876E+04  0.26637536298E+04 0.  0.
        1    1    3    3  502    0  0.41235045234E+03 -0.17747914980E+03 -0.11092352760E+04  0.11966347152E+04  0.50400001928E-02 0. -1.
       -1    1    3    3    0  502 -0.41235045234E+03  0.17747914980E+03  0.14151249676E+04  0.14846246724E+04  0.50400001928E-02 0.  1.
</event>
<event>
 5   0  0.3028601E-06  0.2398709E+04  0.7818609E-02  0.8439987E-01
       -1   -1    0    0    0  501  0.00000000000E+00  0.00000000000E+00  0.11374817050E+04  0.11374817050E+04  0.50400001928E-02 0. -1.
        1   -1    0    0  501    0  0.00000000000E+00  0.00000000000E+00 -0.12645929312E+04  0.12645929312E+04  0.50400001928E-02 0.  1.
    10030    2    1    2    0    0  0.00000000000E+00  0.00000000000E+00 -0.12711122620E+03  0.24020746363E+04  0.23987090892E+04 0.  0.
        3    1    3    3  502    0 -0.17446319515E+03 -0.61320662777E+03 -0.10808507889E+04  0.12548697991E+04  0.10100000352E+00 0.  1.
       -3    1    3    3    0  502  0.17446319515E+03  0.61320662777E+03  0.95373956266E+03  0.11472048372E+04  0.10100000352E+00 0. -1.
</event>
<event>
 5   0  0.7729970E-06  0.2712532E+04  0.7818609E-02  0.8330950E-01
       -2   -1    0    0    0  501  0.00000000000E+00  0.00000000000E+00  0.10479960006E+04  0.10479960006E+04  0.25500000920E-02 0. -1.
        2   -1    0    0  501    0  0.00000000000E+00  0.00000000000E+00 -0.17552140468E+04  0.17552140468E+04  0.25500000920E-02 0.  1.
    10030    2    1    2    0    0  0.00000000000E+00  0.00000000000E+00 -0.70721804618E+03  0.28032100475E+04  0.27125318810E+04 0.  0.
        4    1    3    3  502    0  0.21760159922E+03 -0.63582000330E+03 -0.15710564092E+04  0.17087531672E+04  0.12699999809E+01 0.  1.
       -4    1    3    3    0  502 -0.21760159922E+03  0.63582000330E+03  0.86383836299E+03  0.10944568803E+04  0.12699999809E+01 0. -1.
</event>
<event>
 5   0  0.7729970E-06  0.2707437E+04  0.7818609E-02  0.8332596E-01
       -2   -1    0    0    0  501  0.00000000000E+00  0.00000000000E+00  0.93715698986E+03  0.93715698986E+03  0.25500000920E-02 0.  1.
        2   -1    0    0  501    0  0.00000000000E+00  0.00000000000E+00 -0.19554395284E+04  0.19554395284E+04  0.25500000920E-02 0. -1.
    10030    2    1    2    0    0  0.00000000000E+00  0.00000000000E+00 -0.10182825386E+04  0.28925965183E+04  0.27074370333E+04 0.  0.
        4    1    3    3  502    0 -0.10892451706E+04 -0.32198293414E+03 -0.12960040545E+04  0.17232980513E+04  0.12699999809E+01 0. -1.
       -4    1    3    3    0  502  0.10892451706E+04  0.32198293414E+03  0.27772151590E+03  0.11692984670E+04  0.12699999809E+01 0.  1.
</event>
<event>
 5   0  0.8407622E-06  0.2777131E+04  0.7818609E-02  0.8310403E-01
       -2   -1    0    0    0  501  0.00000000000E+00  0.00000000000E+00  0.10850905743E+04  0.10850905743E+04  0.25500000920E-02 0.  1.
        2   -1    0    0  501    0  0.00000000000E+00  0.00000000000E+00 -0.17769158983E+04  0.17769158983E+04  0.25500000920E-02 0. -1.
    10030    2    1    2    0    0  0.00000000000E+00  0.00000000000E+00 -0.69182532397E+03  0.28620064726E+04  0.27771313924E+04 0.  0.
        1    1    3    3  502    0  0.11433866457E+03  0.86089683441E+03 -0.14624914311E+04  0.17009108959E+04  0.50400001928E-02 0. -1.
       -1    1    3    3    0  502 -0.11433866457E+03 -0.86089683441E+03  0.77066610711E+03  0.11610955768E+04  0.50400001928E-02 0.  1.
</event>
<event>
 5   0  0.2654625E-06  0.2662118E+04  0.7818609E-02  0.8347402E-01
       -4   -1    0    0    0  501  0.00000000000E+00  0.00000000000E+00  0.91961401453E+03  0.91961489147E+03  0.12699999809E+01 0. -1.
        4   -1    0    0  501    0  0.00000000000E+00  0.00000000000E+00 -0.19265862069E+04  0.19265866255E+04  0.12699999809E+01 0.  1.
    10030    2    1    2    0    0  0.00000000000E+00  0.00000000000E+00 -0.10069721924E+04  0.28462015170E+04  0.26621175930E+04 0.  0.
        4    1    3    3  502    0 -0.11877569459E+04 -0.41301337085E+03 -0.37001973639E+02  0.12580609548E+04  0.12699999809E+01 0. -1.
       -4    1    3    3    0  502  0.11877569459E+04  0.41301337085E+03 -0.96997021875E+03  0.15881405622E+04  0.12699999809E+01 0.  1.
</event>
<event>
 5   0  0.3028601E-06  0.2694203E+04  0.7818609E-02  0.8336888E-01
       -1   -1    0    0    0  501  0.00000000000E+00  0.00000000000E+00  0.99986599005E+03  0.99986599006E+03  0.50400001928E-02 0.  1.
        1   -1    0    0  501    0  0.00000000000E+00  0.00000000000E+00 -0.18149254152E+04  0.18149254152E+04  0.50400001928E-02 0. -1.
    10030    2    1    2    0    0  0.00000000000E+00  0.00000000000E+00 -0.81505942517E+03  0.28147914053E+04  0.26942028114E+04 0.  0.
        3    1    3    3  502    0 -0.24393002379E+03  0.10958073381E+04 -0.11854270711E+04  0.16326459904E+04  0.10100000352E+00 0. -1.
       -3    1    3    3    0  502  0.24393002379E+03 -0.10958073381E+04  0.37036764595E+03  0.11821454149E+04  0.10100000352E+00 0.  1.
</event>
<event>
 5   0  0.3199840E-06  0.2639385E+04  0.7818609E-02  0.8354945E-01
       -1   -1    0    0    0  501  0.00000000000E+00  0.00000000000E+00  0.23707563406E+04  0.23707563406E+04  0.50400001928E-02 0. -1.
        1   -1    0    0  501    0  0.00000000000E+00  0.00000000000E+00 -0.73461279564E+03  0.73461279565E+03  0.50400001928E-02 0.  1.
    10030    2    1    2    0    0  0.00000000000E+00  0.00000000000E+00  0.16361435450E+04  0.31053691363E+04  0.26393847337E+04 0.  0.
        1    1    3    3  502    0  0.32669705722E+03  0.11973589517E+04  0.13458021893E+04  0.18307329022E+04  0.50400001928E-02 0.  1.
       -1    1    3    3    0  502 -0.32669705722E+03 -0.11973589517E+04  0.29034135569E+03  0.12746362341E+04  0.50400001928E-02 0. -1.
</event>
<event>
 5   0  0.7838364E-06  0.2658265E+04  0.7818609E-02  0.8348675E-01
        2   -1    0    0  501    0  0.00000000000E+00  0.00000000000E+00  0.17643511374E+04  0.17643511374E+04  0.25500000920E-02 0.  1.
       -2   -1    0    0    0  501  0.00000000000E+00  0.00000000000E+00 -0.10012706535E+04  0.10012706535E+04  0.25500000920E-02 0. -1.
    10030    2    1    2    0    0  0.00000000000E+00  0.00000000000E+00  0.76308048385E+03  0.27656217909E+04  0.26582648599E+04 0.  0.
        2    1    3    3  502    0  0.10689935079E+04  0.38811055568E+03 -0.33414867345E+03  0.11853405668E+04  0.25500000920E-02 0. -1.
       -2    1    3    3    0  502 -0.10689935079E+04 -0.38811055568E+03  0.10972291573E+04  0.15802812240E+04  0.25500000920E-02 0.  1.
</event>
<event>
 5   0  0.3089218E-06  0.2722476E+04  0.7818609E-02  0.8327749E-01
       -1   -1    0    0    0  501  0.00000000000E+00  0.00000000000E+00  0.18052334932E+04  0.18052334932E+04  0.50400001928E-02 0. -1.
        1   -1    0    0  501    0  0.00000000000E+00  0.00000000000E+00 -0.10264426563E+04  0.10264426563E+04  0.50400001928E-02 0.  1.
    10030    2    1    2    0    0  0.00000000000E+00  0.00000000000E+00  0.77879083686E+03  0.28316761496E+04  0.27224758306E+04 0.  0.
        5    1    3    3  502    0 -0.98746421708E+03 -0.82207314134E+03 -0.78141837343E+02  0.12872521379E+04  0.46999998093E+01 0. -1.
       -5    1    3    3    0  502  0.98746421708E+03  0.82207314134E+03  0.85693267420E+03  0.15444240117E+04  0.46999998093E+01 0.  1.
</event>
<event>
 5   0  0.3028601E-06  0.2612512E+04  0.7818609E-02  0.8363964E-01
       -1   -1    0    0    0  501  0.00000000000E+00  0.00000000000E+00  0.11871374234E+04  0.11871374234E+04  0.50400001928E-02 0. -1.
        1   -1    0    0  501    0  0.00000000000E+00  0.00000000000E+00 -0.14373268256E+04  0.14373268256E+04  0.50400001928E-02 0.  1.
    10030    2    1    2    0    0  0.00000000000E+00  0.00000000000E+00 -0.25018940223E+03  0.26244642490E+04  0.26125117908E+04 0.  0.
        3    1    3    3  502    0  0.76487200385E+03  0.11588136897E+03  0.93226377676E+03  0.12114344529E+04  0.10100000352E+00 0. -1.
       -3    1    3    3    0  502 -0.76487200385E+03 -0.11588136897E+03 -0.11824531790E+04  0.14130297961E+04  0.10100000352E+00 0.  1.
</event>
<event>
 5   0  0.3046300E-06  0.2702586E+04  0.7818609E-02  0.8334166E-01
       -1   -1    0    0    0  501  0.00000000000E+00  0.00000000000E+00  0.85145126568E+03  0.85145126569E+03  0.50400001928E-02 0. -1.
        1   -1    0    0  501    0  0.00000000000E+00  0.00000000000E+00 -0.21445654769E+04  0.21445654769E+04  0.50400001928E-02 0.  1.
    10030    2    1    2    0    0  0.00000000000E+00  0.00000000000E+00 -0.12931142113E+04  0.29960167426E+04  0.27025861612E+04 0.  0.
        2    1    3    3  502    0 -0.15347885971E+03 -0.38765384834E+03 -0.20714786915E+04  0.21130204059E+04  0.25500000920E-02 0.  1.
       -2    1    3    3    0  502  0.15347885971E+03  0.38765384834E+03  0.77836448025E+03  0.88299633670E+03  0.25500000920E-02 0. -1.
</event>
<event>
 5   0  0.7838364E-06  0.2698320E+04  0.7818609E-02  0.8335550E-01
        2   -1    0    0  501    0  0.00000000000E+00  0.00000000000E+00  0.11330109831E+04  0.11330109831E+04  0.25500000920E-02 0.  1.
       -2   -1    0    0    0  501  0.00000000000E+00  0.00000000000E+00 -0.16065440681E+04  0.16065440681E+04  0.25500000920E-02 0. -1.
    10030    2    1    2    0    0  0.00000000000E+00  0.00000000000E+00 -0.47353308498E+03  0.27395550511E+04  0.26983195318E+04 0.  0.
        2    1    3    3  502    0 -0.60008079620E+03 -0.94580616494E+03  0.52678069026E+03  0.12377981092E+04  0.25500000920E-02 0.  1.
       -2    1    3    3    0  502  0.60008079620E+03  0.94580616494E+03 -0.10003137752E+04  0.15017569419E+04  0.25500000920E-02 0. -1.
</event>
<event>
 5   0  0.8213334E-06  0.2722210E+04  0.7818609E-02  0.8327834E-01
        2   -1    0    0  501    0  0.00000000000E+00  0.00000000000E+00  0.23047870775E+04  0.23047870775E+04  0.25500000920E-02 0.  1.
       -2   -1    0    0    0  501  0.00000000000E+00  0.00000000000E+00 -0.80380809785E+03  0.80380809785E+03  0.25500000920E-02 0. -1.
    10030    2    1    2    0    0  0.00000000000E+00  0.00000000000E+00  0.15009789797E+04  0.31085951754E+04  0.27222097765E+04 0.  0.
        3    1    3    3  502    0 -0.34151090445E+03  0.80091277076E+03  0.19451748609E+04  0.21311490361E+04  0.10100000352E+00 0.  1.
       -3    1    3    3    0  502  0.34151090445E+03 -0.80091277076E+03 -0.44419588120E+03  0.97744613934E+03  0.10100000352E+00 0. -1.
</event>
<event>
 5   0  0.3089218E-06  0.2689803E+04  0.7818609E-02  0.8338321E-01
        1   -1    0    0  501    0  0.00000000000E+00  0.00000000000E+00  0.90827260839E+03  0.90827260841E+03  0.50400001928E-02 0.  1.
       -1   -1    0    0    0  501  0.00000000000E+00  0.00000000000E+00 -0.19914281036E+04  0.19914281036E+04  0.50400001928E-02 0. -1.
    10030    2    1    2    0    0  0.00000000000E+00  0.00000000000E+00 -0.10831554952E+04  0.28997007120E+04  0.26898026680E+04 0.  0.
        5    1    3    3  502    0  0.11157935025E+04 -0.65567077381E+03 -0.14719055254E+03  0.13025307875E+04  0.46999998093E+01 0.  1.
       -5    1    3    3    0  502 -0.11157935025E+04  0.65567077381E+03 -0.93596494270E+03  0.15971699245E+04  0.46999998093E+01 0. -1.
</event>
<event>
 5   0  0.3199840E-06  0.2730468E+04  0.7818609E-02  0.8325186E-01
       -1   -1    0    0    0  501  0.00000000000E+00  0.00000000000E+00  0.16925409839E+04  0.16925409839E+04  0.50400001928E-02 0.  1.
        1   -1    0    0  501    0  0.00000000000E+00  0.00000000000E+00 -0.11012221537E+04  0.11012221537E+04  0.50400001928E-02 0. -1.
    10030    2    1    2    0    0  0.00000000000E+00  0.00000000000E+00  0.59131883026E+03  0.27937631376E+04  0.27304678189E+04 0.  0.
        1    1    3    3  502    0 -0.60417103986E+03 -0.10069742445E+04  0.10081079001E+04  0.15476761008E+04  0.50400001928E-02 0.  1.
       -1    1    3    3    0  502  0.60417103986E+03  0.10069742445E+04 -0.41678906988E+03  0.12460870368E+04  0.50400001928E-02 0. -1.
</event>
<event>
 5   0  0.3089218E-06  0.2706932E+04  0.7818609E-02  0.8332759E-01
        1   -1    0    0  501    0  0.00000000000E+00  0.00000000000E+00  0.12836026006E+04  0.12836026006E+04  0.50400001928E-02 0.  1.
       -1   -1    0    0    0  501  0.00000000000E+00  0.00000000000E+00 -0.14271317772E+04  0.14271317772E+04  0.50400001928E-02 0. -1.
    10030    2    1    2    0    0  0.00000000000E+00  0.00000000000E+00 -0.14352917658E+03  0.27107343779E+04  0.27069318874E+04 0.  0.
        5    1    3    3  502    0 -0.53578058897E+03  0.45924741743E+03  0.10847945476E+04  0.12941291784E+04  0.46999998093E+01 0.  1.
       -5    1    3    3    0  502  0.53578058897E+03 -0.45924741743E+03 -0.12283237241E+04  0.14166051995E+04  0.46999998093E+01 0. -1.
</event>
<event>
 5   0  0.7812908E-06  0.2698577E+04  0.7818609E-02  0.8335467E-01
        2   -1    0    0  501    0  0.00000000000E+00  0.00000000000E+00  0.13551519549E+04  0.13551519549E+04  0.25500000920E-02 0.  1.
       -2   -1    0    0    0  501  0.00000000000E+00  0.00000000000E+00 -0.13434501019E+04  0.13434501019E+04  0.25500000920E-02 0. -1.
    10030    2    1    2    0    0  0.00000000000E+00  0.00000000000E+00  0.11701853054E+02  0.26986020568E+04  0.26985766855E+04 0.  0.
        5    1    3    3  502    0  0.12012645558E+04  0.21128603537E+03  0.58281269245E+03  0.13518028874E+04  0.46999998093E+01 0.  1.
       -5    1    3    3    0  502 -0.12012645558E+04 -0.21128603537E+03 -0.57111083940E+03  0.13467991694E+04  0.46999998093E+01 0. -1.
</event>
<event>
 5   0  0.2654625E-06  0.2711308E+04  0.7818609E-02  0.8331345E-01
       -3   -1    0    0    0  501  0.00000000000E+00  0.00000000000E+00  0.16648015138E+04  0.16648015169E+04  0.10100000352E+00 0.  1.
        3   -1    0    0  501    0  0.00000000000E+00  0.00000000000E+00 -0.11039136787E+04  0.11039136834E+04  0.10100000352E+00 0. -1.
    10030    2    1    2    0    0  0.00000000000E+00  0.00000000000E+00  0.56088783508E+03  0.27687152003E+04  0.27113075622E+04 0.  0.
        5    1    3    3  502    0  0.13884118743E+02  0.49772452217E+03 -0.10071470826E+04  0.11235167132E+04  0.46999998093E+01 0. -1.
       -5    1    3    3    0  502 -0.13884118743E+02 -0.49772452217E+03  0.15680349177E+04  0.16451984871E+04  0.46999998093E+01 0.  1.
</event>
<event>
 5   0  0.7838364E-06  0.2714770E+04  0.7818609E-02  0.8330228E-01
        2   -1    0    0  501    0  0.00000000000E+00  0.00000000000E+00  0.19847331968E+04  0.19847331968E+04  0.25500000920E-02 0. -1.
       -2   -1    0    0    0  501  0.00000000000E+00  0.00000000000E+00 -0.92833348600E+03  0.92833348600E+03  0.25500000920E-02 0.  1.
    10030    2    1    2    0    0  0.00000000000E+00  0.00000000000E+00  0.10563997108E+04  0.29130666828E+04  0.27147701835E+04 0.  0.
        2    1    3    3  502    0  0.29352853598E+03  0.22240664705E+02 -0.89367018581E+03  0.94090384717E+03  0.25500000920E-02 0.  1.
       -2    1    3    3    0  502 -0.29352853598E+03 -0.22240664705E+02  0.19500698966E+04  0.19721628356E+04  0.25500000920E-02 0. -1.
</event>
<event>
 5   0  0.7838364E-06  0.2737745E+04  0.7818609E-02  0.8322861E-01
       -2   -1    0    0    0  501  0.00000000000E+00  0.00000000000E+00  0.78232207934E+03  0.78232207935E+03  0.25500000920E-02 0. -1.
        2   -1    0    0  501    0  0.00000000000E+00  0.00000000000E+00 -0.23951917525E+04  0.23951917525E+04  0.25500000920E-02 0.  1.
    10030    2    1    2    0    0  0.00000000000E+00  0.00000000000E+00 -0.16128696732E+04  0.31775138319E+04  0.27377446135E+04 0.  0.
        2    1    3    3  502    0 -0.12350086978E+04  0.14655669766E+03 -0.14265275759E+03  0.12518287257E+04  0.25500000920E-02 0. -1.
       -2    1    3    3    0  502  0.12350086978E+04 -0.14655669766E+03 -0.14702169156E+04  0.19256851062E+04  0.25500000920E-02 0.  1.
</event>
<event>
 5   0  0.7812908E-06  0.2737088E+04  0.7818609E-02  0.8323071E-01
        2   -1    0    0  501    0  0.00000000000E+00  0.00000000000E+00  0.14552427047E+04  0.14552427047E+04  0.25500000920E-02 0.  1.
       -2   -1    0    0    0  501  0.00000000000E+00  0.00000000000E+00 -0.12870101692E+04  0.12870101692E+04  0.25500000920E-02 0. -1.
    10030    2    1    2    0    0  0.00000000000E+00  0.00000000000E+00  0.16823253557E+03  0.27422528739E+04  0.27370876198E+04 0.  0.
        5    1    3    3  502    0  0.43592947062E+03  0.29701918115E+03 -0.11810554341E+04  0.12935103114E+04  0.46999998093E+01 0. -1.
       -5    1    3    3    0  502 -0.43592947062E+03 -0.29701918115E+03  0.13492879697E+04  0.14487425625E+04  0.46999998093E+01 0.  1.
</event>
<event>
 5   0  0.8407622E-06  0.2609797E+04  0.7818609E-02  0.8364881E-01
        2   -1    0    0  501    0  0.00000000000E+00  0.00000000000E+00  0.18713326865E+04  0.18713326865E+04  0.25500000920E-02 0. -1.
       -2   -1    0    0    0  501  0.00000000000E+00  0.00000000000E+00 -0.90991824357E+03  0.90991824357E+03  0.25500000920E-02 0.  1.
    10030    2    1    2    0    0  0.00000000000E+00  0.00000000000E+00  0.96141444291E+03  0.27812509301E+04  0.26097967363E+04 0.  0.
        1    1    3    3  502    0  0.92627007916E+01  0.54146143556E+03 -0.78450979283E+03  0.95326905903E+03  0.50400001928E-02 0.  1.
       -1    1    3    3    0  502 -0.92627007916E+01 -0.54146143556E+03  0.17459242357E+04  0.18279818710E+04  0.50400001928E-02 0. -1.
</event>
<event>
 5   0  0.7838364E-06  0.2699756E+04  0.7818609E-02  0.8335084E-01
        2   -1    0    0  501    0  0.00000000000E+00  0.00000000000E+00  0.11316267466E+04  0.11316267466E+04  0.25500000920E-02 0. -1.
       -2   -1    0    0    0  501  0.00000000000E+00  0.00000000000E+00 -0.16102222542E+04  0.16102222542E+04  0.25500000920E-02 0.  1.
    10030    2    1    2    0    0  0.00000000000E+00  0.00000000000E+00 -0.47859550756E+03  0.27418490008E+04  0.26997559674E+04 0.  0.
        2    1    3    3  502    0 -0.36359783797E+03  0.57457619418E+03  0.94500089549E+03  0.11642026813E+04  0.25500000920E-02 0. -1.
       -2    1    3    3    0  502  0.36359783797E+03 -0.57457619418E+03 -0.14235964031E+04  0.15776463195E+04  0.25500000920E-02 0.  1.
</event>
<event>
 5   0  0.8407622E-06  0.2725497E+04  0.7818609E-02  0.8326779E-01
        2   -1    0    0  501    0  0.00000000000E+00  0.00000000000E+00  0.20912616108E+04  0.20912616108E+04  0.25500000920E-02 0.  1.
       -2   -1    0    0    0  501  0.00000000000E+00  0.00000000000E+00 -0.88802060666E+03  0.88802060667E+03  0.25500000920E-02 0. -1.
    10030    2    1    2    0    0  0.00000000000E+00  0.00000000000E+00  0.12032410041E+04  0.29792822175E+04  0.27254969487E+04 0.  0.
        1    1    3    3  502    0  0.20064149124E+03  0.69569859239E+03 -0.66036190914E+03  0.97996499455E+03  0.50400001928E-02 0. -1.
       -1    1    3    3    0  502 -0.20064149124E+03 -0.69569859239E+03  0.18636029133E+04  0.19993172229E+04  0.50400001928E-02 0.  1.
</event>
<event>
 5   0  0.3013407E-06  0.2676080E+04  0.7818609E-02  0.8342808E-01
        1   -1    0    0  501    0  0.00000000000E+00  0.00000000000E+00  0.30847484852E+04  0.30847484852E+04  0.50400001928E-02 0.  1.
       -1   -1    0    0    0  501  0.00000000000E+00  0.00000000000E+00 -0.58038785004E+03  0.58038785006E+03  0.50400001928E-02 0. -1.
    10030    2    1    2    0    0  0.00000000000E+00  0.00000000000E+00  0.25043606352E+04  0.36651363353E+04  0.26760796261E+04 0.  0.
        4    1    3    3  502    0  0.97297218191E+03  0.44521900687E+03  0.15184821564E+03  0.10807193550E+04  0.12699999809E+01 0. -1.
       -4    1    3    3    0  502 -0.97297218191E+03 -0.44521900687E+03  0.23525124196E+04  0.25844169803E+04  0.12699999809E+01 0.  1.
</event>
<event>
 5   0  0.3013407E-06  0.2714789E+04  0.7818609E-02  0.8330222E-01
        1   -1    0    0  501    0  0.00000000000E+00  0.00000000000E+00  0.17730870951E+04  0.17730870951E+04  0.50400001928E-02 0.  1.
       -1   -1    0    0    0  501  0.00000000000E+00  0.00000000000E+00 -0.10391589267E+04  0.10391589267E+04  0.50400001928E-02 0. -1.
    10030    2    1    2    0    0  0.00000000000E+00  0.00000000000E+00  0.73392816838E+03  0.28122460218E+04  0.27147885978E+04 0.  0.
        4    1    3    3  502    0 -0.84770047367E+03  0.46699263255E+03  0.13528868882E+04  0.16634250080E+04  0.12699999809E+01 0.  1.
       -4    1    3    3    0  502  0.84770047367E+03 -0.46699263255E+03 -0.61895871986E+03  0.11488210138E+04  0.12699999809E+01 0. -1.
</event>
<event>
 5   0  0.3013407E-06  0.2695463E+04  0.7818609E-02  0.8336478E-01
       -1   -1    0    0    0  501  0.00000000000E+00  0.00000000000E+00  0.12068263862E+04  0.12068263862E+04  0.50400001928E-02 0. -1.
        1   -1    0    0  501    0  0.00000000000E+00  0.00000000000E+00 -0.15050887827E+04  0.15050887827E+04  0.50400001928E-02 0.  1.
    10030    2    1    2    0    0  0.00000000000E+00  0.00000000000E+00 -0.29826239646E+03  0.27119151690E+04  0.26954634901E+04 0.  0.
        4    1    3    3  502    0  0.14549477213E+03  0.11654264374E+04 -0.81421942112E+03  0.14291054504E+04  0.12699999809E+01 0.  1.
       -4    1    3    3    0  502 -0.14549477213E+03 -0.11654264374E+04  0.51595702466E+03  0.12828097185E+04  0.12699999809E+01 0. -1.
</event>
<event>
 5   0  0.7729970E-06  0.2691957E+04  0.7818609E-02  0.8337619E-01
       -2   -1    0    0    0  501  0.00000000000E+00  0.00000000000E+00  0.72119974018E+03  0.72119974018E+03  0.25500000920E-02 0.  1.
        2   -1    0    0  501    0  0.00000000000E+00  0.00000000000E+00 -0.25120068412E+04  0.25120068412E+04  0.25500000920E-02 0. -1.
    10030    2    1    2    0    0  0.00000000000E+00  0.00000000000E+00 -0.17908071010E+04  0.32332065814E+04  0.26919574151E+04 0.  0.
        4    1    3    3  502    0 -0.15904335225E+03 -0.10061960545E+04 -0.19520181548E+04  0.22018405432E+04  0.12699999809E+01 0. -1.
       -4    1    3    3    0  502  0.15904335225E+03  0.10061960545E+04  0.16121105378E+03  0.10313660382E+04  0.12699999809E+01 0.  1.
</event>
<event>
 5   0  0.3089218E-06  0.2690300E+04  0.7818609E-02  0.8338159E-01
        1   -1    0    0  501    0  0.00000000000E+00  0.00000000000E+00  0.10835629458E+04  0.10835629458E+04  0.50400001928E-02 0.  1.
       -1   -1    0    0    0  501  0.00000000000E+00  0.00000000000E+00 -0.16698877781E+04  0.16698877781E+04  0.50400001928E-02 0. -1.
    10030    2    1    2    0    0  0.00000000000E+00  0.00000000000E+00 -0.58632483232E+03  0.27534507239E+04  0.26902999982E+04 0.  0.
        5    1    3    3  502    0 -0.17643092594E+03  0.17706909036E+03 -0.16459005695E+04  0.16647798980E+04  0.46999998093E+01 0. -1.
       -5    1    3    3    0  502  0.17643092594E+03 -0.17706909036E+03  0.10595757371E+04  0.10886708259E+04  0.46999998093E+01 0.  1.
</event>
<event>
 5   0  0.3046300E-06  0.2661773E+04  0.7818609E-02  0.8347516E-01
        1   -1    0    0  501    0  0.00000000000E+00  0.00000000000E+00  0.10092769426E+04  0.10092769426E+04  0.50400001928E-02 0. -1.
       -1   -1    0    0    0  501  0.00000000000E+00  0.00000000000E+00 -0.17549786936E+04  0.17549786936E+04  0.50400001928E-02 0.  1.
    10030    2    1    2    0    0  0.00000000000E+00  0.00000000000E+00 -0.74570175103E+03  0.27642556362E+04  0.26617734916E+04 0.  0.
        2    1    3    3  502    0 -0.87511023758E+03  0.97810024202E+02 -0.14092081016E+04  0.16617015985E+04  0.25500000920E-02 0.  1.
       -2    1    3    3    0  502  0.87511023758E+03 -0.97810024202E+02  0.66350635061E+03  0.11025540377E+04  0.25500000920E-02 0. -1.
</event>
<event>
 5   0  0.3013407E-06  0.2698418E+04  0.7818609E-02  0.8335518E-01
        1   -1    0    0  501    0  0.00000000000E+00  0.00000000000E+00  0.12707722750E+04  0.12707722751E+04  0.50400001928E-02 0. -1.
       -1   -1    0    0    0  501  0.00000000000E+00  0.00000000000E+00 -0.14324874092E+04  0.14324874092E+04  0.50400001928E-02 0.  1.
    10030    2    1    2    0    0  0.00000000000E+00  0.00000000000E+00 -0.16171513416E+03  0.27032596843E+04  0.26984182656E+04 0.  0.
        4    1    3    3  502    0  0.11356273579E+03  0.11690824872E+04  0.58419593556E+03  0.13118448311E+04  0.12699999809E+01 0. -1.
       -4    1    3    3    0  502 -0.11356273579E+03 -0.11690824872E+04 -0.74591106971E+03  0.13914148532E+04  0.12699999809E+01 0.  1.
</event>
<event>
 5   0  0.3013407E-06  0.2697730E+04  0.7818609E-02  0.8335742E-01
        1   -1    0    0  501    0  0.00000000000E+00  0.00000000000E+00  0.10790935901E+04  0.10790935901E+04  0.50400001928E-02 0. -1.
       -1   -1    0    0    0  501  0.00000000000E+00  0.00000000000E+00 -0.16860791312E+04  0.16860791312E+04  0.50400001928E-02 0.  1.
    10030    2    1    2    0    0  0.00000000000E+00  0.00000000000E+00 -0.60698554113E+03  0.27651727213E+04  0.26977302926E+04 0.  0.
        4    1    3    3  502    0 -0.69608550221E+03 -0.81689587053E+03  0.53399011435E+03  0.11987497424E+04  0.12699999809E+01 0. -1.
       -4    1    3    3    0  502  0.69608550221E+03  0.81689587053E+03 -0.11409756555E+04  0.15664229789E+04  0.12699999809E+01 0.  1.
</event>
<event>
 5   0  0.8213334E-06  0.2539662E+04  0.7818609E-02  0.8388990E-01
        2   -1    0    0  501    0  0.00000000000E+00  0.00000000000E+00  0.18847045030E+04  0.18847045030E+04  0.25500000920E-02 0. -1.
       -2   -1    0    0    0  501  0.00000000000E+00  0.00000000000E+00 -0.85555643242E+03  0.85555643242E+03  0.25500000920E-02 0.  1.
    10030    2    1    2    0    0  0.00000000000E+00  0.00000000000E+00  0.10291480706E+04  0.27402609355E+04  0.25396622301E+04 0.  0.
        3    1    3    3  502    0  0.11622243623E+04  0.48292279371E+03  0.69669963987E+03  0.14385306015E+04  0.10100000352E+00 0.  1.
       -3    1    3    3    0  502 -0.11622243623E+04 -0.48292279371E+03  0.33244843076E+03  0.13017303340E+04  0.10100000352E+00 0. -1.
</event>
<event>
 5   0  0.3046300E-06  0.2697808E+04  0.7818609E-02  0.8335717E-01
       -1   -1    0    0    0  501  0.00000000000E+00  0.00000000000E+00  0.74659628084E+03  0.74659628086E+03  0.50400001928E-02 0. -1.
        1   -1    0    0  501    0  0.00000000000E+00  0.00000000000E+00 -0.24371164610E+04  0.24371164610E+04  0.50400001928E-02 0.  1.
    10030    2    1    2    0    0  0.00000000000E+00  0.00000000000E+00 -0.16905201801E+04  0.31837127418E+04  0.26978080627E+04 0.  0.
        2    1    3    3  502    0  0.12882578855E+04  0.36796831440E+03 -0.10301011218E+04  0.16900051424E+04  0.25500000920E-02 0. -1.
       -2    1    3    3    0  502 -0.12882578855E+04 -0.36796831440E+03 -0.66041905829E+03  0.14937075994E+04  0.25500000920E-02 0.  1.
</event>
<event>
 5   0  0.8213334E-06  0.2691445E+04  0.7818609E-02  0.8337786E-01
       -2   -1    0    0    0  501  0.00000000000E+00  0.00000000000E+00  0.10296682742E+04  0.10296682742E+04  0.25500000920E-02 0.  1.
        2   -1    0    0  501    0  0.00000000000E+00  0.00000000000E+00 -0.17587894490E+04  0.17587894490E+04  0.25500000920E-02 0. -1.
    10030    2    1    2    0    0  0.00000000000E+00  0.00000000000E+00 -0.72912117485E+03  0.27884577232E+04  0.26914454827E+04 0.  0.
        3    1    3    3  502    0  0.50257680986E+03  0.19311043257E+03  0.91322089194E+03  0.10601167373E+04  0.10100000352E+00 0.  1.
       -3    1    3    3    0  502 -0.50257680986E+03 -0.19311043257E+03 -0.16423420668E+04  0.17283409859E+04  0.10100000352E+00 0. -1.
</event>
<event>
 5   0  0.3089218E-06  0.2703779E+04  0.7818609E-02  0.8333780E-01
       -1   -1    0    0    0  501  0.00000000000E+00  0.00000000000E+00  0.10766174465E+04  0.10766174465E+04  0.50400001928E-02 0. -1.
        1   -1    0    0  501    0  0.00000000000E+00  0.00000000000E+00 -0.16975434127E+04  0.16975434128E+04  0.50400001928E-02 0.  1.
    10030    2    1    2    0    0  0.00000000000E+00  0.00000000000E+00 -0.62092596622E+03  0.27741608593E+04  0.27037787294E+04 0.  0.
        5    1    3    3  502    0  0.71651741906E+02 -0.83028728931E+03 -0.14026303855E+04  0.16315345669E+04  0.46999998093E+01 0.  1.
       -5    1    3    3    0  502 -0.71651741906E+02  0.83028728931E+03  0.78170441925E+03  0.11426262924E+04  0.46999998093E+01 0. -1.
</event>
<event>
 5   0  0.8213334E-06  0.2756013E+04  0.7818609E-02  0.8317056E-01
       -2   -1    0    0    0  501  0.00000000000E+00  0.00000000000E+00  0.13456277403E+04  0.13456277403E+04  0.25500000920E-02 0.  1.
        2   -1    0    0  501    0  0.00000000000E+00  0.00000000000E+00 -0.14111642426E+04  0.14111642426E+04  0.25500000920E-02 0. -1.
    10030    2    1    2    0    0  0.00000000000E+00  0.00000000000E+00 -0.65536502317E+02  0.27567919829E+04  0.27560128816E+04 0.  0.
        3    1    3    3  502    0 -0.23594560238E+03 -0.12899450857E+04  0.39075797182E+03  0.13683276121E+04  0.10100000352E+00 0.  1.
       -3    1    3    3    0  502  0.23594560238E+03  0.12899450857E+04 -0.45629447413E+03  0.13884643707E+04  0.10100000352E+00 0. -1.
</event>
<event>
 5   0  0.3028601E-06  0.2694333E+04  0.7818609E-02  0.8336846E-01
       -1   -1    0    0    0  501  0.00000000000E+00  0.00000000000E+00  0.12171898039E+04  0.12171898040E+04  0.50400001928E-02 0.  1.
        1   -1    0    0  501    0  0.00000000000E+00  0.00000000000E+00 -0.14910229493E+04  0.14910229493E+04  0.50400001928E-02 0. -1.
    10030    2    1    2    0    0  0.00000000000E+00  0.00000000000E+00 -0.27383314537E+03  0.27082127533E+04  0.26943332618E+04 0.  0.
        3    1    3    3  502    0  0.63688657797E+03  0.73304712163E+03  0.80163611973E+03  0.12592073199E+04  0.10100000352E+00 0.  1.
       -3    1    3    3    0  502 -0.63688657797E+03 -0.73304712163E+03 -0.10754692651E+04  0.14490054334E+04  0.10100000352E+00 0. -1.
</event>
<event>
 5   0  0.3089218E-06  0.2693542E+04  0.7818609E-02  0.8337103E-01
       -1   -1    0    0    0  501  0.00000000000E+00  0.00000000000E+00  0.98552877127E+03  0.98552877129E+03  0.50400001928E-02 0. -1.
        1   -1    0    0  501    0  0.00000000000E+00  0.00000000000E+00 -0.18404259404E+04  0.18404259404E+04  0.50400001928E-02 0.  1.
    10030    2    1    2    0    0  0.00000000000E+00  0.00000000000E+00 -0.85489716917E+03  0.28259547117E+04  0.26935424376E+04 0.  0.
        5    1    3    3  502    0  0.20033592154E+03  0.11588455513E+04 -0.11159985045E+04  0.16212748827E+04  0.46999998093E+01 0.  1.
       -5    1    3    3    0  502 -0.20033592154E+03 -0.11588455513E+04  0.26110133538E+03  0.12046798290E+04  0.46999998093E+01 0. -1.
</event>
<event>
 5   0  0.7812908E-06  0.2695635E+04  0.7818609E-02  0.8336423E-01
        2   -1    0    0  501    0  0.00000000000E+00  0.00000000000E+00  0.14775718483E+04  0.14775718483E+04  0.25500000920E-02 0. -1.
       -2   -1    0    0    0  501  0.00000000000E+00  0.00000000000E+00 -0.12294574650E+04  0.12294574650E+04  0.25500000920E-02 0.  1.
    10030    2    1    2    0    0  0.00000000000E+00  0.00000000000E+00  0.24811438326E+03  0.27070293133E+04  0.26956347965E+04 0.  0.
        5    1    3    3  502    0  0.18703105929E+03 -0.12743233254E+04  0.52286189670E+03  0.13900673393E+04  0.46999998093E+01 0. -1.
       -5    1    3    3    0  502 -0.18703105929E+03  0.12743233254E+04 -0.27474751343E+03  0.13169619740E+04  0.46999998093E+01 0.  1.
</event>
<event>
 5   0  0.3028601E-06  0.2680271E+04  0.7818609E-02  0.8341435E-01
        1   -1    0    0  501    0  0.00000000000E+00  0.00000000000E+00  0.16820573224E+04  0.16820573224E+04  0.50400001928E-02 0.  1.
       -1   -1    0    0    0  501  0.00000000000E+00  0.00000000000E+00 -0.10677180901E+04  0.10677180901E+04  0.50400001928E-02 0. -1.
    10030    2    1    2    0    0  0.00000000000E+00  0.00000000000E+00  0.61433923227E+03  0.27497754125E+04  0.26802709055E+04 0.  0.
        3    1    3    3  502    0 -0.25843696294E+03  0.10918144383E+04 -0.44471639885E+03  0.12069055957E+04  0.10100000352E+00 0. -1.
       -3    1    3    3    0  502  0.25843696294E+03 -0.10918144383E+04  0.10590556311E+04  0.15428698167E+04  0.10100000352E+00 0.  1.
</event>
<event>
 5   0  0.3046300E-06  0.2676930E+04  0.7818609E-02  0.8342530E-01
       -1   -1    0    0    0  501  0.00000000000E+00  0.00000000000E+00  0.10108812104E+04  0.10108812104E+04  0.50400001928E-02 0.  1.
        1   -1    0    0  501    0  0.00000000000E+00  0.00000000000E+00 -0.17722042561E+04  0.17722042561E+04  0.50400001928E-02 0. -1.
    10030    2    1    2    0    0  0.00000000000E+00  0.00000000000E+00 -0.76132304575E+03  0.27830854665E+04  0.26769295721E+04 0.  0.
        2    1    3    3  502    0 -0.69895966746E+03 -0.92979739069E+03 -0.10690520185E+04  0.15798544309E+04  0.25500000920E-02 0. -1.
       -2    1    3    3    0  502  0.69895966746E+03  0.92979739069E+03  0.30772897274E+03  0.12032310356E+04  0.25500000920E-02 0.  1.
</event>
<event>
 5   0  0.7838364E-06  0.2694045E+04  0.7818609E-02  0.8336940E-01
       -2   -1    0    0    0  501  0.00000000000E+00  0.00000000000E+00  0.14390066777E+04  0.14390066777E+04  0.25500000920E-02 0.  1.
        2   -1    0    0  501    0  0.00000000000E+00  0.00000000000E+00 -0.12609184605E+04  0.12609184606E+04  0.25500000920E-02 0. -1.
    10030    2    1    2    0    0  0.00000000000E+00  0.00000000000E+00  0.17808821716E+03  0.26999251383E+04  0.26940453484E+04 0.  0.
        2    1    3    3  502    0  0.50421499519E+03  0.57120413102E+03  0.12023074755E+04  0.14233938971E+04  0.25500000920E-02 0.  1.
       -2    1    3    3    0  502 -0.50421499519E+03 -0.57120413102E+03 -0.10242192583E+04  0.12765312412E+04  0.25500000920E-02 0. -1.
</event>
<event>
 5   0  0.7838364E-06  0.2696754E+04  0.7818609E-02  0.8336059E-01
        2   -1    0    0  501    0  0.00000000000E+00  0.00000000000E+00  0.16976894460E+04  0.16976894460E+04  0.25500000920E-02 0.  1.
       -2   -1    0    0    0  501  0.00000000000E+00  0.00000000000E+00 -0.10709384247E+04  0.10709384247E+04  0.25500000920E-02 0. -1.
    10030    2    1    2    0    0  0.00000000000E+00  0.00000000000E+00  0.62675102126E+03  0.27686278707E+04  0.26967542424E+04 0.  0.
        2    1    3    3  502    0 -0.31480728613E+03  0.94783393539E+03 -0.61665329150E+03  0.11737776955E+04  0.25500000920E-02 0. -1.
       -2    1    3    3    0  502  0.31480728613E+03 -0.94783393539E+03  0.12434043128E+04  0.15948501752E+04  0.25500000920E-02 0.  1.
</event>
<event>
 5   0  0.7729970E-06  0.2708145E+04  0.7818609E-02  0.8332367E-01
       -2   -1    0    0    0  501  0.00000000000E+00  0.00000000000E+00  0.96608391435E+03  0.96608391435E+03  0.25500000920E-02 0.  1.
        2   -1    0    0  501    0  0.00000000000E+00  0.00000000000E+00 -0.18978808484E+04  0.18978808484E+04  0.25500000920E-02 0. -1.
    10030    2    1    2    0    0  0.00000000000E+00  0.00000000000E+00 -0.93179693402E+03  0.28639647627E+04  0.27081448698E+04 0.  0.
        4    1    3    3  502    0  0.50852104218E+03  0.54738220945E+03 -0.16601620476E+04  0.18205385386E+04  0.12699999809E+01 0. -1.
       -4    1    3    3    0  502 -0.50852104218E+03 -0.54738220945E+03  0.72836511355E+03  0.10434262241E+04  0.12699999809E+01 0.  1.
</event>
<event>
 5   0  0.8407622E-06  0.2695862E+04  0.7818609E-02  0.8336349E-01
       -2   -1    0    0    0  501  0.00000000000E+00  0.00000000000E+00  0.92595641434E+03  0.92595641434E+03  0.25500000920E-02 0.  1.
        2   -1    0    0  501    0  0.00000000000E+00  0.00000000000E+00 -0.19622062161E+04  0.19622062161E+04  0.25500000920E-02 0. -1.
    10030    2    1    2    0    0  0.00000000000E+00  0.00000000000E+00 -0.10362498017E+04  0.28881626304E+04  0.26958615929E+04 0.  0.
        1    1    3    3  502    0  0.12548287897E+03 -0.15024684400E+03  0.91064691664E+03  0.93144934046E+03  0.50400001928E-02 0.  1.
       -1    1    3    3    0  502 -0.12548287897E+03  0.15024684400E+03 -0.19468967184E+04  0.19567132900E+04  0.50400001928E-02 0. -1.
</event>
<event>
 5   0  0.3046300E-06  0.2724951E+04  0.7818609E-02  0.8326954E-01
        1   -1    0    0  501    0  0.00000000000E+00  0.00000000000E+00  0.12492534562E+04  0.12492534562E+04  0.50400001928E-02 0. -1.
       -1   -1    0    0    0  501  0.00000000000E+00  0.00000000000E+00 -0.14859593098E+04  0.14859593099E+04  0.50400001928E-02 0.  1.
    10030    2    1    2    0    0  0.00000000000E+00  0.00000000000E+00 -0.23670585364E+03  0.27352127661E+04  0.27249512316E+04 0.  0.
        2    1    3    3  502    0 -0.68336494609E+03  0.11556670541E+04 -0.35114396323E+03  0.13877521654E+04  0.25500000920E-02 0. -1.
       -2    1    3    3    0  502  0.68336494609E+03 -0.11556670541E+04  0.11443810958E+03  0.13474606007E+04  0.25500000920E-02 0.  1.
</event>
<event>
 5   0  0.7838364E-06  0.2702014E+04  0.7818609E-02  0.8334352E-01
       -2   -1    0    0    0  501  0.00000000000E+00  0.00000000000E+00  0.13695997075E+04  0.13695997075E+04  0.25500000920E-02 0. -1.
        2   -1    0    0  501    0  0.00000000000E+00  0.00000000000E+00 -0.13326665742E+04  0.13326665742E+04  0.25500000920E-02 0.  1.
    10030    2    1    2    0    0  0.00000000000E+00  0.00000000000E+00  0.36933133306E+02  0.27022662817E+04  0.27020138787E+04 0.  0.
        2    1    3    3  502    0 -0.85235443387E+01 -0.13237002056E+04  0.28861189298E+03  0.13548253430E+04  0.25500000920E-02 0. -1.
       -2    1    3    3    0  502  0.85235443387E+01  0.13237002056E+04 -0.25167875967E+03  0.13474409387E+04  0.25500000920E-02 0.  1.
</event>
<event>
 5   0  0.8213334E-06  0.2729357E+04  0.7818609E-02  0.8325542E-01
       -2   -1    0    0    0  501  0.00000000000E+00  0.00000000000E+00  0.83034900696E+03  0.83034900697E+03  0.25500000920E-02 0. -1.
        2   -1    0    0  501    0  0.00000000000E+00  0.00000000000E+00 -0.22428490707E+04  0.22428490707E+04  0.25500000920E-02 0.  1.
    10030    2    1    2    0    0  0.00000000000E+00  0.00000000000E+00 -0.14125000638E+04  0.30731980777E+04  0.27293570662E+04 0.  0.
        3    1    3    3  502    0  0.79940308866E+03  0.32963214922E+03  0.48252165113E+03  0.99021704992E+03  0.10100000352E+00 0. -1.
       -3    1    3    3    0  502 -0.79940308866E+03 -0.32963214922E+03 -0.18950217149E+04  0.20829810278E+04  0.10100000352E+00 0.  1.
</event>
<event>
 5   0  0.3028601E-06  0.2699117E+04  0.7818609E-02  0.8335292E-01
        1   -1    0    0  501    0  0.00000000000E+00  0.00000000000E+00  0.12954663208E+04  0.12954663208E+04  0.50400001928E-02 0. -1.
       -1   -1    0    0    0  501  0.00000000000E+00  0.00000000000E+00 -0.14059091321E+04  0.14059091321E+04  0.50400001928E-02 0.  1.
    10030    2    1    2    0    0  0.00000000000E+00  0.00000000000E+00 -0.11044281128E+03  0.27013754529E+04  0.26991168412E+04 0.  0.
        3    1    3    3  502    0  0.89235674888E+03  0.60727503657E+03 -0.86597605117E+03  0.13838345525E+04  0.10100000352E+00 0.  1.
       -3    1    3    3    0  502 -0.89235674888E+03 -0.60727503657E+03  0.75553323989E+03  0.13175409003E+04  0.10100000352E+00 0. -1.
</event>
<event>
 5   0  0.7812908E-06  0.2616091E+04  0.7818609E-02  0.8362756E-01
        2   -1    0    0  501    0  0.00000000000E+00  0.00000000000E+00  0.94171257720E+03  0.94171257721E+03  0.25500000920E-02 0. -1.
       -2   -1    0    0    0  501  0.00000000000E+00  0.00000000000E+00 -0.18168840426E+04  0.18168840426E+04  0.25500000920E-02 0.  1.
    10030    2    1    2    0    0  0.00000000000E+00  0.00000000000E+00 -0.87517146544E+03  0.27585966198E+04  0.26160906363E+04 0.  0.
        5    1    3    3  502    0 -0.12255655473E+04 -0.99559800483E+02 -0.90802412599E+03  0.15285460307E+04  0.46999998093E+01 0.  1.
       -5    1    3    3    0  502  0.12255655473E+04  0.99559800483E+02  0.32852660546E+02  0.12300505892E+04  0.46999998093E+01 0. -1.
</event>
<event>
 5   0  0.3013407E-06  0.2701922E+04  0.7818609E-02  0.8334382E-01
        1   -1    0    0  501    0  0.00000000000E+00  0.00000000000E+00  0.20933611851E+04  0.20933611851E+04  0.50400001928E-02 0.  1.
       -1   -1    0    0    0  501  0.00000000000E+00  0.00000000000E+00 -0.87184909130E+03  0.87184909131E+03  0.50400001928E-02 0. -1.
    10030    2    1    2    0    0  0.00000000000E+00  0.00000000000E+00  0.12215120938E+04  0.29652102764E+04  0.27019215732E+04 0.  0.
        4    1    3    3  502    0  0.98579775386E+02  0.56518407884E+03 -0.73151491907E+03  0.92965945637E+03  0.12699999809E+01 0. -1.
       -4    1    3    3    0  502 -0.98579775386E+02 -0.56518407884E+03  0.19530270128E+04  0.20355508200E+04  0.12699999809E+01 0.  1.
</event>
<event>
 5   0  0.8407622E-06  0.2639273E+04  0.7818609E-02  0.8354982E-01
       -2   -1    0    0    0  501  0.00000000000E+00  0.00000000000E+00  0.14391123402E+04  0.14391123402E+04  0.25500000920E-02 0. -1.
        2   -1    0    0  501    0  0.00000000000E+00  0.00000000000E+00 -0.12100797870E+04  0.12100797870E+04  0.25500000920E-02 0.  1.
    10030    2    1    2    0    0  0.00000000000E+00  0.00000000000E+00  0.22903255324E+03  0.26491921272E+04  0.26392731985E+04 0.  0.
        1    1    3    3  502    0 -0.80710565708E+03  0.58057224417E+03  0.98550838336E+03  0.13998965841E+04  0.50400001928E-02 0. -1.
       -1    1    3    3    0  502  0.80710565708E+03 -0.58057224417E+03 -0.75647583012E+03  0.12492955431E+04  0.50400001928E-02 0.  1.
</event>
<event>
 5   0  0.7838364E-06  0.2702671E+04  0.7818609E-02  0.8334139E-01
       -2   -1    0    0    0  501  0.00000000000E+00  0.00000000000E+00  0.10756327230E+04  0.10756327230E+04  0.25500000920E-02 0. -1.
        2   -1    0    0  501    0  0.00000000000E+00  0.00000000000E+00 -0.16977052121E+04  0.16977052121E+04  0.25500000920E-02 0.  1.
    10030    2    1    2    0    0  0.00000000000E+00  0.00000000000E+00 -0.62207248905E+03  0.27733379351E+04  0.27026707384E+04 0.  0.
        2    1    3    3  502    0  0.68874421962E+03 -0.11622833947E+04 -0.28136673763E+03  0.13800139603E+04  0.25500000920E-02 0.  1.
       -2    1    3    3    0  502 -0.68874421962E+03  0.11622833947E+04 -0.34070575141E+03  0.13933239748E+04  0.25500000920E-02 0. -1.
</event>
<event>
 5   0  0.3089218E-06  0.2736247E+04  0.7818609E-02  0.8323339E-01
        1   -1    0    0  501    0  0.00000000000E+00  0.00000000000E+00  0.96445035574E+03  0.96445035575E+03  0.50400001928E-02 0. -1.
       -1   -1    0    0    0  501  0.00000000000E+00  0.00000000000E+00 -0.19407551168E+04  0.19407551168E+04  0.50400001928E-02 0.  1.
    10030    2    1    2    0    0  0.00000000000E+00  0.00000000000E+00 -0.97630476109E+03  0.29052054726E+04  0.27362470377E+04 0.  0.
        5    1    3    3  502    0  0.62803668448E+03  0.30065191671E+03 -0.17385466541E+04  0.18728022348E+04  0.46999998093E+01 0.  1.
       -5    1    3    3    0  502 -0.62803668448E+03 -0.30065191671E+03  0.76224189299E+03  0.10324032378E+04  0.46999998093E+01 0. -1.
</event>
<event>
 5   0  0.7729970E-06  0.2695413E+04  0.7818609E-02  0.8336495E-01
       -2   -1    0    0    0  501  0.00000000000E+00  0.00000000000E+00  0.10268409460E+04  0.10268409460E+04  0.25500000920E-02 0.  1.
        2   -1    0    0  501    0  0.00000000000E+00  0.00000000000E+00 -0.17688351766E+04  0.17688351766E+04  0.25500000920E-02 0. -1.
    10030    2    1    2    0    0  0.00000000000E+00  0.00000000000E+00 -0.74199423058E+03  0.27956761226E+04  0.26954126853E+04 0.  0.
        4    1    3    3  502    0  0.33507943631E+03  0.11532386934E+04 -0.10053629804E+04  0.15662037057E+04  0.12699999809E+01 0. -1.
       -4    1    3    3    0  502 -0.33507943631E+03 -0.11532386934E+04  0.26336874979E+03  0.12294724169E+04  0.12699999809E+01 0.  1.
</event>
<event>
 5   0  0.7812908E-06  0.2688109E+04  0.7818609E-02  0.8338873E-01
       -2   -1    0    0    0  501  0.00000000000E+00  0.00000000000E+00  0.11814365095E+04  0.11814365095E+04  0.25500000920E-02 0.  1.
        2   -1    0    0  501    0  0.00000000000E+00  0.00000000000E+00 -0.15290563582E+04  0.15290563582E+04  0.25500000920E-02 0. -1.
    10030    2    1    2    0    0  0.00000000000E+00  0.00000000000E+00 -0.34761984869E+03  0.27104928677E+04  0.26881093778E+04 0.  0.
        5    1    3    3  502    0 -0.21435501476E+03 -0.13247741825E+04 -0.99124210890E+02  0.13456680149E+04  0.46999998093E+01 0.  1.
       -5    1    3    3    0  502  0.21435501476E+03  0.13247741825E+04 -0.24849563780E+03  0.13648248529E+04  0.46999998093E+01 0. -1.
</event>
<event>
 5   0  0.3013407E-06  0.2710983E+04  0.7818609E-02  0.8331450E-01
        1   -1    0    0  501    0  0.00000000000E+00  0.00000000000E+00  0.13577903714E+04  0.13577903714E+04  0.50400001928E-02 0.  1.
       -1   -1    0    0    0  501  0.00000000000E+00  0.00000000000E+00 -0.13531969523E+04  0.13531969523E+04  0.50400001928E-02 0. -1.
    10030    2    1    2    0    0  0.00000000000E+00  0.00000000000E+00  0.45934190719E+01  0.27109873237E+04  0.27109834322E+04 0.  0.
        4    1    3    3  502    0  0.17749214144E+02 -0.86179258532E+03  0.10484122990E+04  0.13572661701E+04  0.12699999809E+01 0.  1.
       -4    1    3    3    0  502 -0.17749214144E+02  0.86179258532E+03 -0.10438188800E+04  0.13537211536E+04  0.12699999809E+01 0. -1.
</event>
<event>
 5   0  0.8213334E-06  0.2699765E+04  0.7818609E-02  0.8335081E-01
       -2   -1    0    0    0  501  0.00000000000E+00  0.00000000000E+00  0.71382822666E+03  0.71382822667E+03  0.25500000920E-02 0.  1.
        2   -1    0    0  501    0  0.00000000000E+00  0.00000000000E+00 -0.25526915732E+04  0.25526915732E+04  0.25500000920E-02 0. -1.
    10030    2    1    2    0    0  0.00000000000E+00  0.00000000000E+00 -0.18388633465E+04  0.32665197999E+04  0.26997653964E+04 0.  0.
        3    1    3    3  502    0  0.72082073075E+03 -0.11381851634E+04 -0.81722828763E+03  0.15757252541E+04  0.10100000352E+00 0. -1.
       -3    1    3    3    0  502 -0.72082073075E+03  0.11381851634E+04 -0.10216350589E+04  0.16907945458E+04  0.10100000352E+00 0.  1.
</event>
<event>
 5   0  0.2654625E-06  0.2695433E+04  0.7818609E-02  0.8336488E-01
       -3   -1    0    0    0  501  0.00000000000E+00  0.00000000000E+00  0.15403236916E+04  0.15403236949E+04  0.10100000352E+00 0. -1.
        3   -1    0    0  501    0  0.00000000000E+00  0.00000000000E+00 -0.11791931843E+04  0.11791931886E+04  0.10100000352E+00 0.  1.
    10030    2    1    2    0    0  0.00000000000E+00  0.00000000000E+00  0.36113050730E+03  0.27195168835E+04  0.26954325880E+04 0.  0.
        2    1    3    3  502    0  0.85186337222E+03 -0.85021600849E+03 -0.43131943490E+03  0.12785049554E+04  0.25500000920E-02 0.  1.
       -2    1    3    3    0  502 -0.85186337222E+03  0.85021600849E+03  0.79244994220E+03  0.14410119281E+04  0.25500000920E-02 0. -1.
</event>
<event>
 5   0  0.3028601E-06  0.2694527E+04  0.7818609E-02  0.8336783E-01
        1   -1    0    0  501    0  0.00000000000E+00  0.00000000000E+00  0.22341394106E+04  0.22341394106E+04  0.50400001928E-02 0. -1.
       -1   -1    0    0    0  501  0.00000000000E+00  0.00000000000E+00 -0.81244660901E+03  0.81244660902E+03  0.50400001928E-02 0.  1.
    10030    2    1    2    0    0  0.00000000000E+00  0.00000000000E+00  0.14216928016E+04  0.30465860196E+04  0.26945270370E+04 0.  0.
        3    1    3    3  502    0  0.99025396263E+03 -0.66621935827E+03  0.14175458073E+04  0.18530750848E+04  0.10100000352E+00 0.  1.
       -3    1    3    3    0  502 -0.99025396263E+03  0.66621935827E+03  0.41469942941E+01  0.11935109348E+04  0.10100000352E+00 0. -1.
</event>
<event>
 5   0  0.3028601E-06  0.2708901E+04  0.7818609E-02  0.8332123E-01
        1   -1    0    0  501    0  0.00000000000E+00  0.00000000000E+00  0.15860709720E+04  0.15860709720E+04  0.50400001928E-02 0. -1.
       -1   -1    0    0    0  501  0.00000000000E+00  0.00000000000E+00 -0.11566543908E+04  0.11566543908E+04  0.50400001928E-02 0.  1.
    10030    2    1    2    0    0  0.00000000000E+00  0.00000000000E+00  0.42941658115E+03  0.27427253628E+04  0.27089008501E+04 0.  0.
        3    1    3    3  502    0 -0.10620796094E+04 -0.96152159668E+02  0.10601663585E+04  0.15037323740E+04  0.10100000352E+00 0. -1.
       -3    1    3    3    0  502  0.10620796094E+04  0.96152159668E+02 -0.63074977733E+03  0.12389929888E+04  0.10100000352E+00 0.  1.
</event>
<event>
 5   0  0.3199840E-06  0.2667699E+04  0.7818609E-02  0.8345562E-01
       -1   -1    0    0    0  501  0.00000000000E+00  0.00000000000E+00  0.77515269477E+03  0.77515269479E+03  0.50400001928E-02 0. -1.
        1   -1    0    0  501    0  0.00000000000E+00  0.00000000000E+00 -0.22952314233E+04  0.22952314233E+04  0.50400001928E-02 0.  1.
    10030    2    1    2    0    0  0.00000000000E+00  0.00000000000E+00 -0.15200787285E+04  0.30703841181E+04  0.26676992506E+04 0.  0.
        1    1    3    3  502    0  0.36955742577E+01  0.10826276076E+04 -0.16567889041E+04  0.19791527649E+04  0.50400001928E-02 0.  1.
       -1    1    3    3    0  502 -0.36955742577E+01 -0.10826276076E+04  0.13671017558E+03  0.10912313532E+04  0.50400001928E-02 0. -1.
</event>
<event>
 5   0  0.8213334E-06  0.2710902E+04  0.7818609E-02  0.8331476E-01
        2   -1    0    0  501    0  0.00000000000E+00  0.00000000000E+00  0.19552540002E+04  0.19552540003E+04  0.25500000920E-02 0.  1.
       -2   -1    0    0    0  501  0.00000000000E+00  0.00000000000E+00 -0.93964625136E+03  0.93964625136E+03  0.25500000920E-02 0. -1.
    10030    2    1    2    0    0  0.00000000000E+00  0.00000000000E+00  0.10156077489E+04  0.28949002516E+04  0.27109017627E+04 0.  0.
        3    1    3    3  502    0  0.96262943459E+03 -0.81051586231E+03 -0.30022540718E+02  0.12587663622E+04  0.10100000352E+00 0. -1.
       -3    1    3    3    0  502 -0.96262943459E+03  0.81051586231E+03  0.10456302896E+04  0.16361338894E+04  0.10100000352E+00 0.  1.
</event>
<event>
 5   0  0.2654625E-06  0.2705086E+04  0.7818609E-02  0.8333357E-01
        3   -1    0    0  501    0  0.00000000000E+00  0.00000000000E+00  0.17966734294E+04  0.17966734322E+04  0.10100000352E+00 0.  1.
       -3   -1    0    0    0  501  0.00000000000E+00  0.00000000000E+00 -0.10181994589E+04  0.10181994639E+04  0.10100000352E+00 0. -1.
    10030    2    1    2    0    0  0.00000000000E+00  0.00000000000E+00  0.77847397046E+03  0.28148728961E+04  0.27050855252E+04 0.  0.
        3    1    3    3  502    0 -0.28432398019E+03  0.74141630883E+03 -0.75011326059E+03  0.10923406898E+04  0.10100000352E+00 0. -1.
       -3    1    3    3    0  502  0.28432398019E+03 -0.74141630883E+03  0.15285872310E+04  0.17225322063E+04  0.10100000352E+00 0.  1.
</event>
<event>
 5   0  0.8213334E-06  0.2691608E+04  0.7818609E-02  0.8337733E-01
        2   -1    0    0  501    0  0.00000000000E+00  0.00000000000E+00  0.16708560435E+04  0.16708560435E+04  0.25500000920E-02 0.  1.
       -2   -1    0    0    0  501  0.00000000000E+00  0.00000000000E+00 -0.10839879602E+04  0.10839879602E+04  0.25500000920E-02 0. -1.
    10030    2    1    2    0    0  0.00000000000E+00  0.00000000000E+00  0.58686808332E+03  0.27548440037E+04  0.26916075749E+04 0.  0.
        3    1    3    3  502    0  0.60342001671E+03 -0.98898235483E+03 -0.40748073069E+03  0.12281051953E+04  0.10100000352E+00 0. -1.
       -3    1    3    3    0  502 -0.60342001671E+03  0.98898235483E+03  0.99434881401E+03  0.15267388083E+04  0.10100000352E+00 0.  1.
</event>
<event>
 5   0  0.7812908E-06  0.2702862E+04  0.7818609E-02  0.8334077E-01
       -2   -1    0    0    0  501  0.00000000000E+00  0.00000000000E+00  0.10667030624E+04  0.10667030624E+04  0.25500000920E-02 0.  1.
        2   -1    0    0  501    0  0.00000000000E+00  0.00000000000E+00 -0.17121595196E+04  0.17121595196E+04  0.25500000920E-02 0. -1.
    10030    2    1    2    0    0  0.00000000000E+00  0.00000000000E+00 -0.64545645722E+03  0.27788625821E+04  0.27028620408E+04 0.  0.
        5    1    3    3  502    0 -0.10324170142E+04  0.34075052689E+03  0.50255572437E+03  0.11977396040E+04  0.46999998093E+01 0.  1.
       -5    1    3    3    0  502  0.10324170142E+04 -0.34075052689E+03 -0.11480121816E+04  0.15811229781E+04  0.46999998093E+01 0. -1.
</event>
<event>
 5   0  0.3046300E-06  0.2655166E+04  0.7818609E-02  0.8349700E-01
        1   -1    0    0  501    0  0.00000000000E+00  0.00000000000E+00  0.18837941035E+04  0.18837941035E+04  0.50400001928E-02 0.  1.
       -1   -1    0    0    0  501  0.00000000000E+00  0.00000000000E+00 -0.93559970858E+03  0.93559970859E+03  0.50400001928E-02 0. -1.
    10030    2    1    2    0    0  0.00000000000E+00  0.00000000000E+00  0.94819439489E+03  0.28193938121E+04  0.26551664462E+04 0.  0.
        2    1    3    3  502    0 -0.23354767473E+02  0.66245367894E+03  0.16954979255E+04  0.18204679446E+04  0.25500000920E-02 0.  1.
       -2    1    3    3    0  502  0.23354767473E+02 -0.66245367894E+03 -0.74730353059E+03  0.99892586749E+03  0.25500000920E-02 0. -1.
</event>
<event>
 5   0  0.3013407E-06  0.2709855E+04  0.7818609E-02  0.8331814E-01
        1   -1    0    0  501    0  0.00000000000E+00  0.00000000000E+00  0.27291035142E+04  0.27291035142E+04  0.50400001928E-02 0. -1.
       -1   -1    0    0    0  501  0.00000000000E+00  0.00000000000E+00 -0.67268569359E+03  0.67268569361E+03  0.50400001928E-02 0.  1.
    10030    2    1    2    0    0  0.00000000000E+00  0.00000000000E+00  0.20564178206E+04  0.34017892078E+04  0.27098552658E+04 0.  0.
        4    1    3    3  502    0 -0.31961094573E+03  0.12263634299E+04  0.16298675748E+04  0.20646036770E+04  0.12699999809E+01 0. -1.
       -4    1    3    3    0  502  0.31961094573E+03 -0.12263634299E+04  0.42655024584E+03  0.13371855308E+04  0.12699999809E+01 0.  1.
</event>
<event>
 5   0  0.7838364E-06  0.2683833E+04  0.7818609E-02  0.8340270E-01
        2   -1    0    0  501    0  0.00000000000E+00  0.00000000000E+00  0.23363637272E+04  0.23363637272E+04  0.25500000920E-02 0. -1.
       -2   -1    0    0    0  501  0.00000000000E+00  0.00000000000E+00 -0.77074457344E+03  0.77074457344E+03  0.25500000920E-02 0.  1.
    10030    2    1    2    0    0  0.00000000000E+00  0.00000000000E+00  0.15656191538E+04  0.31071083007E+04  0.26838328296E+04 0.  0.
        2    1    3    3  502    0 -0.80342864853E+03 -0.29260152426E+03  0.19801481966E+04  0.21568727653E+04  0.25500000920E-02 0. -1.
       -2    1    3    3    0  502  0.80342864853E+03  0.29260152426E+03 -0.41452904282E+03  0.95023553534E+03  0.25500000920E-02 0.  1.
</event>
<event>
 5   0  0.8213334E-06  0.2705242E+04  0.7818609E-02  0.8333306E-01
        2   -1    0    0  501    0  0.00000000000E+00  0.00000000000E+00  0.22899089414E+04  0.22899089414E+04  0.25500000920E-02 0. -1.
       -2   -1    0    0    0  501  0.00000000000E+00  0.00000000000E+00 -0.79897649006E+03  0.79897649006E+03  0.25500000920E-02 0.  1.
    10030    2    1    2    0    0  0.00000000000E+00  0.00000000000E+00  0.14909324514E+04  0.30888854315E+04  0.27052418809E+04 0.  0.
        3    1    3    3  502    0  0.12817371910E+04 -0.37841142809E+02  0.12369790311E+04  0.17816844031E+04  0.10100000352E+00 0. -1.
       -3    1    3    3    0  502 -0.12817371910E+04  0.37841142809E+02  0.25395342033E+03  0.13072010284E+04  0.10100000352E+00 0.  1.
</event>
<event>
 5   0  0.3199840E-06  0.2714826E+04  0.7818609E-02  0.8330211E-01
        1   -1    0    0  501    0  0.00000000000E+00  0.00000000000E+00  0.16670966070E+04  0.16670966070E+04  0.50400001928E-02 0.  1.
       -1   -1    0    0    0  501  0.00000000000E+00  0.00000000000E+00 -0.11052566278E+04  0.11052566279E+04  0.50400001928E-02 0. -1.
    10030    2    1    2    0    0  0.00000000000E+00  0.00000000000E+00  0.56183997918E+03  0.27723532349E+04  0.27148256476E+04 0.  0.
        1    1    3    3  502    0 -0.32007291471E+03  0.73608549192E+03 -0.83694560893E+03  0.11596320427E+04  0.50400001928E-02 0. -1.
       -1    1    3    3    0  502  0.32007291471E+03 -0.73608549192E+03  0.13987855881E+04  0.16127211922E+04  0.50400001928E-02 0.  1.
</event>
<event>
 5   0  0.7812908E-06  0.2761401E+04  0.7818609E-02  0.8315353E-01
       -2   -1    0    0    0  501  0.00000000000E+00  0.00000000000E+00  0.12683100084E+04  0.12683100084E+04  0.25500000920E-02 0. -1.
        2   -1    0    0  501    0  0.00000000000E+00  0.00000000000E+00 -0.15030508043E+04  0.15030508043E+04  0.25500000920E-02 0.  1.
    10030    2    1    2    0    0  0.00000000000E+00  0.00000000000E+00 -0.23474079591E+03  0.27713608127E+04  0.27614013676E+04 0.  0.
        5    1    3    3  502    0 -0.10275412921E+04 -0.70022691332E+03  0.48492192348E+03  0.13346648265E+04  0.46999998093E+01 0. -1.
       -5    1    3    3    0  502  0.10275412921E+04  0.70022691332E+03 -0.71966271939E+03  0.14366959862E+04  0.46999998093E+01 0.  1.
</event>
<event>
 5   0  0.3013407E-06  0.2706722E+04  0.7818609E-02  0.8332827E-01
       -1   -1    0    0    0  501  0.00000000000E+00  0.00000000000E+00  0.12833450550E+04  0.12833450550E+04  0.50400001928E-02 0.  1.
        1   -1    0    0  501    0  0.00000000000E+00  0.00000000000E+00 -0.14271963752E+04  0.14271963752E+04  0.50400001928E-02 0. -1.
    10030    2    1    2    0    0  0.00000000000E+00  0.00000000000E+00 -0.14385132017E+03  0.27105414303E+04  0.27067215673E+04 0.  0.
        4    1    3    3  502    0 -0.51107386335E+03 -0.80865993040E+03  0.88674265895E+03  0.13043931665E+04  0.12699999809E+01 0.  1.
       -4    1    3    3    0  502  0.51107386335E+03  0.80865993040E+03 -0.10305939791E+04  0.14061482637E+04  0.12699999809E+01 0. -1.
</event>
<event>
 5   0  0.3089218E-06  0.2697180E+04  0.7818609E-02  0.8335920E-01
       -1   -1    0    0    0  501  0.00000000000E+00  0.00000000000E+00  0.19582284964E+04  0.19582284965E+04  0.50400001928E-02 0.  1.
        1   -1    0    0  501    0  0.00000000000E+00  0.00000000000E+00 -0.92874515377E+03  0.92874515379E+03  0.50400001928E-02 0. -1.
    10030    2    1    2    0    0  0.00000000000E+00  0.00000000000E+00  0.10294833427E+04  0.28869736502E+04  0.26971801765E+04 0.  0.
        5    1    3    3  502    0 -0.28678546698E+03  0.12805780608E+04  0.84732646803E+03  0.15620852433E+04  0.46999998093E+01 0.  1.
       -5    1    3    3    0  502  0.28678546698E+03 -0.12805780608E+04  0.18215687465E+03  0.13248884069E+04  0.46999998093E+01 0. -1.
</event>
<event>
 5   0  0.7838364E-06  0.2696607E+04  0.7818609E-02  0.8336107E-01
       -2   -1    0    0    0  501  0.00000000000E+00  0.00000000000E+00  0.10668110052E+04  0.10668110052E+04  0.25500000920E-02 0. -1.
        2   -1    0    0  501    0  0.00000000000E+00  0.00000000000E+00 -0.17040718844E+04  0.17040718844E+04  0.25500000920E-02 0.  1.
    10030    2    1    2    0    0  0.00000000000E+00  0.00000000000E+00 -0.63726087914E+03  0.27708828896E+04  0.26966072313E+04 0.  0.
        2    1    3    3  502    0  0.10952675791E+03  0.56539667437E+03  0.93406895396E+03  0.10973396561E+04  0.25500000920E-02 0. -1.
       -2    1    3    3    0  502 -0.10952675791E+03 -0.56539667437E+03 -0.15713298331E+04  0.16735432335E+04  0.25500000920E-02 0.  1.
</event>
<event>
 5   0  0.3199840E-06  0.2711640E+04  0.7818609E-02  0.8331238E-01
        1   -1    0    0  501    0  0.00000000000E+00  0.00000000000E+00  0.17314456189E+04  0.17314456189E+04  0.50400001928E-02 0. -1.
       -1   -1    0    0    0  501  0.00000000000E+00  0.00000000000E+00 -0.10616839236E+04  0.10616839236E+04  0.50400001928E-02 0.  1.
    10030    2    1    2    0    0  0.00000000000E+00  0.00000000000E+00  0.66976169525E+03  0.27931295425E+04  0.27116400781E+04 0.  0.
        1    1    3    3  502    0 -0.12269258601E+04  0.46376223322E+03  0.68845351569E+03  0.14813476021E+04  0.50400001928E-02 0.  1.
       -1    1    3    3    0  502  0.12269258601E+04 -0.46376223322E+03 -0.18691820440E+02  0.13117819404E+04  0.50400001928E-02 0. -1.
</event>
<event>
 5   0  0.3046300E-06  0.2687265E+04  0.7818609E-02  0.8339149E-01
       -1   -1    0    0    0  501  0.00000000000E+00  0.00000000000E+00  0.13581022007E+04  0.13581022007E+04  0.50400001928E-02 0. -1.
        1   -1    0    0  501    0  0.00000000000E+00  0.00000000000E+00 -0.13293167573E+04  0.13293167574E+04  0.50400001928E-02 0.  1.
    10030    2    1    2    0    0  0.00000000000E+00  0.00000000000E+00  0.28785443344E+02  0.26874189581E+04  0.26872647905E+04 0.  0.
        2    1    3    3  502    0  0.79733608685E+03  0.89548286887E+03 -0.59203600638E+03  0.13372139083E+04  0.25500000920E-02 0.  1.
       -2    1    3    3    0  502 -0.79733608685E+03 -0.89548286887E+03  0.62082144972E+03  0.13502050497E+04  0.25500000920E-02 0. -1.
</event>
<event>
 5   0  0.7812908E-06  0.2651333E+04  0.7818609E-02  0.8350971E-01
        2   -1    0    0  501    0  0.00000000000E+00  0.00000000000E+00  0.23035042544E+04  0.23035042544E+04  0.25500000920E-02 0.  1.
       -2   -1    0    0    0  501  0.00000000000E+00  0.00000000000E+00 -0.76292082580E+03  0.76292082580E+03  0.25500000920E-02 0. -1.
    10030    2    1    2    0    0  0.00000000000E+00  0.00000000000E+00  0.15405834286E+04  0.30664250802E+04  0.26513327728E+04 0.  0.
        5    1    3    3  502    0 -0.15440640183E+03 -0.68876207910E+03 -0.52749768190E+03  0.88119829377E+03  0.46999998093E+01 0. -1.
       -5    1    3    3    0  502  0.15440640183E+03  0.68876207910E+03  0.20680811105E+04  0.21852267865E+04  0.46999998093E+01 0.  1.
</event>
<event>
 5   0  0.7729970E-06  0.2741939E+04  0.7818609E-02  0.8321524E-01
        2   -1    0    0  501    0  0.00000000000E+00  0.00000000000E+00  0.15850046433E+04  0.15850046433E+04  0.25500000920E-02 0. -1.
       -2   -1    0    0    0  501  0.00000000000E+00  0.00000000000E+00 -0.11858368549E+04  0.11858368549E+04  0.25500000920E-02 0.  1.
    10030    2    1    2    0    0  0.00000000000E+00  0.00000000000E+00  0.39916778844E+03  0.27708414982E+04  0.27419386727E+04 0.  0.
        4    1    3    3  502    0 -0.54394220473E+03 -0.12476532229E+04  0.36576680851E+03  0.14093610814E+04  0.12699999809E+01 0. -1.
       -4    1    3    3    0  502  0.54394220473E+03  0.12476532229E+04  0.33400979932E+02  0.13614804167E+04  0.12699999809E+01 0.  1.
</event>
<event>
 5   0  0.3046300E-06  0.2701508E+04  0.7818609E-02  0.8334516E-01
        1   -1    0    0  501    0  0.00000000000E+00  0.00000000000E+00  0.18830155784E+04  0.18830155784E+04  0.50400001928E-02 0. -1.
       -1   -1    0    0    0  501  0.00000000000E+00  0.00000000000E+00 -0.96894389923E+03  0.96894389924E+03  0.50400001928E-02 0.  1.
    10030    2    1    2    0    0  0.00000000000E+00  0.00000000000E+00  0.91407167914E+03  0.28519594776E+04  0.27015080654E+04 0.  0.
        2    1    3    3  502    0  0.34415656739E+03 -0.13045595934E+04  0.38848103287E+03  0.14040074746E+04  0.25500000920E-02 0. -1.
       -2    1    3    3    0  502 -0.34415656739E+03  0.13045595934E+04  0.52559064626E+03  0.14479520031E+04  0.25500000920E-02 0.  1.
</event>
<event>
 5   0  0.3028601E-06  0.2585746E+04  0.7818609E-02  0.8373059E-01
       -1   -1    0    0    0  501  0.00000000000E+00  0.00000000000E+00  0.77774212120E+03  0.77774212122E+03  0.50400001928E-02 0.  1.
        1   -1    0    0  501    0  0.00000000000E+00  0.00000000000E+00 -0.21491958963E+04  0.21491958963E+04  0.50400001928E-02 0. -1.
    10030    2    1    2    0    0  0.00000000000E+00  0.00000000000E+00 -0.13714537751E+04  0.29269380175E+04  0.25857456760E+04 0.  0.
        3    1    3    3  502    0  0.33057875967E+03 -0.47224511174E+03 -0.19956749337E+04  0.20772617103E+04  0.10100000352E+00 0. -1.
       -3    1    3    3    0  502 -0.33057875967E+03  0.47224511174E+03  0.62422115863E+03  0.84967630718E+03  0.10100000352E+00 0.  1.
</event>
<event>
 5   0  0.3046300E-06  0.2706201E+04  0.7818609E-02  0.8332996E-01
        1   -1    0    0  501    0  0.00000000000E+00  0.00000000000E+00  0.20577079372E+04  0.20577079372E+04  0.50400001928E-02 0. -1.
       -1   -1    0    0    0  501  0.00000000000E+00  0.00000000000E+00 -0.88976736951E+03  0.88976736952E+03  0.50400001928E-02 0.  1.
    10030    2    1    2    0    0  0.00000000000E+00  0.00000000000E+00  0.11679405677E+04  0.29474753067E+04  0.27062013070E+04 0.  0.
        2    1    3    3  502    0 -0.81514314264E+03 -0.28615565785E+03  0.17182298680E+04  0.19231893518E+04  0.25500000920E-02 0. -1.
       -2    1    3    3    0  502  0.81514314264E+03  0.28615565785E+03 -0.55028930029E+03  0.10242859550E+04  0.25500000920E-02 0.  1.
</event>
<event>
 5   0  0.8213334E-06  0.2706102E+04  0.7818609E-02  0.8333028E-01
       -2   -1    0    0    0  501  0.00000000000E+00  0.00000000000E+00  0.16563422221E+04  0.16563422221E+04  0.25500000920E-02 0. -1.
        2   -1    0    0  501    0  0.00000000000E+00  0.00000000000E+00 -0.11052951848E+04  0.11052951848E+04  0.25500000920E-02 0.  1.
    10030    2    1    2    0    0  0.00000000000E+00  0.00000000000E+00  0.55104703725E+03  0.27616374069E+04  0.27061020546E+04 0.  0.
        3    1    3    3  502    0  0.38237318467E+03 -0.43834720202E+03 -0.97118114879E+03  0.11320558095E+04  0.10100000352E+00 0.  1.
       -3    1    3    3    0  502 -0.38237318467E+03  0.43834720202E+03  0.15222281860E+04  0.16295815974E+04  0.10100000352E+00 0. -1.
</event>
<event>
 5   0  0.2654625E-06  0.2731058E+04  0.7818609E-02  0.8324998E-01
        3   -1    0    0  501    0  0.00000000000E+00  0.00000000000E+00  0.73156539539E+03  0.73156540236E+03  0.10100000352E+00 0. -1.
       -3   -1    0    0    0  501  0.00000000000E+00  0.00000000000E+00 -0.25488754082E+04  0.25488754102E+04  0.10100000352E+00 0.  1.
    10030    2    1    2    0    0  0.00000000000E+00  0.00000000000E+00 -0.18173100128E+04  0.32804408126E+04  0.27310577149E+04 0.  0.
        4    1    3    3  502    0 -0.52969370673E+03 -0.10931643936E+04 -0.15941180712E+03  0.12251520524E+04  0.12699999809E+01 0.  1.
       -4    1    3    3    0  502  0.52969370673E+03  0.10931643936E+04 -0.16578982057E+04  0.20552887602E+04  0.12699999809E+01 0. -1.
</event>
<event>
 5   0  0.3013407E-06  0.2704633E+04  0.7818609E-02  0.8333503E-01
        1   -1    0    0  501    0  0.00000000000E+00  0.00000000000E+00  0.13541971831E+04  0.13541971831E+04  0.50400001928E-02 0.  1.
       -1   -1    0    0    0  501  0.00000000000E+00  0.00000000000E+00 -0.13504389255E+04  0.13504389255E+04  0.50400001928E-02 0. -1.
    10030    2    1    2    0    0  0.00000000000E+00  0.00000000000E+00  0.37582575709E+01  0.27046361086E+04  0.27046334974E+04 0.  0.
        4    1    3    3  502    0  0.10873759220E+04 -0.43733298752E+03 -0.67274174021E+03  0.13513806273E+04  0.12699999809E+01 0.  1.
       -4    1    3    3    0  502 -0.10873759220E+04  0.43733298752E+03  0.67649999778E+03  0.13532554813E+04  0.12699999809E+01 0. -1.
</event>
<event>
 5   0  0.3028601E-06  0.2712128E+04  0.7818609E-02  0.8331080E-01
        1   -1    0    0  501    0  0.00000000000E+00  0.00000000000E+00  0.22667216517E+04  0.22667216517E+04  0.50400001928E-02 0. -1.
       -1   -1    0    0    0  501  0.00000000000E+00  0.00000000000E+00 -0.81126414907E+03  0.81126414909E+03  0.50400001928E-02 0.  1.
    10030    2    1    2    0    0  0.00000000000E+00  0.00000000000E+00  0.14554575027E+04  0.30779858008E+04  0.27121283244E+04 0.  0.
        3    1    3    3  502    0  0.20958393611E+03 -0.88610318823E+03 -0.41271872869E+03  0.99972048378E+03  0.10100000352E+00 0.  1.
       -3    1    3    3    0  502 -0.20958393611E+03  0.88610318823E+03  0.18681762314E+04  0.20782653171E+04  0.10100000352E+00 0. -1.
</event>
<event>
 5   0  0.8407622E-06  0.2692045E+04  0.7818609E-02  0.8337591E-01
       -2   -1    0    0    0  501  0.00000000000E+00  0.00000000000E+00  0.11977459056E+04  0.11977459056E+04  0.25500000920E-02 0.  1.
        2   -1    0    0  501    0  0.00000000000E+00  0.00000000000E+00 -0.15126554802E+04  0.15126554802E+04  0.25500000920E-02 0. -1.
    10030    2    1    2    0    0  0.00000000000E+00  0.00000000000E+00 -0.31490957465E+03  0.27104013859E+04  0.26920452508E+04 0.  0.
        1    1    3    3  502    0 -0.94141531565E+03 -0.85131317811E+03  0.29368534535E+03  0.13027847120E+04  0.50400001928E-02 0.  1.
       -1    1    3    3    0  502  0.94141531565E+03  0.85131317811E+03 -0.60859491999E+03  0.14076166738E+04  0.50400001928E-02 0. -1.
</event>
<event>
 5   0  0.3199840E-06  0.2653418E+04  0.7818609E-02  0.8350279E-01
       -1   -1    0    0    0  501  0.00000000000E+00  0.00000000000E+00  0.13270695848E+04  0.13270695848E+04  0.50400001928E-02 0.  1.
        1   -1    0    0  501    0  0.00000000000E+00  0.00000000000E+00 -0.13263489617E+04  0.13263489617E+04  0.50400001928E-02 0. -1.
    10030    2    1    2    0    0  0.00000000000E+00  0.00000000000E+00  0.72062308873E+00  0.26534185465E+04  0.26534184486E+04 0.  0.
        1    1    3    3  502    0 -0.18764913649E+03 -0.23860089273E+02  0.13135152874E+04  0.13270659037E+04  0.50400001928E-02 0.  1.
       -1    1    3    3    0  502  0.18764913649E+03  0.23860089273E+02 -0.13127946644E+04  0.13263526428E+04  0.50400001928E-02 0. -1.
</event>
<event>
 5   0  0.8213334E-06  0.2708148E+04  0.7818609E-02  0.8332366E-01
        2   -1    0    0  501    0  0.00000000000E+00  0.00000000000E+00  0.16742485837E+04  0.16742485837E+04  0.25500000920E-02 0.  1.
       -2   -1    0    0    0  501  0.00000000000E+00  0.00000000000E+00 -0.10951276388E+04  0.10951276388E+04  0.25500000920E-02 0. -1.
    10030    2    1    2    0    0  0.00000000000E+00  0.00000000000E+00  0.57912094494E+03  0.27693762225E+04  0.27081476312E+04 0.  0.
        3    1    3    3  502    0 -0.81692427550E+03  0.76601949947E+03  0.10679296940E+04  0.15474575881E+04  0.10100000352E+00 0.  1.
       -3    1    3    3    0  502  0.81692427550E+03 -0.76601949947E+03 -0.48880874911E+03  0.12219186343E+04  0.10100000352E+00 0. -1.
</event>
<event>
 5   0  0.8213334E-06  0.2722532E+04  0.7818609E-02  0.8327731E-01
        2   -1    0    0  501    0  0.00000000000E+00  0.00000000000E+00  0.14040160978E+04  0.14040160978E+04  0.25500000920E-02 0.  1.
       -2   -1    0    0    0  501  0.00000000000E+00  0.00000000000E+00 -0.13198177047E+04  0.13198177047E+04  0.25500000920E-02 0. -1.
    10030    2    1    2    0    0  0.00000000000E+00  0.00000000000E+00  0.84198393089E+02  0.27238338026E+04  0.27225321329E+04 0.  0.
        3    1    3    3  502    0 -0.66319349261E+03  0.11426134668E+04 -0.28616459375E+03  0.13517697023E+04  0.10100000352E+00 0. -1.
       -3    1    3    3    0  502  0.66319349261E+03 -0.11426134668E+04  0.37036298684E+03  0.13720641003E+04  0.10100000352E+00 0.  1.
</event>
<event>
 5   0  0.7729970E-06  0.2704686E+04  0.7818609E-02  0.8333486E-01
       -2   -1    0    0    0  501  0.00000000000E+00  0.00000000000E+00  0.10423987309E+04  0.10423987309E+04  0.25500000920E-02 0.  1.
        2   -1    0    0  501    0  0.00000000000E+00  0.00000000000E+00 -0.17544455654E+04  0.17544455654E+04  0.25500000920E-02 0. -1.
    10030    2    1    2    0    0  0.00000000000E+00  0.00000000000E+00 -0.71204683454E+03  0.27968442963E+04  0.27046861783E+04 0.  0.
        4    1    3    3  502    0 -0.29722295117E+03  0.35829275001E+03 -0.16689771511E+04  0.17326862155E+04  0.12699999809E+01 0. -1.
       -4    1    3    3    0  502  0.29722295117E+03 -0.35829275001E+03  0.95693031657E+03  0.10641580809E+04  0.12699999809E+01 0.  1.
</event>
<event>
 5   0  0.3028601E-06  0.2750311E+04  0.7818609E-02  0.8318863E-01
       -1   -1    0    0    0  501  0.00000000000E+00  0.00000000000E+00  0.10099932473E+04  0.10099932473E+04  0.50400001928E-02 0. -1.
        1   -1    0    0  501    0  0.00000000000E+00  0.00000000000E+00 -0.18723419600E+04  0.18723419600E+04  0.50400001928E-02 0.  1.
    10030    2    1    2    0    0  0.00000000000E+00  0.00000000000E+00 -0.86234871278E+03  0.28823352073E+04  0.27503110633E+04 0.  0.
        3    1    3    3  502    0 -0.54343527773E+03 -0.37229139021E+03 -0.16962363623E+04  0.18196539746E+04  0.10100000352E+00 0.  1.
       -3    1    3    3    0  502  0.54343527773E+03  0.37229139021E+03  0.83388764947E+03  0.10626812328E+04  0.10100000352E+00 0. -1.
</event>
<event>
 5   0  0.7729970E-06  0.2705606E+04  0.7818609E-02  0.8333188E-01
       -2   -1    0    0    0  501  0.00000000000E+00  0.00000000000E+00  0.16373187073E+04  0.16373187073E+04  0.25500000920E-02 0. -1.
        2   -1    0    0  501    0  0.00000000000E+00  0.00000000000E+00 -0.11177273569E+04  0.11177273569E+04  0.25500000920E-02 0.  1.
    10030    2    1    2    0    0  0.00000000000E+00  0.00000000000E+00  0.51959135038E+03  0.27550460642E+04  0.27056059662E+04 0.  0.
        4    1    3    3  502    0 -0.60976225919E+03 -0.42965218361E+03  0.14089851293E+04  0.15942558512E+04  0.12699999809E+01 0. -1.
       -4    1    3    3    0  502  0.60976225919E+03  0.42965218361E+03 -0.88939377894E+03  0.11607902130E+04  0.12699999809E+01 0.  1.
</event>
<event>
 5   0  0.3089218E-06  0.2689886E+04  0.7818609E-02  0.8338294E-01
        1   -1    0    0  501    0  0.00000000000E+00  0.00000000000E+00  0.25001687584E+04  0.25001687584E+04  0.50400001928E-02 0. -1.
       -1   -1    0    0    0  501  0.00000000000E+00  0.00000000000E+00 -0.72349996797E+03  0.72349996799E+03  0.50400001928E-02 0.  1.
    10030    2    1    2    0    0  0.00000000000E+00  0.00000000000E+00  0.17766687904E+04  0.32236687263E+04  0.26898862553E+04 0.  0.
        5    1    3    3  502    0  0.10363005563E+04  0.69609446805E+03  0.28865461113E+03  0.12813313100E+04  0.46999998093E+01 0.  1.
       -5    1    3    3    0  502 -0.10363005563E+04 -0.69609446805E+03  0.14880141793E+04  0.19423374164E+04  0.46999998093E+01 0. -1.
</event>
<event>
 5   0  0.8407622E-06  0.2678518E+04  0.7818609E-02  0.8342009E-01
        2   -1    0    0  501    0  0.00000000000E+00  0.00000000000E+00  0.10677692895E+04  0.10677692895E+04  0.25500000920E-02 0. -1.
       -2   -1    0    0    0  501  0.00000000000E+00  0.00000000000E+00 -0.16797767813E+04  0.16797767814E+04  0.25500000920E-02 0.  1.
    10030    2    1    2    0    0  0.00000000000E+00  0.00000000000E+00 -0.61200749188E+03  0.27475460708E+04  0.26785175454E+04 0.  0.
        1    1    3    3  502    0 -0.70108742786E+03  0.99480446942E+03  0.26737806506E+03  0.12460539890E+04  0.50400001928E-02 0. -1.
       -1    1    3    3    0  502  0.70108742786E+03 -0.99480446942E+03 -0.87938555694E+03  0.15014920818E+04  0.50400001928E-02 0.  1.
</event>
<event>
 5   0  0.3046300E-06  0.2700812E+04  0.7818609E-02  0.8334742E-01
        1   -1    0    0  501    0  0.00000000000E+00  0.00000000000E+00  0.14524389345E+04  0.14524389345E+04  0.50400001928E-02 0.  1.
       -1   -1    0    0    0  501  0.00000000000E+00  0.00000000000E+00 -0.12555404380E+04  0.12555404380E+04  0.50400001928E-02 0. -1.
    10030    2    1    2    0    0  0.00000000000E+00  0.00000000000E+00  0.19689849647E+03  0.27079793725E+04  0.27008115936E+04 0.  0.
        2    1    3    3  502    0  0.10791370685E+04 -0.20760917077E+03  0.88536169327E+03  0.14112064726E+04  0.25500000920E-02 0.  1.
       -2    1    3    3    0  502 -0.10791370685E+04  0.20760917077E+03 -0.68846319680E+03  0.12967728999E+04  0.25500000920E-02 0. -1.
</event>
<event>
 5   0  0.7812908E-06  0.2682440E+04  0.7818609E-02  0.8340725E-01
        2   -1    0    0  501    0  0.00000000000E+00  0.00000000000E+00  0.14676610760E+04  0.14676610760E+04  0.25500000920E-02 0.  1.
       -2   -1    0    0    0  501  0.00000000000E+00  0.00000000000E+00 -0.12256718223E+04  0.12256718223E+04  0.25500000920E-02 0. -1.
    10030    2    1    2    0    0  0.00000000000E+00  0.00000000000E+00  0.24198925369E+03  0.26933328983E+04  0.26824398040E+04 0.  0.
        5    1    3    3  502    0 -0.12115805097E+03 -0.50724186993E+01 -0.12201480126E+04  0.12261681228E+04  0.46999998093E+01 0. -1.
       -5    1    3    3    0  502  0.12115805097E+03  0.50724186993E+01  0.14621372663E+04  0.14671647754E+04  0.46999998093E+01 0.  1.
</event>
<event>
 5   0  0.3028601E-06  0.2700510E+04  0.7818609E-02  0.8334839E-01
        1   -1    0    0  501    0  0.00000000000E+00  0.00000000000E+00  0.23252456638E+04  0.23252456638E+04  0.50400001928E-02 0.  1.
       -1   -1    0    0    0  501  0.00000000000E+00  0.00000000000E+00 -0.78408456211E+03  0.78408456213E+03  0.50400001928E-02 0. -1.
    10030    2    1    2    0    0  0.00000000000E+00  0.00000000000E+00  0.15411611016E+04  0.31093302259E+04  0.27005104911E+04 0.  0.
        3    1    3    3  502    0  0.53655070064E+03 -0.90281775593E+03  0.17477151051E+04  0.20389886349E+04  0.10100000352E+00 0.  1.
       -3    1    3    3    0  502 -0.53655070064E+03  0.90281775593E+03 -0.20655400341E+03  0.10703415909E+04  0.10100000352E+00 0. -1.
</event>
<event>
 5   0  0.3028601E-06  0.2358783E+04  0.7818609E-02  0.8455098E-01
       -1   -1    0    0    0  501  0.00000000000E+00  0.00000000000E+00  0.10946175303E+04  0.10946175303E+04  0.50400001928E-02 0.  1.
        1   -1    0    0  501    0  0.00000000000E+00  0.00000000000E+00 -0.12707308408E+04  0.12707308408E+04  0.50400001928E-02 0. -1.
    10030    2    1    2    0    0  0.00000000000E+00  0.00000000000E+00 -0.17611331050E+03  0.23653483711E+04  0.23587829528E+04 0.  0.
        3    1    3    3  502    0 -0.10573195588E+04  0.47312202993E+03  0.13436047474E+03  0.11661139961E+04  0.10100000352E+00 0.  1.
       -3    1    3    3    0  502  0.10573195588E+04 -0.47312202993E+03 -0.31047378524E+03  0.11992343750E+04  0.10100000352E+00 0. -1.
</event>
<event>
 5   0  0.2654625E-06  0.2710284E+04  0.7818609E-02  0.8331676E-01
       -3   -1    0    0    0  501  0.00000000000E+00  0.00000000000E+00  0.13626024949E+04  0.13626024986E+04  0.10100000352E+00 0. -1.
        3   -1    0    0  501    0  0.00000000000E+00  0.00000000000E+00 -0.13477223716E+04  0.13477223754E+04  0.10100000352E+00 0.  1.
    10030    2    1    2    0    0  0.00000000000E+00  0.00000000000E+00  0.14880123240E+02  0.27103248741E+04  0.27102840266E+04 0.  0.
        5    1    3    3  502    0 -0.70851953442E+03 -0.11335877973E+04  0.22962928167E+03  0.13563822919E+04  0.46999998093E+01 0.  1.
       -5    1    3    3    0  502  0.70851953442E+03  0.11335877973E+04 -0.21474915844E+03  0.13539425822E+04  0.46999998093E+01 0. -1.
</event>
<event>
 5   0  0.3028601E-06  0.2706165E+04  0.7818609E-02  0.8333007E-01
       -1   -1    0    0    0  501  0.00000000000E+00  0.00000000000E+00  0.10568684063E+04  0.10568684063E+04  0.50400001928E-02 0. -1.
        1   -1    0    0  501    0  0.00000000000E+00  0.00000000000E+00 -0.17323179056E+04  0.17323179057E+04  0.50400001928E-02 0.  1.
    10030    2    1    2    0    0  0.00000000000E+00  0.00000000000E+00 -0.67544949931E+03  0.27891863120E+04  0.27061648614E+04 0.  0.
        3    1    3    3  502    0 -0.34744686062E+03 -0.78990813459E+03 -0.14118866685E+04  0.16547199633E+04  0.10100000352E+00 0.  1.
       -3    1    3    3    0  502  0.34744686062E+03  0.78990813459E+03  0.73643716917E+03  0.11344663487E+04  0.10100000352E+00 0. -1.
</event>
<event>
 5   0  0.3046300E-06  0.2626357E+04  0.7818609E-02  0.8359303E-01
        1   -1    0    0  501    0  0.00000000000E+00  0.00000000000E+00  0.69391152808E+03  0.69391152810E+03  0.50400001928E-02 0. -1.
       -1   -1    0    0    0  501  0.00000000000E+00  0.00000000000E+00 -0.24850966529E+04  0.24850966529E+04  0.50400001928E-02 0.  1.
    10030    2    1    2    0    0  0.00000000000E+00  0.00000000000E+00 -0.17911851248E+04  0.31790081810E+04  0.26263565759E+04 0.  0.
        2    1    3    3  502    0  0.40452859459E+03  0.12340101477E+04 -0.11315875696E+04  0.17224734703E+04  0.25500000920E-02 0.  1.
       -2    1    3    3    0  502 -0.40452859459E+03 -0.12340101477E+04 -0.65959755526E+03  0.14565347107E+04  0.25500000920E-02 0. -1.
</event>
<event>
 5   0  0.3089218E-06  0.2699243E+04  0.7818609E-02  0.8335251E-01
       -1   -1    0    0    0  501  0.00000000000E+00  0.00000000000E+00  0.11850502911E+04  0.11850502911E+04  0.50400001928E-02 0. -1.
        1   -1    0    0  501    0  0.00000000000E+00  0.00000000000E+00 -0.15370471632E+04  0.15370471632E+04  0.50400001928E-02 0.  1.
    10030    2    1    2    0    0  0.00000000000E+00  0.00000000000E+00 -0.35199687208E+03  0.27220974544E+04  0.26992429963E+04 0.  0.
        5    1    3    3  502    0 -0.46426543574E+03  0.11587950961E+04 -0.69328167492E+03  0.14279390884E+04  0.46999998093E+01 0.  1.
       -5    1    3    3    0  502  0.46426543574E+03 -0.11587950961E+04  0.34128480284E+03  0.12941583659E+04  0.46999998093E+01 0. -1.
</event>
<event>
 5   0  0.7812908E-06  0.2729219E+04  0.7818609E-02  0.8325586E-01
        2   -1    0    0  501    0  0.00000000000E+00  0.00000000000E+00  0.17102233081E+04  0.17102233081E+04  0.25500000920E-02 0.  1.
       -2   -1    0    0    0  501  0.00000000000E+00  0.00000000000E+00 -0.10888394519E+04  0.10888394519E+04  0.25500000920E-02 0. -1.
    10030    2    1    2    0    0  0.00000000000E+00  0.00000000000E+00  0.62138385617E+03  0.27990627600E+04  0.27292186497E+04 0.  0.
        5    1    3    3  502    0 -0.12896083396E+02  0.11304338477E+04 -0.47312387502E+03  0.12255265334E+04  0.46999998093E+01 0. -1.
       -5    1    3    3    0  502  0.12896083396E+02 -0.11304338477E+04  0.10945077312E+04  0.15735362266E+04  0.46999998093E+01 0.  1.
</event>
<event>
 5   0  0.2654625E-06  0.2697812E+04  0.7818609E-02  0.8335715E-01
        3   -1    0    0  501    0  0.00000000000E+00  0.00000000000E+00  0.19157271463E+04  0.19157271489E+04  0.10100000352E+00 0.  1.
       -3   -1    0    0    0  501  0.00000000000E+00  0.00000000000E+00 -0.94979429812E+03  0.94979430349E+03  0.10100000352E+00 0. -1.
    10030    2    1    2    0    0  0.00000000000E+00  0.00000000000E+00  0.96593284815E+03  0.28655214524E+04  0.26978115070E+04 0.  0.
        2    1    3    3  502    0  0.48916225429E+03 -0.11776181919E+04  0.15755691119E+02  0.12752696024E+04  0.25500000920E-02 0.  1.
       -2    1    3    3    0  502 -0.48916225429E+03  0.11776181919E+04  0.95017715703E+03  0.15902518501E+04  0.25500000920E-02 0. -1.
</event>
<event>
 5   0  0.8407622E-06  0.2783237E+04  0.7818609E-02  0.8308491E-01
       -2   -1    0    0    0  501  0.00000000000E+00  0.00000000000E+00  0.11075976739E+04  0.11075976739E+04  0.25500000920E-02 0. -1.
        2   -1    0    0  501    0  0.00000000000E+00  0.00000000000E+00 -0.17484712700E+04  0.17484712700E+04  0.25500000920E-02 0.  1.
    10030    2    1    2    0    0  0.00000000000E+00  0.00000000000E+00 -0.64087359613E+03  0.28560689438E+04  0.27832374756E+04 0.  0.
        1    1    3    3  502    0 -0.95787801568E+03  0.81201564345E+03  0.29500992181E+03  0.12899343209E+04  0.50400001928E-02 0. -1.
       -1    1    3    3    0  502  0.95787801568E+03 -0.81201564345E+03 -0.93588351794E+03  0.15661346230E+04  0.50400001928E-02 0.  1.
</event>
<event>
 5   0  0.3199840E-06  0.2711630E+04  0.7818609E-02  0.8331241E-01
        1   -1    0    0  501    0  0.00000000000E+00  0.00000000000E+00  0.14294522065E+04  0.14294522065E+04  0.50400001928E-02 0. -1.
       -1   -1    0    0    0  501  0.00000000000E+00  0.00000000000E+00 -0.12859707826E+04  0.12859707826E+04  0.50400001928E-02 0.  1.
    10030    2    1    2    0    0  0.00000000000E+00  0.00000000000E+00  0.14348142386E+03  0.27154229891E+04  0.27116296006E+04 0.  0.
        1    1    3    3  502    0  0.44755806026E+03  0.11855411850E+04  0.55451227522E+03  0.13832208725E+04  0.50400001928E-02 0. -1.
       -1    1    3    3    0  502 -0.44755806026E+03 -0.11855411850E+04 -0.41103085135E+03  0.13322021166E+04  0.50400001928E-02 0.  1.
</event>
<event>
 5   0  0.7729970E-06  0.2660404E+04  0.7818609E-02  0.8347968E-01
       -2   -1    0    0    0  501  0.00000000000E+00  0.00000000000E+00  0.86867481899E+03  0.86867481899E+03  0.25500000920E-02 0.  1.
        2   -1    0    0  501    0  0.00000000000E+00  0.00000000000E+00 -0.20369388753E+04  0.20369388753E+04  0.25500000920E-02 0. -1.
    10030    2    1    2    0    0  0.00000000000E+00  0.00000000000E+00 -0.11682640563E+04  0.29056136942E+04  0.26604041112E+04 0.  0.
        4    1    3    3  502    0  0.24764161107E+03 -0.10685235988E+04  0.23780619111E+03  0.11223290276E+04  0.12699999809E+01 0.  1.
       -4    1    3    3    0  502 -0.24764161107E+03  0.10685235988E+04 -0.14060702474E+04  0.17832846666E+04  0.12699999809E+01 0. -1.
</event>
<event>
 5   0  0.8213334E-06  0.2722483E+04  0.7818609E-02  0.8327747E-01
       -2   -1    0    0    0  501  0.00000000000E+00  0.00000000000E+00  0.10185380015E+04  0.10185380015E+04  0.25500000920E-02 0.  1.
        2   -1    0    0  501    0  0.00000000000E+00  0.00000000000E+00 -0.18192526431E+04  0.18192526431E+04  0.25500000920E-02 0. -1.
    10030    2    1    2    0    0  0.00000000000E+00  0.00000000000E+00 -0.80071464164E+03  0.28377906446E+04  0.27224826547E+04 0.  0.
        3    1    3    3  502    0 -0.18080659981E+03 -0.13366529658E+04 -0.59155403584E+03  0.14728436322E+04  0.10100000352E+00 0.  1.
       -3    1    3    3    0  502  0.18080659981E+03  0.13366529658E+04 -0.20916060580E+03  0.13649470124E+04  0.10100000352E+00 0. -1.
</event>
<event>
 5   0  0.3028601E-06  0.2649114E+04  0.7818609E-02  0.8351707E-01
        1   -1    0    0  501    0  0.00000000000E+00  0.00000000000E+00  0.87718985122E+03  0.87718985123E+03  0.50400001928E-02 0.  1.
       -1   -1    0    0    0  501  0.00000000000E+00  0.00000000000E+00 -0.20000818294E+04  0.20000818294E+04  0.50400001928E-02 0. -1.
    10030    2    1    2    0    0  0.00000000000E+00  0.00000000000E+00 -0.11228919782E+04  0.28772716807E+04  0.26491141783E+04 0.  0.
        3    1    3    3  502    0 -0.21800037313E+03  0.13000894219E+04 -0.42110941706E+03  0.13838677028E+04  0.10100000352E+00 0.  1.
       -3    1    3    3    0  502  0.21800037313E+03 -0.13000894219E+04 -0.70178256114E+03  0.14934039778E+04  0.10100000352E+00 0. -1.
</event>
<event>
 5   0  0.3089218E-06  0.2688409E+04  0.7818609E-02  0.8338776E-01
        1   -1    0    0  501    0  0.00000000000E+00  0.00000000000E+00  0.11632832233E+04  0.11632832233E+04  0.50400001928E-02 0. -1.
       -1   -1    0    0    0  501  0.00000000000E+00  0.00000000000E+00 -0.15532636528E+04  0.15532636529E+04  0.50400001928E-02 0.  1.
    10030    2    1    2    0    0  0.00000000000E+00  0.00000000000E+00 -0.38998042958E+03  0.27165468761E+04  0.26884088593E+04 0.  0.
        5    1    3    3  502    0  0.39355504894E+02 -0.28821335569E+03  0.11310896717E+04  0.11679048461E+04  0.46999998093E+01 0. -1.
       -5    1    3    3    0  502 -0.39355504894E+02  0.28821335569E+03 -0.15210701013E+04  0.15486420300E+04  0.46999998093E+01 0.  1.
</event>
<event>
 5   0  0.3013407E-06  0.2591273E+04  0.7818609E-02  0.8371171E-01
        1   -1    0    0  501    0  0.00000000000E+00  0.00000000000E+00  0.21667050143E+04  0.21667050143E+04  0.50400001928E-02 0.  1.
       -1   -1    0    0    0  501  0.00000000000E+00  0.00000000000E+00 -0.77475915589E+03  0.77475915590E+03  0.50400001928E-02 0. -1.
    10030    2    1    2    0    0  0.00000000000E+00  0.00000000000E+00  0.13919458584E+04  0.29414641702E+04  0.25912734691E+04 0.  0.
        4    1    3    3  502    0  0.16642045719E+03  0.51489168166E+03  0.20322932648E+04  0.21030993175E+04  0.12699999809E+01 0.  1.
       -4    1    3    3    0  502 -0.16642045719E+03 -0.51489168166E+03 -0.64034740639E+03  0.83836485266E+03  0.12699999809E+01 0. -1.
</event>
<event>
 5   0  0.7812908E-06  0.2713288E+04  0.7818609E-02  0.8330706E-01
       -2   -1    0    0    0  501  0.00000000000E+00  0.00000000000E+00  0.85046619677E+03  0.85046619677E+03  0.25500000920E-02 0.  1.
        2   -1    0    0  501    0  0.00000000000E+00  0.00000000000E+00 -0.21640875968E+04  0.21640875968E+04  0.25500000920E-02 0. -1.
    10030    2    1    2    0    0  0.00000000000E+00  0.00000000000E+00 -0.13136214001E+04  0.30145537936E+04  0.27132882987E+04 0.  0.
        5    1    3    3  502    0  0.21888554966E+03  0.12673387894E+04 -0.11364925362E+04  0.17163029644E+04  0.46999998093E+01 0. -1.
       -5    1    3    3    0  502 -0.21888554966E+03 -0.12673387894E+04 -0.17712886391E+03  0.12982508292E+04  0.46999998093E+01 0.  1.
</event>
<event>
 5   0  0.7838364E-06  0.2645594E+04  0.7818609E-02  0.8352877E-01
       -2   -1    0    0    0  501  0.00000000000E+00  0.00000000000E+00  0.10916624326E+04  0.10916624326E+04  0.25500000920E-02 0. -1.
        2   -1    0    0  501    0  0.00000000000E+00  0.00000000000E+00 -0.16028687215E+04  0.16028687215E+04  0.25500000920E-02 0.  1.
    10030    2    1    2    0    0  0.00000000000E+00  0.00000000000E+00 -0.51120628884E+03  0.26945311541E+04  0.26455937463E+04 0.  0.
        2    1    3    3  502    0  0.73402760167E+03 -0.53749173225E+03 -0.12336249098E+04  0.15328158077E+04  0.25500000920E-02 0.  1.
       -2    1    3    3    0  502 -0.73402760167E+03  0.53749173225E+03  0.72241862092E+03  0.11617153464E+04  0.25500000920E-02 0. -1.
</event>
<event>
 5   0  0.8213334E-06  0.2745627E+04  0.7818609E-02  0.8320351E-01
       -2   -1    0    0    0  501  0.00000000000E+00  0.00000000000E+00  0.11346855310E+04  0.11346855310E+04  0.25500000920E-02 0. -1.
        2   -1    0    0  501    0  0.00000000000E+00  0.00000000000E+00 -0.16609150036E+04  0.16609150036E+04  0.25500000920E-02 0.  1.
    10030    2    1    2    0    0  0.00000000000E+00  0.00000000000E+00 -0.52622947260E+03  0.27956005347E+04  0.27456265026E+04 0.  0.
        3    1    3    3  502    0  0.57921564779E+02 -0.65935905872E+03 -0.14877137827E+04  0.16283124962E+04  0.10100000352E+00 0.  1.
       -3    1    3    3    0  502 -0.57921564779E+02  0.65935905872E+03  0.96148431009E+03  0.11672880385E+04  0.10100000352E+00 0. -1.
</event>
<event>
 5   0  0.7838364E-06  0.2688958E+04  0.7818609E-02  0.8338596E-01
       -2   -1    0    0    0  501  0.00000000000E+00  0.00000000000E+00  0.14058257931E+04  0.14058257931E+04  0.25500000920E-02 0. -1.
        2   -1    0    0  501    0  0.00000000000E+00  0.00000000000E+00 -0.12858096981E+04  0.12858096981E+04  0.25500000920E-02 0.  1.
    10030    2    1    2    0    0  0.00000000000E+00  0.00000000000E+00  0.12001609507E+03  0.26916354912E+04  0.26889584888E+04 0.  0.
        2    1    3    3  502    0 -0.82970326882E+03 -0.28801027606E+03 -0.95897740428E+03  0.13003826727E+04  0.25500000920E-02 0.  1.
       -2    1    3    3    0  502  0.82970326882E+03  0.28801027606E+03  0.10789934994E+04  0.13912528185E+04  0.25500000920E-02 0. -1.
</event>
<event>
 5   0  0.8213334E-06  0.2700309E+04  0.7818609E-02  0.8334905E-01
        2   -1    0    0  501    0  0.00000000000E+00  0.00000000000E+00  0.18460663730E+04  0.18460663730E+04  0.25500000920E-02 0.  1.
       -2   -1    0    0    0  501  0.00000000000E+00  0.00000000000E+00 -0.98746020602E+03  0.98746020602E+03  0.25500000920E-02 0. -1.
    10030    2    1    2    0    0  0.00000000000E+00  0.00000000000E+00  0.85860616698E+03  0.28335265790E+04  0.27003089312E+04 0.  0.
        3    1    3    3  502    0 -0.91045146574E+03  0.95835375754E+03  0.14087304732E+03  0.13293641419E+04  0.10100000352E+00 0. -1.
       -3    1    3    3    0  502  0.91045146574E+03 -0.95835375754E+03  0.71773311966E+03  0.15041624371E+04  0.10100000352E+00 0.  1.
</event>
<event>
 5   0  0.7812908E-06  0.2709582E+04  0.7818609E-02  0.8331903E-01
        2   -1    0    0  501    0  0.00000000000E+00  0.00000000000E+00  0.11689756539E+04  0.11689756539E+04  0.25500000920E-02 0. -1.
       -2   -1    0    0    0  501  0.00000000000E+00  0.00000000000E+00 -0.15701424530E+04  0.15701424530E+04  0.25500000920E-02 0.  1.
    10030    2    1    2    0    0  0.00000000000E+00  0.00000000000E+00 -0.40116679905E+03  0.27391181069E+04  0.27095817395E+04 0.  0.
        5    1    3    3  502    0  0.13269981376E+03 -0.85088012063E+03  0.85668052898E+03  0.12147138918E+04  0.46999998093E+01 0. -1.
       -5    1    3    3    0  502 -0.13269981376E+03  0.85088012063E+03 -0.12578473280E+04  0.15244042151E+04  0.46999998093E+01 0.  1.
</event>
<event>
 5   0  0.7729970E-06  0.2702895E+04  0.7818609E-02  0.8334066E-01
        2   -1    0    0  501    0  0.00000000000E+00  0.00000000000E+00  0.85432562661E+03  0.85432562661E+03  0.25500000920E-02 0.  1.
       -2   -1    0    0    0  501  0.00000000000E+00  0.00000000000E+00 -0.21378390250E+04  0.21378390250E+04  0.25500000920E-02 0. -1.
    10030    2    1    2    0    0  0.00000000000E+00  0.00000000000E+00 -0.12835133984E+04  0.29921646516E+04  0.27028952363E+04 0.  0.
        4    1    3    3  502    0  0.66301916366E+03  0.31525972974E+03  0.61432359812E+03  0.95727645154E+03  0.12699999809E+01 0.  1.
       -4    1    3    3    0  502 -0.66301916366E+03 -0.31525972974E+03 -0.18978369965E+04  0.20348882001E+04  0.12699999809E+01 0. -1.
</event>
<event>
 5   0  0.7729970E-06  0.2704126E+04  0.7818609E-02  0.8333668E-01
        2   -1    0    0  501    0  0.00000000000E+00  0.00000000000E+00  0.19387682808E+04  0.19387682808E+04  0.25500000920E-02 0.  1.
       -2   -1    0    0    0  501  0.00000000000E+00  0.00000000000E+00 -0.94290473195E+03  0.94290473196E+03  0.25500000920E-02 0. -1.
    10030    2    1    2    0    0  0.00000000000E+00  0.00000000000E+00  0.99586354882E+03  0.28816730127E+04  0.27041255785E+04 0.  0.
        4    1    3    3  502    0 -0.11272679509E+04  0.81454719993E+02 -0.29288717011E+03  0.11675411821E+04  0.12699999809E+01 0.  1.
       -4    1    3    3    0  502  0.11272679509E+04 -0.81454719993E+02  0.12887507189E+04  0.17141318307E+04  0.12699999809E+01 0. -1.
</event>
<event>
 5   0  0.3199840E-06  0.2698294E+04  0.7818609E-02  0.8335559E-01
        1   -1    0    0  501    0  0.00000000000E+00  0.00000000000E+00  0.24790086542E+04  0.24790086542E+04  0.50400001928E-02 0. -1.
       -1   -1    0    0    0  501  0.00000000000E+00  0.00000000000E+00 -0.73424437440E+03  0.73424437441E+03  0.50400001928E-02 0.  1.
    10030    2    1    2    0    0  0.00000000000E+00  0.00000000000E+00  0.17447642798E+04  0.32132530286E+04  0.26982943935E+04 0.  0.
        1    1    3    3  502    0 -0.12484372389E+03  0.81931756308E+02 -0.72437286886E+03  0.73960450326E+03  0.50400001928E-02 0.  1.
       -1    1    3    3    0  502  0.12484372389E+03 -0.81931756308E+02  0.24691371487E+04  0.24736485254E+04  0.50400001928E-02 0. -1.
</event>
<event>
 5   0  0.7838364E-06  0.2498644E+04  0.7818609E-02  0.8403469E-01
       -2   -1    0    0    0  501  0.00000000000E+00  0.00000000000E+00  0.15230247564E+04  0.15230247564E+04  0.25500000920E-02 0.  1.
        2   -1    0    0  501    0  0.00000000000E+00  0.00000000000E+00 -0.10248060778E+04  0.10248060778E+04  0.25500000920E-02 0. -1.
    10030    2    1    2    0    0  0.00000000000E+00  0.00000000000E+00  0.49821867862E+03  0.25478308342E+04  0.24986436536E+04 0.  0.
        2    1    3    3  502    0  0.89380636394E+03 -0.22921991799E+03 -0.60971378162E+03  0.11059758056E+04  0.25500000920E-02 0. -1.
       -2    1    3    3    0  502 -0.89380636394E+03  0.22921991799E+03  0.11079324602E+04  0.14418550286E+04  0.25500000920E-02 0.  1.
</event>
<event>
 5   0  0.3089218E-06  0.2707787E+04  0.7818609E-02  0.8332483E-01
       -1   -1    0    0    0  501  0.00000000000E+00  0.00000000000E+00  0.98929711308E+03  0.98929711310E+03  0.50400001928E-02 0. -1.
        1   -1    0    0  501    0  0.00000000000E+00  0.00000000000E+00 -0.18528584576E+04  0.18528584576E+04  0.50400001928E-02 0.  1.
    10030    2    1    2    0    0  0.00000000000E+00  0.00000000000E+00 -0.86356134449E+03  0.28421555707E+04  0.27077869363E+04 0.  0.
        5    1    3    3  502    0 -0.59894751146E+03 -0.12099018219E+04 -0.32471452694E+03  0.13885467778E+04  0.46999998093E+01 0. -1.
       -5    1    3    3    0  502  0.59894751146E+03  0.12099018219E+04 -0.53884681755E+03  0.14536087929E+04  0.46999998093E+01 0.  1.
</event>
<event>
 5   0  0.3199840E-06  0.2710406E+04  0.7818609E-02  0.8331636E-01
        1   -1    0    0  501    0  0.00000000000E+00  0.00000000000E+00  0.11923877179E+04  0.11923877179E+04  0.50400001928E-02 0.  1.
       -1   -1    0    0    0  501  0.00000000000E+00  0.00000000000E+00 -0.15402502817E+04  0.15402502818E+04  0.50400001928E-02 0. -1.
    10030    2    1    2    0    0  0.00000000000E+00  0.00000000000E+00 -0.34786256388E+03  0.27326379996E+04  0.27104062562E+04 0.  0.
        1    1    3    3  502    0 -0.62403466361E+03 -0.11917873655E+04 -0.88841125874E+01  0.13453086313E+04  0.50400001928E-02 0. -1.
       -1    1    3    3    0  502  0.62403466361E+03  0.11917873655E+04 -0.33897845129E+03  0.13873293684E+04  0.50400001928E-02 0.  1.
</event>
<event>
 5   0  0.3089218E-06  0.2700359E+04  0.7818609E-02  0.8334889E-01
       -1   -1    0    0    0  501  0.00000000000E+00  0.00000000000E+00  0.13268105984E+04  0.13268105984E+04  0.50400001928E-02 0.  1.
        1   -1    0    0  501    0  0.00000000000E+00  0.00000000000E+00 -0.13739599753E+04  0.13739599753E+04  0.50400001928E-02 0. -1.
    10030    2    1    2    0    0  0.00000000000E+00  0.00000000000E+00 -0.47149376957E+02  0.27007705737E+04  0.27003589813E+04 0.  0.
        5    1    3    3  502    0  0.42283427669E+03  0.46146992982E+03  0.11729434164E+04  0.13294967731E+04  0.46999998093E+01 0.  1.
       -5    1    3    3    0  502 -0.42283427669E+03 -0.46146992982E+03 -0.12200927934E+04  0.13712738006E+04  0.46999998093E+01 0. -1.
</event>
<event>
 5   0  0.8407622E-06  0.2689161E+04  0.7818609E-02  0.8338530E-01
        2   -1    0    0  501    0  0.00000000000E+00  0.00000000000E+00  0.58351481349E+03  0.58351481350E+03  0.25500000920E-02 0.  1.
       -2   -1    0    0    0  501  0.00000000000E+00  0.00000000000E+00 -0.30982884171E+04  0.30982884171E+04  0.25500000920E-02 0. -1.
    10030    2    1    2    0    0  0.00000000000E+00  0.00000000000E+00 -0.25147736036E+04  0.36818032306E+04  0.26891613473E+04 0.  0.
        1    1    3    3  502    0 -0.96103100937E+03  0.70728155511E+03 -0.40889322061E+03  0.12613569935E+04  0.50400001928E-02 0.  1.
       -1    1    3    3    0  502  0.96103100937E+03 -0.70728155511E+03 -0.21058803830E+04  0.24204462371E+04  0.50400001928E-02 0. -1.
</event>
<event>
 5   0  0.8213334E-06  0.2692972E+04  0.7818609E-02  0.8337289E-01
        2   -1    0    0  501    0  0.00000000000E+00  0.00000000000E+00  0.21812310834E+04  0.21812310834E+04  0.25500000920E-02 0. -1.
       -2   -1    0    0    0  501  0.00000000000E+00  0.00000000000E+00 -0.83119315419E+03  0.83119315419E+03  0.25500000920E-02 0.  1.
    10030    2    1    2    0    0  0.00000000000E+00  0.00000000000E+00  0.13500379293E+04  0.30124242376E+04  0.26929718486E+04 0.  0.
        3    1    3    3  502    0 -0.11285308268E+04  0.65615926116E+03  0.10441608589E+04  0.16716455104E+04  0.10100000352E+00 0.  1.
       -3    1    3    3    0  502  0.11285308268E+04 -0.65615926116E+03  0.30587707038E+03  0.13407787272E+04  0.10100000352E+00 0. -1.
</event>
<event>
 5   0  0.7812908E-06  0.2696077E+04  0.7818609E-02  0.8336279E-01
       -2   -1    0    0    0  501  0.00000000000E+00  0.00000000000E+00  0.12251113165E+04  0.12251113165E+04  0.25500000920E-02 0.  1.
        2   -1    0    0  501    0  0.00000000000E+00  0.00000000000E+00 -0.14832997568E+04  0.14832997568E+04  0.25500000920E-02 0. -1.
    10030    2    1    2    0    0  0.00000000000E+00  0.00000000000E+00 -0.25818844024E+03  0.27084110733E+04  0.26960766442E+04 0.  0.
        5    1    3    3  502    0 -0.65960105143E+03  0.50398194685E+03 -0.11960804571E+04  0.14559196062E+04  0.46999998093E+01 0. -1.
       -5    1    3    3    0  502  0.65960105143E+03 -0.50398194685E+03  0.93789201688E+03  0.12524914671E+04  0.46999998093E+01 0.  1.
</event>
<event>
 5   0  0.3089218E-06  0.2694598E+04  0.7818609E-02  0.8336760E-01
       -1   -1    0    0    0  501  0.00000000000E+00  0.00000000000E+00  0.10856804912E+04  0.10856804912E+04  0.50400001928E-02 0.  1.
        1   -1    0    0  501    0  0.00000000000E+00  0.00000000000E+00 -0.16719597397E+04  0.16719597397E+04  0.50400001928E-02 0. -1.
    10030    2    1    2    0    0  0.00000000000E+00  0.00000000000E+00 -0.58627924851E+03  0.27576402309E+04  0.26945976112E+04 0.  0.
        5    1    3    3  502    0 -0.97236881334E+03 -0.70802082033E+03  0.32801819765E+03  0.12467608508E+04  0.46999998093E+01 0.  1.
       -5    1    3    3    0  502  0.97236881334E+03  0.70802082033E+03 -0.91429744616E+03  0.15108793801E+04  0.46999998093E+01 0. -1.
</event>
<event>
 5   0  0.8213334E-06  0.2693740E+04  0.7818609E-02  0.8337039E-01
        2   -1    0    0  501    0  0.00000000000E+00  0.00000000000E+00  0.13247575740E+04  0.13247575740E+04  0.25500000920E-02 0.  1.
       -2   -1    0    0    0  501  0.00000000000E+00  0.00000000000E+00 -0.13693515865E+04  0.13693515865E+04  0.25500000920E-02 0. -1.
    10030    2    1    2    0    0  0.00000000000E+00  0.00000000000E+00 -0.44594012470E+02  0.26941091605E+04  0.26937400659E+04 0.  0.
        3    1    3    3  502    0  0.20019834558E+03 -0.10847258252E+04  0.75069270280E+03  0.13342597339E+04  0.10100000352E+00 0.  1.
       -3    1    3    3    0  502 -0.20019834558E+03  0.10847258252E+04 -0.79528671527E+03  0.13598494266E+04  0.10100000352E+00 0. -1.
</event>
<event>
 5   0  0.7729970E-06  0.2726164E+04  0.7818609E-02  0.8326565E-01
       -2   -1    0    0    0  501  0.00000000000E+00  0.00000000000E+00  0.15007532248E+04  0.15007532248E+04  0.25500000920E-02 0.  1.
        2   -1    0    0  501    0  0.00000000000E+00  0.00000000000E+00 -0.12380404408E+04  0.12380404408E+04  0.25500000920E-02 0. -1.
    10030    2    1    2    0    0  0.00000000000E+00  0.00000000000E+00  0.26271278398E+03  0.27387936656E+04  0.27261644733E+04 0.  0.
        4    1    3    3  502    0  0.62360903704E+03 -0.97732490153E+03  0.85157312565E+03  0.14384820456E+04  0.12699999809E+01 0.  1.
       -4    1    3    3    0  502 -0.62360903704E+03  0.97732490153E+03 -0.58886034167E+03  0.13003116200E+04  0.12699999809E+01 0. -1.
</event>
<event>
 5   0  0.7812908E-06  0.2634019E+04  0.7818609E-02  0.8356737E-01
       -2   -1    0    0    0  501  0.00000000000E+00  0.00000000000E+00  0.11289700470E+04  0.11289700470E+04  0.25500000920E-02 0. -1.
        2   -1    0    0  501    0  0.00000000000E+00  0.00000000000E+00 -0.15363680807E+04  0.15363680807E+04  0.25500000920E-02 0.  1.
    10030    2    1    2    0    0  0.00000000000E+00  0.00000000000E+00 -0.40739803374E+03  0.26653381277E+04  0.26340186365E+04 0.  0.
        5    1    3    3  502    0  0.86295171597E+03 -0.13207893873E+02 -0.12103297580E+04  0.14865329884E+04  0.46999998093E+01 0.  1.
       -5    1    3    3    0  502 -0.86295171597E+03  0.13207893873E+02  0.80293172428E+03  0.11788051393E+04  0.46999998093E+01 0. -1.
</event>
<event>
 5   0  0.3089218E-06  0.2641569E+04  0.7818609E-02  0.8354217E-01
        1   -1    0    0  501    0  0.00000000000E+00  0.00000000000E+00  0.16307443246E+04  0.16307443246E+04  0.50400001928E-02 0. -1.
       -1   -1    0    0    0  501  0.00000000000E+00  0.00000000000E+00 -0.10697396123E+04  0.10697396123E+04  0.50400001928E-02 0.  1.
    10030    2    1    2    0    0  0.00000000000E+00  0.00000000000E+00  0.56100471230E+03  0.27004839368E+04  0.26415690803E+04 0.  0.
        5    1    3    3  502    0  0.35805363717E+01 -0.46917400095E+03  0.15426688659E+04  0.16124473272E+04  0.46999998093E+01 0. -1.
       -5    1    3    3    0  502 -0.35805363717E+01  0.46917400095E+03 -0.98166415358E+03  0.10880366096E+04  0.46999998093E+01 0.  1.
</event>
<event>
 5   0  0.8213334E-06  0.2692099E+04  0.7818609E-02  0.8337573E-01
       -2   -1    0    0    0  501  0.00000000000E+00  0.00000000000E+00  0.70347413451E+03  0.70347413452E+03  0.25500000920E-02 0. -1.
        2   -1    0    0  501    0  0.00000000000E+00  0.00000000000E+00 -0.25755731330E+04  0.25755731330E+04  0.25500000920E-02 0.  1.
    10030    2    1    2    0    0  0.00000000000E+00  0.00000000000E+00 -0.18720989985E+04  0.32790472676E+04  0.26920988694E+04 0.  0.
        3    1    3    3  502    0  0.22606825171E+03 -0.59632826976E+03 -0.23798781914E+04  0.24638454651E+04  0.10100000352E+00 0.  1.
       -3    1    3    3    0  502 -0.22606825171E+03  0.59632826976E+03  0.50777919291E+03  0.81520180244E+03  0.10100000352E+00 0. -1.
</event>
<event>
 5   0  0.8407622E-06  0.2704673E+04  0.7818609E-02  0.8333490E-01
       -2   -1    0    0    0  501  0.00000000000E+00  0.00000000000E+00  0.18550413139E+04  0.18550413139E+04  0.25500000920E-02 0. -1.
        2   -1    0    0  501    0  0.00000000000E+00  0.00000000000E+00 -0.98586179803E+03  0.98586179803E+03  0.25500000920E-02 0.  1.
    10030    2    1    2    0    0  0.00000000000E+00  0.00000000000E+00  0.86917951588E+03  0.28409031119E+04  0.27046732632E+04 0.  0.
        1    1    3    3  502    0  0.53379213303E+03 -0.11816105554E+04  0.30946428828E+02  0.12969561394E+04  0.50400001928E-02 0. -1.
       -1    1    3    3    0  502 -0.53379213303E+03  0.11816105554E+04  0.83823308705E+03  0.15439469726E+04  0.50400001928E-02 0.  1.
</event>
<event>
 5   0  0.7729970E-06  0.2670839E+04  0.7818609E-02  0.8344529E-01
       -2   -1    0    0    0  501  0.00000000000E+00  0.00000000000E+00  0.15549447814E+04  0.15549447814E+04  0.25500000920E-02 0.  1.
        2   -1    0    0  501    0  0.00000000000E+00  0.00000000000E+00 -0.11468864132E+04  0.11468864132E+04  0.25500000920E-02 0. -1.
    10030    2    1    2    0    0  0.00000000000E+00  0.00000000000E+00  0.40805836823E+03  0.27018311946E+04  0.26708388518E+04 0.  0.
        4    1    3    3  502    0  0.33659870161E+03 -0.10518185964E+04  0.96355609612E+03  0.14656271725E+04  0.12699999809E+01 0.  1.
       -4    1    3    3    0  502 -0.33659870161E+03  0.10518185964E+04 -0.55549772790E+03  0.12362040221E+04  0.12699999809E+01 0. -1.
</event>
<event>
 5   0  0.8407622E-06  0.2677338E+04  0.7818609E-02  0.8342395E-01
        2   -1    0    0  501    0  0.00000000000E+00  0.00000000000E+00  0.27358603790E+04  0.27358603790E+04  0.25500000920E-02 0. -1.
       -2   -1    0    0    0  501  0.00000000000E+00  0.00000000000E+00 -0.65501709176E+03  0.65501709176E+03  0.25500000920E-02 0.  1.
    10030    2    1    2    0    0  0.00000000000E+00  0.00000000000E+00  0.20808432872E+04  0.33908774708E+04  0.26773384612E+04 0.  0.
        1    1    3    3  502    0 -0.56834147473E+03  0.44080581979E+03  0.24703527496E+04  0.25729291693E+04  0.50400001928E-02 0. -1.
       -1    1    3    3    0  502  0.56834147473E+03 -0.44080581979E+03 -0.38950946233E+03  0.81794830151E+03  0.50400001928E-02 0.  1.
</event>
<event>
 5   0  0.8213334E-06  0.2858199E+04  0.7818609E-02  0.8285424E-01
        2   -1    0    0  501    0  0.00000000000E+00  0.00000000000E+00  0.15919700850E+04  0.15919700850E+04  0.25500000920E-02 0.  1.
       -2   -1    0    0    0  501  0.00000000000E+00  0.00000000000E+00 -0.12828919301E+04  0.12828919301E+04  0.25500000920E-02 0. -1.
    10030    2    1    2    0    0  0.00000000000E+00  0.00000000000E+00  0.30907815489E+03  0.28748620152E+04  0.28581991359E+04 0.  0.
        3    1    3    3  502    0  0.24920198764E+03 -0.10214201217E+04 -0.81905271598E+03  0.13327595647E+04  0.10100000352E+00 0. -1.
       -3    1    3    3    0  502 -0.24920198764E+03  0.10214201217E+04  0.11281308709E+04  0.15421024504E+04  0.10100000352E+00 0.  1.
</event>
<event>
 5   0  0.7838364E-06  0.2691636E+04  0.7818609E-02  0.8337724E-01
       -2   -1    0    0    0  501  0.00000000000E+00  0.00000000000E+00  0.13219734338E+04  0.13219734338E+04  0.25500000920E-02 0.  1.
        2   -1    0    0  501    0  0.00000000000E+00  0.00000000000E+00 -0.13700931520E+04  0.13700931520E+04  0.25500000920E-02 0. -1.
    10030    2    1    2    0    0  0.00000000000E+00  0.00000000000E+00 -0.48119718194E+02  0.26920665859E+04  0.26916364902E+04 0.  0.
        2    1    3    3  502    0 -0.10896650683E+04  0.43082010055E+03 -0.68617079833E+03  0.13578682869E+04  0.25500000920E-02 0. -1.
       -2    1    3    3    0  502  0.10896650683E+04 -0.43082010055E+03  0.63805108013E+03  0.13341982990E+04  0.25500000920E-02 0.  1.
</event>
<event>
 5   0  0.8407622E-06  0.2638275E+04  0.7818609E-02  0.8355315E-01
       -2   -1    0    0    0  501  0.00000000000E+00  0.00000000000E+00  0.12859930183E+04  0.12859930183E+04  0.25500000920E-02 0. -1.
        2   -1    0    0  501    0  0.00000000000E+00  0.00000000000E+00 -0.13531357882E+04  0.13531357882E+04  0.25500000920E-02 0.  1.
    10030    2    1    2    0    0  0.00000000000E+00  0.00000000000E+00 -0.67142769931E+02  0.26391288065E+04  0.26382745698E+04 0.  0.
        1    1    3    3  502    0 -0.12864107911E+04 -0.16291031782E+03  0.20885122110E+03  0.13133968660E+04  0.50400001928E-02 0.  1.
       -1    1    3    3    0  502  0.12864107911E+04  0.16291031782E+03 -0.27599399103E+03  0.13257319405E+04  0.50400001928E-02 0. -1.
</event>
<event>
 5   0  0.7838364E-06  0.2692486E+04  0.7818609E-02  0.8337447E-01
       -2   -1    0    0    0  501  0.00000000000E+00  0.00000000000E+00  0.12131477553E+04  0.12131477553E+04  0.25500000920E-02 0.  1.
        2   -1    0    0  501    0  0.00000000000E+00  0.00000000000E+00 -0.14939404160E+04  0.14939404160E+04  0.25500000920E-02 0. -1.
    10030    2    1    2    0    0  0.00000000000E+00  0.00000000000E+00 -0.28079266062E+03  0.27070881713E+04  0.26924861836E+04 0.  0.
        2    1    3    3  502    0  0.20647676163E+03  0.51920980301E+03  0.10910558789E+04  0.12258117325E+04  0.25500000920E-02 0.  1.
       -2    1    3    3    0  502 -0.20647676163E+03 -0.51920980301E+03 -0.13718485395E+04  0.14812764388E+04  0.25500000920E-02 0. -1.
</event>
<event>
 5   0  0.3199840E-06  0.2708013E+04  0.7818609E-02  0.8332410E-01
        1   -1    0    0  501    0  0.00000000000E+00  0.00000000000E+00  0.12570134116E+04  0.12570134116E+04  0.50400001928E-02 0. -1.
       -1   -1    0    0    0  501  0.00000000000E+00  0.00000000000E+00 -0.14584840344E+04  0.14584840344E+04  0.50400001928E-02 0.  1.
    10030    2    1    2    0    0  0.00000000000E+00  0.00000000000E+00 -0.20147062281E+03  0.27154974460E+04  0.27080132879E+04 0.  0.
        1    1    3    3  502    0  0.40560924559E+03 -0.72018656016E+03 -0.11761480569E+04  0.14375367102E+04  0.50400001928E-02 0.  1.
       -1    1    3    3    0  502 -0.40560924559E+03  0.72018656016E+03  0.97467743409E+03  0.12779607357E+04  0.50400001928E-02 0. -1.
</event>
<event>
 5   0  0.3046300E-06  0.2696343E+04  0.7818609E-02  0.8336192E-01
       -1   -1    0    0    0  501  0.00000000000E+00  0.00000000000E+00  0.10622693636E+04  0.10622693636E+04  0.50400001928E-02 0.  1.
        1   -1    0    0  501    0  0.00000000000E+00  0.00000000000E+00 -0.17110225270E+04  0.17110225270E+04  0.50400001928E-02 0. -1.
    10030    2    1    2    0    0  0.00000000000E+00  0.00000000000E+00 -0.64875316342E+03  0.27732918906E+04  0.26963433096E+04 0.  0.
        2    1    3    3  502    0 -0.65234254682E+03  0.93312983625E+03  0.41822845780E+03  0.12129291540E+04  0.25500000920E-02 0.  1.
       -2    1    3    3    0  502  0.65234254682E+03 -0.93312983625E+03 -0.10669816212E+04  0.15603627366E+04  0.25500000920E-02 0. -1.
</event>
<event>
 5   0  0.3013407E-06  0.2707269E+04  0.7818609E-02  0.8332650E-01
        1   -1    0    0  501    0  0.00000000000E+00  0.00000000000E+00  0.15367545840E+04  0.15367545840E+04  0.50400001928E-02 0. -1.
       -1   -1    0    0    0  501  0.00000000000E+00  0.00000000000E+00 -0.11923350640E+04  0.11923350640E+04  0.50400001928E-02 0.  1.
    10030    2    1    2    0    0  0.00000000000E+00  0.00000000000E+00  0.34441951995E+03  0.27290896480E+04  0.27072690116E+04 0.  0.
        4    1    3    3  502    0  0.13075811945E+04 -0.29047625614E+03 -0.24761470397E+02  0.13396864480E+04  0.12699999809E+01 0.  1.
       -4    1    3    3    0  502 -0.13075811945E+04  0.29047625614E+03  0.36918099034E+03  0.13894032000E+04  0.12699999809E+01 0. -1.
</event>
<event>
 5   0  0.3089218E-06  0.2698984E+04  0.7818609E-02  0.8335335E-01
        1   -1    0    0  501    0  0.00000000000E+00  0.00000000000E+00  0.20061454073E+04  0.20061454073E+04  0.50400001928E-02 0. -1.
       -1   -1    0    0    0  501  0.00000000000E+00  0.00000000000E+00 -0.90777512652E+03  0.90777512654E+03  0.50400001928E-02 0.  1.
    10030    2    1    2    0    0  0.00000000000E+00  0.00000000000E+00  0.10983702808E+04  0.29139205338E+04  0.26989841800E+04 0.  0.
        5    1    3    3  502    0 -0.66512467104E+03 -0.11505308225E+04  0.80237028201E+03  0.15523956200E+04  0.46999998093E+01 0. -1.
       -5    1    3    3    0  502  0.66512467104E+03  0.11505308225E+04  0.29599999876E+03  0.13615249138E+04  0.46999998093E+01 0.  1.
</event>
<event>
 5   0  0.8213334E-06  0.2700573E+04  0.7818609E-02  0.8334819E-01
       -2   -1    0    0    0  501  0.00000000000E+00  0.00000000000E+00  0.85871623649E+03  0.85871623650E+03  0.25500000920E-02 0. -1.
        2   -1    0    0  501    0  0.00000000000E+00  0.00000000000E+00 -0.21232550734E+04  0.21232550734E+04  0.25500000920E-02 0.  1.
    10030    2    1    2    0    0  0.00000000000E+00  0.00000000000E+00 -0.12645388369E+04  0.29819713099E+04  0.27005729805E+04 0.  0.
        3    1    3    3  502    0  0.55625450058E+03 -0.89276581477E+03 -0.15671448104E+04  0.18874301938E+04  0.10100000352E+00 0.  1.
       -3    1    3    3    0  502 -0.55625450058E+03  0.89276581477E+03  0.30260597350E+03  0.10945411161E+04  0.10100000352E+00 0. -1.
</event>
<event>
 5   0  0.8213334E-06  0.2706882E+04  0.7818609E-02  0.8332776E-01
        2   -1    0    0  501    0  0.00000000000E+00  0.00000000000E+00  0.17493168758E+04  0.17493168758E+04  0.25500000920E-02 0. -1.
       -2   -1    0    0    0  501  0.00000000000E+00  0.00000000000E+00 -0.10471527570E+04  0.10471527570E+04  0.25500000920E-02 0.  1.
    10030    2    1    2    0    0  0.00000000000E+00  0.00000000000E+00  0.70216411876E+03  0.27964696328E+04  0.27068815928E+04 0.  0.
        3    1    3    3  502    0  0.37537855552E+03 -0.85347078334E+03  0.13646125720E+04  0.16527216704E+04  0.10100000352E+00 0. -1.
       -3    1    3    3    0  502 -0.37537855552E+03  0.85347078334E+03 -0.66244845325E+03  0.11437479623E+04  0.10100000352E+00 0.  1.
</event>
<event>
 5   0  0.3028601E-06  0.2730168E+04  0.7818609E-02  0.8325282E-01
       -1   -1    0    0    0  501  0.00000000000E+00  0.00000000000E+00  0.89473389965E+03  0.89473389967E+03  0.50400001928E-02 0.  1.
        1   -1    0    0  501    0  0.00000000000E+00  0.00000000000E+00 -0.20826908007E+04  0.20826908007E+04  0.50400001928E-02 0. -1.
    10030    2    1    2    0    0  0.00000000000E+00  0.00000000000E+00 -0.11879569011E+04  0.29774247004E+04  0.27301678058E+04 0.  0.
        3    1    3    3  502    0 -0.66317879557E+03  0.11888299315E+04 -0.48313001163E+03  0.14444851467E+04  0.10100000352E+00 0.  1.
       -3    1    3    3    0  502  0.66317879557E+03 -0.11888299315E+04 -0.70482688943E+03  0.15329395536E+04  0.10100000352E+00 0. -1.
</event>
<event>
 5   0  0.3013407E-06  0.2702532E+04  0.7818609E-02  0.8334184E-01
       -1   -1    0    0    0  501  0.00000000000E+00  0.00000000000E+00  0.89881655837E+03  0.89881655838E+03  0.50400001928E-02 0. -1.
        1   -1    0    0  501    0  0.00000000000E+00  0.00000000000E+00 -0.20314705014E+04  0.20314705015E+04  0.50400001928E-02 0.  1.
    10030    2    1    2    0    0  0.00000000000E+00  0.00000000000E+00 -0.11326539431E+04  0.29302870598E+04  0.27025316461E+04 0.  0.
        4    1    3    3  502    0 -0.10396717373E+04  0.55536432557E+03  0.15009145801E+03  0.11882238485E+04  0.12699999809E+01 0. -1.
       -4    1    3    3    0  502  0.10396717373E+04 -0.55536432557E+03 -0.12827454011E+04  0.17420632114E+04  0.12699999809E+01 0.  1.
</event>
<event>
 5   0  0.3089218E-06  0.2695266E+04  0.7818609E-02  0.8336542E-01
       -1   -1    0    0    0  501  0.00000000000E+00  0.00000000000E+00  0.11394139153E+04  0.11394139154E+04  0.50400001928E-02 0.  1.
        1   -1    0    0  501    0  0.00000000000E+00  0.00000000000E+00 -0.15939029955E+04  0.15939029955E+04  0.50400001928E-02 0. -1.
    10030    2    1    2    0    0  0.00000000000E+00  0.00000000000E+00 -0.45448908019E+03  0.27333169109E+04  0.26952664082E+04 0.  0.
        5    1    3    3  502    0 -0.57875467261E+03  0.55153092546E+03 -0.13274334553E+04  0.15495951088E+04  0.46999998093E+01 0. -1.
       -5    1    3    3    0  502  0.57875467261E+03 -0.55153092546E+03  0.87294437512E+03  0.11837218021E+04  0.46999998093E+01 0.  1.
</event>
<event>
 5   0  0.7729970E-06  0.2681372E+04  0.7818609E-02  0.8341075E-01
       -2   -1    0    0    0  501  0.00000000000E+00  0.00000000000E+00  0.18148518095E+04  0.18148518095E+04  0.25500000920E-02 0.  1.
        2   -1    0    0  501    0  0.00000000000E+00  0.00000000000E+00 -0.99040508009E+03  0.99040508009E+03  0.25500000920E-02 0. -1.
    10030    2    1    2    0    0  0.00000000000E+00  0.00000000000E+00  0.82444672936E+03  0.28052568895E+04  0.26813716279E+04 0.  0.
        4    1    3    3  502    0 -0.13903561213E+02 -0.14340435713E+03  0.18067283727E+04  0.18124643843E+04  0.12699999809E+01 0.  1.
       -4    1    3    3    0  502  0.13903561213E+02  0.14340435713E+03 -0.98228164337E+03  0.99279250524E+03  0.12699999809E+01 0. -1.
</event>
<event>
 5   0  0.7729970E-06  0.2711502E+04  0.7818609E-02  0.8331283E-01
       -2   -1    0    0    0  501  0.00000000000E+00  0.00000000000E+00  0.16795600761E+04  0.16795600761E+04  0.25500000920E-02 0.  1.
        2   -1    0    0  501    0  0.00000000000E+00  0.00000000000E+00 -0.10943703238E+04  0.10943703238E+04  0.25500000920E-02 0. -1.
    10030    2    1    2    0    0  0.00000000000E+00  0.00000000000E+00  0.58518975230E+03  0.27739303998E+04  0.27115019485E+04 0.  0.
        4    1    3    3  502    0 -0.61127341984E+03  0.90807551331E+03  0.11108876079E+04  0.15595926462E+04  0.12699999809E+01 0.  1.
       -4    1    3    3    0  502  0.61127341984E+03 -0.90807551331E+03 -0.52569785561E+03  0.12143377537E+04  0.12699999809E+01 0. -1.
</event>
<event>
 5   0  0.8213334E-06  0.2705032E+04  0.7818609E-02  0.8333374E-01
       -2   -1    0    0    0  501  0.00000000000E+00  0.00000000000E+00  0.10278380028E+04  0.10278380028E+04  0.25500000920E-02 0.  1.
        2   -1    0    0  501    0  0.00000000000E+00  0.00000000000E+00 -0.17797545388E+04  0.17797545388E+04  0.25500000920E-02 0. -1.
    10030    2    1    2    0    0  0.00000000000E+00  0.00000000000E+00 -0.75191653607E+03  0.28075925416E+04  0.27050318672E+04 0.  0.
        3    1    3    3  502    0 -0.28106356517E+02  0.15746728859E+03 -0.17699027059E+04  0.17771160662E+04  0.10100000352E+00 0. -1.
       -3    1    3    3    0  502  0.28106356517E+02 -0.15746728859E+03  0.10179861698E+04  0.10304764754E+04  0.10100000352E+00 0.  1.
</event>
<event>
 5   0  0.3199840E-06  0.2691333E+04  0.7818609E-02  0.8337823E-01
       -1   -1    0    0    0  501  0.00000000000E+00  0.00000000000E+00  0.14530222120E+04  0.14530222120E+04  0.50400001928E-02 0. -1.
        1   -1    0    0  501    0  0.00000000000E+00  0.00000000000E+00 -0.12462426327E+04  0.12462426328E+04  0.50400001928E-02 0.  1.
    10030    2    1    2    0    0  0.00000000000E+00  0.00000000000E+00  0.20677957929E+03  0.26992648448E+04  0.26913329240E+04 0.  0.
        1    1    3    3  502    0 -0.65435452284E+02  0.36535785233E+03 -0.11938866871E+04  0.12502534064E+04  0.50400001928E-02 0.  1.
       -1    1    3    3    0  502  0.65435452284E+02 -0.36535785233E+03  0.14006662664E+04  0.14490114384E+04  0.50400001928E-02 0. -1.
</event>
<event>
 5   0  0.7729970E-06  0.2709079E+04  0.7818609E-02  0.8332065E-01
       -2   -1    0    0    0  501  0.00000000000E+00  0.00000000000E+00  0.13613337568E+04  0.13613337568E+04  0.25500000920E-02 0.  1.
        2   -1    0    0  501    0  0.00000000000E+00  0.00000000000E+00 -0.13477791055E+04  0.13477791055E+04  0.25500000920E-02 0. -1.
    10030    2    1    2    0    0  0.00000000000E+00  0.00000000000E+00  0.13554651282E+02  0.27091128624E+04  0.27090789528E+04 0.  0.
        4    1    3    3  502    0  0.97601481495E+03  0.71437319816E+03  0.61657311420E+03  0.13576074555E+04  0.12699999809E+01 0.  1.
       -4    1    3    3    0  502 -0.97601481495E+03 -0.71437319816E+03 -0.60301846292E+03  0.13515054069E+04  0.12699999809E+01 0. -1.
</event>
<event>
 5   0  0.3013407E-06  0.2680697E+04  0.7818609E-02  0.8341295E-01
       -1   -1    0    0    0  501  0.00000000000E+00  0.00000000000E+00  0.27836886133E+04  0.27836886133E+04  0.50400001928E-02 0. -1.
        1   -1    0    0  501    0  0.00000000000E+00  0.00000000000E+00 -0.64537886775E+03  0.64537886777E+03  0.50400001928E-02 0.  1.
    10030    2    1    2    0    0  0.00000000000E+00  0.00000000000E+00  0.21383097455E+04  0.34290674811E+04  0.26806967792E+04 0.  0.
        4    1    3    3  502    0  0.98889652787E+03 -0.50313734989E+03  0.10724892972E+03  0.11147051097E+04  0.12699999809E+01 0. -1.
       -4    1    3    3    0  502 -0.98889652787E+03  0.50313734989E+03  0.20310608158E+04  0.23143623714E+04  0.12699999809E+01 0.  1.
</event>
<event>
 5   0  0.8407622E-06  0.2476465E+04  0.7818609E-02  0.8411418E-01
        2   -1    0    0  501    0  0.00000000000E+00  0.00000000000E+00  0.81703537707E+03  0.81703537707E+03  0.25500000920E-02 0.  1.
       -2   -1    0    0    0  501  0.00000000000E+00  0.00000000000E+00 -0.18765639334E+04  0.18765639334E+04  0.25500000920E-02 0. -1.
    10030    2    1    2    0    0  0.00000000000E+00  0.00000000000E+00 -0.10595285563E+04  0.26935993105E+04  0.24764645129E+04 0.  0.
        1    1    3    3  502    0  0.31553833406E+03  0.91031196712E+03  0.31624248289E+03  0.10140224977E+04  0.50400001928E-02 0.  1.
       -1    1    3    3    0  502 -0.31553833406E+03 -0.91031196712E+03 -0.13757710392E+04  0.16795768128E+04  0.50400001928E-02 0. -1.
</event>
<event>
 5   0  0.7812908E-06  0.2915459E+04  0.7818609E-02  0.8268293E-01
       -2   -1    0    0    0  501  0.00000000000E+00  0.00000000000E+00  0.17589405289E+04  0.17589405289E+04  0.25500000920E-02 0. -1.
        2   -1    0    0  501    0  0.00000000000E+00  0.00000000000E+00 -0.12080994517E+04  0.12080994518E+04  0.25500000920E-02 0.  1.
    10030    2    1    2    0    0  0.00000000000E+00  0.00000000000E+00  0.55084107713E+03  0.29670399806E+04  0.29154588583E+04 0.  0.
        5    1    3    3  502    0  0.28356499340E+03 -0.13499516959E+04  0.75511356302E+03  0.15725766340E+04  0.46999998093E+01 0. -1.
       -5    1    3    3    0  502 -0.28356499340E+03  0.13499516959E+04 -0.20427248590E+03  0.13944633467E+04  0.46999998093E+01 0.  1.
</event>
<event>
 5   0  0.3199840E-06  0.2702634E+04  0.7818609E-02  0.8334151E-01
        1   -1    0    0  501    0  0.00000000000E+00  0.00000000000E+00  0.12632476144E+04  0.12632476144E+04  0.50400001928E-02 0. -1.
       -1   -1    0    0    0  501  0.00000000000E+00  0.00000000000E+00 -0.14455258239E+04  0.14455258239E+04  0.50400001928E-02 0.  1.
    10030    2    1    2    0    0  0.00000000000E+00  0.00000000000E+00 -0.18227820946E+03  0.27087734384E+04  0.27026335665E+04 0.  0.
        1    1    3    3  502    0  0.10043341726E+04  0.50333182089E+03 -0.84386258164E+03  0.14050388282E+04  0.50400001928E-02 0.  1.
       -1    1    3    3    0  502 -0.10043341726E+04 -0.50333182089E+03  0.66158437218E+03  0.13037346101E+04  0.50400001928E-02 0. -1.
</event>
<event>
 5   0  0.3199840E-06  0.2666517E+04  0.7818609E-02  0.8345951E-01
       -1   -1    0    0    0  501  0.00000000000E+00  0.00000000000E+00  0.11031356840E+04  0.11031356840E+04  0.50400001928E-02 0.  1.
        1   -1    0    0  501    0  0.00000000000E+00  0.00000000000E+00 -0.16113872202E+04  0.16113872202E+04  0.50400001928E-02 0. -1.
    10030    2    1    2    0    0  0.00000000000E+00  0.00000000000E+00 -0.50825153621E+03  0.27145229042E+04  0.26665173867E+04 0.  0.
        1    1    3    3  502    0 -0.12214927350E+04  0.52790800705E+03 -0.16988714968E+03  0.13414891014E+04  0.50400001928E-02 0.  1.
       -1    1    3    3    0  502  0.12214927350E+04 -0.52790800705E+03 -0.33836438652E+03  0.13730338028E+04  0.50400001928E-02 0. -1.
</event>
<event>
 5   0  0.3013407E-06  0.2710468E+04  0.7818609E-02  0.8331617E-01
       -1   -1    0    0    0  501  0.00000000000E+00  0.00000000000E+00  0.85888687344E+03  0.85888687346E+03  0.50400001928E-02 0. -1.
        1   -1    0    0  501    0  0.00000000000E+00  0.00000000000E+00 -0.21384175342E+04  0.21384175342E+04  0.50400001928E-02 0.  1.
    10030    2    1    2    0    0  0.00000000000E+00  0.00000000000E+00 -0.12795306608E+04  0.29973044077E+04  0.27104676719E+04 0.  0.
        4    1    3    3  502    0 -0.13016833171E+04  0.18651618234E+03 -0.10023165962E+04  0.16534230905E+04  0.12699999809E+01 0.  1.
       -4    1    3    3    0  502  0.13016833171E+04 -0.18651618234E+03 -0.27721406462E+03  0.13438813172E+04  0.12699999809E+01 0. -1.
</event>
<event>
 5   0  0.7729970E-06  0.2781691E+04  0.7818609E-02  0.8308975E-01
        2   -1    0    0  501    0  0.00000000000E+00  0.00000000000E+00  0.14980966527E+04  0.14980966527E+04  0.25500000920E-02 0. -1.
       -2   -1    0    0    0  501  0.00000000000E+00  0.00000000000E+00 -0.12912726947E+04  0.12912726947E+04  0.25500000920E-02 0.  1.
    10030    2    1    2    0    0  0.00000000000E+00  0.00000000000E+00  0.20682395801E+03  0.27893693473E+04  0.27816910695E+04 0.  0.
        4    1    3    3  502    0  0.90901245891E+02 -0.22364284667E+03  0.14769265872E+04  0.14965269514E+04  0.12699999809E+01 0. -1.
       -4    1    3    3    0  502 -0.90901245891E+02  0.22364284667E+03 -0.12701026292E+04  0.12928423960E+04  0.12699999809E+01 0.  1.
</event>
<event>
 5   0  0.3199840E-06  0.2708777E+04  0.7818609E-02  0.8332163E-01
       -1   -1    0    0    0  501  0.00000000000E+00  0.00000000000E+00  0.12218496280E+04  0.12218496280E+04  0.50400001928E-02 0.  1.
        1   -1    0    0  501    0  0.00000000000E+00  0.00000000000E+00 -0.15013040599E+04  0.15013040599E+04  0.50400001928E-02 0. -1.
    10030    2    1    2    0    0  0.00000000000E+00  0.00000000000E+00 -0.27945443191E+03  0.27231536879E+04  0.27087767034E+04 0.  0.
        1    1    3    3  502    0 -0.13332703188E+04 -0.19066414356E+03  0.38778934912E+01  0.13468398556E+04  0.50400001928E-02 0. -1.
       -1    1    3    3    0  502  0.13332703188E+04  0.19066414356E+03 -0.28333232540E+03  0.13763138324E+04  0.50400001928E-02 0.  1.
</event>
<event>
 5   0  0.8407622E-06  0.2687307E+04  0.7818609E-02  0.8339135E-01
       -2   -1    0    0    0  501  0.00000000000E+00  0.00000000000E+00  0.12700786591E+04  0.12700786591E+04  0.25500000920E-02 0. -1.
        2   -1    0    0  501    0  0.00000000000E+00  0.00000000000E+00 -0.14214908936E+04  0.14214908936E+04  0.25500000920E-02 0.  1.
    10030    2    1    2    0    0  0.00000000000E+00  0.00000000000E+00 -0.15141223447E+03  0.26915695527E+04  0.26873073870E+04 0.  0.
        1    1    3    3  502    0 -0.33857214411E+03 -0.12683115957E+04 -0.36279612244E+03  0.13619348101E+04  0.50400001928E-02 0.  1.
       -1    1    3    3    0  502  0.33857214411E+03  0.12683115957E+04  0.21138388797E+03  0.13296347426E+04  0.50400001928E-02 0. -1.
</event>
<event>
 5   0  0.3089218E-06  0.2697374E+04  0.7818609E-02  0.8335857E-01
        1   -1    0    0  501    0  0.00000000000E+00  0.00000000000E+00  0.15086157117E+04  0.15086157117E+04  0.50400001928E-02 0.  1.
       -1   -1    0    0    0  501  0.00000000000E+00  0.00000000000E+00 -0.12057126738E+04  0.12057126738E+04  0.50400001928E-02 0. -1.
    10030    2    1    2    0    0  0.00000000000E+00  0.00000000000E+00  0.30290303791E+03  0.27143283855E+04  0.26973743407E+04 0.  0.
        5    1    3    3  502    0 -0.31172177607E+03  0.15296059962E+03  0.14628570541E+04  0.15035093154E+04  0.46999998093E+01 0.  1.
       -5    1    3    3    0  502  0.31172177607E+03 -0.15296059962E+03 -0.11599540162E+04  0.12108190701E+04  0.46999998093E+01 0. -1.
</event>
<event>
 5   0  0.8213334E-06  0.2518199E+04  0.7818609E-02  0.8396530E-01
        2   -1    0    0  501    0  0.00000000000E+00  0.00000000000E+00  0.14692768085E+04  0.14692768085E+04  0.25500000920E-02 0.  1.
       -2   -1    0    0    0  501  0.00000000000E+00  0.00000000000E+00 -0.10789880294E+04  0.10789880294E+04  0.25500000920E-02 0. -1.
    10030    2    1    2    0    0  0.00000000000E+00  0.00000000000E+00  0.39028877909E+03  0.25482648379E+04  0.25181994267E+04 0.  0.
        3    1    3    3  502    0 -0.27616429530E+03 -0.12736566324E+03 -0.10412629076E+04  0.10847659578E+04  0.10100000352E+00 0. -1.
       -3    1    3    3    0  502  0.27616429530E+03  0.12736566324E+03  0.14315516867E+04  0.14634988801E+04  0.10100000352E+00 0.  1.
</event>
<event>
 5   0  0.3199840E-06  0.2769185E+04  0.7818609E-02  0.8312900E-01
       -1   -1    0    0    0  501  0.00000000000E+00  0.00000000000E+00  0.27128555461E+04  0.27128555461E+04  0.50400001928E-02 0.  1.
        1   -1    0    0  501    0  0.00000000000E+00  0.00000000000E+00 -0.70667081174E+03  0.70667081175E+03  0.50400001928E-02 0. -1.
    10030    2    1    2    0    0  0.00000000000E+00  0.00000000000E+00  0.20061847343E+04  0.34195263578E+04  0.27691845954E+04 0.  0.
        1    1    3    3  502    0 -0.12202004894E+04  0.25353664718E+03  0.17480309193E+04  0.21468074344E+04  0.50400001928E-02 0.  1.
       -1    1    3    3    0  502  0.12202004894E+04 -0.25353664718E+03  0.25815381501E+03  0.12727189234E+04  0.50400001928E-02 0. -1.
</event>
<event>
 5   0  0.3089218E-06  0.2703524E+04  0.7818609E-02  0.8333863E-01
        1   -1    0    0  501    0  0.00000000000E+00  0.00000000000E+00  0.16936204116E+04  0.16936204116E+04  0.50400001928E-02 0.  1.
       -1   -1    0    0    0  501  0.00000000000E+00  0.00000000000E+00 -0.10789078189E+04  0.10789078189E+04  0.50400001928E-02 0. -1.
    10030    2    1    2    0    0  0.00000000000E+00  0.00000000000E+00  0.61471259268E+03  0.27725282306E+04  0.27035238519E+04 0.  0.
        5    1    3    3  502    0  0.26103259297E+02  0.81284151241E+03 -0.79994618638E+03  0.11407579478E+04  0.46999998093E+01 0. -1.
       -5    1    3    3    0  502 -0.26103259297E+02 -0.81284151241E+03  0.14146587791E+04  0.16317702827E+04  0.46999998093E+01 0.  1.
</event>
<event>
 5   0  0.7812908E-06  0.2693399E+04  0.7818609E-02  0.8337150E-01
       -2   -1    0    0    0  501  0.00000000000E+00  0.00000000000E+00  0.16654365089E+04  0.16654365089E+04  0.25500000920E-02 0. -1.
        2   -1    0    0  501    0  0.00000000000E+00  0.00000000000E+00 -0.10889638451E+04  0.10889638451E+04  0.25500000920E-02 0.  1.
    10030    2    1    2    0    0  0.00000000000E+00  0.00000000000E+00  0.57647266387E+03  0.27544003540E+04  0.26933994464E+04 0.  0.
        5    1    3    3  502    0  0.52926948056E+03 -0.79418016368E+03  0.12598758590E+04  0.15805561001E+04  0.46999998093E+01 0. -1.
       -5    1    3    3    0  502 -0.52926948056E+03  0.79418016368E+03 -0.68340319509E+03  0.11738442539E+04  0.46999998093E+01 0.  1.
</event>
<event>
 5   0  0.3199840E-06  0.2621225E+04  0.7818609E-02  0.8361027E-01
       -1   -1    0    0    0  501  0.00000000000E+00  0.00000000000E+00  0.12084840602E+04  0.12084840602E+04  0.50400001928E-02 0.  1.
        1   -1    0    0  501    0  0.00000000000E+00  0.00000000000E+00 -0.14213720172E+04  0.14213720172E+04  0.50400001928E-02 0. -1.
    10030    2    1    2    0    0  0.00000000000E+00  0.00000000000E+00 -0.21288795700E+03  0.26298560774E+04  0.26212252298E+04 0.  0.
        1    1    3    3  502    0 -0.28488750785E+03 -0.11128672373E+04 -0.73945014025E+03  0.13661701541E+04  0.50400001928E-02 0. -1.
       -1    1    3    3    0  502  0.28488750785E+03  0.11128672373E+04  0.52656218325E+03  0.12636859233E+04  0.50400001928E-02 0.  1.
</event>
<event>
 5   0  0.3089218E-06  0.2710479E+04  0.7818609E-02  0.8331613E-01
       -1   -1    0    0    0  501  0.00000000000E+00  0.00000000000E+00  0.16073214751E+04  0.16073214752E+04  0.50400001928E-02 0. -1.
        1   -1    0    0  501    0  0.00000000000E+00  0.00000000000E+00 -0.11426924188E+04  0.11426924188E+04  0.50400001928E-02 0.  1.
    10030    2    1    2    0    0  0.00000000000E+00  0.00000000000E+00  0.46462905632E+03  0.27500138940E+04  0.27104789719E+04 0.  0.
        5    1    3    3  502    0  0.89560425051E+01  0.12581968840E+04  0.74315867176E+03  0.14613167045E+04  0.46999998093E+01 0. -1.
       -5    1    3    3    0  502 -0.89560425051E+01 -0.12581968840E+04 -0.27852961544E+03  0.12886971895E+04  0.46999998093E+01 0.  1.
</event>
<event>
 5   0  0.3028601E-06  0.2767197E+04  0.7818609E-02  0.8313525E-01
        1   -1    0    0  501    0  0.00000000000E+00  0.00000000000E+00  0.14225478084E+04  0.14225478084E+04  0.50400001928E-02 0. -1.
       -1   -1    0    0    0  501  0.00000000000E+00  0.00000000000E+00 -0.13457156613E+04  0.13457156614E+04  0.50400001928E-02 0.  1.
    10030    2    1    2    0    0  0.00000000000E+00  0.00000000000E+00  0.76832147006E+02  0.27682634697E+04  0.27671970401E+04 0.  0.
        3    1    3    3  502    0  0.72858305962E+03 -0.69943320937E+03 -0.90762525604E+03  0.13578747014E+04  0.10100000352E+00 0.  1.
       -3    1    3    3    0  502 -0.72858305962E+03  0.69943320937E+03  0.98445740305E+03  0.14103887683E+04  0.10100000352E+00 0. -1.
</event>
<event>
 5   0  0.7729970E-06  0.2648767E+04  0.7818609E-02  0.8351822E-01
       -2   -1    0    0    0  501  0.00000000000E+00  0.00000000000E+00  0.12660682375E+04  0.12660682375E+04  0.25500000920E-02 0. -1.
        2   -1    0    0  501    0  0.00000000000E+00  0.00000000000E+00 -0.13853843942E+04  0.13853843942E+04  0.25500000920E-02 0.  1.
    10030    2    1    2    0    0  0.00000000000E+00  0.00000000000E+00 -0.11931615668E+03  0.26514526317E+04  0.26487666400E+04 0.  0.
        4    1    3    3  502    0 -0.33909643321E+03 -0.96669895544E+03 -0.89985199795E+03  0.13635352920E+04  0.12699999809E+01 0.  1.
       -4    1    3    3    0  502  0.33909643321E+03  0.96669895544E+03  0.78053584127E+03  0.12879173397E+04  0.12699999809E+01 0. -1.
</event>
<event>
 5   0  0.3046300E-06  0.2697154E+04  0.7818609E-02  0.8335929E-01
        1   -1    0    0  501    0  0.00000000000E+00  0.00000000000E+00  0.13277536628E+04  0.13277536628E+04  0.50400001928E-02 0. -1.
       -1   -1    0    0    0  501  0.00000000000E+00  0.00000000000E+00 -0.13697274177E+04  0.13697274178E+04  0.50400001928E-02 0.  1.
    10030    2    1    2    0    0  0.00000000000E+00  0.00000000000E+00 -0.41973754927E+02  0.26974810806E+04  0.26971544976E+04 0.  0.
        2    1    3    3  502    0  0.48884688343E+03 -0.11067347902E+04  0.57475917411E+03  0.13394705221E+04  0.25500000920E-02 0.  1.
       -2    1    3    3    0  502 -0.48884688343E+03  0.11067347902E+04 -0.61673292904E+03  0.13580105585E+04  0.25500000920E-02 0. -1.
</event>
<event>
 5   0  0.2654625E-06  0.2692238E+04  0.7818609E-02  0.8337528E-01
        3   -1    0    0  501    0  0.00000000000E+00  0.00000000000E+00  0.15012745290E+04  0.15012745324E+04  0.10100000352E+00 0. -1.
       -3   -1    0    0    0  501  0.00000000000E+00  0.00000000000E+00 -0.12069990493E+04  0.12069990535E+04  0.10100000352E+00 0.  1.
    10030    2    1    2    0    0  0.00000000000E+00  0.00000000000E+00  0.29427547968E+03  0.27082735859E+04  0.26922384289E+04 0.  0.
        5    1    3    3  502    0 -0.95755470915E+03 -0.71519285267E+03 -0.47590812682E+03  0.12864379008E+04  0.46999998093E+01 0.  1.
       -5    1    3    3    0  502  0.95755470915E+03  0.71519285267E+03  0.77018360651E+03  0.14218356850E+04  0.46999998093E+01 0. -1.
</event>
<event>
 5   0  0.8407622E-06  0.2686091E+04  0.7818609E-02  0.8339532E-01
       -2   -1    0    0    0  501  0.00000000000E+00  0.00000000000E+00  0.79670912909E+03  0.79670912910E+03  0.25500000920E-02 0. -1.
        2   -1    0    0  501    0  0.00000000000E+00  0.00000000000E+00 -0.22640267542E+04  0.22640267542E+04  0.25500000920E-02 0.  1.
    10030    2    1    2    0    0  0.00000000000E+00  0.00000000000E+00 -0.14673176252E+04  0.30607358833E+04  0.26860906788E+04 0.  0.
        1    1    3    3  502    0 -0.20949383159E+03  0.13028318891E+03  0.77066937259E+03  0.80919259553E+03  0.50400001928E-02 0. -1.
       -1    1    3    3    0  502  0.20949383159E+03 -0.13028318891E+03 -0.22379869977E+04  0.22515432878E+04  0.50400001928E-02 0.  1.
</event>
<event>
 5   0  0.7729970E-06  0.2714133E+04  0.7818609E-02  0.8330434E-01
        2   -1    0    0  501    0  0.00000000000E+00  0.00000000000E+00  0.21072761376E+04  0.21072761376E+04  0.25500000920E-02 0. -1.
       -2   -1    0    0    0  501  0.00000000000E+00  0.00000000000E+00 -0.87393825308E+03  0.87393825308E+03  0.25500000920E-02 0.  1.
    10030    2    1    2    0    0  0.00000000000E+00  0.00000000000E+00  0.12333378845E+04  0.29812143907E+04  0.27141328092E+04 0.  0.
        4    1    3    3  502    0  0.49110871263E+03 -0.12595963414E+04  0.74596795135E+03  0.15440986070E+04  0.12699999809E+01 0. -1.
       -4    1    3    3    0  502 -0.49110871263E+03  0.12595963414E+04  0.48736993315E+03  0.14371157836E+04  0.12699999809E+01 0.  1.
</event>
<event>
 5   0  0.7729970E-06  0.2699509E+04  0.7818609E-02  0.8335164E-01
        2   -1    0    0  501    0  0.00000000000E+00  0.00000000000E+00  0.13762210338E+04  0.13762210338E+04  0.25500000920E-02 0.  1.
       -2   -1    0    0    0  501  0.00000000000E+00  0.00000000000E+00 -0.13237965545E+04  0.13237965545E+04  0.25500000920E-02 0. -1.
    10030    2    1    2    0    0  0.00000000000E+00  0.00000000000E+00  0.52424479263E+02  0.27000175883E+04  0.26995085944E+04 0.  0.
        4    1    3    3  502    0  0.11873105092E+04 -0.27680903265E+03  0.60554987478E+03  0.13612574149E+04  0.12699999809E+01 0.  1.
       -4    1    3    3    0  502 -0.11873105092E+04  0.27680903265E+03 -0.55312539551E+03  0.13387601734E+04  0.12699999809E+01 0. -1.
</event>
<event>
 5   0  0.7838364E-06  0.2698881E+04  0.7818609E-02  0.8335368E-01
       -2   -1    0    0    0  501  0.00000000000E+00  0.00000000000E+00  0.91964629503E+03  0.91964629504E+03  0.25500000920E-02 0. -1.
        2   -1    0    0  501    0  0.00000000000E+00  0.00000000000E+00 -0.19800983856E+04  0.19800983856E+04  0.25500000920E-02 0.  1.
    10030    2    1    2    0    0  0.00000000000E+00  0.00000000000E+00 -0.10604520906E+04  0.28997446806E+04  0.26988813565E+04 0.  0.
        2    1    3    3  502    0 -0.81775448159E+03  0.30711918000E+03  0.57488934604E+03  0.10457257495E+04  0.25500000920E-02 0. -1.
       -2    1    3    3    0  502  0.81775448159E+03 -0.30711918000E+03 -0.16353414366E+04  0.18540189312E+04  0.25500000920E-02 0.  1.
</event>
<event>
 5   0  0.8213334E-06  0.2700005E+04  0.7818609E-02  0.8335003E-01
        2   -1    0    0  501    0  0.00000000000E+00  0.00000000000E+00  0.22203415595E+04  0.22203415595E+04  0.25500000920E-02 0. -1.
       -2   -1    0    0    0  501  0.00000000000E+00  0.00000000000E+00 -0.82082296381E+03  0.82082296382E+03  0.25500000920E-02 0.  1.
    10030    2    1    2    0    0  0.00000000000E+00  0.00000000000E+00  0.13995185957E+04  0.30411645234E+04  0.27000054367E+04 0.  0.
        3    1    3    3  502    0  0.93374772773E+03  0.74116207578E+02  0.17947763694E+04  0.20245000019E+04  0.10100000352E+00 0. -1.
       -3    1    3    3    0  502 -0.93374772773E+03 -0.74116207578E+02 -0.39525777372E+03  0.10166645214E+04  0.10100000352E+00 0.  1.
</event>
<event>
 5   0  0.3028601E-06  0.2737080E+04  0.7818609E-02  0.8323073E-01
       -1   -1    0    0    0  501  0.00000000000E+00  0.00000000000E+00  0.27421060872E+04  0.27421060872E+04  0.50400001928E-02 0.  1.
        1   -1    0    0  501    0  0.00000000000E+00  0.00000000000E+00 -0.68301603027E+03  0.68301603028E+03  0.50400001928E-02 0. -1.
    10030    2    1    2    0    0  0.00000000000E+00  0.00000000000E+00  0.20590900570E+04  0.34251221175E+04  0.27370804989E+04 0.  0.
        3    1    3    3  502    0 -0.82992224708E+03 -0.77049663522E+03  0.67963558657E+02  0.11344844894E+04  0.10100000352E+00 0. -1.
       -3    1    3    3    0  502  0.82992224708E+03  0.77049663522E+03  0.19911264983E+04  0.22906376282E+04  0.10100000352E+00 0.  1.
</event>
<event>
 5   0  0.3013407E-06  0.2705611E+04  0.7818609E-02  0.8333187E-01
        1   -1    0    0  501    0  0.00000000000E+00  0.00000000000E+00  0.23030564866E+04  0.23030564866E+04  0.50400001928E-02 0.  1.
       -1   -1    0    0    0  501  0.00000000000E+00  0.00000000000E+00 -0.79463235288E+03  0.79463235289E+03  0.50400001928E-02 0. -1.
    10030    2    1    2    0    0  0.00000000000E+00  0.00000000000E+00  0.15084241337E+04  0.30976888395E+04  0.27056113503E+04 0.  0.
        4    1    3    3  502    0 -0.89100024473E+03 -0.98898581039E+03  0.10301982882E+04  0.16832363159E+04  0.12699999809E+01 0.  1.
       -4    1    3    3    0  502  0.89100024473E+03  0.98898581039E+03  0.47822584550E+03  0.14144525236E+04  0.12699999809E+01 0. -1.
</event>
<event>
 5   0  0.8213334E-06  0.2698957E+04  0.7818609E-02  0.8335343E-01
       -2   -1    0    0    0  501  0.00000000000E+00  0.00000000000E+00  0.83642928816E+03  0.83642928816E+03  0.25500000920E-02 0.  1.
        2   -1    0    0  501    0  0.00000000000E+00  0.00000000000E+00 -0.21772221872E+04  0.21772221872E+04  0.25500000920E-02 0. -1.
    10030    2    1    2    0    0  0.00000000000E+00  0.00000000000E+00 -0.13407928991E+04  0.30136514754E+04  0.26989571351E+04 0.  0.
        3    1    3    3  502    0  0.94941324538E+03 -0.90567558867E+03 -0.10225387803E+04  0.16634961226E+04  0.10100000352E+00 0.  1.
       -3    1    3    3    0  502 -0.94941324538E+03  0.90567558867E+03 -0.31825411878E+03  0.13501553528E+04  0.10100000352E+00 0. -1.
</event>
<event>
 5   0  0.7838364E-06  0.2689924E+04  0.7818609E-02  0.8338282E-01
       -2   -1    0    0    0  501  0.00000000000E+00  0.00000000000E+00  0.11272105090E+04  0.11272105090E+04  0.25500000920E-02 0.  1.
        2   -1    0    0  501    0  0.00000000000E+00  0.00000000000E+00 -0.16047783518E+04  0.16047783518E+04  0.25500000920E-02 0. -1.
    10030    2    1    2    0    0  0.00000000000E+00  0.00000000000E+00 -0.47756784284E+03  0.27319888608E+04  0.26899241794E+04 0.  0.
        2    1    3    3  502    0 -0.70656771494E+03 -0.94746317452E+03 -0.89069260520E+03  0.14799519316E+04  0.25500000920E-02 0.  1.
       -2    1    3    3    0  502  0.70656771494E+03  0.94746317452E+03  0.41312476236E+03  0.12520369292E+04  0.25500000920E-02 0. -1.
</event>
<event>
 5   0  0.3199840E-06  0.2708046E+04  0.7818609E-02  0.8332399E-01
        1   -1    0    0  501    0  0.00000000000E+00  0.00000000000E+00  0.24336190179E+04  0.24336190179E+04  0.50400001928E-02 0.  1.
       -1   -1    0    0    0  501  0.00000000000E+00  0.00000000000E+00 -0.75335495271E+03  0.75335495273E+03  0.50400001928E-02 0. -1.
    10030    2    1    2    0    0  0.00000000000E+00  0.00000000000E+00  0.16802640652E+04  0.31869739706E+04  0.27080464842E+04 0.  0.
        1    1    3    3  502    0 -0.39492775055E+03  0.52091376030E+03 -0.55535018810E+03  0.85774874251E+03  0.50400001928E-02 0. -1.
       -1    1    3    3    0  502  0.39492775055E+03 -0.52091376030E+03  0.22356142533E+04  0.23292252281E+04  0.50400001928E-02 0.  1.
</event>
<event>
 5   0  0.8407622E-06  0.2707208E+04  0.7818609E-02  0.8332670E-01
        2   -1    0    0  501    0  0.00000000000E+00  0.00000000000E+00  0.23506723658E+04  0.23506723658E+04  0.25500000920E-02 0.  1.
       -2   -1    0    0    0  501  0.00000000000E+00  0.00000000000E+00 -0.77945507620E+03  0.77945507621E+03  0.25500000920E-02 0. -1.
    10030    2    1    2    0    0  0.00000000000E+00  0.00000000000E+00  0.15712172896E+04  0.31301274420E+04  0.27072077926E+04 0.  0.
        1    1    3    3  502    0  0.27186727691E+03  0.94883411241E+03  0.18566237411E+04  0.21026767952E+04  0.50400001928E-02 0.  1.
       -1    1    3    3    0  502 -0.27186727691E+03 -0.94883411241E+03 -0.28540645146E+03  0.10274506468E+04  0.50400001928E-02 0. -1.
</event>
<event>
 5   0  0.3046300E-06  0.2748171E+04  0.7818609E-02  0.8319542E-01
       -1   -1    0    0    0  501  0.00000000000E+00  0.00000000000E+00  0.83156345584E+03  0.83156345586E+03  0.50400001928E-02 0.  1.
        1   -1    0    0  501    0  0.00000000000E+00  0.00000000000E+00 -0.22705559800E+04  0.22705559800E+04  0.50400001928E-02 0. -1.
    10030    2    1    2    0    0  0.00000000000E+00  0.00000000000E+00 -0.14389925242E+04  0.31021194359E+04  0.27481713029E+04 0.  0.
        2    1    3    3  502    0  0.52341519024E+03 -0.63598827078E+03  0.52200624671E+03  0.97515899399E+03  0.25500000920E-02 0.  1.
       -2    1    3    3    0  502 -0.52341519024E+03  0.63598827078E+03 -0.19609987709E+04  0.21269604419E+04  0.25500000920E-02 0. -1.
</event>
<event>
 5   0  0.7812908E-06  0.2695569E+04  0.7818609E-02  0.8336444E-01
       -2   -1    0    0    0  501  0.00000000000E+00  0.00000000000E+00  0.68098436340E+03  0.68098436340E+03  0.25500000920E-02 0.  1.
        2   -1    0    0  501    0  0.00000000000E+00  0.00000000000E+00 -0.26674952615E+04  0.26674952615E+04  0.25500000920E-02 0. -1.
    10030    2    1    2    0    0  0.00000000000E+00  0.00000000000E+00 -0.19865108981E+04  0.33484796249E+04  0.26955686321E+04 0.  0.
        5    1    3    3  502    0 -0.77193705290E+03 -0.10922490658E+04 -0.78686188298E+03  0.15517952662E+04  0.46999998093E+01 0.  1.
       -5    1    3    3    0  502  0.77193705290E+03  0.10922490658E+04 -0.11996490151E+04  0.17966843587E+04  0.46999998093E+01 0. -1.
</event>
<event>
 5   0  0.3046300E-06  0.2688249E+04  0.7818609E-02  0.8338828E-01
       -1   -1    0    0    0  501  0.00000000000E+00  0.00000000000E+00  0.20068744329E+04  0.20068744329E+04  0.50400001928E-02 0. -1.
        1   -1    0    0  501    0  0.00000000000E+00  0.00000000000E+00 -0.90024072614E+03  0.90024072615E+03  0.50400001928E-02 0.  1.
    10030    2    1    2    0    0  0.00000000000E+00  0.00000000000E+00  0.11066337067E+04  0.29071151590E+04  0.26882485724E+04 0.  0.
        2    1    3    3  502    0  0.55154946778E+03 -0.61688281802E+03 -0.59212629362E+03  0.10175287584E+04  0.25500000920E-02 0.  1.
       -2    1    3    3    0  502 -0.55154946778E+03  0.61688281802E+03  0.16987600004E+04  0.18895864006E+04  0.25500000920E-02 0. -1.
</event>
<event>
 5   0  0.3028601E-06  0.2701779E+04  0.7818609E-02  0.8334428E-01
       -1   -1    0    0    0  501  0.00000000000E+00  0.00000000000E+00  0.10576908942E+04  0.10576908942E+04  0.50400001928E-02 0.  1.
        1   -1    0    0  501    0  0.00000000000E+00  0.00000000000E+00 -0.17253639937E+04  0.17253639937E+04  0.50400001928E-02 0. -1.
    10030    2    1    2    0    0  0.00000000000E+00  0.00000000000E+00 -0.66767309956E+03  0.27830548879E+04  0.27017785145E+04 0.  0.
        3    1    3    3  502    0  0.12632921057E+04  0.44158748297E+03 -0.52376132919E+03  0.14370916427E+04  0.10100000352E+00 0. -1.
       -3    1    3    3    0  502 -0.12632921057E+04 -0.44158748297E+03 -0.14391177037E+03  0.13459632452E+04  0.10100000352E+00 0.  1.
</event>
<event>
 5   0  0.3089218E-06  0.2678647E+04  0.7818609E-02  0.8341967E-01
        1   -1    0    0  501    0  0.00000000000E+00  0.00000000000E+00  0.17058760407E+04  0.17058760407E+04  0.50400001928E-02 0.  1.
       -1   -1    0    0    0  501  0.00000000000E+00  0.00000000000E+00 -0.10515346385E+04  0.10515346385E+04  0.50400001928E-02 0. -1.
    10030    2    1    2    0    0  0.00000000000E+00  0.00000000000E+00  0.65434140219E+03  0.27574106793E+04  0.26786472301E+04 0.  0.
        5    1    3    3  502    0 -0.41053536173E+03 -0.11306438789E+04 -0.27910448978E+03  0.12348345113E+04  0.46999998093E+01 0.  1.
       -5    1    3    3    0  502  0.41053536173E+03  0.11306438789E+04  0.93344589197E+03  0.15225761680E+04  0.46999998093E+01 0. -1.
</event>
<event>
 5   0  0.8407622E-06  0.2705919E+04  0.7818609E-02  0.8333087E-01
        2   -1    0    0  501    0  0.00000000000E+00  0.00000000000E+00  0.19353662895E+04  0.19353662895E+04  0.25500000920E-02 0.  1.
       -2   -1    0    0    0  501  0.00000000000E+00  0.00000000000E+00 -0.94581578514E+03  0.94581578514E+03  0.25500000920E-02 0. -1.
    10030    2    1    2    0    0  0.00000000000E+00  0.00000000000E+00  0.98955050437E+03  0.28811820747E+04  0.27059194272E+04 0.  0.
        1    1    3    3  502    0 -0.65672876499E+03 -0.98407085078E+03 -0.20410002434E+03  0.12005602567E+04  0.50400001928E-02 0. -1.
       -1    1    3    3    0  502  0.65672876499E+03  0.98407085078E+03  0.11936505287E+04  0.16806218179E+04  0.50400001928E-02 0.  1.
</event>
<event>
 5   0  0.3028601E-06  0.2703354E+04  0.7818609E-02  0.8333917E-01
       -1   -1    0    0    0  501  0.00000000000E+00  0.00000000000E+00  0.27102511080E+04  0.27102511080E+04  0.50400001928E-02 0. -1.
        1   -1    0    0  501    0  0.00000000000E+00  0.00000000000E+00 -0.67411883218E+03  0.67411883220E+03  0.50400001928E-02 0.  1.
    10030    2    1    2    0    0  0.00000000000E+00  0.00000000000E+00  0.20361322758E+04  0.33843699402E+04  0.27033544436E+04 0.  0.
        3    1    3    3  502    0 -0.11670560398E+04 -0.87844667347E+02  0.17147644390E+03  0.11828527662E+04  0.10100000352E+00 0.  1.
       -3    1    3    3    0  502  0.11670560398E+04  0.87844667347E+02  0.18646558319E+04  0.22015171740E+04  0.10100000352E+00 0. -1.
</event>
<event>
 5   0  0.7838364E-06  0.2681146E+04  0.7818609E-02  0.8341148E-01
       -2   -1    0    0    0  501  0.00000000000E+00  0.00000000000E+00  0.88354939410E+03  0.88354939410E+03  0.25500000920E-02 0. -1.
        2   -1    0    0  501    0  0.00000000000E+00  0.00000000000E+00 -0.20339962425E+04  0.20339962425E+04  0.25500000920E-02 0.  1.
    10030    2    1    2    0    0  0.00000000000E+00  0.00000000000E+00 -0.11504468484E+04  0.29175456366E+04  0.26811461338E+04 0.  0.
        2    1    3    3  502    0 -0.10322157817E+04  0.33736422102E+03 -0.14305647188E+04  0.17960510717E+04  0.25500000920E-02 0.  1.
       -2    1    3    3    0  502  0.10322157817E+04 -0.33736422102E+03  0.28011787037E+03  0.11214945649E+04  0.25500000920E-02 0. -1.
</event>
<event>
 5   0  0.3013407E-06  0.2677780E+04  0.7818609E-02  0.8342251E-01
        1   -1    0    0  501    0  0.00000000000E+00  0.00000000000E+00  0.26184300069E+04  0.26184300069E+04  0.50400001928E-02 0. -1.
       -1   -1    0    0    0  501  0.00000000000E+00  0.00000000000E+00 -0.68461875972E+03  0.68461875974E+03  0.50400001928E-02 0.  1.
    10030    2    1    2    0    0  0.00000000000E+00  0.00000000000E+00  0.19338112472E+04  0.33030487667E+04  0.26777799042E+04 0.  0.
        4    1    3    3  502    0 -0.10916744118E+04 -0.13500543622E+03  0.19084530375E+04  0.22027651029E+04  0.12699999809E+01 0. -1.
       -4    1    3    3    0  502  0.10916744118E+04  0.13500543622E+03  0.25358209710E+02  0.11002836638E+04  0.12699999809E+01 0.  1.
</event>
<event>
 5   0  0.3089218E-06  0.2691151E+04  0.7818609E-02  0.8337882E-01
        1   -1    0    0  501    0  0.00000000000E+00  0.00000000000E+00  0.23606887833E+04  0.23606887833E+04  0.50400001928E-02 0.  1.
       -1   -1    0    0    0  501  0.00000000000E+00  0.00000000000E+00 -0.76696843275E+03  0.76696843277E+03  0.50400001928E-02 0. -1.
    10030    2    1    2    0    0  0.00000000000E+00  0.00000000000E+00  0.15937203505E+04  0.31276572160E+04  0.26911512602E+04 0.  0.
        5    1    3    3  502    0 -0.17497671199E+03 -0.12739604913E+04  0.33641826368E+03  0.13292071025E+04  0.46999998093E+01 0. -1.
       -5    1    3    3    0  502  0.17497671199E+03  0.12739604913E+04  0.12573020868E+04  0.17984501135E+04  0.46999998093E+01 0.  1.
</event>
<event>
 5   0  0.7812908E-06  0.2725481E+04  0.7818609E-02  0.8326784E-01
       -2   -1    0    0    0  501  0.00000000000E+00  0.00000000000E+00  0.11020166360E+04  0.11020166360E+04  0.25500000920E-02 0.  1.
        2   -1    0    0  501    0  0.00000000000E+00  0.00000000000E+00 -0.16851487736E+04  0.16851487736E+04  0.25500000920E-02 0. -1.
    10030    2    1    2    0    0  0.00000000000E+00  0.00000000000E+00 -0.58313213765E+03  0.27871654096E+04  0.27254812292E+04 0.  0.
        5    1    3    3  502    0  0.32912866821E+03 -0.13100117718E+04 -0.10697208221E+03  0.13549618588E+04  0.46999998093E+01 0.  1.
       -5    1    3    3    0  502 -0.32912866821E+03  0.13100117718E+04 -0.47616005545E+03  0.14322035508E+04  0.46999998093E+01 0. -1.
</event>
<event>
 5   0  0.3089218E-06  0.2709667E+04  0.7818609E-02  0.8331875E-01
       -1   -1    0    0    0  501  0.00000000000E+00  0.00000000000E+00  0.35458204533E+04  0.35458204533E+04  0.50400001928E-02 0. -1.
        1   -1    0    0  501    0  0.00000000000E+00  0.00000000000E+00 -0.51767266138E+03  0.51767266141E+03  0.50400001928E-02 0.  1.
    10030    2    1    2    0    0  0.00000000000E+00  0.00000000000E+00  0.30281477919E+04  0.40634931147E+04  0.27096673677E+04 0.  0.
        5    1    3    3  502    0 -0.27342985515E+03  0.13221313220E+04  0.16834528982E+04  0.21579691538E+04  0.46999998093E+01 0.  1.
       -5    1    3    3    0  502  0.27342985515E+03 -0.13221313220E+04  0.13446948937E+04  0.19055239608E+04  0.46999998093E+01 0. -1.
</event>
<event>
 5   0  0.3046300E-06  0.2680377E+04  0.7818609E-02  0.8341400E-01
       -1   -1    0    0    0  501  0.00000000000E+00  0.00000000000E+00  0.89825275835E+03  0.89825275836E+03  0.50400001928E-02 0. -1.
        1   -1    0    0  501    0  0.00000000000E+00  0.00000000000E+00 -0.19995537612E+04  0.19995537612E+04  0.50400001928E-02 0.  1.
    10030    2    1    2    0    0  0.00000000000E+00  0.00000000000E+00 -0.11013010028E+04  0.28978065196E+04  0.26803766015E+04 0.  0.
        2    1    3    3  502    0  0.19481263845E+03  0.11982747896E+04 -0.11644084761E+04  0.16821597828E+04  0.25500000920E-02 0.  1.
       -2    1    3    3    0  502 -0.19481263845E+03 -0.11982747896E+04  0.63107473293E+02  0.12156467368E+04  0.25500000920E-02 0. -1.
</event>
<event>
 5   0  0.8407622E-06  0.2690455E+04  0.7818609E-02  0.8338109E-01
        2   -1    0    0  501    0  0.00000000000E+00  0.00000000000E+00  0.16812050493E+04  0.16812050493E+04  0.25500000920E-02 0. -1.
       -2   -1    0    0    0  501  0.00000000000E+00  0.00000000000E+00 -0.10763929574E+04  0.10763929574E+04  0.25500000920E-02 0.  1.
    10030    2    1    2    0    0  0.00000000000E+00  0.00000000000E+00  0.60481209184E+03  0.27575980067E+04  0.26904551846E+04 0.  0.
        1    1    3    3  502    0  0.62201826948E+03  0.38387924332E+03  0.14599109203E+04  0.16326695612E+04  0.50400001928E-02 0. -1.
       -1    1    3    3    0  502 -0.62201826948E+03 -0.38387924332E+03 -0.85509882845E+03  0.11249284455E+04  0.50400001928E-02 0.  1.
</event>
<event>
 5   0  0.3013407E-06  0.2697353E+04  0.7818609E-02  0.8335864E-01
        1   -1    0    0  501    0  0.00000000000E+00  0.00000000000E+00  0.28725373124E+04  0.28725373124E+04  0.50400001928E-02 0.  1.
       -1   -1    0    0    0  501  0.00000000000E+00  0.00000000000E+00 -0.63321310935E+03  0.63321310937E+03  0.50400001928E-02 0. -1.
    10030    2    1    2    0    0  0.00000000000E+00  0.00000000000E+00  0.22393242031E+04  0.35057504218E+04  0.26973529864E+04 0.  0.
        4    1    3    3  502    0  0.38901260128E+03  0.76460178658E+03  0.24722123992E+04  0.26168267913E+04  0.12699999809E+01 0.  1.
       -4    1    3    3    0  502 -0.38901260128E+03 -0.76460178658E+03 -0.23288819616E+03  0.88892363047E+03  0.12699999809E+01 0. -1.
</event>
<event>
 5   0  0.8407622E-06  0.2700688E+04  0.7818609E-02  0.8334782E-01
       -2   -1    0    0    0  501  0.00000000000E+00  0.00000000000E+00  0.18222258906E+04  0.18222258906E+04  0.25500000920E-02 0. -1.
        2   -1    0    0  501    0  0.00000000000E+00  0.00000000000E+00 -0.10006599546E+04  0.10006599546E+04  0.25500000920E-02 0.  1.
    10030    2    1    2    0    0  0.00000000000E+00  0.00000000000E+00  0.82156593602E+03  0.28228858452E+04  0.27006876731E+04 0.  0.
        1    1    3    3  502    0  0.14820809355E+03 -0.74817036362E+03 -0.75395433364E+03  0.10724605677E+04  0.50400001928E-02 0.  1.
       -1    1    3    3    0  502 -0.14820809355E+03  0.74817036362E+03  0.15755202697E+04  0.17504252775E+04  0.50400001928E-02 0. -1.
</event>
<event>
 5   0  0.8407622E-06  0.2704147E+04  0.7818609E-02  0.8333661E-01
        2   -1    0    0  501    0  0.00000000000E+00  0.00000000000E+00  0.12458187718E+04  0.12458187718E+04  0.25500000920E-02 0. -1.
       -2   -1    0    0    0  501  0.00000000000E+00  0.00000000000E+00 -0.14673901155E+04  0.14673901155E+04  0.25500000920E-02 0.  1.
    10030    2    1    2    0    0  0.00000000000E+00  0.00000000000E+00 -0.22157134372E+03  0.27132088873E+04  0.27041465577E+04 0.  0.
        1    1    3    3  502    0  0.10746806778E+04 -0.77622363697E+03  0.15588776441E+03  0.13348268386E+04  0.50400001928E-02 0. -1.
       -1    1    3    3    0  502 -0.10746806778E+04  0.77622363697E+03 -0.37745910813E+03  0.13783820487E+04  0.50400001928E-02 0.  1.
</event>
<event>
 5   0  0.3013407E-06  0.2706119E+04  0.7818609E-02  0.8333022E-01
        1   -1    0    0  501    0  0.00000000000E+00  0.00000000000E+00  0.21173036096E+04  0.21173036096E+04  0.50400001928E-02 0.  1.
       -1   -1    0    0    0  501  0.00000000000E+00  0.00000000000E+00 -0.86467031151E+03  0.86467031152E+03  0.50400001928E-02 0. -1.
    10030    2    1    2    0    0  0.00000000000E+00  0.00000000000E+00  0.12526332981E+04  0.29819739211E+04  0.27061186756E+04 0.  0.
        4    1    3    3  502    0 -0.10622154921E+04  0.75597070701E+03  0.10251122624E+04  0.16585084338E+04  0.12699999809E+01 0.  1.
       -4    1    3    3    0  502  0.10622154921E+04 -0.75597070701E+03  0.22752103567E+03  0.13234654873E+04  0.12699999809E+01 0. -1.
</event>
<event>
 5   0  0.3028601E-06  0.2708406E+04  0.7818609E-02  0.8332283E-01
       -1   -1    0    0    0  501  0.00000000000E+00  0.00000000000E+00  0.16627469920E+04  0.16627469921E+04  0.50400001928E-02 0. -1.
        1   -1    0    0  501    0  0.00000000000E+00  0.00000000000E+00 -0.11029134003E+04  0.11029134003E+04  0.50400001928E-02 0.  1.
    10030    2    1    2    0    0  0.00000000000E+00  0.00000000000E+00  0.55983359171E+03  0.27656603924E+04  0.27084061283E+04 0.  0.
        3    1    3    3  502    0  0.67929201013E+03  0.65047296714E+03  0.12748406076E+04  0.15842257734E+04  0.10100000352E+00 0. -1.
       -3    1    3    3    0  502 -0.67929201013E+03 -0.65047296714E+03 -0.71500701592E+03  0.11814346190E+04  0.10100000352E+00 0.  1.
</event>
<event>
 5   0  0.7729970E-06  0.2796670E+04  0.7818609E-02  0.8304303E-01
       -2   -1    0    0    0  501  0.00000000000E+00  0.00000000000E+00  0.80262581713E+03  0.80262581713E+03  0.25500000920E-02 0. -1.
        2   -1    0    0  501    0  0.00000000000E+00  0.00000000000E+00 -0.24361801181E+04  0.24361801181E+04  0.25500000920E-02 0.  1.
    10030    2    1    2    0    0  0.00000000000E+00  0.00000000000E+00 -0.16335543010E+04  0.32388059352E+04  0.27966702043E+04 0.  0.
        4    1    3    3  502    0  0.74436135394E+03  0.18629164952E+03  0.53703431767E+03  0.93658201732E+03  0.12699999809E+01 0. -1.
       -4    1    3    3    0  502 -0.74436135394E+03 -0.18629164952E+03 -0.21705886186E+04  0.23022239179E+04  0.12699999809E+01 0.  1.
</event>
<event>
 5   0  0.3013407E-06  0.2712186E+04  0.7818609E-02  0.8331062E-01
        1   -1    0    0  501    0  0.00000000000E+00  0.00000000000E+00  0.10325096774E+04  0.10325096774E+04  0.50400001928E-02 0. -1.
       -1   -1    0    0    0  501  0.00000000000E+00  0.00000000000E+00 -0.17810851365E+04  0.17810851365E+04  0.50400001928E-02 0.  1.
    10030    2    1    2    0    0  0.00000000000E+00  0.00000000000E+00 -0.74857545903E+03  0.28135948139E+04  0.27121855687E+04 0.  0.
        4    1    3    3  502    0 -0.12270760748E+04 -0.73556720823E+02  0.21971193619E+03  0.12487598778E+04  0.12699999809E+01 0.  1.
       -4    1    3    3    0  502  0.12270760748E+04  0.73556720823E+02 -0.96828739523E+03  0.15648349361E+04  0.12699999809E+01 0. -1.
</event>
<event>
 5   0  0.3199840E-06  0.2700446E+04  0.7818609E-02  0.8334860E-01
       -1   -1    0    0    0  501  0.00000000000E+00  0.00000000000E+00  0.29012020453E+04  0.29012020453E+04  0.50400001928E-02 0. -1.
        1   -1    0    0  501    0  0.00000000000E+00  0.00000000000E+00 -0.62839567339E+03  0.62839567341E+03  0.50400001928E-02 0.  1.
    10030    2    1    2    0    0  0.00000000000E+00  0.00000000000E+00  0.22728063720E+04  0.35295977188E+04  0.27004464912E+04 0.  0.
        1    1    3    3  502    0  0.13155904850E+04  0.13820830320E+03  0.78272094358E+03  0.15370530033E+04  0.50400001928E-02 0. -1.
       -1    1    3    3    0  502 -0.13155904850E+04 -0.13820830320E+03  0.14900854284E+04  0.19925447155E+04  0.50400001928E-02 0.  1.
</event>
<event>
 5   0  0.3089218E-06  0.2696996E+04  0.7818609E-02  0.8335980E-01
       -1   -1    0    0    0  501  0.00000000000E+00  0.00000000000E+00  0.13827750918E+04  0.13827750918E+04  0.50400001928E-02 0.  1.
        1   -1    0    0  501    0  0.00000000000E+00  0.00000000000E+00 -0.13150706117E+04  0.13150706117E+04  0.50400001928E-02 0. -1.
    10030    2    1    2    0    0  0.00000000000E+00  0.00000000000E+00  0.67704480034E+02  0.26978457035E+04  0.26969960221E+04 0.  0.
        5    1    3    3  502    0 -0.11535658321E+03  0.98712438156E+03 -0.87786406121E+03  0.13260426411E+04  0.46999998093E+01 0. -1.
       -5    1    3    3    0  502  0.11535658321E+03 -0.98712438156E+03  0.94556854124E+03  0.13718030625E+04  0.46999998093E+01 0.  1.
</event>
<event>
 5   0  0.7729970E-06  0.2618539E+04  0.7818609E-02  0.8361931E-01
       -2   -1    0    0    0  501  0.00000000000E+00  0.00000000000E+00  0.12918032982E+04  0.12918032982E+04  0.25500000920E-02 0. -1.
        2   -1    0    0  501    0  0.00000000000E+00  0.00000000000E+00 -0.13269716585E+04  0.13269716585E+04  0.25500000920E-02 0.  1.
    10030    2    1    2    0    0  0.00000000000E+00  0.00000000000E+00 -0.35168360276E+02  0.26187749567E+04  0.26185388025E+04 0.  0.
        4    1    3    3  502    0 -0.62237811809E+03  0.14979793803E+02 -0.11694718170E+04  0.13248565431E+04  0.12699999809E+01 0.  1.
       -4    1    3    3    0  502  0.62237811809E+03 -0.14979793803E+02  0.11343034567E+04  0.12939184136E+04  0.12699999809E+01 0. -1.
</event>
<event>
 5   0  0.7838364E-06  0.2706958E+04  0.7818609E-02  0.8332751E-01
        2   -1    0    0  501    0  0.00000000000E+00  0.00000000000E+00  0.22418947638E+04  0.22418947638E+04  0.25500000920E-02 0. -1.
       -2   -1    0    0    0  501  0.00000000000E+00  0.00000000000E+00 -0.81712368439E+03  0.81712368439E+03  0.25500000920E-02 0.  1.
    10030    2    1    2    0    0  0.00000000000E+00  0.00000000000E+00  0.14247710794E+04  0.30590184482E+04  0.27069579305E+04 0.  0.
        2    1    3    3  502    0 -0.41572525121E+03  0.71012609558E+03 -0.50199204678E+03  0.96389966861E+03  0.25500000920E-02 0.  1.
       -2    1    3    3    0  502  0.41572525121E+03 -0.71012609558E+03  0.19267631262E+04  0.20951187796E+04  0.25500000920E-02 0. -1.
</event>
<event>
 5   0  0.3089218E-06  0.2711548E+04  0.7818609E-02  0.8331268E-01
        1   -1    0    0  501    0  0.00000000000E+00  0.00000000000E+00  0.13215066275E+04  0.13215066275E+04  0.50400001928E-02 0. -1.
       -1   -1    0    0    0  501  0.00000000000E+00  0.00000000000E+00 -0.13909294311E+04  0.13909294311E+04  0.50400001928E-02 0.  1.
    10030    2    1    2    0    0  0.00000000000E+00  0.00000000000E+00 -0.69422803573E+02  0.27124360587E+04  0.27115475004E+04 0.  0.
        5    1    3    3  502    0  0.56444606615E+03  0.93124126648E+03  0.77319842453E+03  0.13355401722E+04  0.46999998093E+01 0. -1.
       -5    1    3    3    0  502 -0.56444606615E+03 -0.93124126648E+03 -0.84262122810E+03  0.13768958864E+04  0.46999998093E+01 0.  1.
</event>
<event>
 5   0  0.3199840E-06  0.2694082E+04  0.7818609E-02  0.8336928E-01
        1   -1    0    0  501    0  0.00000000000E+00  0.00000000000E+00  0.23816354558E+04  0.23816354558E+04  0.50400001928E-02 0.  1.
       -1   -1    0    0    0  501  0.00000000000E+00  0.00000000000E+00 -0.76187950589E+03  0.76187950591E+03  0.50400001928E-02 0. -1.
    10030    2    1    2    0    0  0.00000000000E+00  0.00000000000E+00  0.16197559499E+04  0.31435149617E+04  0.26940818431E+04 0.  0.
        1    1    3    3  502    0 -0.12096744950E+04  0.56213377849E+03  0.10288320469E+04  0.16845777362E+04  0.50400001928E-02 0. -1.
       -1    1    3    3    0  502  0.12096744950E+04 -0.56213377849E+03  0.59092390307E+03  0.14589372255E+04  0.50400001928E-02 0.  1.
</event>
<event>
 5   0  0.8213334E-06  0.2695571E+04  0.7818609E-02  0.8336444E-01
       -2   -1    0    0    0  501  0.00000000000E+00  0.00000000000E+00  0.14148465637E+04  0.14148465637E+04  0.25500000920E-02 0.  1.
        2   -1    0    0  501    0  0.00000000000E+00  0.00000000000E+00 -0.12839026976E+04  0.12839026976E+04  0.25500000920E-02 0. -1.
    10030    2    1    2    0    0  0.00000000000E+00  0.00000000000E+00  0.13094386611E+03  0.26987492612E+04  0.26955706778E+04 0.  0.
        3    1    3    3  502    0  0.13271487659E+04 -0.38360716575E+02  0.29754241405E+03  0.13606347378E+04  0.10100000352E+00 0.  1.
       -3    1    3    3    0  502 -0.13271487659E+04  0.38360716575E+02 -0.16659854794E+03  0.13381145234E+04  0.10100000352E+00 0. -1.
</event>
<event>
 5   0  0.7729970E-06  0.2686527E+04  0.7818609E-02  0.8339390E-01
        2   -1    0    0  501    0  0.00000000000E+00  0.00000000000E+00  0.63719577696E+03  0.63719577696E+03  0.25500000920E-02 0.  1.
       -2   -1    0    0    0  501  0.00000000000E+00  0.00000000000E+00 -0.28317145696E+04  0.28317145696E+04  0.25500000920E-02 0. -1.
    10030    2    1    2    0    0  0.00000000000E+00  0.00000000000E+00 -0.21945187927E+04  0.34689103466E+04  0.26865268026E+04 0.  0.
        4    1    3    3  502    0  0.53203465548E+03 -0.25754145719E+03  0.46024180864E+03  0.74914124978E+03  0.12699999809E+01 0.  1.
       -4    1    3    3    0  502 -0.53203465548E+03  0.25754145719E+03 -0.26547606013E+04  0.27197690968E+04  0.12699999809E+01 0. -1.
</event>
<event>
 5   0  0.7729970E-06  0.2675529E+04  0.7818609E-02  0.8342989E-01
        2   -1    0    0  501    0  0.00000000000E+00  0.00000000000E+00  0.23733601995E+04  0.23733601995E+04  0.25500000920E-02 0. -1.
       -2   -1    0    0    0  501  0.00000000000E+00  0.00000000000E+00 -0.75404233384E+03  0.75404233384E+03  0.25500000920E-02 0.  1.
    10030    2    1    2    0    0  0.00000000000E+00  0.00000000000E+00  0.16193178657E+04  0.31274025334E+04  0.26755291543E+04 0.  0.
        4    1    3    3  502    0 -0.98069101607E+03  0.72248532886E+03  0.16319494827E+03  0.12289727920E+04  0.12699999809E+01 0.  1.
       -4    1    3    3    0  502  0.98069101607E+03 -0.72248532886E+03  0.14561229174E+04  0.18984297414E+04  0.12699999809E+01 0. -1.
</event>
<event>
 5   0  0.3028601E-06  0.2690629E+04  0.7818609E-02  0.8338052E-01
        1   -1    0    0  501    0  0.00000000000E+00  0.00000000000E+00  0.18643856910E+04  0.18643856910E+04  0.50400001928E-02 0. -1.
       -1   -1    0    0    0  501  0.00000000000E+00  0.00000000000E+00 -0.97076004460E+03  0.97076004462E+03  0.50400001928E-02 0.  1.
    10030    2    1    2    0    0  0.00000000000E+00  0.00000000000E+00  0.89362564639E+03  0.28351457356E+04  0.26906290243E+04 0.  0.
        3    1    3    3  502    0  0.10640382377E+04  0.50843194043E+03 -0.23541180548E+03  0.12025386221E+04  0.10100000352E+00 0.  1.
       -3    1    3    3    0  502 -0.10640382377E+04 -0.50843194043E+03  0.11290374519E+04  0.16326071135E+04  0.10100000352E+00 0. -1.
</event>
<event>
 5   0  0.3028601E-06  0.2700582E+04  0.7818609E-02  0.8334816E-01
        1   -1    0    0  501    0  0.00000000000E+00  0.00000000000E+00  0.75288099222E+03  0.75288099223E+03  0.50400001928E-02 0. -1.
       -1   -1    0    0    0  501  0.00000000000E+00  0.00000000000E+00 -0.24217443913E+04  0.24217443913E+04  0.50400001928E-02 0.  1.
    10030    2    1    2    0    0  0.00000000000E+00  0.00000000000E+00 -0.16688633991E+04  0.31746253835E+04  0.27005816560E+04 0.  0.
        3    1    3    3  502    0  0.94998544091E+03 -0.85175198285E+03 -0.31488887751E+03  0.13141951125E+04  0.10100000352E+00 0. -1.
       -3    1    3    3    0  502 -0.94998544091E+03  0.85175198285E+03 -0.13539745215E+04  0.18604302710E+04  0.10100000352E+00 0.  1.
</event>
<event>
 5   0  0.3028601E-06  0.2662820E+04  0.7818609E-02  0.8347170E-01
       -1   -1    0    0    0  501  0.00000000000E+00  0.00000000000E+00  0.13714296602E+04  0.13714296602E+04  0.50400001928E-02 0. -1.
        1   -1    0    0  501    0  0.00000000000E+00  0.00000000000E+00 -0.12925579508E+04  0.12925579508E+04  0.50400001928E-02 0.  1.
    10030    2    1    2    0    0  0.00000000000E+00  0.00000000000E+00  0.78871709388E+02  0.26639876111E+04  0.26628197921E+04 0.  0.
        3    1    3    3  502    0 -0.22159232567E+03 -0.67187362696E+03 -0.10889484077E+04  0.12985861443E+04  0.10100000352E+00 0.  1.
       -3    1    3    3    0  502  0.22159232567E+03  0.67187362696E+03  0.11678201171E+04  0.13654014668E+04  0.10100000352E+00 0. -1.
</event>
<event>
 5   0  0.3046300E-06  0.2721957E+04  0.7818609E-02  0.8327916E-01
        1   -1    0    0  501    0  0.00000000000E+00  0.00000000000E+00  0.13842209736E+04  0.13842209736E+04  0.50400001928E-02 0.  1.
       -1   -1    0    0    0  501  0.00000000000E+00  0.00000000000E+00 -0.13381259358E+04  0.13381259358E+04  0.50400001928E-02 0. -1.
    10030    2    1    2    0    0  0.00000000000E+00  0.00000000000E+00  0.46095037787E+02  0.27223469094E+04  0.27219566386E+04 0.  0.
        2    1    3    3  502    0 -0.84839723021E+03 -0.69000480634E+03 -0.78723991610E+03  0.13474535905E+04  0.25500000920E-02 0. -1.
       -2    1    3    3    0  502  0.84839723021E+03  0.69000480634E+03  0.83333495389E+03  0.13748933189E+04  0.25500000920E-02 0.  1.
</event>
<event>
 5   0  0.8213334E-06  0.2708168E+04  0.7818609E-02  0.8332360E-01
       -2   -1    0    0    0  501  0.00000000000E+00  0.00000000000E+00  0.12003026509E+04  0.12003026509E+04  0.25500000920E-02 0.  1.
        2   -1    0    0  501    0  0.00000000000E+00  0.00000000000E+00 -0.15275678189E+04  0.15275678189E+04  0.25500000920E-02 0. -1.
    10030    2    1    2    0    0  0.00000000000E+00  0.00000000000E+00 -0.32726516801E+03  0.27278704699E+04  0.27081681650E+04 0.  0.
        3    1    3    3  502    0 -0.41222477043E+03 -0.12804575726E+04 -0.31981817317E+03  0.13826729659E+04  0.10100000352E+00 0.  1.
       -3    1    3    3    0  502  0.41222477043E+03  0.12804575726E+04 -0.74469948447E+01  0.13451975039E+04  0.10100000352E+00 0. -1.
</event>
<event>
 5   0  0.8213334E-06  0.2720574E+04  0.7818609E-02  0.8328360E-01
       -2   -1    0    0    0  501  0.00000000000E+00  0.00000000000E+00  0.22483756038E+04  0.22483756038E+04  0.25500000920E-02 0. -1.
        2   -1    0    0  501    0  0.00000000000E+00  0.00000000000E+00 -0.82298571866E+03  0.82298571867E+03  0.25500000920E-02 0.  1.
    10030    2    1    2    0    0  0.00000000000E+00  0.00000000000E+00  0.14253898851E+04  0.30713613225E+04  0.27205742130E+04 0.  0.
        3    1    3    3  502    0  0.93406735673E+02  0.66768200454E+03 -0.62110528229E+03  0.91667652929E+03  0.10100000352E+00 0.  1.
       -3    1    3    3    0  502 -0.93406735673E+02 -0.66768200454E+03  0.20464951674E+04  0.21546847932E+04  0.10100000352E+00 0. -1.
</event>
<event>
 5   0  0.3028601E-06  0.2702943E+04  0.7818609E-02  0.8334051E-01
        1   -1    0    0  501    0  0.00000000000E+00  0.00000000000E+00  0.18003739288E+04  0.18003739288E+04  0.50400001928E-02 0.  1.
       -1   -1    0    0    0  501  0.00000000000E+00  0.00000000000E+00 -0.10144980333E+04  0.10144980333E+04  0.50400001928E-02 0. -1.
    10030    2    1    2    0    0  0.00000000000E+00  0.00000000000E+00  0.78587589551E+03  0.28148719622E+04  0.27029434401E+04 0.  0.
        3    1    3    3  502    0 -0.37804579585E+03 -0.82249220349E+03  0.14380194701E+04  0.16992092441E+04  0.10100000352E+00 0.  1.
       -3    1    3    3    0  502  0.37804579585E+03  0.82249220349E+03 -0.65214357457E+03  0.11156627181E+04  0.10100000352E+00 0. -1.
</event>
<event>
 5   0  0.7838364E-06  0.2690191E+04  0.7818609E-02  0.8338195E-01
        2   -1    0    0  501    0  0.00000000000E+00  0.00000000000E+00  0.21182819901E+04  0.21182819901E+04  0.25500000920E-02 0.  1.
       -2   -1    0    0    0  501  0.00000000000E+00  0.00000000000E+00 -0.85412724702E+03  0.85412724702E+03  0.25500000920E-02 0. -1.
    10030    2    1    2    0    0  0.00000000000E+00  0.00000000000E+00  0.12641547431E+04  0.29724092371E+04  0.26901913424E+04 0.  0.
        2    1    3    3  502    0 -0.17584928841E+03  0.71507085795E+03 -0.61163342686E+03  0.95725897905E+03  0.25500000920E-02 0. -1.
       -2    1    3    3    0  502  0.17584928841E+03 -0.71507085795E+03  0.18757881700E+04  0.20151502581E+04  0.25500000920E-02 0.  1.
</event>
<event>
 5   0  0.8407622E-06  0.2721218E+04  0.7818609E-02  0.8328153E-01
        2   -1    0    0  501    0  0.00000000000E+00  0.00000000000E+00  0.12670411929E+04  0.12670411929E+04  0.25500000920E-02 0.  1.
       -2   -1    0    0    0  501  0.00000000000E+00  0.00000000000E+00 -0.14610867375E+04  0.14610867375E+04  0.25500000920E-02 0. -1.
    10030    2    1    2    0    0  0.00000000000E+00  0.00000000000E+00 -0.19404554460E+03  0.27281279304E+04  0.27212181705E+04 0.  0.
        1    1    3    3  502    0 -0.70843109619E+03 -0.90497741601E+03 -0.82715656325E+03  0.14159967238E+04  0.50400001928E-02 0. -1.
       -1    1    3    3    0  502  0.70843109619E+03  0.90497741601E+03  0.63311101865E+03  0.13121312067E+04  0.50400001928E-02 0.  1.
</event>
<event>
 5   0  0.7729970E-06  0.2699013E+04  0.7818609E-02  0.8335325E-01
       -2   -1    0    0    0  501  0.00000000000E+00  0.00000000000E+00  0.12940914291E+04  0.12940914291E+04  0.25500000920E-02 0. -1.
        2   -1    0    0  501    0  0.00000000000E+00  0.00000000000E+00 -0.14072945144E+04  0.14072945144E+04  0.25500000920E-02 0.  1.
    10030    2    1    2    0    0  0.00000000000E+00  0.00000000000E+00 -0.11320308527E+03  0.27013859435E+04  0.26990129821E+04 0.  0.
        4    1    3    3  502    0 -0.42048973808E+03 -0.92388494707E+03  0.83344467714E+03  0.13133950883E+04  0.12699999809E+01 0. -1.
       -4    1    3    3    0  502  0.42048973808E+03  0.92388494707E+03 -0.94664776240E+03  0.13879908552E+04  0.12699999809E+01 0.  1.
</event>
<event>
 5   0  0.3089218E-06  0.2699306E+04  0.7818609E-02  0.8335230E-01
        1   -1    0    0  501    0  0.00000000000E+00  0.00000000000E+00  0.12989649164E+04  0.12989649164E+04  0.50400001928E-02 0.  1.
       -1   -1    0    0    0  501  0.00000000000E+00  0.00000000000E+00 -0.14023193568E+04  0.14023193568E+04  0.50400001928E-02 0. -1.
    10030    2    1    2    0    0  0.00000000000E+00  0.00000000000E+00 -0.10335444036E+03  0.27012842733E+04  0.26993063154E+04 0.  0.
        5    1    3    3  502    0 -0.61084990849E+03  0.99680182172E+03  0.62319819541E+03  0.13248205778E+04  0.46999998093E+01 0.  1.
       -5    1    3    3    0  502  0.61084990849E+03 -0.99680182172E+03 -0.72655263577E+03  0.13764636955E+04  0.46999998093E+01 0. -1.
</event>
<event>
 5   0  0.8407622E-06  0.2641892E+04  0.7818609E-02  0.8354109E-01
       -2   -1    0    0    0  501  0.00000000000E+00  0.00000000000E+00  0.16709591994E+04  0.16709591994E+04  0.25500000920E-02 0. -1.
        2   -1    0    0  501    0  0.00000000000E+00  0.00000000000E+00 -0.10442497199E+04  0.10442497199E+04  0.25500000920E-02 0.  1.
    10030    2    1    2    0    0  0.00000000000E+00  0.00000000000E+00  0.62670947945E+03  0.27152089193E+04  0.26418922582E+04 0.  0.
        1    1    3    3  502    0 -0.98006163879E+03 -0.51207363931E+03  0.10560134924E+04  0.15290208383E+04  0.50400001928E-02 0. -1.
       -1    1    3    3    0  502  0.98006163879E+03  0.51207363931E+03 -0.42930401295E+03  0.11861880810E+04  0.50400001928E-02 0.  1.
</event>
<event>
 5   0  0.8213334E-06  0.2719539E+04  0.7818609E-02  0.8328693E-01
        2   -1    0    0  501    0  0.00000000000E+00  0.00000000000E+00  0.22736168408E+04  0.22736168408E+04  0.25500000920E-02 0. -1.
       -2   -1    0    0    0  501  0.00000000000E+00  0.00000000000E+00 -0.81322984329E+03  0.81322984329E+03  0.25500000920E-02 0.  1.
    10030    2    1    2    0    0  0.00000000000E+00  0.00000000000E+00  0.14603869975E+04  0.30868466841E+04  0.27195389809E+04 0.  0.
        3    1    3    3  502    0 -0.10834559025E+04  0.49261518184E+03 -0.16214002921E+02  0.11902979938E+04  0.10100000352E+00 0.  1.
       -3    1    3    3    0  502  0.10834559025E+04 -0.49261518184E+03  0.14766010004E+04  0.18965486903E+04  0.10100000352E+00 0. -1.
</event>
<event>
 5   0  0.3013407E-06  0.2700547E+04  0.7818609E-02  0.8334827E-01
        1   -1    0    0  501    0  0.00000000000E+00  0.00000000000E+00  0.15435989121E+04  0.15435989121E+04  0.50400001928E-02 0. -1.
       -1   -1    0    0    0  501  0.00000000000E+00  0.00000000000E+00 -0.11811609592E+04  0.11811609592E+04  0.50400001928E-02 0.  1.
    10030    2    1    2    0    0  0.00000000000E+00  0.00000000000E+00  0.36243795286E+03  0.27247598713E+04  0.27005471828E+04 0.  0.
        4    1    3    3  502    0  0.11286729130E+04 -0.93459773172E+02 -0.56062818555E+03  0.12637020413E+04  0.12699999809E+01 0.  1.
       -4    1    3    3    0  502 -0.11286729130E+04  0.93459773172E+02  0.92306613841E+03  0.14610578300E+04  0.12699999809E+01 0. -1.
</event>
<event>
 5   0  0.7812908E-06  0.2709154E+04  0.7818609E-02  0.8332041E-01
        2   -1    0    0  501    0  0.00000000000E+00  0.00000000000E+00  0.16353854396E+04  0.16353854396E+04  0.25500000920E-02 0.  1.
       -2   -1    0    0    0  501  0.00000000000E+00  0.00000000000E+00 -0.11219852580E+04  0.11219852580E+04  0.25500000920E-02 0. -1.
    10030    2    1    2    0    0  0.00000000000E+00  0.00000000000E+00  0.51340018154E+03  0.27573706976E+04  0.27091536349E+04 0.  0.
        5    1    3    3  502    0  0.11173787754E+04 -0.73851320268E+03  0.50814944309E+02  0.13403511953E+04  0.46999998093E+01 0.  1.
       -5    1    3    3    0  502 -0.11173787754E+04  0.73851320268E+03  0.46258523724E+03  0.14170195023E+04  0.46999998093E+01 0. -1.
</event>
<event>
 5   0  0.7838364E-06  0.2699932E+04  0.7818609E-02  0.8335027E-01
       -2   -1    0    0    0  501  0.00000000000E+00  0.00000000000E+00  0.86198571533E+03  0.86198571533E+03  0.25500000920E-02 0. -1.
        2   -1    0    0  501    0  0.00000000000E+00  0.00000000000E+00 -0.21141981883E+04  0.21141981883E+04  0.25500000920E-02 0.  1.
    10030    2    1    2    0    0  0.00000000000E+00  0.00000000000E+00 -0.12522124730E+04  0.29761839037E+04  0.26999323234E+04 0.  0.
        2    1    3    3  502    0  0.25108372440E+03  0.10051102917E+03  0.83181632576E+03  0.87467931464E+03  0.25500000920E-02 0. -1.
       -2    1    3    3    0  502 -0.25108372440E+03 -0.10051102917E+03 -0.20840287988E+04  0.21015045890E+04  0.25500000920E-02 0.  1.
</event>
<event>
 5   0  0.7838364E-06  0.2707316E+04  0.7818609E-02  0.8332635E-01
       -2   -1    0    0    0  501  0.00000000000E+00  0.00000000000E+00  0.17023840062E+04  0.17023840062E+04  0.25500000920E-02 0.  1.
        2   -1    0    0  501    0  0.00000000000E+00  0.00000000000E+00 -0.10763671609E+04  0.10763671609E+04  0.25500000920E-02 0. -1.
    10030    2    1    2    0    0  0.00000000000E+00  0.00000000000E+00  0.62601684533E+03  0.27787511671E+04  0.27073161909E+04 0.  0.
        2    1    3    3  502    0 -0.22418416060E+03 -0.55366712877E+03  0.15597966904E+04  0.16702609206E+04  0.25500000920E-02 0.  1.
       -2    1    3    3    0  502  0.22418416060E+03  0.55366712877E+03 -0.93377984511E+03  0.11084902465E+04  0.25500000920E-02 0. -1.
</event>
<event>
 5   0  0.3028601E-06  0.2698317E+04  0.7818609E-02  0.8335551E-01
        1   -1    0    0  501    0  0.00000000000E+00  0.00000000000E+00  0.17489044739E+04  0.17489044739E+04  0.50400001928E-02 0.  1.
       -1   -1    0    0    0  501  0.00000000000E+00  0.00000000000E+00 -0.10407823139E+04  0.10407823139E+04  0.50400001928E-02 0. -1.
    10030    2    1    2    0    0  0.00000000000E+00  0.00000000000E+00  0.70812216000E+03  0.27896867879E+04  0.26983171387E+04 0.  0.
        3    1    3    3  502    0  0.70359432938E+03 -0.10127482190E+04 -0.21175973424E+03  0.12512178590E+04  0.10100000352E+00 0. -1.
       -3    1    3    3    0  502 -0.70359432938E+03  0.10127482190E+04  0.91988189425E+03  0.15384689289E+04  0.10100000352E+00 0.  1.
</event>
<event>
 5   0  0.3046300E-06  0.2538473E+04  0.7818609E-02  0.8389406E-01
        1   -1    0    0  501    0  0.00000000000E+00  0.00000000000E+00  0.14891382664E+04  0.14891382664E+04  0.50400001928E-02 0. -1.
       -1   -1    0    0    0  501  0.00000000000E+00  0.00000000000E+00 -0.10818079070E+04  0.10818079070E+04  0.50400001928E-02 0.  1.
    10030    2    1    2    0    0  0.00000000000E+00  0.00000000000E+00  0.40733035942E+03  0.25709461733E+04  0.25384732034E+04 0.  0.
        2    1    3    3  502    0 -0.11345586843E+03 -0.29678828212E+03  0.14482077085E+04  0.14826533936E+04  0.25500000920E-02 0. -1.
       -2    1    3    3    0  502  0.11345586843E+03  0.29678828212E+03 -0.10408773491E+04  0.10882927797E+04  0.25500000920E-02 0.  1.
</event>
<event>
 5   0  0.8407622E-06  0.2640876E+04  0.7818609E-02  0.8354448E-01
       -2   -1    0    0    0  501  0.00000000000E+00  0.00000000000E+00  0.90490591512E+03  0.90490591512E+03  0.25500000920E-02 0. -1.
        2   -1    0    0  501    0  0.00000000000E+00  0.00000000000E+00 -0.19267821235E+04  0.19267821235E+04  0.25500000920E-02 0.  1.
    10030    2    1    2    0    0  0.00000000000E+00  0.00000000000E+00 -0.10218762084E+04  0.28316880386E+04  0.26408760218E+04 0.  0.
        1    1    3    3  502    0 -0.99320320468E+03 -0.83228794945E+03 -0.23882923300E+03  0.13176476157E+04  0.50400001928E-02 0. -1.
       -1    1    3    3    0  502  0.99320320468E+03  0.83228794945E+03 -0.78304697537E+03  0.15140404229E+04  0.50400001928E-02 0.  1.
</event>
<event>
 5   0  0.3046300E-06  0.2661002E+04  0.7818609E-02  0.8347770E-01
        1   -1    0    0  501    0  0.00000000000E+00  0.00000000000E+00  0.17577234256E+04  0.17577234256E+04  0.50400001928E-02 0.  1.
       -1   -1    0    0    0  501  0.00000000000E+00  0.00000000000E+00 -0.10071171511E+04  0.10071171511E+04  0.50400001928E-02 0. -1.
    10030    2    1    2    0    0  0.00000000000E+00  0.00000000000E+00  0.75060627447E+03  0.27648405767E+04  0.26610023741E+04 0.  0.
        2    1    3    3  502    0  0.11508157639E+04 -0.56731542579E+02  0.10665754920E+04  0.15700887461E+04  0.25500000920E-02 0.  1.
       -2    1    3    3    0  502 -0.11508157639E+04  0.56731542579E+02 -0.31596921757E+03  0.11947518306E+04  0.25500000920E-02 0. -1.
</event>
<event>
 5   0  0.3089218E-06  0.2685887E+04  0.7818609E-02  0.8339599E-01
       -1   -1    0    0    0  501  0.00000000000E+00  0.00000000000E+00  0.95039395650E+03  0.95039395651E+03  0.50400001928E-02 0.  1.
        1   -1    0    0  501    0  0.00000000000E+00  0.00000000000E+00 -0.18976309106E+04  0.18976309106E+04  0.50400001928E-02 0. -1.
    10030    2    1    2    0    0  0.00000000000E+00  0.00000000000E+00 -0.94723695411E+03  0.28480248671E+04  0.26858867803E+04 0.  0.
        5    1    3    3  502    0  0.78339462790E+03  0.34086008178E+03  0.62506782618E+03  0.10585955865E+04  0.46999998093E+01 0.  1.
       -5    1    3    3    0  502 -0.78339462790E+03 -0.34086008178E+03 -0.15723047803E+04  0.17894292807E+04  0.46999998093E+01 0. -1.
</event>
<event>
 5   0  0.7812908E-06  0.2720008E+04  0.7818609E-02  0.8328542E-01
       -2   -1    0    0    0  501  0.00000000000E+00  0.00000000000E+00  0.19673120751E+04  0.19673120751E+04  0.25500000920E-02 0.  1.
        2   -1    0    0  501    0  0.00000000000E+00  0.00000000000E+00 -0.94017123396E+03  0.94017123397E+03  0.25500000920E-02 0. -1.
    10030    2    1    2    0    0  0.00000000000E+00  0.00000000000E+00  0.10271408411E+04  0.29074833091E+04  0.27200075156E+04 0.  0.
        5    1    3    3  502    0 -0.74301776540E+03 -0.83230762569E+03 -0.31770448228E+03  0.11600731061E+04  0.46999998093E+01 0. -1.
       -5    1    3    3    0  502  0.74301776540E+03  0.83230762569E+03  0.13448453234E+04  0.17474102030E+04  0.46999998093E+01 0.  1.
</event>
<event>
 5   0  0.3046300E-06  0.2695814E+04  0.7818609E-02  0.8336364E-01
       -1   -1    0    0    0  501  0.00000000000E+00  0.00000000000E+00  0.14284293155E+04  0.14284293155E+04  0.50400001928E-02 0. -1.
        1   -1    0    0  501    0  0.00000000000E+00  0.00000000000E+00 -0.12719240186E+04  0.12719240186E+04  0.50400001928E-02 0.  1.
    10030    2    1    2    0    0  0.00000000000E+00  0.00000000000E+00  0.15650529691E+03  0.27003533340E+04  0.26958142037E+04 0.  0.
        2    1    3    3  502    0  0.68792031381E+03 -0.63745912130E+03  0.10480072566E+04  0.14063810648E+04  0.25500000920E-02 0. -1.
       -2    1    3    3    0  502 -0.68792031381E+03  0.63745912130E+03 -0.89150195968E+03  0.12939722693E+04  0.25500000920E-02 0.  1.
</event>
<event>
 5   0  0.3028601E-06  0.2719061E+04  0.7818609E-02  0.8328847E-01
       -1   -1    0    0    0  501  0.00000000000E+00  0.00000000000E+00  0.12236067770E+04  0.12236067770E+04  0.50400001928E-02 0. -1.
        1   -1    0    0  501    0  0.00000000000E+00  0.00000000000E+00 -0.15105530072E+04  0.15105530072E+04  0.50400001928E-02 0.  1.
    10030    2    1    2    0    0  0.00000000000E+00  0.00000000000E+00 -0.28694623014E+03  0.27341597842E+04  0.27190607913E+04 0.  0.
        3    1    3    3  502    0 -0.11254925229E+04 -0.52199360041E+03  0.41559279413E+03  0.13084067100E+04  0.10100000352E+00 0. -1.
       -3    1    3    3    0  502  0.11254925229E+04  0.52199360041E+03 -0.70253902427E+03  0.14257530742E+04  0.10100000352E+00 0.  1.
</event>
<event>
 5   0  0.3089218E-06  0.2671983E+04  0.7818609E-02  0.8344153E-01
        1   -1    0    0  501    0  0.00000000000E+00  0.00000000000E+00  0.26897681632E+04  0.26897681632E+04  0.50400001928E-02 0. -1.
       -1   -1    0    0    0  501  0.00000000000E+00  0.00000000000E+00 -0.66357861874E+03  0.66357861876E+03  0.50400001928E-02 0.  1.
    10030    2    1    2    0    0  0.00000000000E+00  0.00000000000E+00  0.20261895445E+04  0.33533467820E+04  0.26719825168E+04 0.  0.
        5    1    3    3  502    0 -0.10135728008E+04  0.61815327961E+03  0.17820413795E+04  0.21412932699E+04  0.46999998093E+01 0. -1.
       -5    1    3    3    0  502  0.10135728008E+04 -0.61815327961E+03  0.24414816493E+03  0.12120535120E+04  0.46999998093E+01 0.  1.
</event>
<event>
 5   0  0.7838364E-06  0.2694851E+04  0.7818609E-02  0.8336678E-01
        2   -1    0    0  501    0  0.00000000000E+00  0.00000000000E+00  0.11626797613E+04  0.11626797613E+04  0.25500000920E-02 0. -1.
       -2   -1    0    0    0  501  0.00000000000E+00  0.00000000000E+00 -0.15615264557E+04  0.15615264557E+04  0.25500000920E-02 0.  1.
    10030    2    1    2    0    0  0.00000000000E+00  0.00000000000E+00 -0.39884669436E+03  0.27242062170E+04  0.26948507987E+04 0.  0.
        2    1    3    3  502    0  0.18552673172E+03  0.15393598492E+03  0.11407017902E+04  0.11658975211E+04  0.25500000920E-02 0. -1.
       -2    1    3    3    0  502 -0.18552673172E+03 -0.15393598492E+03 -0.15395484845E+04  0.15583086959E+04  0.25500000920E-02 0.  1.
</event>
<event>
 5   0  0.8407622E-06  0.2688913E+04  0.7818609E-02  0.8338611E-01
       -2   -1    0    0    0  501  0.00000000000E+00  0.00000000000E+00  0.91078749681E+03  0.91078749681E+03  0.25500000920E-02 0.  1.
        2   -1    0    0  501    0  0.00000000000E+00  0.00000000000E+00 -0.19846158383E+04  0.19846158383E+04  0.25500000920E-02 0. -1.
    10030    2    1    2    0    0  0.00000000000E+00  0.00000000000E+00 -0.10738283415E+04  0.28954033351E+04  0.26889130083E+04 0.  0.
        1    1    3    3  502    0 -0.15308375191E+03 -0.65077053254E+03  0.71912088324E+03  0.98187156281E+03  0.50400001928E-02 0.  1.
       -1    1    3    3    0  502  0.15308375191E+03  0.65077053254E+03 -0.17929492247E+04  0.19135317723E+04  0.50400001928E-02 0. -1.
</event>
<event>
 5   0  0.3028601E-06  0.2724713E+04  0.7818609E-02  0.8327031E-01
       -1   -1    0    0    0  501  0.00000000000E+00  0.00000000000E+00  0.85359266823E+03  0.85359266824E+03  0.50400001928E-02 0.  1.
        1   -1    0    0  501    0  0.00000000000E+00  0.00000000000E+00 -0.21743578068E+04  0.21743578068E+04  0.50400001928E-02 0. -1.
    10030    2    1    2    0    0  0.00000000000E+00  0.00000000000E+00 -0.13207651386E+04  0.30279504751E+04  0.27247134763E+04 0.  0.
        3    1    3    3  502    0  0.11142926042E+04  0.81673345232E+02  0.20592396760E+03  0.11361000105E+04  0.10100000352E+00 0.  1.
       -3    1    3    3    0  502 -0.11142926042E+04 -0.81673345232E+02 -0.15266891062E+04  0.18918504646E+04  0.10100000352E+00 0. -1.
</event>
<event>
 5   0  0.8407622E-06  0.2725240E+04  0.7818609E-02  0.8326862E-01
        2   -1    0    0  501    0  0.00000000000E+00  0.00000000000E+00  0.15439240308E+04  0.15439240308E+04  0.25500000920E-02 0.  1.
       -2   -1    0    0    0  501  0.00000000000E+00  0.00000000000E+00 -0.12026064582E+04  0.12026064582E+04  0.25500000920E-02 0. -1.
    10030    2    1    2    0    0  0.00000000000E+00  0.00000000000E+00  0.34131757257E+03  0.27465304889E+04  0.27252398136E+04 0.  0.
        1    1    3    3  502    0  0.14488775709E+03  0.64770057180E+03 -0.10286907007E+04  0.12242193638E+04  0.50400001928E-02 0. -1.
       -1    1    3    3    0  502 -0.14488775709E+03 -0.64770057180E+03  0.13700082733E+04  0.15223111252E+04  0.50400001928E-02 0.  1.
</event>
<event>
 5   0  0.8407622E-06  0.2708560E+04  0.7818609E-02  0.8332233E-01
       -2   -1    0    0    0  501  0.00000000000E+00  0.00000000000E+00  0.56468979107E+03  0.56468979107E+03  0.25500000920E-02 0.  1.
        2   -1    0    0  501    0  0.00000000000E+00  0.00000000000E+00 -0.32479314960E+04  0.32479314960E+04  0.25500000920E-02 0. -1.
    10030    2    1    2    0    0  0.00000000000E+00  0.00000000000E+00 -0.26832417049E+04  0.38126212870E+04  0.27085595861E+04 0.  0.
        1    1    3    3  502    0 -0.67892730177E+03  0.56166035125E+03  0.10601785839E+03  0.88749333383E+03  0.50400001928E-02 0.  1.
       -1    1    3    3    0  502  0.67892730177E+03 -0.56166035125E+03 -0.27892595633E+04  0.29251279532E+04  0.50400001928E-02 0. -1.
</event>
<event>
 5   0  0.7812908E-06  0.2724465E+04  0.7818609E-02  0.8327110E-01
        2   -1    0    0  501    0  0.00000000000E+00  0.00000000000E+00  0.21159413789E+04  0.21159413789E+04  0.25500000920E-02 0. -1.
       -2   -1    0    0    0  501  0.00000000000E+00  0.00000000000E+00 -0.87699868995E+03  0.87699868995E+03  0.25500000920E-02 0.  1.
    10030    2    1    2    0    0  0.00000000000E+00  0.00000000000E+00  0.12389426889E+04  0.29929400688E+04  0.27244653180E+04 0.  0.
        5    1    3    3  502    0  0.13453560376E+04 -0.81283700263E+02  0.40234365733E+03  0.14065889294E+04  0.46999998093E+01 0.  1.
       -5    1    3    3    0  502 -0.13453560376E+04  0.81283700263E+02  0.83659903160E+03  0.15863511394E+04  0.46999998093E+01 0. -1.
</event>
<event>
 5   0  0.8213334E-06  0.2706536E+04  0.7818609E-02  0.8332887E-01
        2   -1    0    0  501    0  0.00000000000E+00  0.00000000000E+00  0.10299605152E+04  0.10299605152E+04  0.25500000920E-02 0.  1.
       -2   -1    0    0    0  501  0.00000000000E+00  0.00000000000E+00 -0.17780624679E+04  0.17780624679E+04  0.25500000920E-02 0. -1.
    10030    2    1    2    0    0  0.00000000000E+00  0.00000000000E+00 -0.74810195277E+03  0.28080229831E+04  0.27065358933E+04 0.  0.
        3    1    3    3  502    0  0.11108236866E+04 -0.57952663618E+03  0.15654913251E+03  0.12626511893E+04  0.10100000352E+00 0.  1.
       -3    1    3    3    0  502 -0.11108236866E+04  0.57952663618E+03 -0.90465108528E+03  0.15453717938E+04  0.10100000352E+00 0. -1.
</event>
<event>
 5   0  0.3199840E-06  0.2703410E+04  0.7818609E-02  0.8333899E-01
       -1   -1    0    0    0  501  0.00000000000E+00  0.00000000000E+00  0.16007603771E+04  0.16007603771E+04  0.50400001928E-02 0. -1.
        1   -1    0    0  501    0  0.00000000000E+00  0.00000000000E+00 -0.11413990233E+04  0.11413990233E+04  0.50400001928E-02 0.  1.
    10030    2    1    2    0    0  0.00000000000E+00  0.00000000000E+00  0.45936135378E+03  0.27421594004E+04  0.27034099437E+04 0.  0.
        1    1    3    3  502    0 -0.56834050709E+03  0.11979510240E+04  0.49614118265E+03  0.14157166599E+04  0.50400001928E-02 0.  1.
       -1    1    3    3    0  502  0.56834050709E+03 -0.11979510240E+04 -0.36779828873E+02  0.13264427405E+04  0.50400001928E-02 0. -1.
</event>
<event>
 5   0  0.3199840E-06  0.2783273E+04  0.7818609E-02  0.8308480E-01
        1   -1    0    0  501    0  0.00000000000E+00  0.00000000000E+00  0.10867407771E+04  0.10867407771E+04  0.50400001928E-02 0.  1.
       -1   -1    0    0    0  501  0.00000000000E+00  0.00000000000E+00 -0.17820733516E+04  0.17820733516E+04  0.50400001928E-02 0. -1.
    10030    2    1    2    0    0  0.00000000000E+00  0.00000000000E+00 -0.69533257449E+03  0.28688141288E+04  0.27832727348E+04 0.  0.
        1    1    3    3  502    0  0.10882247357E+03  0.65474336492E+03 -0.16084190936E+04  0.17399836738E+04  0.50400001928E-02 0. -1.
       -1    1    3    3    0  502 -0.10882247357E+03 -0.65474336492E+03  0.91308651906E+03  0.11288304549E+04  0.50400001928E-02 0.  1.
</event>
<event>
 5   0  0.3028601E-06  0.2704560E+04  0.7818609E-02  0.8333527E-01
        1   -1    0    0  501    0  0.00000000000E+00  0.00000000000E+00  0.19300224837E+04  0.19300224837E+04  0.50400001928E-02 0.  1.
       -1   -1    0    0    0  501  0.00000000000E+00  0.00000000000E+00 -0.94748208179E+03  0.94748208180E+03  0.50400001928E-02 0. -1.
    10030    2    1    2    0    0  0.00000000000E+00  0.00000000000E+00  0.98254040193E+03  0.28775045655E+04  0.27045603863E+04 0.  0.
        3    1    3    3  502    0  0.28325930391E+03  0.33172583136E+03 -0.87057319127E+03  0.97374306262E+03  0.10100000352E+00 0. -1.
       -3    1    3    3    0  502 -0.28325930391E+03 -0.33172583136E+03  0.18531135932E+04  0.19037615029E+04  0.10100000352E+00 0.  1.
</event>
<event>
 5   0  0.7812908E-06  0.2660016E+04  0.7818609E-02  0.8348096E-01
        2   -1    0    0  501    0  0.00000000000E+00  0.00000000000E+00  0.17920951777E+04  0.17920951777E+04  0.25500000920E-02 0.  1.
       -2   -1    0    0    0  501  0.00000000000E+00  0.00000000000E+00 -0.98706913022E+03  0.98706913022E+03  0.25500000920E-02 0. -1.
    10030    2    1    2    0    0  0.00000000000E+00  0.00000000000E+00  0.80502604752E+03  0.27791643080E+04  0.26600164122E+04 0.  0.
        5    1    3    3  502    0 -0.78598375640E+03  0.10562968934E+04  0.59899547877E+03  0.14464962032E+04  0.46999998093E+01 0.  1.
       -5    1    3    3    0  502  0.78598375640E+03 -0.10562968934E+04  0.20603056874E+03  0.13326681048E+04  0.46999998093E+01 0. -1.
</event>
<event>
 5   0  0.8407622E-06  0.2695971E+04  0.7818609E-02  0.8336313E-01
        2   -1    0    0  501    0  0.00000000000E+00  0.00000000000E+00  0.23493031218E+04  0.23493031218E+04  0.25500000920E-02 0. -1.
       -2   -1    0    0    0  501  0.00000000000E+00  0.00000000000E+00 -0.77344850708E+03  0.77344850709E+03  0.25500000920E-02 0.  1.
    10030    2    1    2    0    0  0.00000000000E+00  0.00000000000E+00  0.15758546147E+04  0.31227516289E+04  0.26959710624E+04 0.  0.
        1    1    3    3  502    0  0.19889394563E+03 -0.36800638445E+02 -0.75577043877E+03  0.78236950653E+03  0.50400001928E-02 0.  1.
       -1    1    3    3    0  502 -0.19889394563E+03  0.36800638445E+02  0.23316250535E+04  0.23403821224E+04  0.50400001928E-02 0. -1.
</event>
<event>
 5   0  0.3089218E-06  0.2770485E+04  0.7818609E-02  0.8312491E-01
       -1   -1    0    0    0  501  0.00000000000E+00  0.00000000000E+00  0.62356509656E+03  0.62356509658E+03  0.50400001928E-02 0. -1.
        1   -1    0    0  501    0  0.00000000000E+00  0.00000000000E+00 -0.30772999461E+04  0.30772999461E+04  0.50400001928E-02 0.  1.
    10030    2    1    2    0    0  0.00000000000E+00  0.00000000000E+00 -0.24537348496E+04  0.37008650427E+04  0.27704850392E+04 0.  0.
        5    1    3    3  502    0  0.87853402444E+03  0.66360377056E+02  0.20105253398E+03  0.90369792694E+03  0.46999998093E+01 0. -1.
       -5    1    3    3    0  502 -0.87853402444E+03 -0.66360377056E+02 -0.26547873836E+04  0.27971671158E+04  0.46999998093E+01 0.  1.
</event>
<event>
 5   0  0.3089218E-06  0.2701703E+04  0.7818609E-02  0.8334453E-01
        1   -1    0    0  501    0  0.00000000000E+00  0.00000000000E+00  0.12274852767E+04  0.12274852767E+04  0.50400001928E-02 0. -1.
       -1   -1    0    0    0  501  0.00000000000E+00  0.00000000000E+00 -0.14866161572E+04  0.14866161572E+04  0.50400001928E-02 0.  1.
    10030    2    1    2    0    0  0.00000000000E+00  0.00000000000E+00 -0.25913088056E+03  0.27141014339E+04  0.27017027557E+04 0.  0.
        5    1    3    3  502    0  0.21337388406E+03 -0.56771071498E+02  0.12092267389E+04  0.12292285243E+04  0.46999998093E+01 0. -1.
       -5    1    3    3    0  502 -0.21337388406E+03  0.56771071498E+02 -0.14683576195E+04  0.14848729096E+04  0.46999998093E+01 0.  1.
</event>
<event>
 5   0  0.8407622E-06  0.2737799E+04  0.7818609E-02  0.8322844E-01
       -2   -1    0    0    0  501  0.00000000000E+00  0.00000000000E+00  0.11068047828E+04  0.11068047828E+04  0.25500000920E-02 0. -1.
        2   -1    0    0  501    0  0.00000000000E+00  0.00000000000E+00 -0.16930595810E+04  0.16930595810E+04  0.25500000920E-02 0.  1.
    10030    2    1    2    0    0  0.00000000000E+00  0.00000000000E+00 -0.58625479820E+03  0.27998643638E+04  0.27377994389E+04 0.  0.
        1    1    3    3  502    0  0.13151700179E+04  0.37676063657E+02 -0.67957581272E+03  0.14808494005E+04  0.50400001928E-02 0.  1.
       -1    1    3    3    0  502 -0.13151700179E+04 -0.37676063657E+02  0.93321014518E+02  0.13190149633E+04  0.50400001928E-02 0. -1.
</event>
<event>
 5   0  0.3028601E-06  0.2702704E+04  0.7818609E-02  0.8334128E-01
       -1   -1    0    0    0  501  0.00000000000E+00  0.00000000000E+00  0.21921210390E+04  0.21921210390E+04  0.50400001928E-02 0. -1.
        1   -1    0    0  501    0  0.00000000000E+00  0.00000000000E+00 -0.83305264852E+03  0.83305264854E+03  0.50400001928E-02 0.  1.
    10030    2    1    2    0    0  0.00000000000E+00  0.00000000000E+00  0.13590683904E+04  0.30251736875E+04  0.27027040070E+04 0.  0.
        3    1    3    3  502    0 -0.29623071169E+03 -0.55576903295E+03 -0.65874585391E+03  0.91136050100E+03  0.10100000352E+00 0.  1.
       -3    1    3    3    0  502  0.29623071169E+03  0.55576903295E+03  0.20178142444E+04  0.21138131865E+04  0.10100000352E+00 0. -1.
</event>
<event>
 5   0  0.3046300E-06  0.2701569E+04  0.7818609E-02  0.8334496E-01
       -1   -1    0    0    0  501  0.00000000000E+00  0.00000000000E+00  0.28871892093E+04  0.28871892093E+04  0.50400001928E-02 0.  1.
        1   -1    0    0  501    0  0.00000000000E+00  0.00000000000E+00 -0.63197078648E+03  0.63197078650E+03  0.50400001928E-02 0. -1.
    10030    2    1    2    0    0  0.00000000000E+00  0.00000000000E+00  0.22552184228E+04  0.35191599958E+04  0.27015693479E+04 0.  0.
        2    1    3    3  502    0 -0.39263390364E+03  0.12885688151E+04  0.99703170798E+03  0.16759007132E+04  0.25500000920E-02 0. -1.
       -2    1    3    3    0  502  0.39263390364E+03 -0.12885688151E+04  0.12581867148E+04  0.18432592826E+04  0.25500000920E-02 0.  1.
</event>
<event>
 5   0  0.3013407E-06  0.2699609E+04  0.7818609E-02  0.8335132E-01
       -1   -1    0    0    0  501  0.00000000000E+00  0.00000000000E+00  0.14259085542E+04  0.14259085542E+04  0.50400001928E-02 0. -1.
        1   -1    0    0  501    0  0.00000000000E+00  0.00000000000E+00 -0.12777626693E+04  0.12777626693E+04  0.50400001928E-02 0.  1.
    10030    2    1    2    0    0  0.00000000000E+00  0.00000000000E+00  0.14814588483E+03  0.27036712235E+04  0.26996093943E+04 0.  0.
        4    1    3    3  502    0 -0.30413242748E+03 -0.11635003143E+04  0.68797287234E+03  0.13854738543E+04  0.12699999809E+01 0. -1.
       -4    1    3    3    0  502  0.30413242748E+03  0.11635003143E+04 -0.53982698751E+03  0.13181973692E+04  0.12699999809E+01 0.  1.
</event>
<event>
 5   0  0.3013407E-06  0.2704901E+04  0.7818609E-02  0.8333417E-01
       -1   -1    0    0    0  501  0.00000000000E+00  0.00000000000E+00  0.12627426550E+04  0.12627426550E+04  0.50400001928E-02 0.  1.
        1   -1    0    0  501    0  0.00000000000E+00  0.00000000000E+00 -0.14485309512E+04  0.14485309512E+04  0.50400001928E-02 0. -1.
    10030    2    1    2    0    0  0.00000000000E+00  0.00000000000E+00 -0.18578829616E+03  0.27112736062E+04  0.27049006038E+04 0.  0.
        4    1    3    3  502    0  0.47303569292E+03 -0.12584533765E+04 -0.24038885867E+03  0.13657437841E+04  0.12699999809E+01 0. -1.
       -4    1    3    3    0  502 -0.47303569292E+03  0.12584533765E+04  0.54600562508E+02  0.13455298220E+04  0.12699999809E+01 0.  1.
</event>
<event>
 5   0  0.3199840E-06  0.2706058E+04  0.7818609E-02  0.8333042E-01
       -1   -1    0    0    0  501  0.00000000000E+00  0.00000000000E+00  0.12018256716E+04  0.12018256717E+04  0.50400001928E-02 0. -1.
        1   -1    0    0  501    0  0.00000000000E+00  0.00000000000E+00 -0.15232549896E+04  0.15232549896E+04  0.50400001928E-02 0.  1.
    10030    2    1    2    0    0  0.00000000000E+00  0.00000000000E+00 -0.32142931796E+03  0.27250806613E+04  0.27060576128E+04 0.  0.
        1    1    3    3  502    0  0.10718650954E+04 -0.81045158159E+03 -0.31981390161E+03  0.13813064397E+04  0.50400001928E-02 0. -1.
       -1    1    3    3    0  502 -0.10718650954E+04  0.81045158159E+03 -0.16154163524E+01  0.13437742215E+04  0.50400001928E-02 0.  1.
</event>
<event>
 5   0  0.3028601E-06  0.2702151E+04  0.7818609E-02  0.8334307E-01
        1   -1    0    0  501    0  0.00000000000E+00  0.00000000000E+00  0.23668170009E+04  0.23668170009E+04  0.50400001928E-02 0. -1.
       -1   -1    0    0    0  501  0.00000000000E+00  0.00000000000E+00 -0.77124887433E+03  0.77124887435E+03  0.50400001928E-02 0.  1.
    10030    2    1    2    0    0  0.00000000000E+00  0.00000000000E+00  0.15955681265E+04  0.31380658752E+04  0.27021509563E+04 0.  0.
        3    1    3    3  502    0  0.64017639143E+03 -0.70580345555E+03  0.19101218596E+04  0.21346076592E+04  0.10100000352E+00 0. -1.
       -3    1    3    3    0  502 -0.64017639143E+03  0.70580345555E+03 -0.31455373310E+03  0.10034582160E+04  0.10100000352E+00 0.  1.
</event>
<event>
 5   0  0.3013407E-06  0.2671513E+04  0.7818609E-02  0.8344307E-01
        1   -1    0    0  501    0  0.00000000000E+00  0.00000000000E+00  0.14171457439E+04  0.14171457439E+04  0.50400001928E-02 0.  1.
       -1   -1    0    0    0  501  0.00000000000E+00  0.00000000000E+00 -0.12590418939E+04  0.12590418939E+04  0.50400001928E-02 0. -1.
    10030    2    1    2    0    0  0.00000000000E+00  0.00000000000E+00  0.15810385005E+03  0.26761876378E+04  0.26715133249E+04 0.  0.
        4    1    3    3  502    0  0.10272734098E+04 -0.20156740589E+03 -0.75205275078E+03  0.12889938054E+04  0.12699999809E+01 0. -1.
       -4    1    3    3    0  502 -0.10272734098E+04  0.20156740589E+03  0.91015660083E+03  0.13871938324E+04  0.12699999809E+01 0.  1.
</event>
<event>
 5   0  0.7812908E-06  0.2558237E+04  0.7818609E-02  0.8382527E-01
        2   -1    0    0  501    0  0.00000000000E+00  0.00000000000E+00  0.10875067049E+04  0.10875067049E+04  0.25500000920E-02 0. -1.
       -2   -1    0    0    0  501  0.00000000000E+00  0.00000000000E+00 -0.15044913756E+04  0.15044913756E+04  0.25500000920E-02 0.  1.
    10030    2    1    2    0    0  0.00000000000E+00  0.00000000000E+00 -0.41698467070E+03  0.25919980805E+04  0.25582372512E+04 0.  0.
        5    1    3    3  502    0 -0.20354585402E+03 -0.76260743773E+03 -0.12283148384E+04  0.14600617970E+04  0.46999998093E+01 0.  1.
       -5    1    3    3    0  502  0.20354585402E+03  0.76260743773E+03  0.81133016772E+03  0.11319362835E+04  0.46999998093E+01 0. -1.
</event>
<event>
 5   0  0.3046300E-06  0.2704338E+04  0.7818609E-02  0.8333599E-01
        1   -1    0    0  501    0  0.00000000000E+00  0.00000000000E+00  0.12692249206E+04  0.12692249206E+04  0.50400001928E-02 0.  1.
       -1   -1    0    0    0  501  0.00000000000E+00  0.00000000000E+00 -0.14405330633E+04  0.14405330633E+04  0.50400001928E-02 0. -1.
    10030    2    1    2    0    0  0.00000000000E+00  0.00000000000E+00 -0.17130814271E+03  0.27097579839E+04  0.27043375994E+04 0.  0.
        2    1    3    3  502    0 -0.82953802861E+03  0.30101953171E+03 -0.11122144090E+04  0.14197770920E+04  0.25500000920E-02 0. -1.
       -2    1    3    3    0  502  0.82953802861E+03 -0.30101953171E+03  0.94090626631E+03  0.12899808919E+04  0.25500000920E-02 0.  1.
</event>
<event>
 5   0  0.3028601E-06  0.2689393E+04  0.7818609E-02  0.8338455E-01
        1   -1    0    0  501    0  0.00000000000E+00  0.00000000000E+00  0.11614346894E+04  0.11614346894E+04  0.50400001928E-02 0.  1.
       -1   -1    0    0    0  501  0.00000000000E+00  0.00000000000E+00 -0.15568749649E+04  0.15568749649E+04  0.50400001928E-02 0. -1.
    10030    2    1    2    0    0  0.00000000000E+00  0.00000000000E+00 -0.39544027545E+03  0.27183096543E+04  0.26893929362E+04 0.  0.
        3    1    3    3  502    0 -0.70060105103E+03  0.39897590333E+02  0.96168566996E+03  0.11904927503E+04  0.10100000352E+00 0.  1.
       -3    1    3    3    0  502  0.70060105103E+03 -0.39897590333E+02 -0.13571259454E+04  0.15278169041E+04  0.10100000352E+00 0. -1.
</event>
<event>
 5   0  0.3046300E-06  0.2696836E+04  0.7818609E-02  0.8336032E-01
        1   -1    0    0  501    0  0.00000000000E+00  0.00000000000E+00  0.20774663382E+04  0.20774663382E+04  0.50400001928E-02 0.  1.
       -1   -1    0    0    0  501  0.00000000000E+00  0.00000000000E+00 -0.87521541113E+03  0.87521541115E+03  0.50400001928E-02 0. -1.
    10030    2    1    2    0    0  0.00000000000E+00  0.00000000000E+00  0.12022509271E+04  0.29526817494E+04  0.26968355941E+04 0.  0.
        2    1    3    3  502    0  0.80529362871E+03  0.90126827221E+03  0.12557145232E+04  0.17428715646E+04  0.25500000920E-02 0.  1.
       -2    1    3    3    0  502 -0.80529362871E+03 -0.90126827221E+03 -0.53463596175E+02  0.12098101847E+04  0.25500000920E-02 0. -1.
</event>
<event>
 5   0  0.8407622E-06  0.2718242E+04  0.7818609E-02  0.8329110E-01
       -2   -1    0    0    0  501  0.00000000000E+00  0.00000000000E+00  0.18911709081E+04  0.18911709081E+04  0.25500000920E-02 0. -1.
        2   -1    0    0  501    0  0.00000000000E+00  0.00000000000E+00 -0.97675480921E+03  0.97675480921E+03  0.25500000920E-02 0.  1.
    10030    2    1    2    0    0  0.00000000000E+00  0.00000000000E+00  0.91441609890E+03  0.28679257173E+04  0.27182422847E+04 0.  0.
        1    1    3    3  502    0 -0.90810457269E+03 -0.29538560529E+03 -0.56315814724E+03  0.11086269298E+04  0.50400001928E-02 0.  1.
       -1    1    3    3    0  502  0.90810457269E+03  0.29538560529E+03  0.14775742461E+04  0.17592987875E+04  0.50400001928E-02 0. -1.
</event>
<event>
 5   0  0.3199840E-06  0.2705163E+04  0.7818609E-02  0.8333332E-01
       -1   -1    0    0    0  501  0.00000000000E+00  0.00000000000E+00  0.10868251776E+04  0.10868251776E+04  0.50400001928E-02 0. -1.
        1   -1    0    0  501    0  0.00000000000E+00  0.00000000000E+00 -0.16833217058E+04  0.16833217058E+04  0.50400001928E-02 0.  1.
    10030    2    1    2    0    0  0.00000000000E+00  0.00000000000E+00 -0.59649652816E+03  0.27701468834E+04  0.27051627765E+04 0.  0.
        1    1    3    3  502    0  0.12230243743E+04  0.56336775765E+03 -0.16749156372E+03  0.13569175637E+04  0.50400001928E-02 0.  1.
       -1    1    3    3    0  502 -0.12230243743E+04 -0.56336775765E+03 -0.42900496445E+03  0.14132293197E+04  0.50400001928E-02 0. -1.
</event>
<event>
 5   0  0.7838364E-06  0.2796556E+04  0.7818609E-02  0.8304338E-01
       -2   -1    0    0    0  501  0.00000000000E+00  0.00000000000E+00  0.77583172219E+03  0.77583172220E+03  0.25500000920E-02 0. -1.
        2   -1    0    0  501    0  0.00000000000E+00  0.00000000000E+00 -0.25201107315E+04  0.25201107315E+04  0.25500000920E-02 0.  1.
    10030    2    1    2    0    0  0.00000000000E+00  0.00000000000E+00 -0.17442790093E+04  0.32959424537E+04  0.27965563459E+04 0.  0.
        2    1    3    3  502    0  0.12686354818E+04  0.53384787884E+03 -0.11626336797E+04  0.18017065845E+04  0.25500000920E-02 0. -1.
       -2    1    3    3    0  502 -0.12686354818E+04 -0.53384787884E+03 -0.58164532955E+03  0.14942358692E+04  0.25500000920E-02 0.  1.
</event>
<event>
 5   0  0.2654625E-06  0.2730149E+04  0.7818609E-02  0.8325288E-01
       -3   -1    0    0    0  501  0.00000000000E+00  0.00000000000E+00  0.21707186322E+04  0.21707186346E+04  0.10100000352E+00 0.  1.
        3   -1    0    0  501    0  0.00000000000E+00  0.00000000000E+00 -0.85843869782E+03  0.85843870377E+03  0.10100000352E+00 0. -1.
    10030    2    1    2    0    0  0.00000000000E+00  0.00000000000E+00  0.13122799344E+04  0.30291573383E+04  0.27301493648E+04 0.  0.
        4    1    3    3  502    0  0.22743734961E+03  0.55724621002E+03 -0.70327252861E+03  0.92565919700E+03  0.12699999809E+01 0. -1.
       -4    1    3    3    0  502 -0.22743734961E+03 -0.55724621002E+03  0.20155524630E+04  0.21034981413E+04  0.12699999809E+01 0.  1.
</event>
<event>
 5   0  0.3199840E-06  0.2712093E+04  0.7818609E-02  0.8331092E-01
       -1   -1    0    0    0  501  0.00000000000E+00  0.00000000000E+00  0.15754421091E+04  0.15754421091E+04  0.50400001928E-02 0. -1.
        1   -1    0    0  501    0  0.00000000000E+00  0.00000000000E+00 -0.11672041540E+04  0.11672041540E+04  0.50400001928E-02 0.  1.
    10030    2    1    2    0    0  0.00000000000E+00  0.00000000000E+00  0.40823795508E+03  0.27426462631E+04  0.27120933421E+04 0.  0.
        1    1    3    3  502    0  0.47503669386E+03 -0.86060707231E+03 -0.74051238879E+03  0.12307164545E+04  0.50400001928E-02 0.  1.
       -1    1    3    3    0  502 -0.47503669386E+03  0.86060707231E+03  0.11487503439E+04  0.15119298086E+04  0.50400001928E-02 0. -1.
</event>
<event>
 5   0  0.3028601E-06  0.2682986E+04  0.7818609E-02  0.8340546E-01
       -1   -1    0    0    0  501  0.00000000000E+00  0.00000000000E+00  0.17694266011E+04  0.17694266011E+04  0.50400001928E-02 0.  1.
        1   -1    0    0  501    0  0.00000000000E+00  0.00000000000E+00 -0.10170548575E+04  0.10170548575E+04  0.50400001928E-02 0. -1.
    10030    2    1    2    0    0  0.00000000000E+00  0.00000000000E+00  0.75237174367E+03  0.27864814586E+04  0.26829863359E+04 0.  0.
        3    1    3    3  502    0  0.74550085297E+03 -0.56912163237E+03 -0.61994359031E+03  0.11242779992E+04  0.10100000352E+00 0. -1.
       -3    1    3    3    0  502 -0.74550085297E+03  0.56912163237E+03  0.13723153340E+04  0.16622034594E+04  0.10100000352E+00 0.  1.
</event>
<event>
 5   0  0.8213334E-06  0.2690911E+04  0.7818609E-02  0.8337960E-01
       -2   -1    0    0    0  501  0.00000000000E+00  0.00000000000E+00  0.10058877363E+04  0.10058877363E+04  0.25500000920E-02 0.  1.
        2   -1    0    0  501    0  0.00000000000E+00  0.00000000000E+00 -0.17996542436E+04  0.17996542436E+04  0.25500000920E-02 0. -1.
    10030    2    1    2    0    0  0.00000000000E+00  0.00000000000E+00 -0.79376650733E+03  0.28055419800E+04  0.26909107256E+04 0.  0.
        3    1    3    3  502    0 -0.21769900334E+03 -0.12919503399E+04 -0.77702057972E+02  0.13124656783E+04  0.10100000352E+00 0.  1.
       -3    1    3    3    0  502  0.21769900334E+03  0.12919503399E+04 -0.71606444936E+03  0.14930763017E+04  0.10100000352E+00 0. -1.
</event>
<event>
 5   0  0.7729970E-06  0.2721998E+04  0.7818609E-02  0.8327903E-01
        2   -1    0    0  501    0  0.00000000000E+00  0.00000000000E+00  0.17579048498E+04  0.17579048498E+04  0.25500000920E-02 0.  1.
       -2   -1    0    0    0  501  0.00000000000E+00  0.00000000000E+00 -0.10537078452E+04  0.10537078452E+04  0.25500000920E-02 0. -1.
    10030    2    1    2    0    0  0.00000000000E+00  0.00000000000E+00  0.70419700462E+03  0.28116126951E+04  0.27219978923E+04 0.  0.
        4    1    3    3  502    0  0.10365893947E+04  0.75337929908E+03  0.82568930224E+03  0.15244219817E+04  0.12699999809E+01 0.  1.
       -4    1    3    3    0  502 -0.10365893947E+04 -0.75337929908E+03 -0.12149229761E+03  0.12871907134E+04  0.12699999809E+01 0. -1.
</event>
<event>
 5   0  0.3199840E-06  0.2681176E+04  0.7818609E-02  0.8341139E-01
       -1   -1    0    0    0  501  0.00000000000E+00  0.00000000000E+00  0.13581268237E+04  0.13581268237E+04  0.50400001928E-02 0.  1.
        1   -1    0    0  501    0  0.00000000000E+00  0.00000000000E+00 -0.13232754593E+04  0.13232754593E+04  0.50400001928E-02 0. -1.
    10030    2    1    2    0    0  0.00000000000E+00  0.00000000000E+00  0.34851364383E+02  0.26814022829E+04  0.26811757841E+04 0.  0.
        1    1    3    3  502    0 -0.13378618993E+04  0.68256196594E+02 -0.33984169603E+02  0.13400329450E+04  0.50400001928E-02 0.  1.
       -1    1    3    3    0  502  0.13378618993E+04 -0.68256196594E+02  0.68835533986E+02  0.13413693379E+04  0.50400001928E-02 0. -1.
</event>
<event>
 5   0  0.3089218E-06  0.2644433E+04  0.7818609E-02  0.8353263E-01
       -1   -1    0    0    0  501  0.00000000000E+00  0.00000000000E+00  0.23924201103E+04  0.23924201103E+04  0.50400001928E-02 0.  1.
        1   -1    0    0  501    0  0.00000000000E+00  0.00000000000E+00 -0.73074810718E+03  0.73074810719E+03  0.50400001928E-02 0. -1.
    10030    2    1    2    0    0  0.00000000000E+00  0.00000000000E+00  0.16616720031E+04  0.31231682175E+04  0.26444329957E+04 0.  0.
        5    1    3    3  502    0  0.95207155403E+03  0.69536980618E+03  0.12393447656E+03  0.11854793359E+04  0.46999998093E+01 0. -1.
       -5    1    3    3    0  502 -0.95207155403E+03 -0.69536980618E+03  0.15377375266E+04  0.19376888816E+04  0.46999998093E+01 0.  1.
</event>
<event>
 5   0  0.8213334E-06  0.2688555E+04  0.7818609E-02  0.8338728E-01
        2   -1    0    0  501    0  0.00000000000E+00  0.00000000000E+00  0.17680387718E+04  0.17680387718E+04  0.25500000920E-02 0. -1.
       -2   -1    0    0    0  501  0.00000000000E+00  0.00000000000E+00 -0.10220827406E+04  0.10220827406E+04  0.25500000920E-02 0.  1.
    10030    2    1    2    0    0  0.00000000000E+00  0.00000000000E+00  0.74595603123E+03  0.27901215124E+04  0.26885549378E+04 0.  0.
        3    1    3    3  502    0  0.41046272990E+02  0.35736542395E+03 -0.97120895010E+03  0.10356841593E+04  0.10100000352E+00 0.  1.
       -3    1    3    3    0  502 -0.41046272990E+02 -0.35736542395E+03  0.17171649813E+04  0.17544373531E+04  0.10100000352E+00 0. -1.
</event>
<event>
 5   0  0.3013407E-06  0.2686171E+04  0.7818609E-02  0.8339506E-01
       -1   -1    0    0    0  501  0.00000000000E+00  0.00000000000E+00  0.13225530942E+04  0.13225530942E+04  0.50400001928E-02 0.  1.
        1   -1    0    0  501    0  0.00000000000E+00  0.00000000000E+00 -0.13639371602E+04  0.13639371602E+04  0.50400001928E-02 0. -1.
    10030    2    1    2    0    0  0.00000000000E+00  0.00000000000E+00 -0.41384066007E+02  0.26864902544E+04  0.26861714849E+04 0.  0.
        4    1    3    3  502    0  0.12058092049E+04  0.39451401223E+03  0.42011026165E+03  0.13364547838E+04  0.12699999809E+01 0.  1.
       -4    1    3    3    0  502 -0.12058092049E+04 -0.39451401223E+03 -0.46149432766E+03  0.13500354706E+04  0.12699999809E+01 0. -1.
</event>
<event>
 5   0  0.8213334E-06  0.2693084E+04  0.7818609E-02  0.8337253E-01
        2   -1    0    0  501    0  0.00000000000E+00  0.00000000000E+00  0.93358514244E+03  0.93358514245E+03  0.25500000920E-02 0. -1.
       -2   -1    0    0    0  501  0.00000000000E+00  0.00000000000E+00 -0.19421633424E+04  0.19421633424E+04  0.25500000920E-02 0.  1.
    10030    2    1    2    0    0  0.00000000000E+00  0.00000000000E+00 -0.10085781999E+04  0.28757484848E+04  0.26930836160E+04 0.  0.
        3    1    3    3  502    0  0.60439248613E+03  0.26750141598E+03  0.74845383687E+03  0.99851411656E+03  0.10100000352E+00 0. -1.
       -3    1    3    3    0  502 -0.60439248613E+03 -0.26750141598E+03 -0.17570320368E+04  0.18772343683E+04  0.10100000352E+00 0.  1.
</event>
<event>
 5   0  0.2654625E-06  0.2707377E+04  0.7818609E-02  0.8332615E-01
        3   -1    0    0  501    0  0.00000000000E+00  0.00000000000E+00  0.18252227388E+04  0.18252227416E+04  0.10100000352E+00 0.  1.
       -3   -1    0    0    0  501  0.00000000000E+00  0.00000000000E+00 -0.10039717016E+04  0.10039717066E+04  0.10100000352E+00 0. -1.
    10030    2    1    2    0    0  0.00000000000E+00  0.00000000000E+00  0.82125103724E+03  0.28291944482E+04  0.27073765826E+04 0.  0.
        2    1    3    3  502    0 -0.49586096364E+03 -0.68846765782E+02  0.17249340590E+04  0.17961112104E+04  0.25500000920E-02 0.  1.
       -2    1    3    3    0  502  0.49586096364E+03  0.68846765782E+02 -0.90368302175E+03  0.10330832378E+04  0.25500000920E-02 0. -1.
</event>
<event>
 5   0  0.3046300E-06  0.2685024E+04  0.7818609E-02  0.8339880E-01
        1   -1    0    0  501    0  0.00000000000E+00  0.00000000000E+00  0.24100860482E+04  0.24100860482E+04  0.50400001928E-02 0.  1.
       -1   -1    0    0    0  501  0.00000000000E+00  0.00000000000E+00 -0.74783182361E+03  0.74783182363E+03  0.50400001928E-02 0. -1.
    10030    2    1    2    0    0  0.00000000000E+00  0.00000000000E+00  0.16622542246E+04  0.31579178719E+04  0.26850244279E+04 0.  0.
        2    1    3    3  502    0 -0.85516778347E+03 -0.54446543276E+02 -0.38436168421E+03  0.93915401732E+03  0.25500000920E-02 0. -1.
       -2    1    3    3    0  502  0.85516778347E+03  0.54446543276E+02  0.20466159088E+04  0.22187638545E+04  0.25500000920E-02 0.  1.
</event>
<event>
 5   0  0.7812908E-06  0.2713078E+04  0.7818609E-02  0.8330774E-01
        2   -1    0    0  501    0  0.00000000000E+00  0.00000000000E+00  0.15221745848E+04  0.15221745848E+04  0.25500000920E-02 0. -1.
       -2   -1    0    0    0  501  0.00000000000E+00  0.00000000000E+00 -0.12089269052E+04  0.12089269052E+04  0.25500000920E-02 0.  1.
    10030    2    1    2    0    0  0.00000000000E+00  0.00000000000E+00  0.31324767964E+03  0.27311014900E+04  0.27130778168E+04 0.  0.
        5    1    3    3  502    0 -0.31654620273E+03 -0.53967458270E+03 -0.10550023465E+04  0.12265815076E+04  0.46999998093E+01 0.  1.
       -5    1    3    3    0  502  0.31654620273E+03  0.53967458270E+03  0.13682500261E+04  0.15045199825E+04  0.46999998093E+01 0. -1.
</event>
<event>
 5   0  0.3199840E-06  0.2706474E+04  0.7818609E-02  0.8332907E-01
       -1   -1    0    0    0  501  0.00000000000E+00  0.00000000000E+00  0.10663528253E+04  0.10663528253E+04  0.50400001928E-02 0.  1.
        1   -1    0    0  501    0  0.00000000000E+00  0.00000000000E+00 -0.17173026998E+04  0.17173026998E+04  0.50400001928E-02 0. -1.
    10030    2    1    2    0    0  0.00000000000E+00  0.00000000000E+00 -0.65094987444E+03  0.27836555251E+04  0.27064741535E+04 0.  0.
        1    1    3    3  502    0 -0.25109789604E+03  0.13279918498E+04 -0.39552050911E+03  0.14082077190E+04  0.50400001928E-02 0. -1.
       -1    1    3    3    0  502  0.25109789604E+03 -0.13279918498E+04 -0.25542936534E+03  0.13754478061E+04  0.50400001928E-02 0.  1.
</event>
<event>
 5   0  0.3199840E-06  0.2705856E+04  0.7818609E-02  0.8333107E-01
       -1   -1    0    0    0  501  0.00000000000E+00  0.00000000000E+00  0.11304972684E+04  0.11304972684E+04  0.50400001928E-02 0. -1.
        1   -1    0    0  501    0  0.00000000000E+00  0.00000000000E+00 -0.16191234146E+04  0.16191234146E+04  0.50400001928E-02 0.  1.
    10030    2    1    2    0    0  0.00000000000E+00  0.00000000000E+00 -0.48862614624E+03  0.27496206831E+04  0.27058563136E+04 0.  0.
        1    1    3    3  502    0 -0.13321714377E+04  0.21866549270E+03 -0.15388352381E+03  0.13587404005E+04  0.50400001928E-02 0. -1.
       -1    1    3    3    0  502  0.13321714377E+04 -0.21866549270E+03 -0.33474262243E+03  0.13908802825E+04  0.50400001928E-02 0.  1.
</event>
<event>
 5   0  0.7812908E-06  0.2702831E+04  0.7818609E-02  0.8334087E-01
        2   -1    0    0  501    0  0.00000000000E+00  0.00000000000E+00  0.12638532685E+04  0.12638532685E+04  0.25500000920E-02 0.  1.
       -2   -1    0    0    0  501  0.00000000000E+00  0.00000000000E+00 -0.14450443001E+04  0.14450443001E+04  0.25500000920E-02 0. -1.
    10030    2    1    2    0    0  0.00000000000E+00  0.00000000000E+00 -0.18119103162E+03  0.27088975686E+04  0.27028310800E+04 0.  0.
        5    1    3    3  502    0 -0.90007807156E+03  0.99358423763E+03 -0.26112941078E+03  0.13658553479E+04  0.46999998093E+01 0. -1.
       -5    1    3    3    0  502  0.90007807156E+03 -0.99358423763E+03  0.79938379151E+02  0.13430422207E+04  0.46999998093E+01 0.  1.
</event>
<event>
 5   0  0.3013407E-06  0.2670940E+04  0.7818609E-02  0.8344496E-01
       -1   -1    0    0    0  501  0.00000000000E+00  0.00000000000E+00  0.14995793578E+04  0.14995793578E+04  0.50400001928E-02 0. -1.
        1   -1    0    0  501    0  0.00000000000E+00  0.00000000000E+00 -0.11893201773E+04  0.11893201773E+04  0.50400001928E-02 0.  1.
    10030    2    1    2    0    0  0.00000000000E+00  0.00000000000E+00  0.31025918050E+03  0.26888995351E+04  0.26709399002E+04 0.  0.
        4    1    3    3  502    0  0.25239305000E+03  0.88614808235E+03 -0.81807517254E+03  0.12321563522E+04  0.12699999809E+01 0.  1.
       -4    1    3    3    0  502 -0.25239305000E+03 -0.88614808235E+03  0.11283343530E+04  0.14567431828E+04  0.12699999809E+01 0. -1.
</event>
<event>
 5   0  0.3199840E-06  0.2677374E+04  0.7818609E-02  0.8342384E-01
        1   -1    0    0  501    0  0.00000000000E+00  0.00000000000E+00  0.84290512593E+03  0.84290512594E+03  0.50400001928E-02 0.  1.
       -1   -1    0    0    0  501  0.00000000000E+00  0.00000000000E+00 -0.21260786714E+04  0.21260786715E+04  0.50400001928E-02 0. -1.
    10030    2    1    2    0    0  0.00000000000E+00  0.00000000000E+00 -0.12831735455E+04  0.29689837974E+04  0.26773737956E+04 0.  0.
        1    1    3    3  502    0  0.28819391350E+03  0.27364652862E+03  0.77598168598E+03  0.87182895766E+03  0.50400001928E-02 0.  1.
       -1    1    3    3    0  502 -0.28819391350E+03 -0.27364652862E+03 -0.20591552315E+04  0.20971548397E+04  0.50400001928E-02 0. -1.
</event>
<event>
 5   0  0.7812908E-06  0.2702028E+04  0.7818609E-02  0.8334347E-01
       -2   -1    0    0    0  501  0.00000000000E+00  0.00000000000E+00  0.10094302422E+04  0.10094302422E+04  0.25500000920E-02 0.  1.
        2   -1    0    0  501    0  0.00000000000E+00  0.00000000000E+00 -0.18081872106E+04  0.18081872106E+04  0.25500000920E-02 0. -1.
    10030    2    1    2    0    0  0.00000000000E+00  0.00000000000E+00 -0.79875696835E+03  0.28176174528E+04  0.27020280191E+04 0.  0.
        5    1    3    3  502    0  0.77189704939E+03  0.10499885568E+04 -0.27886093015E+02  0.13034955882E+04  0.46999998093E+01 0. -1.
       -5    1    3    3    0  502 -0.77189704939E+03 -0.10499885568E+04 -0.77087087534E+03  0.15141218646E+04  0.46999998093E+01 0.  1.
</event>
<event>
 5   0  0.3089218E-06  0.2703665E+04  0.7818609E-02  0.8333817E-01
        1   -1    0    0  501    0  0.00000000000E+00  0.00000000000E+00  0.16099125523E+04  0.16099125524E+04  0.50400001928E-02 0.  1.
       -1   -1    0    0    0  501  0.00000000000E+00  0.00000000000E+00 -0.11351240745E+04  0.11351240745E+04  0.50400001928E-02 0. -1.
    10030    2    1    2    0    0  0.00000000000E+00  0.00000000000E+00  0.47478847784E+03  0.27450366269E+04  0.27036645473E+04 0.  0.
        5    1    3    3  502    0  0.10510553415E+04 -0.20341404087E+03  0.10754546111E+04  0.15174713551E+04  0.46999998093E+01 0.  1.
       -5    1    3    3    0  502 -0.10510553415E+04  0.20341404087E+03 -0.60066613326E+03  0.12275652718E+04  0.46999998093E+01 0. -1.
</event>
<event>
 5   0  0.8213334E-06  0.2694482E+04  0.7818609E-02  0.8336798E-01
        2   -1    0    0  501    0  0.00000000000E+00  0.00000000000E+00  0.14258483414E+04  0.14258483414E+04  0.25500000920E-02 0. -1.
       -2   -1    0    0    0  501  0.00000000000E+00  0.00000000000E+00 -0.12729671811E+04  0.12729671811E+04  0.25500000920E-02 0.  1.
    10030    2    1    2    0    0  0.00000000000E+00  0.00000000000E+00  0.15288116035E+03  0.26988155225E+04  0.26944818751E+04 0.  0.
        3    1    3    3  502    0 -0.47616195303E+03  0.96312747752E+02  0.13350648993E+04  0.14207056861E+04  0.10100000352E+00 0. -1.
       -3    1    3    3    0  502  0.47616195303E+03 -0.96312747752E+02 -0.11821837390E+04  0.12781098364E+04  0.10100000352E+00 0.  1.
</event>
<event>
 5   0  0.3046300E-06  0.2719393E+04  0.7818609E-02  0.8328740E-01
        1   -1    0    0  501    0  0.00000000000E+00  0.00000000000E+00  0.12846290141E+04  0.12846290141E+04  0.50400001928E-02 0.  1.
       -1   -1    0    0    0  501  0.00000000000E+00  0.00000000000E+00 -0.14391505277E+04  0.14391505277E+04  0.50400001928E-02 0. -1.
    10030    2    1    2    0    0  0.00000000000E+00  0.00000000000E+00 -0.15452151364E+03  0.27237795418E+04  0.27193929643E+04 0.  0.
        2    1    3    3  502    0 -0.16582257892E+03  0.17920150316E+03 -0.14170148295E+04  0.14378947574E+04  0.25500000920E-02 0. -1.
       -2    1    3    3    0  502  0.16582257892E+03 -0.17920150316E+03  0.12624933158E+04  0.12858847845E+04  0.25500000920E-02 0.  1.
</event>
<event>
 5   0  0.3013407E-06  0.2479196E+04  0.7818609E-02  0.8410435E-01
        1   -1    0    0  501    0  0.00000000000E+00  0.00000000000E+00  0.10243551421E+04  0.10243551421E+04  0.50400001928E-02 0. -1.
       -1   -1    0    0    0  501  0.00000000000E+00  0.00000000000E+00 -0.15000687477E+04  0.15000687477E+04  0.50400001928E-02 0.  1.
    10030    2    1    2    0    0  0.00000000000E+00  0.00000000000E+00 -0.47571360556E+03  0.25244238898E+04  0.24791959465E+04 0.  0.
        4    1    3    3  502    0 -0.62370937393E+03  0.44671125700E+03 -0.12292915049E+04  0.14490422862E+04  0.12699999809E+01 0.  1.
       -4    1    3    3    0  502  0.62370937393E+03 -0.44671125700E+03  0.75357789930E+03  0.10753816037E+04  0.12699999809E+01 0. -1.
</event>
<event>
 5   0  0.3199840E-06  0.2545882E+04  0.7818609E-02  0.8386820E-01
        1   -1    0    0  501    0  0.00000000000E+00  0.00000000000E+00  0.29910021198E+04  0.29910021198E+04  0.50400001928E-02 0. -1.
       -1   -1    0    0    0  501  0.00000000000E+00  0.00000000000E+00 -0.54175125305E+03  0.54175125308E+03  0.50400001928E-02 0.  1.
    10030    2    1    2    0    0  0.00000000000E+00  0.00000000000E+00  0.24492508667E+04  0.35327533728E+04  0.25458822803E+04 0.  0.
        1    1    3    3  502    0 -0.71252187142E+02  0.63736313493E+03  0.27504366915E+04  0.28242185882E+04  0.50400001928E-02 0. -1.
       -1    1    3    3    0  502  0.71252187142E+02 -0.63736313493E+03 -0.30118582481E+03  0.70853478463E+03  0.50400001928E-02 0.  1.
</event>
<event>
 5   0  0.3013407E-06  0.2713022E+04  0.7818609E-02  0.8330792E-01
       -1   -1    0    0    0  501  0.00000000000E+00  0.00000000000E+00  0.13835404355E+04  0.13835404355E+04  0.50400001928E-02 0.  1.
        1   -1    0    0  501    0  0.00000000000E+00  0.00000000000E+00 -0.13300097537E+04  0.13300097537E+04  0.50400001928E-02 0. -1.
    10030    2    1    2    0    0  0.00000000000E+00  0.00000000000E+00  0.53530681754E+02  0.27135501892E+04  0.27130221332E+04 0.  0.
        4    1    3    3  502    0  0.52432249236E+03 -0.12197468063E+04  0.30507174696E+03  0.13622652940E+04  0.12699999809E+01 0.  1.
       -4    1    3    3    0  502 -0.52432249236E+03  0.12197468063E+04 -0.25154106520E+03  0.13512848952E+04  0.12699999809E+01 0. -1.
</event>
<event>
 5   0  0.7838364E-06  0.2677917E+04  0.7818609E-02  0.8342206E-01
        2   -1    0    0  501    0  0.00000000000E+00  0.00000000000E+00  0.21408233881E+04  0.21408233881E+04  0.25500000920E-02 0.  1.
       -2   -1    0    0    0  501  0.00000000000E+00  0.00000000000E+00 -0.83743943024E+03  0.83743943024E+03  0.25500000920E-02 0. -1.
    10030    2    1    2    0    0  0.00000000000E+00  0.00000000000E+00  0.13033839578E+04  0.29782628183E+04  0.26779170400E+04 0.  0.
        2    1    3    3  502    0  0.74566316927E+03  0.18575437292E+03 -0.56777717607E+03  0.95545233828E+03  0.25500000920E-02 0. -1.
       -2    1    3    3    0  502 -0.74566316927E+03 -0.18575437292E+03  0.18711611339E+04  0.20228104800E+04  0.25500000920E-02 0.  1.
</event>
<event>
 5   0  0.8407622E-06  0.2682983E+04  0.7818609E-02  0.8340548E-01
       -2   -1    0    0    0  501  0.00000000000E+00  0.00000000000E+00  0.12918663086E+04  0.12918663086E+04  0.25500000920E-02 0. -1.
        2   -1    0    0  501    0  0.00000000000E+00  0.00000000000E+00 -0.13930228737E+04  0.13930228737E+04  0.25500000920E-02 0.  1.
    10030    2    1    2    0    0  0.00000000000E+00  0.00000000000E+00 -0.10115656511E+03  0.26848891823E+04  0.26829829054E+04 0.  0.
        1    1    3    3  502    0 -0.69797216410E+03  0.11090543135E+03 -0.11916226836E+04  0.13854348691E+04  0.50400001928E-02 0.  1.
       -1    1    3    3    0  502  0.69797216410E+03 -0.11090543135E+03  0.10904661185E+04  0.12994543132E+04  0.50400001928E-02 0. -1.
</event>
<event>
 5   0  0.8213334E-06  0.2695973E+04  0.7818609E-02  0.8336313E-01
        2   -1    0    0  501    0  0.00000000000E+00  0.00000000000E+00  0.10744926794E+04  0.10744926794E+04  0.25500000920E-02 0. -1.
       -2   -1    0    0    0  501  0.00000000000E+00  0.00000000000E+00 -0.16910935761E+04  0.16910935761E+04  0.25500000920E-02 0.  1.
    10030    2    1    2    0    0  0.00000000000E+00  0.00000000000E+00 -0.61660089672E+03  0.27655862555E+04  0.26959730471E+04 0.  0.
        3    1    3    3  502    0  0.17532320009E+03 -0.99958242097E+02 -0.16755079695E+04  0.16876186894E+04  0.10100000352E+00 0.  1.
       -3    1    3    3    0  502 -0.17532320009E+03  0.99958242097E+02  0.10589070728E+04  0.10779675661E+04  0.10100000352E+00 0. -1.
</event>
<event>
 5   0  0.8407622E-06  0.2715014E+04  0.7818609E-02  0.8330150E-01
        2   -1    0    0  501    0  0.00000000000E+00  0.00000000000E+00  0.16994363268E+04  0.16994363268E+04  0.25500000920E-02 0. -1.
       -2   -1    0    0    0  501  0.00000000000E+00  0.00000000000E+00 -0.10843746384E+04  0.10843746384E+04  0.25500000920E-02 0.  1.
    10030    2    1    2    0    0  0.00000000000E+00  0.00000000000E+00  0.61506168841E+03  0.27838109652E+04  0.27150142927E+04 0.  0.
        1    1    3    3  502    0 -0.12102201227E+04 -0.37449218240E+03 -0.19262934186E+03  0.12813989244E+04  0.50400001928E-02 0.  1.
       -1    1    3    3    0  502  0.12102201227E+04  0.37449218240E+03  0.80769103027E+03  0.15024120408E+04  0.50400001928E-02 0. -1.
</event>
<event>
 5   0  0.7729970E-06  0.2702793E+04  0.7818609E-02  0.8334099E-01
       -2   -1    0    0    0  501  0.00000000000E+00  0.00000000000E+00  0.10032617042E+04  0.10032617042E+04  0.25500000920E-02 0.  1.
        2   -1    0    0  501    0  0.00000000000E+00  0.00000000000E+00 -0.18203348906E+04  0.18203348906E+04  0.25500000920E-02 0. -1.
    10030    2    1    2    0    0  0.00000000000E+00  0.00000000000E+00 -0.81707318634E+03  0.28235965948E+04  0.27027928405E+04 0.  0.
        4    1    3    3  502    0  0.52435438139E+03  0.12050733419E+04 -0.79629232690E+02  0.13166213215E+04  0.12699999809E+01 0.  1.
       -4    1    3    3    0  502 -0.52435438139E+03 -0.12050733419E+04 -0.73744395365E+03  0.15069752733E+04  0.12699999809E+01 0. -1.
</event>
<event>
 5   0  0.3028601E-06  0.2694444E+04  0.7818609E-02  0.8336810E-01
       -1   -1    0    0    0  501  0.00000000000E+00  0.00000000000E+00  0.11803109657E+04  0.11803109657E+04  0.50400001928E-02 0. -1.
        1   -1    0    0  501    0  0.00000000000E+00  0.00000000000E+00 -0.15377366496E+04  0.15377366496E+04  0.50400001928E-02 0.  1.
    10030    2    1    2    0    0  0.00000000000E+00  0.00000000000E+00 -0.35742568391E+03  0.27180476154E+04  0.26944442321E+04 0.  0.
        3    1    3    3  502    0  0.45314757225E+03 -0.47386422424E+03 -0.13659327018E+04  0.15151442774E+04  0.10100000352E+00 0.  1.
       -3    1    3    3    0  502 -0.45314757225E+03  0.47386422424E+03  0.10085070179E+04  0.12029033380E+04  0.10100000352E+00 0. -1.
</event>
<event>
 5   0  0.3199840E-06  0.2710321E+04  0.7818609E-02  0.8331664E-01
        1   -1    0    0  501    0  0.00000000000E+00  0.00000000000E+00  0.16691758603E+04  0.16691758603E+04  0.50400001928E-02 0.  1.
       -1   -1    0    0    0  501  0.00000000000E+00  0.00000000000E+00 -0.11002192666E+04  0.11002192667E+04  0.50400001928E-02 0. -1.
    10030    2    1    2    0    0  0.00000000000E+00  0.00000000000E+00  0.56895659364E+03  0.27693951269E+04  0.27103206016E+04 0.  0.
        1    1    3    3  502    0 -0.32542108391E+03 -0.12534443123E+04  0.69247820071E+03  0.14685188403E+04  0.50400001928E-02 0.  1.
       -1    1    3    3    0  502  0.32542108391E+03  0.12534443123E+04 -0.12352160707E+03  0.13008762867E+04  0.50400001928E-02 0. -1.
</event>
<event>
 5   0  0.2654625E-06  0.2686900E+04  0.7818609E-02  0.8339268E-01
       -3   -1    0    0    0  501  0.00000000000E+00  0.00000000000E+00  0.12706310538E+04  0.12706310578E+04  0.10100000352E+00 0. -1.
        3   -1    0    0  501    0  0.00000000000E+00  0.00000000000E+00 -0.14204418429E+04  0.14204418465E+04  0.10100000352E+00 0.  1.
    10030    2    1    2    0    0  0.00000000000E+00  0.00000000000E+00 -0.14981078914E+03  0.26910729043E+04  0.26868997197E+04 0.  0.
        4    1    3    3  502    0 -0.11032619504E+04  0.77580339294E+02  0.68893913645E+03  0.13030135789E+04  0.12699999809E+01 0. -1.
       -4    1    3    3    0  502  0.11032619504E+04 -0.77580339294E+02 -0.83874992559E+03  0.13880593254E+04  0.12699999809E+01 0.  1.
</event>
<event>
 5   0  0.3199840E-06  0.2699880E+04  0.7818609E-02  0.8335044E-01
       -1   -1    0    0    0  501  0.00000000000E+00  0.00000000000E+00  0.12056499028E+04  0.12056499028E+04  0.50400001928E-02 0.  1.
        1   -1    0    0  501    0  0.00000000000E+00  0.00000000000E+00 -0.15114985402E+04  0.15114985402E+04  0.50400001928E-02 0. -1.
    10030    2    1    2    0    0  0.00000000000E+00  0.00000000000E+00 -0.30584863738E+03  0.27171484430E+04  0.26998800478E+04 0.  0.
        1    1    3    3  502    0  0.11443173635E+04  0.19280907681E+03 -0.84704614325E+03  0.14367062112E+04  0.50400001928E-02 0. -1.
       -1    1    3    3    0  502 -0.11443173635E+04 -0.19280907681E+03  0.54119750587E+03  0.12804422318E+04  0.50400001928E-02 0.  1.
</event>
<event>
 5   0  0.3013407E-06  0.2692279E+04  0.7818609E-02  0.8337515E-01
       -1   -1    0    0    0  501  0.00000000000E+00  0.00000000000E+00  0.77450600607E+03  0.77450600608E+03  0.50400001928E-02 0. -1.
        1   -1    0    0  501    0  0.00000000000E+00  0.00000000000E+00 -0.23396735735E+04  0.23396735735E+04  0.50400001928E-02 0.  1.
    10030    2    1    2    0    0  0.00000000000E+00  0.00000000000E+00 -0.15651675674E+04  0.31141795796E+04  0.26922787634E+04 0.  0.
        4    1    3    3  502    0 -0.47301666095E+03  0.14315216352E+03 -0.22309427205E+04  0.22850261133E+04  0.12699999809E+01 0.  1.
       -4    1    3    3    0  502  0.47301666095E+03 -0.14315216352E+03  0.66577515301E+03  0.82915346633E+03  0.12699999809E+01 0. -1.
</event>
<event>
 5   0  0.3028601E-06  0.2670357E+04  0.7818609E-02  0.8344688E-01
        1   -1    0    0  501    0  0.00000000000E+00  0.00000000000E+00  0.99596616856E+03  0.99596616858E+03  0.50400001928E-02 0.  1.
       -1   -1    0    0    0  501  0.00000000000E+00  0.00000000000E+00 -0.17899219010E+04  0.17899219010E+04  0.50400001928E-02 0. -1.
    10030    2    1    2    0    0  0.00000000000E+00  0.00000000000E+00 -0.79395573239E+03  0.27858880695E+04  0.26703570231E+04 0.  0.
        3    1    3    3  502    0 -0.99786790877E+03 -0.45541227197E+03 -0.11912034824E+04  0.16192919587E+04  0.10100000352E+00 0. -1.
       -3    1    3    3    0  502  0.99786790877E+03  0.45541227197E+03  0.39724774999E+03  0.11665961109E+04  0.10100000352E+00 0.  1.
</event>
<event>
 5   0  0.7729970E-06  0.2713251E+04  0.7818609E-02  0.8330718E-01
        2   -1    0    0  501    0  0.00000000000E+00  0.00000000000E+00  0.18822777372E+04  0.18822777372E+04  0.25500000920E-02 0.  1.
       -2   -1    0    0    0  501  0.00000000000E+00  0.00000000000E+00 -0.97776893056E+03  0.97776893056E+03  0.25500000920E-02 0. -1.
    10030    2    1    2    0    0  0.00000000000E+00  0.00000000000E+00  0.90450880662E+03  0.28600466677E+04  0.27132509579E+04 0.  0.
        4    1    3    3  502    0 -0.60859938910E+03  0.62642799790E+03 -0.64199709453E+03  0.10839590100E+04  0.12699999809E+01 0. -1.
       -4    1    3    3    0  502  0.60859938910E+03 -0.62642799790E+03  0.15465059012E+04  0.17760876578E+04  0.12699999809E+01 0.  1.
</event>
<event>
 5   0  0.3046300E-06  0.2747055E+04  0.7818609E-02  0.8319897E-01
       -1   -1    0    0    0  501  0.00000000000E+00  0.00000000000E+00  0.12657032783E+04  0.12657032784E+04  0.50400001928E-02 0. -1.
        1   -1    0    0  501    0  0.00000000000E+00  0.00000000000E+00 -0.14905375022E+04  0.14905375022E+04  0.50400001928E-02 0.  1.
    10030    2    1    2    0    0  0.00000000000E+00  0.00000000000E+00 -0.22483422388E+03  0.27562407806E+04  0.27470552984E+04 0.  0.
        2    1    3    3  502    0 -0.11975277205E+04 -0.14043225591E+03 -0.77248031521E+03  0.14319635810E+04  0.25500000920E-02 0.  1.
       -2    1    3    3    0  502  0.11975277205E+04  0.14043225591E+03  0.54764609132E+03  0.13242771996E+04  0.25500000920E-02 0. -1.
</event>
<event>
 5   0  0.3028601E-06  0.2691162E+04  0.7818609E-02  0.8337878E-01
        1   -1    0    0  501    0  0.00000000000E+00  0.00000000000E+00  0.84006500664E+03  0.84006500665E+03  0.50400001928E-02 0.  1.
       -1   -1    0    0    0  501  0.00000000000E+00  0.00000000000E+00 -0.21552958002E+04  0.21552958002E+04  0.50400001928E-02 0. -1.
    10030    2    1    2    0    0  0.00000000000E+00  0.00000000000E+00 -0.13152307936E+04  0.29953608069E+04  0.26911622625E+04 0.  0.
        3    1    3    3  502    0  0.11379785447E+04 -0.62002782010E+03 -0.25451971162E+03  0.13206854128E+04  0.10100000352E+00 0.  1.
       -3    1    3    3    0  502 -0.11379785447E+04  0.62002782010E+03 -0.10607110820E+04  0.16746753941E+04  0.10100000352E+00 0. -1.
</event>
<event>
 5   0  0.7812908E-06  0.2699210E+04  0.7818609E-02  0.8335261E-01
        2   -1    0    0  501    0  0.00000000000E+00  0.00000000000E+00  0.12539512911E+04  0.12539512911E+04  0.25500000920E-02 0. -1.
       -2   -1    0    0    0  501  0.00000000000E+00  0.00000000000E+00 -0.14525550295E+04  0.14525550295E+04  0.25500000920E-02 0.  1.
    10030    2    1    2    0    0  0.00000000000E+00  0.00000000000E+00 -0.19860373840E+03  0.27065063207E+04  0.26992097026E+04 0.  0.
        5    1    3    3  502    0 -0.13487427610E+04 -0.47766449906E+02 -0.10405765280E+03  0.13536021403E+04  0.46999998093E+01 0.  1.
       -5    1    3    3    0  502  0.13487427610E+04  0.47766449906E+02 -0.94546085605E+02  0.13529041804E+04  0.46999998093E+01 0. -1.
</event>
<event>
 5   0  0.3046300E-06  0.2703972E+04  0.7818609E-02  0.8333717E-01
       -1   -1    0    0    0  501  0.00000000000E+00  0.00000000000E+00  0.13198706529E+04  0.13198706529E+04  0.50400001928E-02 0. -1.
        1   -1    0    0  501    0  0.00000000000E+00  0.00000000000E+00 -0.13848829662E+04  0.13848829662E+04  0.50400001928E-02 0.  1.
    10030    2    1    2    0    0  0.00000000000E+00  0.00000000000E+00 -0.65012313348E+02  0.27047536191E+04  0.27039721780E+04 0.  0.
        2    1    3    3  502    0  0.26562748818E+03 -0.12273624041E+04  0.46852775980E+03  0.13403337999E+04  0.25500000920E-02 0. -1.
       -2    1    3    3    0  502 -0.26562748818E+03  0.12273624041E+04 -0.53354007314E+03  0.13644198192E+04  0.25500000920E-02 0.  1.
</event>
<event>
 5   0  0.3089218E-06  0.2699648E+04  0.7818609E-02  0.8335119E-01
        1   -1    0    0  501    0  0.00000000000E+00  0.00000000000E+00  0.12995241528E+04  0.12995241528E+04  0.50400001928E-02 0. -1.
       -1   -1    0    0    0  501  0.00000000000E+00  0.00000000000E+00 -0.14020711022E+04  0.14020711022E+04  0.50400001928E-02 0.  1.
    10030    2    1    2    0    0  0.00000000000E+00  0.00000000000E+00 -0.10254694942E+03  0.27015952550E+04  0.26996483187E+04 0.  0.
        5    1    3    3  502    0  0.19117887338E+03  0.65438086099E+03  0.11145729286E+04  0.13065445174E+04  0.46999998093E+01 0. -1.
       -5    1    3    3    0  502 -0.19117887338E+03 -0.65438086099E+03 -0.12171198780E+04  0.13950507375E+04  0.46999998093E+01 0.  1.
</event>
<event>
 5   0  0.3089218E-06  0.2700575E+04  0.7818609E-02  0.8334818E-01
       -1   -1    0    0    0  501  0.00000000000E+00  0.00000000000E+00  0.77370838111E+03  0.77370838112E+03  0.50400001928E-02 0. -1.
        1   -1    0    0  501    0  0.00000000000E+00  0.00000000000E+00 -0.23565416762E+04  0.23565416762E+04  0.50400001928E-02 0.  1.
    10030    2    1    2    0    0  0.00000000000E+00  0.00000000000E+00 -0.15828332951E+04  0.31302500573E+04  0.27005747872E+04 0.  0.
        5    1    3    3  502    0 -0.57012925514E+03  0.22404830439E+03  0.60337213453E+03  0.85984012060E+03  0.46999998093E+01 0. -1.
       -5    1    3    3    0  502  0.57012925514E+03 -0.22404830439E+03 -0.21862054296E+04  0.22704099367E+04  0.46999998093E+01 0.  1.
</event>
<event>
 5   0  0.7838364E-06  0.2686185E+04  0.7818609E-02  0.8339501E-01
        2   -1    0    0  501    0  0.00000000000E+00  0.00000000000E+00  0.17429871173E+04  0.17429871174E+04  0.25500000920E-02 0.  1.
       -2   -1    0    0    0  501  0.00000000000E+00  0.00000000000E+00 -0.10349459876E+04  0.10349459876E+04  0.25500000920E-02 0. -1.
    10030    2    1    2    0    0  0.00000000000E+00  0.00000000000E+00  0.70804112973E+03  0.27779331050E+04  0.26861850447E+04 0.  0.
        2    1    3    3  502    0  0.11041873972E+04  0.75388665937E+03  0.22189684417E+03  0.13552907853E+04  0.25500000920E-02 0.  1.
       -2    1    3    3    0  502 -0.11041873972E+04 -0.75388665937E+03  0.48614428556E+03  0.14226423197E+04  0.25500000920E-02 0. -1.
</event>
<event>
 5   0  0.7838364E-06  0.2714698E+04  0.7818609E-02  0.8330252E-01
        2   -1    0    0  501    0  0.00000000000E+00  0.00000000000E+00  0.11629986659E+04  0.11629986659E+04  0.25500000920E-02 0. -1.
       -2   -1    0    0    0  501  0.00000000000E+00  0.00000000000E+00 -0.15841770624E+04  0.15841770624E+04  0.25500000920E-02 0.  1.
    10030    2    1    2    0    0  0.00000000000E+00  0.00000000000E+00 -0.42117839647E+03  0.27471757283E+04  0.27146976333E+04 0.  0.
        2    1    3    3  502    0  0.99857490503E+03 -0.89916030162E+03 -0.16580347802E+02  0.13438437398E+04  0.25500000920E-02 0. -1.
       -2    1    3    3    0  502 -0.99857490503E+03  0.89916030162E+03 -0.40459804867E+03  0.14033319885E+04  0.25500000920E-02 0.  1.
</event>
<event>
 5   0  0.7812908E-06  0.2726266E+04  0.7818609E-02  0.8326532E-01
       -2   -1    0    0    0  501  0.00000000000E+00  0.00000000000E+00  0.77886928805E+03  0.77886928805E+03  0.25500000920E-02 0.  1.
        2   -1    0    0  501    0  0.00000000000E+00  0.00000000000E+00 -0.23856787886E+04  0.23856787886E+04  0.25500000920E-02 0. -1.
    10030    2    1    2    0    0  0.00000000000E+00  0.00000000000E+00 -0.16068095005E+04  0.31645480767E+04  0.27262662670E+04 0.  0.
        5    1    3    3  502    0  0.11471272740E+04 -0.62706145697E+03 -0.35534014644E+03  0.13547677894E+04  0.46999998093E+01 0.  1.
       -5    1    3    3    0  502 -0.11471272740E+04  0.62706145697E+03 -0.12514693541E+04  0.18097802872E+04  0.46999998093E+01 0. -1.
</event>
<event>
 5   0  0.7729970E-06  0.2683558E+04  0.7818609E-02  0.8340360E-01
        2   -1    0    0  501    0  0.00000000000E+00  0.00000000000E+00  0.21942146993E+04  0.21942146993E+04  0.25500000920E-02 0.  1.
       -2   -1    0    0    0  501  0.00000000000E+00  0.00000000000E+00 -0.82050796485E+03  0.82050796485E+03  0.25500000920E-02 0. -1.
    10030    2    1    2    0    0  0.00000000000E+00  0.00000000000E+00  0.13737067344E+04  0.30147226641E+04  0.26835578155E+04 0.  0.
        4    1    3    3  502    0  0.73552819843E+03 -0.99392659880E+02  0.19426014467E+04  0.20795630852E+04  0.12699999809E+01 0.  1.
       -4    1    3    3    0  502 -0.73552819843E+03  0.99392659880E+02 -0.56889471229E+03  0.93515957895E+03  0.12699999809E+01 0. -1.
</event>
<event>
 5   0  0.3199840E-06  0.2694330E+04  0.7818609E-02  0.8336847E-01
       -1   -1    0    0    0  501  0.00000000000E+00  0.00000000000E+00  0.70063378309E+03  0.70063378311E+03  0.50400001928E-02 0. -1.
        1   -1    0    0  501    0  0.00000000000E+00  0.00000000000E+00 -0.25903026452E+04  0.25903026452E+04  0.50400001928E-02 0.  1.
    10030    2    1    2    0    0  0.00000000000E+00  0.00000000000E+00 -0.18896688621E+04  0.32909364284E+04  0.26943300033E+04 0.  0.
        1    1    3    3  502    0 -0.12834483557E+03 -0.84612714139E+03 -0.22156210384E+04  0.23751589677E+04  0.50400001928E-02 0.  1.
       -1    1    3    3    0  502  0.12834483557E+03  0.84612714139E+03  0.32595217622E+03  0.91577746065E+03  0.50400001928E-02 0. -1.
</event>
<event>
 5   0  0.7729970E-06  0.2704155E+04  0.7818609E-02  0.8333658E-01
       -2   -1    0    0    0  501  0.00000000000E+00  0.00000000000E+00  0.64705759722E+03  0.64705759722E+03  0.25500000920E-02 0. -1.
        2   -1    0    0  501    0  0.00000000000E+00  0.00000000000E+00 -0.28252719524E+04  0.28252719524E+04  0.25500000920E-02 0.  1.
    10030    2    1    2    0    0  0.00000000000E+00  0.00000000000E+00 -0.21782143552E+04  0.34723295496E+04  0.27041550850E+04 0.  0.
        4    1    3    3  502    0 -0.39163293628E+02 -0.15463528331E+03 -0.28131458488E+04  0.28176651707E+04  0.12699999809E+01 0.  1.
       -4    1    3    3    0  502  0.39163293628E+02  0.15463528331E+03  0.63493149369E+03  0.65466437889E+03  0.12699999809E+01 0. -1.
</event>
<event>
 5   0  0.3013407E-06  0.2700388E+04  0.7818609E-02  0.8334879E-01
       -1   -1    0    0    0  501  0.00000000000E+00  0.00000000000E+00  0.11942186069E+04  0.11942186069E+04  0.50400001928E-02 0.  1.
        1   -1    0    0  501    0  0.00000000000E+00  0.00000000000E+00 -0.15265415196E+04  0.15265415196E+04  0.50400001928E-02 0. -1.
    10030    2    1    2    0    0  0.00000000000E+00  0.00000000000E+00 -0.33232291263E+03  0.27207601265E+04  0.27003883328E+04 0.  0.
        4    1    3    3  502    0 -0.18792585302E+03 -0.75861181928E+03 -0.12754736746E+04  0.14958752375E+04  0.12699999809E+01 0. -1.
       -4    1    3    3    0  502  0.18792585302E+03  0.75861181928E+03  0.94315076200E+03  0.12248848890E+04  0.12699999809E+01 0.  1.
</event>
<event>
 5   0  0.8407622E-06  0.2693401E+04  0.7818609E-02  0.8337149E-01
       -2   -1    0    0    0  501  0.00000000000E+00  0.00000000000E+00  0.10350507104E+04  0.10350507104E+04  0.25500000920E-02 0. -1.
        2   -1    0    0  501    0  0.00000000000E+00  0.00000000000E+00 -0.17521873484E+04  0.17521873484E+04  0.25500000920E-02 0.  1.
    10030    2    1    2    0    0  0.00000000000E+00  0.00000000000E+00 -0.71713663800E+03  0.27872380588E+04  0.26934013884E+04 0.  0.
        1    1    3    3  502    0 -0.12012275278E+04 -0.19798098166E+03  0.23721413151E+03  0.12403284189E+04  0.50400001928E-02 0. -1.
       -1    1    3    3    0  502  0.12012275278E+04  0.19798098166E+03 -0.95435076951E+03  0.15469096399E+04  0.50400001928E-02 0.  1.
</event>
<event>
 5   0  0.3028601E-06  0.2692496E+04  0.7818609E-02  0.8337444E-01
       -1   -1    0    0    0  501  0.00000000000E+00  0.00000000000E+00  0.13512127429E+04  0.13512127429E+04  0.50400001928E-02 0.  1.
        1   -1    0    0  501    0  0.00000000000E+00  0.00000000000E+00 -0.13413015606E+04  0.13413015606E+04  0.50400001928E-02 0. -1.
    10030    2    1    2    0    0  0.00000000000E+00  0.00000000000E+00  0.99111823128E+01  0.26925143035E+04  0.26924960619E+04 0.  0.
        3    1    3    3  502    0 -0.46172320061E+03 -0.47606728301E+03 -0.11666134324E+04  0.13419445900E+04  0.10100000352E+00 0. -1.
       -3    1    3    3    0  502  0.46172320061E+03  0.47606728301E+03  0.11765246147E+04  0.13505697135E+04  0.10100000352E+00 0.  1.
</event>
<event>
 5   0  0.8213334E-06  0.2700421E+04  0.7818609E-02  0.8334868E-01
        2   -1    0    0  501    0  0.00000000000E+00  0.00000000000E+00  0.18763048628E+04  0.18763048628E+04  0.25500000920E-02 0.  1.
       -2   -1    0    0    0  501  0.00000000000E+00  0.00000000000E+00 -0.97162670047E+03  0.97162670047E+03  0.25500000920E-02 0. -1.
    10030    2    1    2    0    0  0.00000000000E+00  0.00000000000E+00  0.90467816237E+03  0.28479315633E+04  0.27004206361E+04 0.  0.
        3    1    3    3  502    0 -0.60343804523E+03  0.86274386314E+02  0.17229270194E+04  0.18275826297E+04  0.10100000352E+00 0.  1.
       -3    1    3    3    0  502  0.60343804523E+03 -0.86274386314E+02 -0.81824885698E+03  0.10203489336E+04  0.10100000352E+00 0. -1.
</event>
<event>
 5   0  0.3089218E-06  0.2690703E+04  0.7818609E-02  0.8338028E-01
        1   -1    0    0  501    0  0.00000000000E+00  0.00000000000E+00  0.17430234483E+04  0.17430234483E+04  0.50400001928E-02 0.  1.
       -1   -1    0    0    0  501  0.00000000000E+00  0.00000000000E+00 -0.10384088162E+04  0.10384088162E+04  0.50400001928E-02 0. -1.
    10030    2    1    2    0    0  0.00000000000E+00  0.00000000000E+00  0.70461463214E+03  0.27814322646E+04  0.26907031911E+04 0.  0.
        5    1    3    3  502    0 -0.92438017807E+03 -0.75097159949E+03 -0.29450027028E+03  0.12268616695E+04  0.46999998093E+01 0. -1.
       -5    1    3    3    0  502  0.92438017807E+03  0.75097159949E+03  0.99911490242E+03  0.15545705951E+04  0.46999998093E+01 0.  1.
</event>
<event>
 5   0  0.8407622E-06  0.2740224E+04  0.7818609E-02  0.8322071E-01
        2   -1    0    0  501    0  0.00000000000E+00  0.00000000000E+00  0.16067962391E+04  0.16067962391E+04  0.25500000920E-02 0. -1.
       -2   -1    0    0    0  501  0.00000000000E+00  0.00000000000E+00 -0.11682916446E+04  0.11682916446E+04  0.25500000920E-02 0.  1.
    10030    2    1    2    0    0  0.00000000000E+00  0.00000000000E+00  0.43850459449E+03  0.27750878837E+04  0.27402238016E+04 0.  0.
        1    1    3    3  502    0 -0.39033447104E+03  0.73048259269E+03  0.13245785556E+04  0.15622017051E+04  0.50400001928E-02 0. -1.
       -1    1    3    3    0  502  0.39033447104E+03 -0.73048259269E+03 -0.88607396112E+03  0.12128861785E+04  0.50400001928E-02 0.  1.
</event>
<event>
 5   0  0.8213334E-06  0.2679222E+04  0.7818609E-02  0.8341778E-01
       -2   -1    0    0    0  501  0.00000000000E+00  0.00000000000E+00  0.13251134114E+04  0.13251134114E+04  0.25500000920E-02 0.  1.
        2   -1    0    0  501    0  0.00000000000E+00  0.00000000000E+00 -0.13542671054E+04  0.13542671054E+04  0.25500000920E-02 0. -1.
    10030    2    1    2    0    0  0.00000000000E+00  0.00000000000E+00 -0.29153694042E+02  0.26793805169E+04  0.26792219050E+04 0.  0.
        3    1    3    3  502    0 -0.80690162983E+03  0.10389329277E+04 -0.26774322197E+03  0.13424449008E+04  0.10100000352E+00 0. -1.
       -3    1    3    3    0  502  0.80690162983E+03 -0.10389329277E+04  0.23858952792E+03  0.13369356161E+04  0.10100000352E+00 0.  1.
</event>
<event>
 5   0  0.2654625E-06  0.2698451E+04  0.7818609E-02  0.8335508E-01
        3   -1    0    0  501    0  0.00000000000E+00  0.00000000000E+00  0.14461832362E+04  0.14461832397E+04  0.10100000352E+00 0.  1.
       -3   -1    0    0    0  501  0.00000000000E+00  0.00000000000E+00 -0.12587677497E+04  0.12587677538E+04  0.10100000352E+00 0. -1.
    10030    2    1    2    0    0  0.00000000000E+00  0.00000000000E+00  0.18741548648E+03  0.27049509935E+04  0.26984505392E+04 0.  0.
        4    1    3    3  502    0 -0.23032044492E+03 -0.12190643262E+04  0.62530769455E+03  0.13893079805E+04  0.12699999809E+01 0.  1.
       -4    1    3    3    0  502  0.23032044492E+03  0.12190643262E+04 -0.43789220807E+03  0.13156430130E+04  0.12699999809E+01 0. -1.
</event>
<event>
 5   0  0.3013407E-06  0.2657458E+04  0.7818609E-02  0.8348942E-01
        1   -1    0    0  501    0  0.00000000000E+00  0.00000000000E+00  0.12958325592E+04  0.12958325592E+04  0.50400001928E-02 0. -1.
       -1   -1    0    0    0  501  0.00000000000E+00  0.00000000000E+00 -0.13624601245E+04  0.13624601245E+04  0.50400001928E-02 0.  1.
    10030    2    1    2    0    0  0.00000000000E+00  0.00000000000E+00 -0.66627565263E+02  0.26582926837E+04  0.26574575744E+04 0.  0.
        4    1    3    3  502    0 -0.77396362145E+03  0.77291484195E+03  0.72131147182E+03  0.13102323811E+04  0.12699999809E+01 0. -1.
       -4    1    3    3    0  502  0.77396362145E+03 -0.77291484195E+03 -0.78793903708E+03  0.13480603025E+04  0.12699999809E+01 0.  1.
</event>
<event>
 5   0  0.3046300E-06  0.2715599E+04  0.7818609E-02  0.8329961E-01
       -1   -1    0    0    0  501  0.00000000000E+00  0.00000000000E+00  0.78428482979E+03  0.78428482980E+03  0.50400001928E-02 0.  1.
        1   -1    0    0  501    0  0.00000000000E+00  0.00000000000E+00 -0.23507015737E+04  0.23507015737E+04  0.50400001928E-02 0. -1.
    10030    2    1    2    0    0  0.00000000000E+00  0.00000000000E+00 -0.15664167439E+04  0.31349864035E+04  0.27155990747E+04 0.  0.
        2    1    3    3  502    0 -0.27331662032E+03 -0.10157862442E+04 -0.17743415440E+04  0.20627194632E+04  0.25500000920E-02 0. -1.
       -2    1    3    3    0  502  0.27331662032E+03  0.10157862442E+04  0.20792480007E+03  0.10722669404E+04  0.25500000920E-02 0.  1.
</event>
<event>
 5   0  0.7729970E-06  0.2700346E+04  0.7818609E-02  0.8334893E-01
       -2   -1    0    0    0  501  0.00000000000E+00  0.00000000000E+00  0.10799233794E+04  0.10799233794E+04  0.25500000920E-02 0.  1.
        2   -1    0    0  501    0  0.00000000000E+00  0.00000000000E+00 -0.16880527612E+04  0.16880527612E+04  0.25500000920E-02 0. -1.
    10030    2    1    2    0    0  0.00000000000E+00  0.00000000000E+00 -0.60812938182E+03  0.27679761406E+04  0.27003463796E+04 0.  0.
        4    1    3    3  502    0  0.51803734892E+03 -0.63640216027E+03 -0.14031095466E+04  0.16254502198E+04  0.12699999809E+01 0. -1.
       -4    1    3    3    0  502 -0.51803734892E+03  0.63640216027E+03  0.79498016475E+03  0.11425259208E+04  0.12699999809E+01 0.  1.
</event>
<event>
 5   0  0.8407622E-06  0.2702064E+04  0.7818609E-02  0.8334335E-01
       -2   -1    0    0    0  501  0.00000000000E+00  0.00000000000E+00  0.11442956658E+04  0.11442956658E+04  0.25500000920E-02 0. -1.
        2   -1    0    0  501    0  0.00000000000E+00  0.00000000000E+00 -0.15951191392E+04  0.15951191392E+04  0.25500000920E-02 0.  1.
    10030    2    1    2    0    0  0.00000000000E+00  0.00000000000E+00 -0.45082347340E+03  0.27394148051E+04  0.27020643349E+04 0.  0.
        1    1    3    3  502    0 -0.35541935415E+03  0.12036749026E+04  0.28163326498E+03  0.12862633807E+04  0.50400001928E-02 0. -1.
       -1    1    3    3    0  502  0.35541935415E+03 -0.12036749026E+04 -0.73245673838E+03  0.14531514244E+04  0.50400001928E-02 0.  1.
</event>
<event>
 5   0  0.3199840E-06  0.2702402E+04  0.7818609E-02  0.8334226E-01
        1   -1    0    0  501    0  0.00000000000E+00  0.00000000000E+00  0.13763478399E+04  0.13763478400E+04  0.50400001928E-02 0.  1.
       -1   -1    0    0    0  501  0.00000000000E+00  0.00000000000E+00 -0.13265135225E+04  0.13265135226E+04  0.50400001928E-02 0. -1.
    10030    2    1    2    0    0  0.00000000000E+00  0.00000000000E+00  0.49834317393E+02  0.27028613625E+04  0.27024019105E+04 0.  0.
        1    1    3    3  502    0 -0.17940846497E+03 -0.35649192519E+03  0.13160549644E+04  0.13752361831E+04  0.50400001928E-02 0.  1.
       -1    1    3    3    0  502  0.17940846497E+03  0.35649192519E+03 -0.12662206470E+04  0.13276251794E+04  0.50400001928E-02 0. -1.
</event>
<event>
 5   0  0.7812908E-06  0.2700837E+04  0.7818609E-02  0.8334733E-01
       -2   -1    0    0    0  501  0.00000000000E+00  0.00000000000E+00  0.76614143963E+03  0.76614143963E+03  0.25500000920E-02 0. -1.
        2   -1    0    0  501    0  0.00000000000E+00  0.00000000000E+00 -0.23802789418E+04  0.23802789418E+04  0.25500000920E-02 0.  1.
    10030    2    1    2    0    0  0.00000000000E+00  0.00000000000E+00 -0.16141375022E+04  0.31464203814E+04  0.27008371555E+04 0.  0.
        5    1    3    3  502    0  0.99198142096E+03  0.73655240572E+03 -0.14420325388E+04  0.18989514262E+04  0.46999998093E+01 0.  1.
       -5    1    3    3    0  502 -0.99198142096E+03 -0.73655240572E+03 -0.17210496332E+03  0.12474689552E+04  0.46999998093E+01 0. -1.
</event>
<event>
 5   0  0.3013407E-06  0.2688092E+04  0.7818609E-02  0.8338879E-01
       -1   -1    0    0    0  501  0.00000000000E+00  0.00000000000E+00  0.10444206315E+04  0.10444206315E+04  0.50400001928E-02 0.  1.
        1   -1    0    0  501    0  0.00000000000E+00  0.00000000000E+00 -0.17296288265E+04  0.17296288265E+04  0.50400001928E-02 0. -1.
    10030    2    1    2    0    0  0.00000000000E+00  0.00000000000E+00 -0.68520819505E+03  0.27740494580E+04  0.26880922836E+04 0.  0.
        4    1    3    3  502    0 -0.42291231739E+03 -0.74805957796E+03 -0.14090965302E+04  0.16504552719E+04  0.12699999809E+01 0. -1.
       -4    1    3    3    0  502  0.42291231739E+03  0.74805957796E+03  0.72388833513E+03  0.11235941861E+04  0.12699999809E+01 0.  1.
</event>
<event>
 5   0  0.3028601E-06  0.2694082E+04  0.7818609E-02  0.8336928E-01
        1   -1    0    0  501    0  0.00000000000E+00  0.00000000000E+00  0.10234626284E+04  0.10234626284E+04  0.50400001928E-02 0.  1.
       -1   -1    0    0    0  501  0.00000000000E+00  0.00000000000E+00 -0.17729226827E+04  0.17729226827E+04  0.50400001928E-02 0. -1.
    10030    2    1    2    0    0  0.00000000000E+00  0.00000000000E+00 -0.74946005428E+03  0.27963853111E+04  0.26940824848E+04 0.  0.
        3    1    3    3  502    0 -0.46847842496E+03 -0.56514115963E+03  0.79761162206E+03  0.10839930234E+04  0.10100000352E+00 0.  1.
       -3    1    3    3    0  502  0.46847842496E+03  0.56514115963E+03 -0.15470716763E+04  0.17123922877E+04  0.10100000352E+00 0. -1.
</event>
<event>
 5   0  0.3046300E-06  0.2708423E+04  0.7818609E-02  0.8332277E-01
        1   -1    0    0  501    0  0.00000000000E+00  0.00000000000E+00  0.18410304607E+04  0.18410304607E+04  0.50400001928E-02 0. -1.
       -1   -1    0    0    0  501  0.00000000000E+00  0.00000000000E+00 -0.99612078164E+03  0.99612078165E+03  0.50400001928E-02 0.  1.
    10030    2    1    2    0    0  0.00000000000E+00  0.00000000000E+00  0.84490967907E+03  0.28371512424E+04  0.27084229371E+04 0.  0.
        2    1    3    3  502    0 -0.10574169766E+04 -0.36985744572E+03 -0.37460623525E+03  0.11812091365E+04  0.25500000920E-02 0.  1.
       -2    1    3    3    0  502  0.10574169766E+04  0.36985744572E+03  0.12195159143E+04  0.16559421059E+04  0.25500000920E-02 0. -1.
</event>
<event>
 5   0  0.7729970E-06  0.2690975E+04  0.7818609E-02  0.8337939E-01
        2   -1    0    0  501    0  0.00000000000E+00  0.00000000000E+00  0.21890091701E+04  0.21890091701E+04  0.25500000920E-02 0.  1.
       -2   -1    0    0    0  501  0.00000000000E+00  0.00000000000E+00 -0.82701211931E+03  0.82701211931E+03  0.25500000920E-02 0. -1.
    10030    2    1    2    0    0  0.00000000000E+00  0.00000000000E+00  0.13619970508E+04  0.30160212894E+04  0.26909753718E+04 0.  0.
        4    1    3    3  502    0  0.68983151420E+03 -0.93324031989E+03  0.14440675626E+04  0.18526029664E+04  0.12699999809E+01 0. -1.
       -4    1    3    3    0  502 -0.68983151420E+03  0.93324031989E+03 -0.82070511803E+02  0.11634183231E+04  0.12699999809E+01 0.  1.
</event>
<event>
 5   0  0.3199840E-06  0.2690866E+04  0.7818609E-02  0.8337975E-01
        1   -1    0    0  501    0  0.00000000000E+00  0.00000000000E+00  0.19569037994E+04  0.19569037994E+04  0.50400001928E-02 0. -1.
       -1   -1    0    0    0  501  0.00000000000E+00  0.00000000000E+00 -0.92502790459E+03  0.92502790460E+03  0.50400001928E-02 0.  1.
    10030    2    1    2    0    0  0.00000000000E+00  0.00000000000E+00  0.10318758948E+04  0.28819317040E+04  0.26908664932E+04 0.  0.
        1    1    3    3  502    0  0.79049327730E+03 -0.61263490131E+02  0.16801149522E+04  0.18577995289E+04  0.50400001928E-02 0. -1.
       -1    1    3    3    0  502 -0.79049327730E+03  0.61263490131E+02 -0.64823905740E+03  0.10241321752E+04  0.50400001928E-02 0.  1.
</event>
<event>
 5   0  0.3028601E-06  0.2696894E+04  0.7818609E-02  0.8336013E-01
       -1   -1    0    0    0  501  0.00000000000E+00  0.00000000000E+00  0.95017835985E+03  0.95017835986E+03  0.50400001928E-02 0.  1.
        1   -1    0    0  501    0  0.00000000000E+00  0.00000000000E+00 -0.19136512269E+04  0.19136512269E+04  0.50400001928E-02 0. -1.
    10030    2    1    2    0    0  0.00000000000E+00  0.00000000000E+00 -0.96347286704E+03  0.28638295867E+04  0.26968944986E+04 0.  0.
        3    1    3    3  502    0 -0.92828206730E+02  0.14271127482E+03  0.93872026057E+03  0.95403318691E+03  0.10100000352E+00 0.  1.
       -3    1    3    3    0  502  0.92828206730E+02 -0.14271127482E+03 -0.19021931276E+04  0.19097963998E+04  0.10100000352E+00 0. -1.
</event>
<event>
 5   0  0.7838364E-06  0.2699678E+04  0.7818609E-02  0.8335109E-01
       -2   -1    0    0    0  501  0.00000000000E+00  0.00000000000E+00  0.74638873368E+03  0.74638873368E+03  0.25500000920E-02 0.  1.
        2   -1    0    0  501    0  0.00000000000E+00  0.00000000000E+00 -0.24411747434E+04  0.24411747434E+04  0.25500000920E-02 0. -1.
    10030    2    1    2    0    0  0.00000000000E+00  0.00000000000E+00 -0.16947860097E+04  0.31875634771E+04  0.26996779996E+04 0.  0.
        2    1    3    3  502    0 -0.77686595948E+03  0.97618318185E+03 -0.14559060664E+04  0.19173202126E+04  0.25500000920E-02 0. -1.
       -2    1    3    3    0  502  0.77686595948E+03 -0.97618318185E+03 -0.23887994329E+03  0.12702432644E+04  0.25500000920E-02 0.  1.
</event>
<event>
 5   0  0.7729970E-06  0.2693514E+04  0.7818609E-02  0.8337113E-01
        2   -1    0    0  501    0  0.00000000000E+00  0.00000000000E+00  0.13473502743E+04  0.13473502743E+04  0.25500000920E-02 0. -1.
       -2   -1    0    0    0  501  0.00000000000E+00  0.00000000000E+00 -0.13461636576E+04  0.13461636576E+04  0.25500000920E-02 0.  1.
    10030    2    1    2    0    0  0.00000000000E+00  0.00000000000E+00  0.11866167414E+01  0.26935139319E+04  0.26935136705E+04 0.  0.
        4    1    3    3  502    0  0.34437524083E+03 -0.25682496423E+03 -0.12758076113E+04  0.13461946526E+04  0.12699999809E+01 0.  1.
       -4    1    3    3    0  502 -0.34437524083E+03  0.25682496423E+03  0.12769942281E+04  0.13473192792E+04  0.12699999809E+01 0. -1.
</event>
<event>
 5   0  0.3089218E-06  0.2702143E+04  0.7818609E-02  0.8334310E-01
        1   -1    0    0  501    0  0.00000000000E+00  0.00000000000E+00  0.12918934275E+04  0.12918934275E+04  0.50400001928E-02 0.  1.
       -1   -1    0    0    0  501  0.00000000000E+00  0.00000000000E+00 -0.14129601855E+04  0.14129601855E+04  0.50400001928E-02 0. -1.
    10030    2    1    2    0    0  0.00000000000E+00  0.00000000000E+00 -0.12106675804E+03  0.27048536130E+04  0.27021428363E+04 0.  0.
        5    1    3    3  502    0  0.61338952946E+03  0.24533610392E+03 -0.12402466970E+04  0.14052296888E+04  0.46999998093E+01 0. -1.
       -5    1    3    3    0  502 -0.61338952946E+03 -0.24533610392E+03  0.11191799390E+04  0.12996239243E+04  0.46999998093E+01 0.  1.
</event>
<event>
 5   0  0.7729970E-06  0.2699905E+04  0.7818609E-02  0.8335036E-01
       -2   -1    0    0    0  501  0.00000000000E+00  0.00000000000E+00  0.10905282336E+04  0.10905282336E+04  0.25500000920E-02 0.  1.
        2   -1    0    0  501    0  0.00000000000E+00  0.00000000000E+00 -0.16710909042E+04  0.16710909042E+04  0.25500000920E-02 0. -1.
    10030    2    1    2    0    0  0.00000000000E+00  0.00000000000E+00 -0.58056267065E+03  0.27616191378E+04  0.26999050442E+04 0.  0.
        4    1    3    3  502    0 -0.13478786257E+04 -0.18675395806E+02 -0.21620609095E+03  0.13652370661E+04  0.12699999809E+01 0.  1.
       -4    1    3    3    0  502  0.13478786257E+04  0.18675395806E+02 -0.36435657970E+03  0.13963820717E+04  0.12699999809E+01 0. -1.
</event>
<event>
 5   0  0.3046300E-06  0.2709173E+04  0.7818609E-02  0.8332035E-01
        1   -1    0    0  501    0  0.00000000000E+00  0.00000000000E+00  0.14691022142E+04  0.14691022142E+04  0.50400001928E-02 0. -1.
       -1   -1    0    0    0  501  0.00000000000E+00  0.00000000000E+00 -0.12489969562E+04  0.12489969562E+04  0.50400001928E-02 0.  1.
    10030    2    1    2    0    0  0.00000000000E+00  0.00000000000E+00  0.22010525800E+03  0.27180991704E+04  0.27091727105E+04 0.  0.
        2    1    3    3  502    0  0.69800712617E+03  0.60350185110E+03  0.11050236596E+04  0.14396199918E+04  0.25500000920E-02 0. -1.
       -2    1    3    3    0  502 -0.69800712617E+03 -0.60350185110E+03 -0.88491840163E+03  0.12784791786E+04  0.25500000920E-02 0.  1.
</event>
<event>
 5   0  0.7812908E-06  0.2705172E+04  0.7818609E-02  0.8333329E-01
        2   -1    0    0  501    0  0.00000000000E+00  0.00000000000E+00  0.22909961892E+04  0.22909961892E+04  0.25500000920E-02 0. -1.
       -2   -1    0    0    0  501  0.00000000000E+00  0.00000000000E+00 -0.79855597115E+03  0.79855597116E+03  0.25500000920E-02 0.  1.
    10030    2    1    2    0    0  0.00000000000E+00  0.00000000000E+00  0.14924402181E+04  0.30895521604E+04  0.27051718517E+04 0.  0.
        5    1    3    3  502    0  0.31823713149E+03  0.70281766968E+03  0.20150409779E+04  0.21576931620E+04  0.46999998093E+01 0. -1.
       -5    1    3    3    0  502 -0.31823713149E+03 -0.70281766968E+03 -0.52260075985E+03  0.93185899838E+03  0.46999998093E+01 0.  1.
</event>
<event>
 5   0  0.3013407E-06  0.2704175E+04  0.7818609E-02  0.8333652E-01
        1   -1    0    0  501    0  0.00000000000E+00  0.00000000000E+00  0.16483991169E+04  0.16483991169E+04  0.50400001928E-02 0.  1.
       -1   -1    0    0    0  501  0.00000000000E+00  0.00000000000E+00 -0.11090402532E+04  0.11090402532E+04  0.50400001928E-02 0. -1.
    10030    2    1    2    0    0  0.00000000000E+00  0.00000000000E+00  0.53935886371E+03  0.27574393701E+04  0.27041752710E+04 0.  0.
        4    1    3    3  502    0 -0.76357104481E+03  0.34416297355E+03  0.13520244833E+04  0.15904278384E+04  0.12699999809E+01 0.  1.
       -4    1    3    3    0  502  0.76357104481E+03 -0.34416297355E+03 -0.81266561964E+03  0.11670115317E+04  0.12699999809E+01 0. -1.
</event>
<event>
 5   0  0.8213334E-06  0.2685327E+04  0.7818609E-02  0.8339782E-01
        2   -1    0    0  501    0  0.00000000000E+00  0.00000000000E+00  0.18896102550E+04  0.18896102550E+04  0.25500000920E-02 0.  1.
       -2   -1    0    0    0  501  0.00000000000E+00  0.00000000000E+00 -0.95403031108E+03  0.95403031109E+03  0.25500000920E-02 0. -1.
    10030    2    1    2    0    0  0.00000000000E+00  0.00000000000E+00  0.93557994388E+03  0.28436405660E+04  0.26853271379E+04 0.  0.
        3    1    3    3  502    0  0.95660865787E+03 -0.93599591811E+03  0.35394878353E+03  0.13843656434E+04  0.10100000352E+00 0. -1.
       -3    1    3    3    0  502 -0.95660865787E+03  0.93599591811E+03  0.58163116035E+03  0.14592749227E+04  0.10100000352E+00 0.  1.
</event>
<event>
 5   0  0.3046300E-06  0.2652385E+04  0.7818609E-02  0.8350622E-01
       -1   -1    0    0    0  501  0.00000000000E+00  0.00000000000E+00  0.11941600255E+04  0.11941600255E+04  0.50400001928E-02 0. -1.
        1   -1    0    0  501    0  0.00000000000E+00  0.00000000000E+00 -0.14728235761E+04  0.14728235761E+04  0.50400001928E-02 0.  1.
    10030    2    1    2    0    0  0.00000000000E+00  0.00000000000E+00 -0.27866355052E+03  0.26669836016E+04  0.26523853711E+04 0.  0.
        2    1    3    3  502    0  0.83948225126E+03 -0.10063253312E+04  0.65173751285E+02  0.13121237519E+04  0.25500000920E-02 0. -1.
       -2    1    3    3    0  502 -0.83948225126E+03  0.10063253312E+04 -0.34383730181E+03  0.13548598497E+04  0.25500000920E-02 0.  1.
</event>
<event>
 5   0  0.7838364E-06  0.2696598E+04  0.7818609E-02  0.8336110E-01
       -2   -1    0    0    0  501  0.00000000000E+00  0.00000000000E+00  0.84849828552E+03  0.84849828553E+03  0.25500000920E-02 0.  1.
        2   -1    0    0  501    0  0.00000000000E+00  0.00000000000E+00 -0.21425025530E+04  0.21425025531E+04  0.25500000920E-02 0. -1.
    10030    2    1    2    0    0  0.00000000000E+00  0.00000000000E+00 -0.12940042675E+04  0.29910008386E+04  0.26965976659E+04 0.  0.
        2    1    3    3  502    0  0.68152871880E+03 -0.26863625633E+03 -0.19025102014E+04  0.20386740542E+04  0.25500000920E-02 0. -1.
       -2    1    3    3    0  502 -0.68152871880E+03  0.26863625633E+03  0.60850593386E+03  0.95232678441E+03  0.25500000920E-02 0.  1.
</event>
<event>
 5   0  0.2654625E-06  0.2682895E+04  0.7818609E-02  0.8340576E-01
        3   -1    0    0  501    0  0.00000000000E+00  0.00000000000E+00  0.76789215401E+03  0.76789216065E+03  0.10100000352E+00 0. -1.
       -3   -1    0    0    0  501  0.00000000000E+00  0.00000000000E+00 -0.23434041008E+04  0.23434041030E+04  0.10100000352E+00 0.  1.
    10030    2    1    2    0    0  0.00000000000E+00  0.00000000000E+00 -0.15755119468E+04  0.31112962636E+04  0.26828951798E+04 0.  0.
        3    1    3    3  502    0 -0.79163815346E+03  0.65469365148E+03 -0.17881540124E+04  0.20622341103E+04  0.10100000352E+00 0.  1.
       -3    1    3    3    0  502  0.79163815346E+03 -0.65469365148E+03  0.21264206562E+03  0.10490621533E+04  0.10100000352E+00 0. -1.
</event>
<event>
 5   0  0.7729970E-06  0.2709833E+04  0.7818609E-02  0.8331821E-01
        2   -1    0    0  501    0  0.00000000000E+00  0.00000000000E+00  0.15360980844E+04  0.15360980844E+04  0.25500000920E-02 0.  1.
       -2   -1    0    0    0  501  0.00000000000E+00  0.00000000000E+00 -0.11951053222E+04  0.11951053222E+04  0.25500000920E-02 0. -1.
    10030    2    1    2    0    0  0.00000000000E+00  0.00000000000E+00  0.34099276218E+03  0.27312034067E+04  0.27098332024E+04 0.  0.
        4    1    3    3  502    0 -0.11935187593E+03  0.36149941211E+03  0.14810858791E+04  0.15292297700E+04  0.12699999809E+01 0.  1.
       -4    1    3    3    0  502  0.11935187593E+03 -0.36149941211E+03 -0.11400931169E+04  0.12019736367E+04  0.12699999809E+01 0. -1.
</event>
<event>
 5   0  0.7812908E-06  0.2722910E+04  0.7818609E-02  0.8327609E-01
       -2   -1    0    0    0  501  0.00000000000E+00  0.00000000000E+00  0.96945967027E+03  0.96945967027E+03  0.25500000920E-02 0.  1.
        2   -1    0    0  501    0  0.00000000000E+00  0.00000000000E+00 -0.19119518577E+04  0.19119518577E+04  0.25500000920E-02 0. -1.
    10030    2    1    2    0    0  0.00000000000E+00  0.00000000000E+00 -0.94249218744E+03  0.28814115280E+04  0.27229103676E+04 0.  0.
        5    1    3    3  502    0 -0.18262648559E+03  0.36996632099E+02 -0.18983856361E+04  0.19075144291E+04  0.46999998093E+01 0. -1.
       -5    1    3    3    0  502  0.18262648559E+03 -0.36996632099E+02  0.95589344864E+03  0.97389709887E+03  0.46999998093E+01 0.  1.
</event>
<event>
 5   0  0.3013407E-06  0.2678541E+04  0.7818609E-02  0.8342001E-01
        1   -1    0    0  501    0  0.00000000000E+00  0.00000000000E+00  0.17964501408E+04  0.17964501408E+04  0.50400001928E-02 0. -1.
       -1   -1    0    0    0  501  0.00000000000E+00  0.00000000000E+00 -0.99843893708E+03  0.99843893710E+03  0.50400001928E-02 0.  1.
    10030    2    1    2    0    0  0.00000000000E+00  0.00000000000E+00  0.79801120370E+03  0.27948890779E+04  0.26785412217E+04 0.  0.
        4    1    3    3  502    0 -0.42308043865E+03  0.20974251231E+03  0.17067012161E+04  0.17708245630E+04  0.12699999809E+01 0. -1.
       -4    1    3    3    0  502  0.42308043865E+03 -0.20974251231E+03 -0.90869001241E+03  0.10240645149E+04  0.12699999809E+01 0.  1.
</event>
<event>
 5   0  0.3046300E-06  0.2682416E+04  0.7818609E-02  0.8340733E-01
       -1   -1    0    0    0  501  0.00000000000E+00  0.00000000000E+00  0.11582361800E+04  0.11582361800E+04  0.50400001928E-02 0.  1.
        1   -1    0    0  501    0  0.00000000000E+00  0.00000000000E+00 -0.15530844763E+04  0.15530844763E+04  0.50400001928E-02 0. -1.
    10030    2    1    2    0    0  0.00000000000E+00  0.00000000000E+00 -0.39484829633E+03  0.27113206563E+04  0.26824158000E+04 0.  0.
        2    1    3    3  502    0  0.59445213914E+03  0.11262281018E+04 -0.62276204719E+03  0.14176020776E+04  0.25500000920E-02 0. -1.
       -2    1    3    3    0  502 -0.59445213914E+03 -0.11262281018E+04  0.22791375085E+03  0.12937185787E+04  0.25500000920E-02 0.  1.
</event>
<event>
 5   0  0.7812908E-06  0.2693466E+04  0.7818609E-02  0.8337128E-01
       -2   -1    0    0    0  501  0.00000000000E+00  0.00000000000E+00  0.89479472456E+03  0.89479472457E+03  0.25500000920E-02 0. -1.
        2   -1    0    0  501    0  0.00000000000E+00  0.00000000000E+00 -0.20269333451E+04  0.20269333451E+04  0.25500000920E-02 0.  1.
    10030    2    1    2    0    0  0.00000000000E+00  0.00000000000E+00 -0.11321386206E+04  0.29217280697E+04  0.26934656220E+04 0.  0.
        5    1    3    3  502    0 -0.26838249856E+03 -0.12506238558E+04 -0.10231816150E+04  0.16379902019E+04  0.46999998093E+01 0.  1.
       -5    1    3    3    0  502  0.26838249856E+03  0.12506238558E+04 -0.10895700560E+03  0.12837378678E+04  0.46999998093E+01 0. -1.
</event>
<event>
 5   0  0.3028601E-06  0.2578969E+04  0.7818609E-02  0.8375380E-01
       -1   -1    0    0    0  501  0.00000000000E+00  0.00000000000E+00  0.12960678047E+04  0.12960678047E+04  0.50400001928E-02 0.  1.
        1   -1    0    0  501    0  0.00000000000E+00  0.00000000000E+00 -0.12829345335E+04  0.12829345335E+04  0.50400001928E-02 0. -1.
    10030    2    1    2    0    0  0.00000000000E+00  0.00000000000E+00  0.13133271200E+02  0.25790023383E+04  0.25789688982E+04 0.  0.
        3    1    3    3  502    0 -0.12662259723E+04  0.68841956804E+02  0.24045576549E+03  0.12906922225E+04  0.10100000352E+00 0. -1.
       -3    1    3    3    0  502  0.12662259723E+04 -0.68841956804E+02 -0.22732249429E+03  0.12883101158E+04  0.10100000352E+00 0.  1.
</event>
<event>
 5   0  0.8407622E-06  0.2700994E+04  0.7818609E-02  0.8334682E-01
        2   -1    0    0  501    0  0.00000000000E+00  0.00000000000E+00  0.15876169253E+04  0.15876169253E+04  0.25500000920E-02 0. -1.
       -2   -1    0    0    0  501  0.00000000000E+00  0.00000000000E+00 -0.11487926026E+04  0.11487926026E+04  0.25500000920E-02 0.  1.
    10030    2    1    2    0    0  0.00000000000E+00  0.00000000000E+00  0.43882432274E+03  0.27364095279E+04  0.27009943203E+04 0.  0.
        1    1    3    3  502    0  0.45906759072E+03 -0.10850696061E+04 -0.44933646509E+03  0.12609608883E+04  0.50400001928E-02 0.  1.
       -1    1    3    3    0  502 -0.45906759072E+03  0.10850696061E+04  0.88816078783E+03  0.14754486396E+04  0.50400001928E-02 0. -1.
</event>
<event>
 5   0  0.3199840E-06  0.2992967E+04  0.7818609E-02  0.8245742E-01
        1   -1    0    0  501    0  0.00000000000E+00  0.00000000000E+00  0.23718334045E+04  0.23718334045E+04  0.50400001928E-02 0.  1.
       -1   -1    0    0    0  501  0.00000000000E+00  0.00000000000E+00 -0.94419054190E+03  0.94419054191E+03  0.50400001928E-02 0. -1.
    10030    2    1    2    0    0  0.00000000000E+00  0.00000000000E+00  0.14276428626E+04  0.33160239465E+04  0.29929668675E+04 0.  0.
        1    1    3    3  502    0  0.90938343201E+03 -0.27517574350E+03  0.19948031054E+04  0.22095111100E+04  0.50400001928E-02 0.  1.
       -1    1    3    3    0  502 -0.90938343201E+03  0.27517574350E+03 -0.56716024271E+03  0.11065128364E+04  0.50400001928E-02 0. -1.
</event>
<event>
 5   0  0.8407622E-06  0.2697350E+04  0.7818609E-02  0.8335865E-01
       -2   -1    0    0    0  501  0.00000000000E+00  0.00000000000E+00  0.10197479883E+04  0.10197479883E+04  0.25500000920E-02 0.  1.
        2   -1    0    0  501    0  0.00000000000E+00  0.00000000000E+00 -0.17836994118E+04  0.17836994118E+04  0.25500000920E-02 0. -1.
    10030    2    1    2    0    0  0.00000000000E+00  0.00000000000E+00 -0.76395142345E+03  0.28034474001E+04  0.26973497266E+04 0.  0.
        1    1    3    3  502    0 -0.76517421036E+03 -0.62937099683E+03 -0.13330228498E+04  0.16608881184E+04  0.50400001928E-02 0. -1.
       -1    1    3    3    0  502  0.76517421036E+03  0.62937099683E+03  0.56907142635E+03  0.11425592817E+04  0.50400001928E-02 0.  1.
</event>
<event>
 5   0  0.8407622E-06  0.2715726E+04  0.7818609E-02  0.8329920E-01
       -2   -1    0    0    0  501  0.00000000000E+00  0.00000000000E+00  0.11980369277E+04  0.11980369277E+04  0.25500000920E-02 0.  1.
        2   -1    0    0  501    0  0.00000000000E+00  0.00000000000E+00 -0.15390114537E+04  0.15390114537E+04  0.25500000920E-02 0. -1.
    10030    2    1    2    0    0  0.00000000000E+00  0.00000000000E+00 -0.34097452595E+03  0.27370483814E+04  0.27157264617E+04 0.  0.
        1    1    3    3  502    0 -0.44587597939E+03 -0.10629133249E+04  0.55292422464E+03  0.12784034275E+04  0.50400001928E-02 0.  1.
       -1    1    3    3    0  502  0.44587597939E+03  0.10629133249E+04 -0.89389875059E+03  0.14586449539E+04  0.50400001928E-02 0. -1.
</event>
<event>
 5   0  0.7812908E-06  0.2705228E+04  0.7818609E-02  0.8333311E-01
        2   -1    0    0  501    0  0.00000000000E+00  0.00000000000E+00  0.13717965822E+04  0.13717965822E+04  0.25500000920E-02 0. -1.
       -2   -1    0    0    0  501  0.00000000000E+00  0.00000000000E+00 -0.13337001382E+04  0.13337001382E+04  0.25500000920E-02 0.  1.
    10030    2    1    2    0    0  0.00000000000E+00  0.00000000000E+00  0.38096443959E+02  0.27054967204E+04  0.27052284867E+04 0.  0.
        5    1    3    3  502    0  0.40835221754E+03 -0.22139192298E+02 -0.12703823451E+04  0.13345917241E+04  0.46999998093E+01 0.  1.
       -5    1    3    3    0  502 -0.40835221754E+03  0.22139192298E+02  0.13084787891E+04  0.13709049963E+04  0.46999998093E+01 0. -1.
</event>
<event>
 5   0  0.8213334E-06  0.2605578E+04  0.7818609E-02  0.8366309E-01
        2   -1    0    0  501    0  0.00000000000E+00  0.00000000000E+00  0.92593329829E+03  0.92593329830E+03  0.25500000920E-02 0.  1.
       -2   -1    0    0    0  501  0.00000000000E+00  0.00000000000E+00 -0.18330247688E+04  0.18330247688E+04  0.25500000920E-02 0. -1.
    10030    2    1    2    0    0  0.00000000000E+00  0.00000000000E+00 -0.90709147049E+03  0.27589580671E+04  0.26055776097E+04 0.  0.
        3    1    3    3  502    0 -0.20463757102E+02  0.18734705923E+03 -0.18185146166E+04  0.18282541144E+04  0.10100000352E+00 0. -1.
       -3    1    3    3    0  502  0.20463757102E+02 -0.18734705923E+03  0.91142314612E+03  0.93070395263E+03  0.10100000352E+00 0.  1.
</event>
<event>
 5   0  0.3046300E-06  0.2696991E+04  0.7818609E-02  0.8335982E-01
        1   -1    0    0  501    0  0.00000000000E+00  0.00000000000E+00  0.12804217694E+04  0.12804217694E+04  0.50400001928E-02 0. -1.
       -1   -1    0    0    0  501  0.00000000000E+00  0.00000000000E+00 -0.14201887106E+04  0.14201887106E+04  0.50400001928E-02 0.  1.
    10030    2    1    2    0    0  0.00000000000E+00  0.00000000000E+00 -0.13976694123E+03  0.27006104800E+04  0.26969913175E+04 0.  0.
        2    1    3    3  502    0  0.66831970927E+03 -0.55351071256E+03 -0.11034581095E+04  0.14037966883E+04  0.25500000920E-02 0.  1.
       -2    1    3    3    0  502 -0.66831970927E+03  0.55351071256E+03  0.96369116822E+03  0.12968137917E+04  0.25500000920E-02 0. -1.
</event>
<event>
 5   0  0.3028601E-06  0.2704342E+04  0.7818609E-02  0.8333598E-01
       -1   -1    0    0    0  501  0.00000000000E+00  0.00000000000E+00  0.13213092318E+04  0.13213092319E+04  0.50400001928E-02 0. -1.
        1   -1    0    0  501    0  0.00000000000E+00  0.00000000000E+00 -0.13837535995E+04  0.13837535995E+04  0.50400001928E-02 0.  1.
    10030    2    1    2    0    0  0.00000000000E+00  0.00000000000E+00 -0.62444367667E+02  0.27050628314E+04  0.27043419944E+04 0.  0.
        3    1    3    3  502    0  0.12060406344E+04  0.59734228982E+03 -0.16169687105E+03  0.13555433270E+04  0.10100000352E+00 0.  1.
       -3    1    3    3    0  502 -0.12060406344E+04 -0.59734228982E+03  0.99252503387E+02  0.13495195044E+04  0.10100000352E+00 0. -1.
</event>
<event>
 5   0  0.3046300E-06  0.2672135E+04  0.7818609E-02  0.8344103E-01
       -1   -1    0    0    0  501  0.00000000000E+00  0.00000000000E+00  0.95011336252E+03  0.95011336253E+03  0.50400001928E-02 0.  1.
        1   -1    0    0  501    0  0.00000000000E+00  0.00000000000E+00 -0.18788034053E+04  0.18788034053E+04  0.50400001928E-02 0. -1.
    10030    2    1    2    0    0  0.00000000000E+00  0.00000000000E+00 -0.92869004273E+03  0.28289167678E+04  0.26721348925E+04 0.  0.
        2    1    3    3  502    0  0.10589891833E+04 -0.73273128504E+03 -0.87476811078E+02  0.12907383232E+04  0.25500000920E-02 0.  1.
       -2    1    3    3    0  502 -0.10589891833E+04  0.73273128504E+03 -0.84121323166E+03  0.15381784446E+04  0.25500000920E-02 0. -1.
</event>
<event>
 5   0  0.3199840E-06  0.2720682E+04  0.7818609E-02  0.8328325E-01
       -1   -1    0    0    0  501  0.00000000000E+00  0.00000000000E+00  0.12790394106E+04  0.12790394106E+04  0.50400001928E-02 0. -1.
        1   -1    0    0  501    0  0.00000000000E+00  0.00000000000E+00 -0.14468105745E+04  0.14468105745E+04  0.50400001928E-02 0.  1.
    10030    2    1    2    0    0  0.00000000000E+00  0.00000000000E+00 -0.16777116382E+03  0.27258499851E+04  0.27206820795E+04 0.  0.
        1    1    3    3  502    0 -0.36569602081E+03 -0.51710698565E+03 -0.12900804159E+04  0.14371641151E+04  0.50400001928E-02 0.  1.
       -1    1    3    3    0  502  0.36569602081E+03  0.51710698565E+03  0.11223092521E+04  0.12886858700E+04  0.50400001928E-02 0. -1.
</event>
<event>
 5   0  0.7729970E-06  0.2659502E+04  0.7818609E-02  0.8348266E-01
        2   -1    0    0  501    0  0.00000000000E+00  0.00000000000E+00  0.16013649606E+04  0.16013649606E+04  0.25500000920E-02 0. -1.
       -2   -1    0    0    0  501  0.00000000000E+00  0.00000000000E+00 -0.11042068985E+04  0.11042068985E+04  0.25500000920E-02 0.  1.
    10030    2    1    2    0    0  0.00000000000E+00  0.00000000000E+00  0.49715806217E+03  0.27055718591E+04  0.26595023869E+04 0.  0.
        4    1    3    3  502    0  0.19053063772E+03  0.12062392992E+04 -0.28676996102E+03  0.12544137253E+04  0.12699999809E+01 0.  1.
       -4    1    3    3    0  502 -0.19053063772E+03 -0.12062392992E+04  0.78392802319E+03  0.14511581338E+04  0.12699999809E+01 0. -1.
</event>
<event>
 5   0  0.3028601E-06  0.2677976E+04  0.7818609E-02  0.8342187E-01
        1   -1    0    0  501    0  0.00000000000E+00  0.00000000000E+00  0.18145509654E+04  0.18145509654E+04  0.50400001928E-02 0. -1.
       -1   -1    0    0    0  501  0.00000000000E+00  0.00000000000E+00 -0.98806165621E+03  0.98806165622E+03  0.50400001928E-02 0.  1.
    10030    2    1    2    0    0  0.00000000000E+00  0.00000000000E+00  0.82648930916E+03  0.28026126216E+04  0.26779755280E+04 0.  0.
        3    1    3    3  502    0  0.74014180715E+02 -0.92847876811E+03  0.14199595719E+04  0.16981861258E+04  0.10100000352E+00 0. -1.
       -3    1    3    3    0  502 -0.74014180715E+02  0.92847876811E+03 -0.59347026271E+03  0.11044264958E+04  0.10100000352E+00 0.  1.
</event>
<event>
 5   0  0.7838364E-06  0.2670780E+04  0.7818609E-02  0.8344548E-01
        2   -1    0    0  501    0  0.00000000000E+00  0.00000000000E+00  0.16713012978E+04  0.16713012978E+04  0.25500000920E-02 0. -1.
       -2   -1    0    0    0  501  0.00000000000E+00  0.00000000000E+00 -0.10669931546E+04  0.10669931546E+04  0.25500000920E-02 0.  1.
    10030    2    1    2    0    0  0.00000000000E+00  0.00000000000E+00  0.60430814321E+03  0.27382944524E+04  0.26707804433E+04 0.  0.
        2    1    3    3  502    0 -0.37365187144E+03 -0.11125080529E+02  0.16165628595E+04  0.16592211930E+04  0.25500000920E-02 0. -1.
       -2    1    3    3    0  502  0.37365187144E+03  0.11125080529E+02 -0.10122547163E+04  0.10790732594E+04  0.25500000920E-02 0.  1.
</event>
<event>
 5   0  0.3089218E-06  0.2718849E+04  0.7818609E-02  0.8328915E-01
       -1   -1    0    0    0  501  0.00000000000E+00  0.00000000000E+00  0.76212317182E+03  0.76212317184E+03  0.50400001928E-02 0. -1.
        1   -1    0    0  501    0  0.00000000000E+00  0.00000000000E+00 -0.24248515351E+04  0.24248515351E+04  0.50400001928E-02 0.  1.
    10030    2    1    2    0    0  0.00000000000E+00  0.00000000000E+00 -0.16627283633E+04  0.31869747070E+04  0.27188494208E+04 0.  0.
        5    1    3    3  502    0 -0.24378684836E+03  0.11042173218E+04 -0.17157841400E+04  0.20549124620E+04  0.46999998093E+01 0.  1.
       -5    1    3    3    0  502  0.24378684836E+03 -0.11042173218E+04  0.53055776749E+02  0.11320622450E+04  0.46999998093E+01 0. -1.
</event>
<event>
 5   0  0.7729970E-06  0.2710638E+04  0.7818609E-02  0.8331561E-01
       -2   -1    0    0    0  501  0.00000000000E+00  0.00000000000E+00  0.11603163865E+04  0.11603163865E+04  0.25500000920E-02 0.  1.
        2   -1    0    0  501    0  0.00000000000E+00  0.00000000000E+00 -0.15830941632E+04  0.15830941632E+04  0.25500000920E-02 0. -1.
    10030    2    1    2    0    0  0.00000000000E+00  0.00000000000E+00 -0.42277777675E+03  0.27434105497E+04  0.27106383742E+04 0.  0.
        4    1    3    3  502    0  0.26387784913E+03 -0.78245322059E+03  0.87632509579E+03  0.12040813295E+04  0.12699999809E+01 0.  1.
       -4    1    3    3    0  502 -0.26387784913E+03  0.78245322059E+03 -0.12991028725E+04  0.15393292202E+04  0.12699999809E+01 0. -1.
</event>
<event>
 5   0  0.8407622E-06  0.2711097E+04  0.7818609E-02  0.8331413E-01
        2   -1    0    0  501    0  0.00000000000E+00  0.00000000000E+00  0.22306899747E+04  0.22306899747E+04  0.25500000920E-02 0. -1.
       -2   -1    0    0    0  501  0.00000000000E+00  0.00000000000E+00 -0.82374146594E+03  0.82374146595E+03  0.25500000920E-02 0.  1.
    10030    2    1    2    0    0  0.00000000000E+00  0.00000000000E+00  0.14069485087E+04  0.30544314406E+04  0.27110970693E+04 0.  0.
        1    1    3    3  502    0  0.46258934851E+02 -0.13547257845E+04  0.71416187572E+03  0.15321387095E+04  0.50400001928E-02 0. -1.
       -1    1    3    3    0  502 -0.46258934851E+02  0.13547257845E+04  0.69278663300E+03  0.15222927311E+04  0.50400001928E-02 0.  1.
</event>
<event>
 5   0  0.8407622E-06  0.2694194E+04  0.7818609E-02  0.8336891E-01
       -2   -1    0    0    0  501  0.00000000000E+00  0.00000000000E+00  0.18117645206E+04  0.18117645206E+04  0.25500000920E-02 0.  1.
        2   -1    0    0  501    0  0.00000000000E+00  0.00000000000E+00 -0.10016038282E+04  0.10016038282E+04  0.25500000920E-02 0. -1.
    10030    2    1    2    0    0  0.00000000000E+00  0.00000000000E+00  0.81016069237E+03  0.28133683488E+04  0.26941939646E+04 0.  0.
        1    1    3    3  502    0  0.35220421558E+03 -0.12572517078E+04  0.58840683383E+02  0.13069781530E+04  0.50400001928E-02 0. -1.
       -1    1    3    3    0  502 -0.35220421558E+03  0.12572517078E+04  0.75132000899E+03  0.15063901959E+04  0.50400001928E-02 0.  1.
</event>
<event>
 5   0  0.3013407E-06  0.2686678E+04  0.7818609E-02  0.8339341E-01
       -1   -1    0    0    0  501  0.00000000000E+00  0.00000000000E+00  0.13846157751E+04  0.13846157752E+04  0.50400001928E-02 0.  1.
        1   -1    0    0  501    0  0.00000000000E+00  0.00000000000E+00 -0.13032925674E+04  0.13032925674E+04  0.50400001928E-02 0. -1.
    10030    2    1    2    0    0  0.00000000000E+00  0.00000000000E+00  0.81323207729E+02  0.26879083426E+04  0.26866778359E+04 0.  0.
        4    1    3    3  502    0 -0.20108648264E+03  0.73504362798E+03  0.11474381044E+04  0.13774399170E+04  0.12699999809E+01 0.  1.
       -4    1    3    3    0  502  0.20108648264E+03 -0.73504362798E+03 -0.10661148967E+04  0.13104684256E+04  0.12699999809E+01 0. -1.
</event>
<event>
 5   0  0.7729970E-06  0.2702254E+04  0.7818609E-02  0.8334274E-01
       -2   -1    0    0    0  501  0.00000000000E+00  0.00000000000E+00  0.16651776483E+04  0.16651776483E+04  0.25500000920E-02 0. -1.
        2   -1    0    0  501    0  0.00000000000E+00  0.00000000000E+00 -0.10963061548E+04  0.10963061548E+04  0.25500000920E-02 0.  1.
    10030    2    1    2    0    0  0.00000000000E+00  0.00000000000E+00  0.56887149342E+03  0.27614838031E+04  0.27022542476E+04 0.  0.
        4    1    3    3  502    0 -0.68345101728E+03  0.11449488525E+03  0.14697417026E+04  0.16249174309E+04  0.12699999809E+01 0. -1.
       -4    1    3    3    0  502  0.68345101728E+03 -0.11449488525E+03 -0.90087020921E+03  0.11365663722E+04  0.12699999809E+01 0.  1.
</event>
<event>
 5   0  0.7729970E-06  0.2693093E+04  0.7818609E-02  0.8337250E-01
       -2   -1    0    0    0  501  0.00000000000E+00  0.00000000000E+00  0.10275188244E+04  0.10275188244E+04  0.25500000920E-02 0. -1.
        2   -1    0    0  501    0  0.00000000000E+00  0.00000000000E+00 -0.17646264269E+04  0.17646264269E+04  0.25500000920E-02 0.  1.
    10030    2    1    2    0    0  0.00000000000E+00  0.00000000000E+00 -0.73710760253E+03  0.27921452512E+04  0.26930925506E+04 0.  0.
        4    1    3    3  502    0  0.20294452965E+03  0.14208860110E+03  0.10036865326E+04  0.10338103894E+04  0.12699999809E+01 0. -1.
       -4    1    3    3    0  502 -0.20294452965E+03 -0.14208860110E+03 -0.17407941351E+04  0.17583348618E+04  0.12699999809E+01 0.  1.
</event>
<event>
 5   0  0.3046300E-06  0.2701374E+04  0.7818609E-02  0.8334559E-01
       -1   -1    0    0    0  501  0.00000000000E+00  0.00000000000E+00  0.66981726971E+03  0.66981726973E+03  0.50400001928E-02 0. -1.
        1   -1    0    0  501    0  0.00000000000E+00  0.00000000000E+00 -0.27236611381E+04  0.27236611381E+04  0.50400001928E-02 0.  1.
    10030    2    1    2    0    0  0.00000000000E+00  0.00000000000E+00 -0.20538438684E+04  0.33934784078E+04  0.27013739224E+04 0.  0.
        2    1    3    3  502    0 -0.19352484994E+03  0.48224323953E+03 -0.25930745400E+04  0.26446258676E+04  0.25500000920E-02 0.  1.
       -2    1    3    3    0  502  0.19352484994E+03 -0.48224323953E+03  0.53923067168E+03  0.74885254016E+03  0.25500000920E-02 0. -1.
</event>
<event>
 5   0  0.7729970E-06  0.2696641E+04  0.7818609E-02  0.8336096E-01
       -2   -1    0    0    0  501  0.00000000000E+00  0.00000000000E+00  0.11774288609E+04  0.11774288609E+04  0.25500000920E-02 0.  1.
        2   -1    0    0  501    0  0.00000000000E+00  0.00000000000E+00 -0.15440151740E+04  0.15440151740E+04  0.25500000920E-02 0. -1.
    10030    2    1    2    0    0  0.00000000000E+00  0.00000000000E+00 -0.36658631313E+03  0.27214440349E+04  0.26966408938E+04 0.  0.
        4    1    3    3  502    0 -0.65658368447E+03  0.73581295063E+03 -0.11112304030E+04  0.14857178247E+04  0.12699999809E+01 0. -1.
       -4    1    3    3    0  502  0.65658368447E+03 -0.73581295063E+03  0.74464408991E+03  0.12357262102E+04  0.12699999809E+01 0.  1.
</event>
<event>
 5   0  0.3089218E-06  0.2719637E+04  0.7818609E-02  0.8328662E-01
       -1   -1    0    0    0  501  0.00000000000E+00  0.00000000000E+00  0.11522807540E+04  0.11522807540E+04  0.50400001928E-02 0.  1.
        1   -1    0    0  501    0  0.00000000000E+00  0.00000000000E+00 -0.16047356544E+04  0.16047356544E+04  0.50400001928E-02 0. -1.
    10030    2    1    2    0    0  0.00000000000E+00  0.00000000000E+00 -0.45245490040E+03  0.27570164085E+04  0.27196367477E+04 0.  0.
        5    1    3    3  502    0 -0.10585883682E+04  0.16691983282E+03 -0.10747577330E+04  0.15177607975E+04  0.46999998093E+01 0. -1.
       -5    1    3    3    0  502  0.10585883682E+04 -0.16691983282E+03  0.62230283262E+03  0.12392556110E+04  0.46999998093E+01 0.  1.
</event>
<event>
 5   0  0.3089218E-06  0.2515363E+04  0.7818609E-02  0.8397533E-01
        1   -1    0    0  501    0  0.00000000000E+00  0.00000000000E+00  0.11844595381E+04  0.11844595381E+04  0.50400001928E-02 0.  1.
       -1   -1    0    0    0  501  0.00000000000E+00  0.00000000000E+00 -0.13354297851E+04  0.13354297852E+04  0.50400001928E-02 0. -1.
    10030    2    1    2    0    0  0.00000000000E+00  0.00000000000E+00 -0.15097024709E+03  0.25198893232E+04  0.25153628338E+04 0.  0.
        5    1    3    3  502    0  0.16273471255E+03  0.13839205708E+03 -0.13171127011E+04  0.13343323819E+04  0.46999998093E+01 0. -1.
       -5    1    3    3    0  502 -0.16273471255E+03 -0.13839205708E+03  0.11661424540E+04  0.11855569413E+04  0.46999998093E+01 0.  1.
</event>
<event>
 5   0  0.3089218E-06  0.2725341E+04  0.7818609E-02  0.8326829E-01
        1   -1    0    0  501    0  0.00000000000E+00  0.00000000000E+00  0.18057974107E+04  0.18057974107E+04  0.50400001928E-02 0.  1.
       -1   -1    0    0    0  501  0.00000000000E+00  0.00000000000E+00 -0.10282829857E+04  0.10282829857E+04  0.50400001928E-02 0. -1.
    10030    2    1    2    0    0  0.00000000000E+00  0.00000000000E+00  0.77751442503E+03  0.28340803964E+04  0.27253408983E+04 0.  0.
        5    1    3    3  502    0 -0.51115010161E+03 -0.11839873675E+04  0.84648798991E+03  0.15426161284E+04  0.46999998093E+01 0.  1.
       -5    1    3    3    0  502  0.51115010161E+03  0.11839873675E+04 -0.68973564889E+02  0.12914642679E+04  0.46999998093E+01 0. -1.
</event>
<event>
 5   0  0.3046300E-06  0.2643825E+04  0.7818609E-02  0.8353465E-01
        1   -1    0    0  501    0  0.00000000000E+00  0.00000000000E+00  0.19091229134E+04  0.19091229134E+04  0.50400001928E-02 0. -1.
       -1   -1    0    0    0  501  0.00000000000E+00  0.00000000000E+00 -0.91531718731E+03  0.91531718733E+03  0.50400001928E-02 0.  1.
    10030    2    1    2    0    0  0.00000000000E+00  0.00000000000E+00  0.99380572609E+03  0.28244401007E+04  0.26438252706E+04 0.  0.
        2    1    3    3  502    0  0.88112799836E+02 -0.56814100661E+03 -0.77475411193E+03  0.96477562305E+03  0.25500000920E-02 0.  1.
       -2    1    3    3    0  502 -0.88112799836E+02  0.56814100661E+03  0.17685598380E+04  0.18596644777E+04  0.25500000920E-02 0. -1.
</event>
<event>
 5   0  0.8213334E-06  0.2683486E+04  0.7818609E-02  0.8340383E-01
       -2   -1    0    0    0  501  0.00000000000E+00  0.00000000000E+00  0.16363705207E+04  0.16363705207E+04  0.25500000920E-02 0. -1.
        2   -1    0    0  501    0  0.00000000000E+00  0.00000000000E+00 -0.11001631608E+04  0.11001631608E+04  0.25500000920E-02 0.  1.
    10030    2    1    2    0    0  0.00000000000E+00  0.00000000000E+00  0.53620735996E+03  0.27365336815E+04  0.26834862133E+04 0.  0.
        3    1    3    3  502    0 -0.12393302904E+03 -0.11947798586E+04  0.87776490599E+03  0.14877263010E+04  0.10100000352E+00 0. -1.
       -3    1    3    3    0  502  0.12393302904E+03  0.11947798586E+04 -0.34155754603E+03  0.12488073805E+04  0.10100000352E+00 0.  1.
</event>
<event>
 5   0  0.7812908E-06  0.2707900E+04  0.7818609E-02  0.8332446E-01
        2   -1    0    0  501    0  0.00000000000E+00  0.00000000000E+00  0.24076912282E+04  0.24076912282E+04  0.25500000920E-02 0. -1.
       -2   -1    0    0    0  501  0.00000000000E+00  0.00000000000E+00 -0.76138535668E+03  0.76138535669E+03  0.25500000920E-02 0.  1.
    10030    2    1    2    0    0  0.00000000000E+00  0.00000000000E+00  0.16463058715E+04  0.31690765849E+04  0.27079001788E+04 0.  0.
        5    1    3    3  502    0 -0.67371735856E+03 -0.86069786160E+03  0.17582741409E+04  0.20703250790E+04  0.46999998093E+01 0. -1.
       -5    1    3    3    0  502  0.67371735856E+03  0.86069786160E+03 -0.11196826945E+03  0.10987515058E+04  0.46999998093E+01 0.  1.
</event>
<event>
 5   0  0.7838364E-06  0.2719244E+04  0.7818609E-02  0.8328788E-01
        2   -1    0    0  501    0  0.00000000000E+00  0.00000000000E+00  0.14922845045E+04  0.14922845045E+04  0.25500000920E-02 0. -1.
       -2   -1    0    0    0  501  0.00000000000E+00  0.00000000000E+00 -0.12387528156E+04  0.12387528156E+04  0.25500000920E-02 0.  1.
    10030    2    1    2    0    0  0.00000000000E+00  0.00000000000E+00  0.25353168894E+03  0.27310373201E+04  0.27192437417E+04 0.  0.
        2    1    3    3  502    0  0.34633362947E+03  0.71377273972E+02  0.14452924953E+04  0.14879220730E+04  0.25500000920E-02 0. -1.
       -2    1    3    3    0  502 -0.34633362947E+03 -0.71377273972E+02 -0.11917608064E+04  0.12431152472E+04  0.25500000920E-02 0.  1.
</event>
<event>
 5   0  0.3013407E-06  0.2685999E+04  0.7818609E-02  0.8339562E-01
        1   -1    0    0  501    0  0.00000000000E+00  0.00000000000E+00  0.15886183931E+04  0.15886183931E+04  0.50400001928E-02 0.  1.
       -1   -1    0    0    0  501  0.00000000000E+00  0.00000000000E+00 -0.11353559132E+04  0.11353559132E+04  0.50400001928E-02 0. -1.
    10030    2    1    2    0    0  0.00000000000E+00  0.00000000000E+00  0.45326247988E+03  0.27239743064E+04  0.26859987241E+04 0.  0.
        4    1    3    3  502    0  0.36239084657E+03 -0.12449181860E+04  0.58157568885E+03  0.14210490176E+04  0.12699999809E+01 0.  1.
       -4    1    3    3    0  502 -0.36239084657E+03  0.12449181860E+04 -0.12831320897E+03  0.13029252888E+04  0.12699999809E+01 0. -1.
</event>
<event>
 5   0  0.8407622E-06  0.2718646E+04  0.7818609E-02  0.8328980E-01
        2   -1    0    0  501    0  0.00000000000E+00  0.00000000000E+00  0.14898514264E+04  0.14898514264E+04  0.25500000920E-02 0. -1.
       -2   -1    0    0    0  501  0.00000000000E+00  0.00000000000E+00 -0.12402299621E+04  0.12402299621E+04  0.25500000920E-02 0.  1.
    10030    2    1    2    0    0  0.00000000000E+00  0.00000000000E+00  0.24962146429E+03  0.27300813884E+04  0.27186455289E+04 0.  0.
        1    1    3    3  502    0 -0.65547701981E+03 -0.65431963471E+03  0.11239704538E+04  0.14563975724E+04  0.50400001928E-02 0. -1.
       -1    1    3    3    0  502  0.65547701981E+03  0.65431963471E+03 -0.87434898948E+03  0.12736838161E+04  0.50400001928E-02 0.  1.
</event>
<event>
 5   0  0.3046300E-06  0.2729569E+04  0.7818609E-02  0.8325474E-01
       -1   -1    0    0    0  501  0.00000000000E+00  0.00000000000E+00  0.11944201743E+04  0.11944201743E+04  0.50400001928E-02 0.  1.
        1   -1    0    0  501    0  0.00000000000E+00  0.00000000000E+00 -0.15594486834E+04  0.15594486834E+04  0.50400001928E-02 0. -1.
    10030    2    1    2    0    0  0.00000000000E+00  0.00000000000E+00 -0.36502850915E+03  0.27538688577E+04  0.27295691735E+04 0.  0.
        2    1    3    3  502    0 -0.13010700169E+04 -0.13572303771E+03 -0.57512254425E+03  0.14289751127E+04  0.25500000920E-02 0.  1.
       -2    1    3    3    0  502  0.13010700169E+04  0.13572303771E+03  0.21009403510E+03  0.13248937450E+04  0.25500000920E-02 0. -1.
</event>
<event>
 5   0  0.3199840E-06  0.2727921E+04  0.7818609E-02  0.8326002E-01
        1   -1    0    0  501    0  0.00000000000E+00  0.00000000000E+00  0.15928087748E+04  0.15928087748E+04  0.50400001928E-02 0.  1.
       -1   -1    0    0    0  501  0.00000000000E+00  0.00000000000E+00 -0.11679925647E+04  0.11679925647E+04  0.50400001928E-02 0. -1.
    10030    2    1    2    0    0  0.00000000000E+00  0.00000000000E+00  0.42481621016E+03  0.27608013395E+04  0.27279214109E+04 0.  0.
        1    1    3    3  502    0  0.38172354275E+03  0.10480324258E+04 -0.58210449262E+03  0.12581456470E+04  0.50400001928E-02 0. -1.
       -1    1    3    3    0  502 -0.38172354275E+03 -0.10480324258E+04  0.10069207028E+04  0.15026556925E+04  0.50400001928E-02 0.  1.
</event>
<event>
 5   0  0.3028601E-06  0.2715281E+04  0.7818609E-02  0.8330064E-01
        1   -1    0    0  501    0  0.00000000000E+00  0.00000000000E+00  0.14109439604E+04  0.14109439604E+04  0.50400001928E-02 0. -1.
       -1   -1    0    0    0  501  0.00000000000E+00  0.00000000000E+00 -0.13063508461E+04  0.13063508461E+04  0.50400001928E-02 0.  1.
    10030    2    1    2    0    0  0.00000000000E+00  0.00000000000E+00  0.10459311432E+03  0.27172948066E+04  0.27152810805E+04 0.  0.
        3    1    3    3  502    0  0.37130415526E+03 -0.12394849298E+04  0.46369529279E+03  0.13744828124E+04  0.10100000352E+00 0. -1.
       -3    1    3    3    0  502 -0.37130415526E+03  0.12394849298E+04 -0.35910217847E+03  0.13428119942E+04  0.10100000352E+00 0.  1.
</event>
<event>
 5   0  0.3046300E-06  0.2745229E+04  0.7818609E-02  0.8320477E-01
       -1   -1    0    0    0  501  0.00000000000E+00  0.00000000000E+00  0.75034943058E+03  0.75034943060E+03  0.50400001928E-02 0. -1.
        1   -1    0    0  501    0  0.00000000000E+00  0.00000000000E+00 -0.25109245150E+04  0.25109245150E+04  0.50400001928E-02 0.  1.
    10030    2    1    2    0    0  0.00000000000E+00  0.00000000000E+00 -0.17605750845E+04  0.32612739456E+04  0.27452291563E+04 0.  0.
        2    1    3    3  502    0  0.76136616245E+03 -0.10187114125E+04 -0.14937027736E+04  0.19617847362E+04  0.25500000920E-02 0.  1.
       -2    1    3    3    0  502 -0.76136616245E+03  0.10187114125E+04 -0.26687231089E+03  0.12994892095E+04  0.25500000920E-02 0. -1.
</event>
<event>
 5   0  0.3028601E-06  0.2685349E+04  0.7818609E-02  0.8339774E-01
        1   -1    0    0  501    0  0.00000000000E+00  0.00000000000E+00  0.21252655339E+04  0.21252655339E+04  0.50400001928E-02 0. -1.
       -1   -1    0    0    0  501  0.00000000000E+00  0.00000000000E+00 -0.84825859829E+03  0.84825859830E+03  0.50400001928E-02 0.  1.
    10030    2    1    2    0    0  0.00000000000E+00  0.00000000000E+00  0.12770069356E+04  0.29735241322E+04  0.26853489627E+04 0.  0.
        3    1    3    3  502    0 -0.27965181143E+02 -0.87627786823E+02  0.21217726330E+04  0.21237654759E+04  0.10100000352E+00 0. -1.
       -3    1    3    3    0  502  0.27965181143E+02  0.87627786823E+02 -0.84476569735E+03  0.84975865632E+03  0.10100000352E+00 0.  1.
</event>
<event>
 5   0  0.3199840E-06  0.2709972E+04  0.7818609E-02  0.8331777E-01
       -1   -1    0    0    0  501  0.00000000000E+00  0.00000000000E+00  0.11737946612E+04  0.11737946612E+04  0.50400001928E-02 0. -1.
        1   -1    0    0  501    0  0.00000000000E+00  0.00000000000E+00 -0.15641465660E+04  0.15641465660E+04  0.50400001928E-02 0.  1.
    10030    2    1    2    0    0  0.00000000000E+00  0.00000000000E+00 -0.39035190481E+03  0.27379412271E+04  0.27099718732E+04 0.  0.
        1    1    3    3  502    0  0.24176738494E+03  0.98295886806E+02  0.11481608441E+04  0.11774493084E+04  0.50400001928E-02 0. -1.
       -1    1    3    3    0  502 -0.24176738494E+03 -0.98295886806E+02 -0.15385127490E+04  0.15604919188E+04  0.50400001928E-02 0.  1.
</event>
<event>
 5   0  0.3046300E-06  0.2700636E+04  0.7818609E-02  0.8334799E-01
        1   -1    0    0  501    0  0.00000000000E+00  0.00000000000E+00  0.12513277483E+04  0.12513277484E+04  0.50400001928E-02 0.  1.
       -1   -1    0    0    0  501  0.00000000000E+00  0.00000000000E+00 -0.14571394609E+04  0.14571394609E+04  0.50400001928E-02 0. -1.
    10030    2    1    2    0    0  0.00000000000E+00  0.00000000000E+00 -0.20581171253E+03  0.27084672092E+04  0.27006362514E+04 0.  0.
        2    1    3    3  502    0  0.57145422695E+03 -0.75285620040E+03 -0.10700707314E+04  0.14277267813E+04  0.25500000920E-02 0. -1.
       -2    1    3    3    0  502 -0.57145422695E+03  0.75285620040E+03  0.86425901885E+03  0.12807404279E+04  0.25500000920E-02 0.  1.
</event>
<event>
 5   0  0.7838364E-06  0.2706985E+04  0.7818609E-02  0.8332742E-01
       -2   -1    0    0    0  501  0.00000000000E+00  0.00000000000E+00  0.13443444927E+04  0.13443444927E+04  0.25500000920E-02 0.  1.
        2   -1    0    0  501    0  0.00000000000E+00  0.00000000000E+00 -0.13627029954E+04  0.13627029954E+04  0.25500000920E-02 0. -1.
    10030    2    1    2    0    0  0.00000000000E+00  0.00000000000E+00 -0.18358502697E+02  0.27070474881E+04  0.27069852360E+04 0.  0.
        2    1    3    3  502    0 -0.56860251734E+03  0.12082396251E+04 -0.23006994087E+03  0.13550217681E+04  0.25500000920E-02 0. -1.
       -2    1    3    3    0  502  0.56860251734E+03 -0.12082396251E+04  0.21171143817E+03  0.13520257200E+04  0.25500000920E-02 0.  1.
</event>
<event>
 5   0  0.3046300E-06  0.2678026E+04  0.7818609E-02  0.8342170E-01
        1   -1    0    0  501    0  0.00000000000E+00  0.00000000000E+00  0.19495880885E+04  0.19495880885E+04  0.50400001928E-02 0. -1.
       -1   -1    0    0    0  501  0.00000000000E+00  0.00000000000E+00 -0.91965899573E+03  0.91965899574E+03  0.50400001928E-02 0.  1.
    10030    2    1    2    0    0  0.00000000000E+00  0.00000000000E+00  0.10299290928E+04  0.28692470843E+04  0.26780263058E+04 0.  0.
        2    1    3    3  502    0 -0.76291773764E+03  0.87131778159E+03 -0.20512555919E+03  0.11761439733E+04  0.25500000920E-02 0.  1.
       -2    1    3    3    0  502  0.76291773764E+03 -0.87131778159E+03  0.12350546520E+04  0.16931031110E+04  0.25500000920E-02 0. -1.
</event>
<event>
 5   0  0.3089218E-06  0.2594103E+04  0.7818609E-02  0.8370207E-01
        1   -1    0    0  501    0  0.00000000000E+00  0.00000000000E+00  0.14434304984E+04  0.14434304984E+04  0.50400001928E-02 0.  1.
       -1   -1    0    0    0  501  0.00000000000E+00  0.00000000000E+00 -0.11655168583E+04  0.11655168583E+04  0.50400001928E-02 0. -1.
    10030    2    1    2    0    0  0.00000000000E+00  0.00000000000E+00  0.27791364008E+03  0.26089473567E+04  0.25941029892E+04 0.  0.
        5    1    3    3  502    0 -0.11403602083E+03 -0.40200488513E+03  0.13738709833E+04  0.14360207904E+04  0.46999998093E+01 0.  1.
       -5    1    3    3    0  502  0.11403602083E+03  0.40200488513E+03 -0.10959573432E+04  0.11729265663E+04  0.46999998093E+01 0. -1.
</event>
<event>
 5   0  0.2654625E-06  0.2677909E+04  0.7818609E-02  0.8342208E-01
       -3   -1    0    0    0  501  0.00000000000E+00  0.00000000000E+00  0.74649001626E+03  0.74649002309E+03  0.10100000352E+00 0. -1.
        3   -1    0    0  501    0  0.00000000000E+00  0.00000000000E+00 -0.24016387489E+04  0.24016387510E+04  0.10100000352E+00 0.  1.
    10030    2    1    2    0    0  0.00000000000E+00  0.00000000000E+00 -0.16551487326E+04  0.31481287741E+04  0.26779091566E+04 0.  0.
        5    1    3    3  502    0  0.10998418603E+04  0.20245567828E+03  0.38013408412E+02  0.11189761073E+04  0.46999998093E+01 0. -1.
       -5    1    3    3    0  502 -0.10998418603E+04 -0.20245567828E+03 -0.16931621411E+04  0.20291526668E+04  0.46999998093E+01 0.  1.
</event>
<event>
 5   0  0.8213334E-06  0.2695889E+04  0.7818609E-02  0.8336340E-01
       -2   -1    0    0    0  501  0.00000000000E+00  0.00000000000E+00  0.74924903905E+03  0.74924903905E+03  0.25500000920E-02 0.  1.
        2   -1    0    0  501    0  0.00000000000E+00  0.00000000000E+00 -0.24250335033E+04  0.24250335033E+04  0.25500000920E-02 0. -1.
    10030    2    1    2    0    0  0.00000000000E+00  0.00000000000E+00 -0.16757844643E+04  0.31742825424E+04  0.26958887381E+04 0.  0.
        3    1    3    3  502    0  0.19179494426E+03  0.11050602093E+04 -0.17182387590E+04  0.20518985867E+04  0.10100000352E+00 0. -1.
       -3    1    3    3    0  502 -0.19179494426E+03 -0.11050602093E+04  0.42454294720E+02  0.11223839557E+04  0.10100000352E+00 0.  1.
</event>
<event>
 5   0  0.8213334E-06  0.2694523E+04  0.7818609E-02  0.8336784E-01
       -2   -1    0    0    0  501  0.00000000000E+00  0.00000000000E+00  0.63658095123E+03  0.63658095123E+03  0.25500000920E-02 0.  1.
        2   -1    0    0  501    0  0.00000000000E+00  0.00000000000E+00 -0.28513469575E+04  0.28513469575E+04  0.25500000920E-02 0. -1.
    10030    2    1    2    0    0  0.00000000000E+00  0.00000000000E+00 -0.22147660063E+04  0.34879279088E+04  0.26945227099E+04 0.  0.
        3    1    3    3  502    0  0.87035952098E+03 -0.84829224612E+03 -0.18599343044E+04  0.22218193125E+04  0.10100000352E+00 0.  1.
       -3    1    3    3    0  502 -0.87035952098E+03  0.84829224612E+03 -0.35483170187E+03  0.12661085962E+04  0.10100000352E+00 0. -1.
</event>
<event>
 5   0  0.7729970E-06  0.2739997E+04  0.7818609E-02  0.8322143E-01
        2   -1    0    0  501    0  0.00000000000E+00  0.00000000000E+00  0.22761120025E+04  0.22761120025E+04  0.25500000920E-02 0. -1.
       -2   -1    0    0    0  501  0.00000000000E+00  0.00000000000E+00 -0.82460595775E+03  0.82460595775E+03  0.25500000920E-02 0.  1.
    10030    2    1    2    0    0  0.00000000000E+00  0.00000000000E+00  0.14515060448E+04  0.31007179603E+04  0.27399967283E+04 0.  0.
        4    1    3    3  502    0  0.20301135737E+03  0.60671753648E+03 -0.64516739194E+03  0.90860462073E+03  0.12699999809E+01 0.  1.
       -4    1    3    3    0  502 -0.20301135737E+03 -0.60671753648E+03  0.20966734367E+04  0.21921133396E+04  0.12699999809E+01 0. -1.
</event>
<event>
 5   0  0.8213334E-06  0.2714150E+04  0.7818609E-02  0.8330428E-01
        2   -1    0    0  501    0  0.00000000000E+00  0.00000000000E+00  0.15416227282E+04  0.15416227282E+04  0.25500000920E-02 0. -1.
       -2   -1    0    0    0  501  0.00000000000E+00  0.00000000000E+00 -0.11946192404E+04  0.11946192404E+04  0.25500000920E-02 0.  1.
    10030    2    1    2    0    0  0.00000000000E+00  0.00000000000E+00  0.34700348774E+03  0.27362419686E+04  0.27141497177E+04 0.  0.
        3    1    3    3  502    0 -0.11981441756E+04 -0.28319829633E+03  0.74902625814E+03  0.14411075900E+04  0.10100000352E+00 0. -1.
       -3    1    3    3    0  502  0.11981441756E+04  0.28319829633E+03 -0.40202277040E+03  0.12951343786E+04  0.10100000352E+00 0.  1.
</event>
<event>
 5   0  0.8407622E-06  0.2704990E+04  0.7818609E-02  0.8333388E-01
        2   -1    0    0  501    0  0.00000000000E+00  0.00000000000E+00  0.12329079468E+04  0.12329079468E+04  0.25500000920E-02 0. -1.
       -2   -1    0    0    0  501  0.00000000000E+00  0.00000000000E+00 -0.14836810428E+04  0.14836810428E+04  0.25500000920E-02 0.  1.
    10030    2    1    2    0    0  0.00000000000E+00  0.00000000000E+00 -0.25077309603E+03  0.27165889897E+04  0.27049895735E+04 0.  0.
        1    1    3    3  502    0  0.37813073546E+03  0.98063201583E+03 -0.98028305461E+03  0.14372114913E+04  0.50400001928E-02 0.  1.
       -1    1    3    3    0  502 -0.37813073546E+03 -0.98063201583E+03  0.72950995858E+03  0.12793774983E+04  0.50400001928E-02 0. -1.
</event>
<event>
 5   0  0.7812908E-06  0.2694831E+04  0.7818609E-02  0.8336684E-01
       -2   -1    0    0    0  501  0.00000000000E+00  0.00000000000E+00  0.14450128215E+04  0.14450128216E+04  0.25500000920E-02 0.  1.
        2   -1    0    0  501    0  0.00000000000E+00  0.00000000000E+00 -0.12564102211E+04  0.12564102211E+04  0.25500000920E-02 0. -1.
    10030    2    1    2    0    0  0.00000000000E+00  0.00000000000E+00  0.18860260048E+03  0.27014230426E+04  0.26948312590E+04 0.  0.
        5    1    3    3  502    0 -0.12393515648E+04 -0.39188083222E+03  0.45005513788E+03  0.13755488377E+04  0.46999998093E+01 0.  1.
       -5    1    3    3    0  502  0.12393515648E+04  0.39188083222E+03 -0.26145253740E+03  0.13258742049E+04  0.46999998093E+01 0. -1.
</event>
<event>
 5   0  0.7812908E-06  0.2701465E+04  0.7818609E-02  0.8334530E-01
       -2   -1    0    0    0  501  0.00000000000E+00  0.00000000000E+00  0.87438799624E+03  0.87438799624E+03  0.25500000920E-02 0.  1.
        2   -1    0    0  501    0  0.00000000000E+00  0.00000000000E+00 -0.20865771785E+04  0.20865771785E+04  0.25500000920E-02 0. -1.
    10030    2    1    2    0    0  0.00000000000E+00  0.00000000000E+00 -0.12121891822E+04  0.29609651747E+04  0.27014648161E+04 0.  0.
        5    1    3    3  502    0 -0.88904688649E+03  0.66660654169E+03  0.23558126850E+03  0.11359090069E+04  0.46999998093E+01 0.  1.
       -5    1    3    3    0  502  0.88904688649E+03 -0.66660654169E+03 -0.14477704507E+04  0.18250561679E+04  0.46999998093E+01 0. -1.
</event>
<event>
 5   0  0.3028601E-06  0.2717040E+04  0.7818609E-02  0.8329497E-01
       -1   -1    0    0    0  501  0.00000000000E+00  0.00000000000E+00  0.98930931121E+03  0.98930931123E+03  0.50400001928E-02 0. -1.
        1   -1    0    0  501    0  0.00000000000E+00  0.00000000000E+00 -0.18655197655E+04  0.18655197655E+04  0.50400001928E-02 0.  1.
    10030    2    1    2    0    0  0.00000000000E+00  0.00000000000E+00 -0.87621045425E+03  0.28548290767E+04  0.27170396201E+04 0.  0.
        3    1    3    3  502    0 -0.61532686287E+03 -0.50076969122E+03  0.72062630240E+03  0.10717740945E+04  0.10100000352E+00 0. -1.
       -3    1    3    3    0  502  0.61532686287E+03  0.50076969122E+03 -0.15968367566E+04  0.17830549822E+04  0.10100000352E+00 0.  1.
</event>
<event>
 5   0  0.3199840E-06  0.2688815E+04  0.7818609E-02  0.8338643E-01
        1   -1    0    0  501    0  0.00000000000E+00  0.00000000000E+00  0.25578345701E+04  0.25578345701E+04  0.50400001928E-02 0.  1.
       -1   -1    0    0    0  501  0.00000000000E+00  0.00000000000E+00 -0.70662561097E+03  0.70662561099E+03  0.50400001928E-02 0. -1.
    10030    2    1    2    0    0  0.00000000000E+00  0.00000000000E+00  0.18512089591E+04  0.32644601811E+04  0.26888149181E+04 0.  0.
        1    1    3    3  502    0  0.65423981082E+03  0.11506469942E+04  0.63980791418E+03  0.14701606723E+04  0.50400001928E-02 0. -1.
       -1    1    3    3    0  502 -0.65423981082E+03 -0.11506469942E+04  0.12114010450E+04  0.17942995088E+04  0.50400001928E-02 0.  1.
</event>
<event>
 5   0  0.3028601E-06  0.2705911E+04  0.7818609E-02  0.8333090E-01
       -1   -1    0    0    0  501  0.00000000000E+00  0.00000000000E+00  0.96429273345E+03  0.96429273346E+03  0.50400001928E-02 0.  1.
        1   -1    0    0  501    0  0.00000000000E+00  0.00000000000E+00 -0.18982701934E+04  0.18982701934E+04  0.50400001928E-02 0. -1.
    10030    2    1    2    0    0  0.00000000000E+00  0.00000000000E+00 -0.93397745990E+03  0.28625629268E+04  0.27059106812E+04 0.  0.
        3    1    3    3  502    0  0.46646881352E+03  0.39039113691E+03 -0.17454596147E+04  0.18484122026E+04  0.10100000352E+00 0. -1.
       -3    1    3    3    0  502 -0.46646881352E+03 -0.39039113691E+03  0.81148215481E+03  0.10141507243E+04  0.10100000352E+00 0.  1.
</event>
<event>
 5   0  0.3199840E-06  0.2696165E+04  0.7818609E-02  0.8336250E-01
        1   -1    0    0  501    0  0.00000000000E+00  0.00000000000E+00  0.59246294371E+03  0.59246294373E+03  0.50400001928E-02 0. -1.
       -1   -1    0    0    0  501  0.00000000000E+00  0.00000000000E+00 -0.30674089270E+04  0.30674089270E+04  0.50400001928E-02 0.  1.
    10030    2    1    2    0    0  0.00000000000E+00  0.00000000000E+00 -0.24749459833E+04  0.36598718707E+04  0.26961647743E+04 0.  0.
        1    1    3    3  502    0  0.18189752933E+03  0.60224662922E+03 -0.28559209918E+04  0.29243926591E+04  0.50400001928E-02 0.  1.
       -1    1    3    3    0  502 -0.18189752933E+03 -0.60224662922E+03  0.38097500848E+03  0.73547921160E+03  0.50400001928E-02 0. -1.
</event>
<event>
 5   0  0.3013407E-06  0.2711906E+04  0.7818609E-02  0.8331152E-01
       -1   -1    0    0    0  501  0.00000000000E+00  0.00000000000E+00  0.14379694057E+04  0.14379694057E+04  0.50400001928E-02 0. -1.
        1   -1    0    0  501    0  0.00000000000E+00  0.00000000000E+00 -0.12786146172E+04  0.12786146172E+04  0.50400001928E-02 0.  1.
    10030    2    1    2    0    0  0.00000000000E+00  0.00000000000E+00  0.15935478855E+03  0.27165840229E+04  0.27119061203E+04 0.  0.
        4    1    3    3  502    0  0.88861655022E+03 -0.45592951383E+03 -0.83901743717E+03  0.13044013829E+04  0.12699999809E+01 0.  1.
       -4    1    3    3    0  502 -0.88861655022E+03  0.45592951383E+03  0.99837222571E+03  0.14121826401E+04  0.12699999809E+01 0. -1.
</event>
<event>
 5   0  0.7729970E-06  0.2729625E+04  0.7818609E-02  0.8325456E-01
        2   -1    0    0  501    0  0.00000000000E+00  0.00000000000E+00  0.24346837970E+04  0.24346837970E+04  0.25500000920E-02 0.  1.
       -2   -1    0    0    0  501  0.00000000000E+00  0.00000000000E+00 -0.76507375729E+03  0.76507375729E+03  0.25500000920E-02 0. -1.
    10030    2    1    2    0    0  0.00000000000E+00  0.00000000000E+00  0.16696100397E+04  0.31997575543E+04  0.27296246485E+04 0.  0.
        4    1    3    3  502    0 -0.11149361265E+04 -0.13218523513E+03  0.17444428091E+04  0.20745211085E+04  0.12699999809E+01 0.  1.
       -4    1    3    3    0  502  0.11149361265E+04  0.13218523513E+03 -0.74832769377E+02  0.11252364458E+04  0.12699999809E+01 0. -1.
</event>
<event>
 5   0  0.7812908E-06  0.2729754E+04  0.7818609E-02  0.8325415E-01
        2   -1    0    0  501    0  0.00000000000E+00  0.00000000000E+00  0.16071735813E+04  0.16071735813E+04  0.25500000920E-02 0.  1.
       -2   -1    0    0    0  501  0.00000000000E+00  0.00000000000E+00 -0.11591090754E+04  0.11591090754E+04  0.25500000920E-02 0. -1.
    10030    2    1    2    0    0  0.00000000000E+00  0.00000000000E+00  0.44806450583E+03  0.27662826567E+04  0.27297541895E+04 0.  0.
        5    1    3    3  502    0  0.43085349752E+03 -0.21472136304E+03  0.15182786166E+04  0.15927749520E+04  0.46999998093E+01 0.  1.
       -5    1    3    3    0  502 -0.43085349752E+03  0.21472136304E+03 -0.10702141108E+04  0.11735077047E+04  0.46999998093E+01 0. -1.
</event>
<event>
 5   0  0.3199840E-06  0.2707168E+04  0.7818609E-02  0.8332683E-01
        1   -1    0    0  501    0  0.00000000000E+00  0.00000000000E+00  0.24724022279E+04  0.24724022279E+04  0.50400001928E-02 0. -1.
       -1   -1    0    0    0  501  0.00000000000E+00  0.00000000000E+00 -0.74105640559E+03  0.74105640561E+03  0.50400001928E-02 0.  1.
    10030    2    1    2    0    0  0.00000000000E+00  0.00000000000E+00  0.17313458223E+04  0.32134586335E+04  0.27071678989E+04 0.  0.
        1    1    3    3  502    0 -0.69114621766E+03 -0.21652019264E+03 -0.49170006743E+03  0.87540450327E+03  0.50400001928E-02 0.  1.
       -1    1    3    3    0  502  0.69114621766E+03  0.21652019264E+03  0.22230458897E+04  0.23380541302E+04  0.50400001928E-02 0. -1.
</event>
<event>
 5   0  0.8213334E-06  0.2599073E+04  0.7818609E-02  0.8368516E-01
       -2   -1    0    0    0  501  0.00000000000E+00  0.00000000000E+00  0.79253063929E+03  0.79253063930E+03  0.25500000920E-02 0. -1.
        2   -1    0    0  501    0  0.00000000000E+00  0.00000000000E+00 -0.21308890983E+04  0.21308890983E+04  0.25500000920E-02 0.  1.
    10030    2    1    2    0    0  0.00000000000E+00  0.00000000000E+00 -0.13383584590E+04  0.29234197376E+04  0.25990728342E+04 0.  0.
        3    1    3    3  502    0 -0.85718609550E+03 -0.20990934582E+03 -0.17421429999E+04  0.19529188867E+04  0.10100000352E+00 0.  1.
       -3    1    3    3    0  502  0.85718609550E+03  0.20990934582E+03  0.40378454094E+03  0.97050085084E+03  0.10100000352E+00 0. -1.
</event>
<event>
 5   0  0.8407622E-06  0.2708501E+04  0.7818609E-02  0.8332252E-01
       -2   -1    0    0    0  501  0.00000000000E+00  0.00000000000E+00  0.12053758491E+04  0.12053758491E+04  0.25500000920E-02 0. -1.
        2   -1    0    0  501    0  0.00000000000E+00  0.00000000000E+00 -0.15215124835E+04  0.15215124835E+04  0.25500000920E-02 0.  1.
    10030    2    1    2    0    0  0.00000000000E+00  0.00000000000E+00 -0.31613663436E+03  0.27268883327E+04  0.27085009890E+04 0.  0.
        1    1    3    3  502    0  0.14568831969E+03  0.59375967816E+03 -0.13746669304E+04  0.15044882224E+04  0.50400001928E-02 0.  1.
       -1    1    3    3    0  502 -0.14568831969E+03 -0.59375967816E+03  0.10585302960E+04  0.12224001102E+04  0.50400001928E-02 0. -1.
</event>
<event>
 5   0  0.7838364E-06  0.2698089E+04  0.7818609E-02  0.8335625E-01
       -2   -1    0    0    0  501  0.00000000000E+00  0.00000000000E+00  0.11851251327E+04  0.11851251327E+04  0.25500000920E-02 0. -1.
        2   -1    0    0  501    0  0.00000000000E+00  0.00000000000E+00 -0.15356362629E+04  0.15356362629E+04  0.25500000920E-02 0.  1.
    10030    2    1    2    0    0  0.00000000000E+00  0.00000000000E+00 -0.35051113017E+03  0.27207613956E+04  0.26980890495E+04 0.  0.
        2    1    3    3  502    0 -0.88725725465E+03  0.71941450393E+03 -0.89901821510E+03  0.14536218268E+04  0.25500000920E-02 0. -1.
       -2    1    3    3    0  502  0.88725725465E+03 -0.71941450393E+03  0.54850708493E+03  0.12671395687E+04  0.25500000920E-02 0.  1.
</event>
<event>
 5   0  0.3046300E-06  0.2722573E+04  0.7818609E-02  0.8327718E-01
        1   -1    0    0  501    0  0.00000000000E+00  0.00000000000E+00  0.13840988368E+04  0.13840988368E+04  0.50400001928E-02 0.  1.
       -1   -1    0    0    0  501  0.00000000000E+00  0.00000000000E+00 -0.13388502340E+04  0.13388502340E+04  0.50400001928E-02 0. -1.
    10030    2    1    2    0    0  0.00000000000E+00  0.00000000000E+00  0.45248602833E+02  0.27229490708E+04  0.27225730856E+04 0.  0.
        2    1    3    3  502    0 -0.13377497477E+04  0.21297185385E+03 -0.11218917126E+03  0.13592342727E+04  0.25500000920E-02 0. -1.
       -2    1    3    3    0  502  0.13377497477E+04 -0.21297185385E+03  0.15743777409E+03  0.13637147981E+04  0.25500000920E-02 0.  1.
</event>
<event>
 5   0  0.3013407E-06  0.2715017E+04  0.7818609E-02  0.8330149E-01
        1   -1    0    0  501    0  0.00000000000E+00  0.00000000000E+00  0.17653795245E+04  0.17653795245E+04  0.50400001928E-02 0.  1.
       -1   -1    0    0    0  501  0.00000000000E+00  0.00000000000E+00 -0.10438717639E+04  0.10438717639E+04  0.50400001928E-02 0. -1.
    10030    2    1    2    0    0  0.00000000000E+00  0.00000000000E+00  0.72150776063E+03  0.28092512884E+04  0.27150173762E+04 0.  0.
        4    1    3    3  502    0  0.44801287271E+02 -0.73643323098E+03 -0.81830856324E+03  0.11018037832E+04  0.12699999809E+01 0. -1.
       -4    1    3    3    0  502 -0.44801287271E+02  0.73643323098E+03  0.15398163239E+04  0.17074475053E+04  0.12699999809E+01 0.  1.
</event>
<event>
 5   0  0.7812908E-06  0.2743953E+04  0.7818609E-02  0.8320883E-01
       -2   -1    0    0    0  501  0.00000000000E+00  0.00000000000E+00  0.12223071374E+04  0.12223071374E+04  0.25500000920E-02 0.  1.
        2   -1    0    0  501    0  0.00000000000E+00  0.00000000000E+00 -0.15399721957E+04  0.15399721957E+04  0.25500000920E-02 0. -1.
    10030    2    1    2    0    0  0.00000000000E+00  0.00000000000E+00 -0.31766505828E+03  0.27622793331E+04  0.27439526280E+04 0.  0.
        5    1    3    3  502    0 -0.27386620078E+03 -0.46762429859E+03  0.11099910329E+04  0.12352236088E+04  0.46999998093E+01 0.  1.
       -5    1    3    3    0  502  0.27386620078E+03  0.46762429859E+03 -0.14276560912E+04  0.15270557243E+04  0.46999998093E+01 0. -1.
</event>
<event>
 5   0  0.3046300E-06  0.2702272E+04  0.7818609E-02  0.8334268E-01
        1   -1    0    0  501    0  0.00000000000E+00  0.00000000000E+00  0.22914782504E+04  0.22914782504E+04  0.50400001928E-02 0. -1.
       -1   -1    0    0    0  501  0.00000000000E+00  0.00000000000E+00 -0.79667733760E+03  0.79667733762E+03  0.50400001928E-02 0.  1.
    10030    2    1    2    0    0  0.00000000000E+00  0.00000000000E+00  0.14948009128E+04  0.30881555880E+04  0.27022722229E+04 0.  0.
        2    1    3    3  502    0 -0.14188554758E+03  0.70826570795E+03 -0.55749301882E+03  0.91245289616E+03  0.25500000920E-02 0.  1.
       -2    1    3    3    0  502  0.14188554758E+03 -0.70826570795E+03  0.20522939316E+04  0.21757026918E+04  0.25500000920E-02 0. -1.
</event>
<event>
 5   0  0.3089218E-06  0.2701458E+04  0.7818609E-02  0.8334532E-01
        1   -1    0    0  501    0  0.00000000000E+00  0.00000000000E+00  0.19031901863E+04  0.19031901863E+04  0.50400001928E-02 0.  1.
       -1   -1    0    0    0  501  0.00000000000E+00  0.00000000000E+00 -0.95863704249E+03  0.95863704251E+03  0.50400001928E-02 0. -1.
    10030    2    1    2    0    0  0.00000000000E+00  0.00000000000E+00  0.94455314377E+03  0.28618272288E+04  0.27014578372E+04 0.  0.
        5    1    3    3  502    0 -0.45141182799E+02 -0.13392325610E+04  0.65225919086E+03  0.14903173222E+04  0.46999998093E+01 0.  1.
       -5    1    3    3    0  502  0.45141182799E+02  0.13392325610E+04  0.29229395291E+03  0.13715099066E+04  0.46999998093E+01 0. -1.
</event>
<event>
 5   0  0.3013407E-06  0.2583586E+04  0.7818609E-02  0.8373798E-01
       -1   -1    0    0    0  501  0.00000000000E+00  0.00000000000E+00  0.10092453526E+04  0.10092453526E+04  0.50400001928E-02 0.  1.
        1   -1    0    0  501    0  0.00000000000E+00  0.00000000000E+00 -0.16534428640E+04  0.16534428640E+04  0.50400001928E-02 0. -1.
    10030    2    1    2    0    0  0.00000000000E+00  0.00000000000E+00 -0.64419751136E+03  0.26626882167E+04  0.25835862876E+04 0.  0.
        4    1    3    3  502    0 -0.34939135987E+03 -0.17756771385E+03 -0.15906889020E+04  0.16382604833E+04  0.12699999809E+01 0. -1.
       -4    1    3    3    0  502  0.34939135987E+03  0.17756771385E+03  0.94649139065E+03  0.10244277333E+04  0.12699999809E+01 0.  1.
</event>
<event>
 5   0  0.3028601E-06  0.2657913E+04  0.7818609E-02  0.8348791E-01
        1   -1    0    0  501    0  0.00000000000E+00  0.00000000000E+00  0.14414409705E+04  0.14414409705E+04  0.50400001928E-02 0.  1.
       -1   -1    0    0    0  501  0.00000000000E+00  0.00000000000E+00 -0.12252500394E+04  0.12252500394E+04  0.50400001928E-02 0. -1.
    10030    2    1    2    0    0  0.00000000000E+00  0.00000000000E+00  0.21619093110E+03  0.26666910099E+04  0.26579131708E+04 0.  0.
        3    1    3    3  502    0  0.52152748841E+03  0.65365820661E+03  0.11443984964E+04  0.14173594819E+04  0.10100000352E+00 0.  1.
       -3    1    3    3    0  502 -0.52152748841E+03 -0.65365820661E+03 -0.92820756531E+03  0.12493315280E+04  0.10100000352E+00 0. -1.
</event>
<event>
 5   0  0.3089218E-06  0.2697152E+04  0.7818609E-02  0.8335930E-01
       -1   -1    0    0    0  501  0.00000000000E+00  0.00000000000E+00  0.59712380741E+03  0.59712380743E+03  0.50400001928E-02 0.  1.
        1   -1    0    0  501    0  0.00000000000E+00  0.00000000000E+00 -0.30456957653E+04  0.30456957653E+04  0.50400001928E-02 0. -1.
    10030    2    1    2    0    0  0.00000000000E+00  0.00000000000E+00 -0.24485719579E+04  0.36428195728E+04  0.26971521660E+04 0.  0.
        5    1    3    3  502    0  0.37185937702E+03  0.12915592930E+04 -0.13736532172E+04  0.19218090578E+04  0.46999998093E+01 0. -1.
       -5    1    3    3    0  502 -0.37185937702E+03 -0.12915592930E+04 -0.10749187407E+04  0.17210105150E+04  0.46999998093E+01 0.  1.
</event>
<event>
 5   0  0.3199840E-06  0.2714217E+04  0.7818609E-02  0.8330407E-01
        1   -1    0    0  501    0  0.00000000000E+00  0.00000000000E+00  0.23726906847E+04  0.23726906847E+04  0.50400001928E-02 0.  1.
       -1   -1    0    0    0  501  0.00000000000E+00  0.00000000000E+00 -0.77622560967E+03  0.77622560969E+03  0.50400001928E-02 0. -1.
    10030    2    1    2    0    0  0.00000000000E+00  0.00000000000E+00  0.15964650751E+04  0.31489162944E+04  0.27142168471E+04 0.  0.
        1    1    3    3  502    0 -0.11809413957E+04 -0.62507947343E+03  0.10737455114E+04  0.17141401201E+04  0.50400001928E-02 0. -1.
       -1    1    3    3    0  502  0.11809413957E+04  0.62507947343E+03  0.52271956365E+03  0.14347761743E+04  0.50400001928E-02 0.  1.
</event>
<event>
 5   0  0.8407622E-06  0.2685780E+04  0.7818609E-02  0.8339634E-01
        2   -1    0    0  501    0  0.00000000000E+00  0.00000000000E+00  0.12573475948E+04  0.12573475948E+04  0.25500000920E-02 0.  1.
       -2   -1    0    0    0  501  0.00000000000E+00  0.00000000000E+00 -0.14342520571E+04  0.14342520571E+04  0.25500000920E-02 0. -1.
    10030    2    1    2    0    0  0.00000000000E+00  0.00000000000E+00 -0.17690446236E+03  0.26915996519E+04  0.26857798676E+04 0.  0.
        1    1    3    3  502    0  0.62503541687E+03 -0.40520065710E+03 -0.12082348423E+04  0.14193971534E+04  0.50400001928E-02 0. -1.
       -1    1    3    3    0  502 -0.62503541687E+03  0.40520065710E+03  0.10313303799E+04  0.12722024986E+04  0.50400001928E-02 0.  1.
</event>
<event>
 5   0  0.3199840E-06  0.2695976E+04  0.7818609E-02  0.8336312E-01
       -1   -1    0    0    0  501  0.00000000000E+00  0.00000000000E+00  0.92280191973E+03  0.92280191974E+03  0.50400001928E-02 0. -1.
        1   -1    0    0  501    0  0.00000000000E+00  0.00000000000E+00 -0.19690812696E+04  0.19690812696E+04  0.50400001928E-02 0.  1.
    10030    2    1    2    0    0  0.00000000000E+00  0.00000000000E+00 -0.10462793499E+04  0.28918831893E+04  0.26959762430E+04 0.  0.
        1    1    3    3  502    0  0.78993299460E+03  0.10073662467E+04 -0.70211331010E+02  0.12820727444E+04  0.50400001928E-02 0. -1.
       -1    1    3    3    0  502 -0.78993299460E+03 -0.10073662467E+04 -0.97606801885E+03  0.16098104449E+04  0.50400001928E-02 0.  1.
</event>
<event>
 5   0  0.7729970E-06  0.2713452E+04  0.7818609E-02  0.8330654E-01
       -2   -1    0    0    0  501  0.00000000000E+00  0.00000000000E+00  0.73614367901E+03  0.73614367902E+03  0.25500000920E-02 0. -1.
        2   -1    0    0  501    0  0.00000000000E+00  0.00000000000E+00 -0.25004695538E+04  0.25004695538E+04  0.25500000920E-02 0.  1.
    10030    2    1    2    0    0  0.00000000000E+00  0.00000000000E+00 -0.17643258747E+04  0.32366132328E+04  0.27134515707E+04 0.  0.
        4    1    3    3  502    0  0.10660227778E+04  0.22699595330E+03  0.81553638969E+02  0.10929704179E+04  0.12699999809E+01 0. -1.
       -4    1    3    3    0  502 -0.10660227778E+04 -0.22699595330E+03 -0.18458795137E+04  0.21436428148E+04  0.12699999809E+01 0.  1.
</event>
<event>
 5   0  0.7812908E-06  0.2701452E+04  0.7818609E-02  0.8334534E-01
       -2   -1    0    0    0  501  0.00000000000E+00  0.00000000000E+00  0.18611182088E+04  0.18611182088E+04  0.25500000920E-02 0.  1.
        2   -1    0    0  501    0  0.00000000000E+00  0.00000000000E+00 -0.98030360609E+03  0.98030360609E+03  0.25500000920E-02 0. -1.
    10030    2    1    2    0    0  0.00000000000E+00  0.00000000000E+00  0.88081460273E+03  0.28414218149E+04  0.27014521217E+04 0.  0.
        5    1    3    3  502    0  0.93816668163E+03 -0.92763766805E+03  0.74483476046E+03  0.15150806170E+04  0.46999998093E+01 0. -1.
       -5    1    3    3    0  502 -0.93816668163E+03  0.92763766805E+03  0.13597984228E+03  0.13263411979E+04  0.46999998093E+01 0.  1.
</event>
<event>
 5   0  0.3046300E-06  0.2699801E+04  0.7818609E-02  0.8335069E-01
       -1   -1    0    0    0  501  0.00000000000E+00  0.00000000000E+00  0.19316919943E+04  0.19316919943E+04  0.50400001928E-02 0.  1.
        1   -1    0    0  501    0  0.00000000000E+00  0.00000000000E+00 -0.94333446912E+03  0.94333446913E+03  0.50400001928E-02 0. -1.
    10030    2    1    2    0    0  0.00000000000E+00  0.00000000000E+00  0.98835752516E+03  0.28750264634E+04  0.26998012089E+04 0.  0.
        2    1    3    3  502    0 -0.16957403613E+03 -0.48087239827E+03 -0.83683841768E+03  0.97994497522E+03  0.25500000920E-02 0. -1.
       -2    1    3    3    0  502  0.16957403613E+03  0.48087239827E+03  0.18251959428E+04  0.18950814882E+04  0.25500000920E-02 0.  1.
</event>
<event>
 5   0  0.3199840E-06  0.2696371E+04  0.7818609E-02  0.8336183E-01
        1   -1    0    0  501    0  0.00000000000E+00  0.00000000000E+00  0.20512080673E+04  0.20512080673E+04  0.50400001928E-02 0.  1.
       -1   -1    0    0    0  501  0.00000000000E+00  0.00000000000E+00 -0.88611380723E+03  0.88611380724E+03  0.50400001928E-02 0. -1.
    10030    2    1    2    0    0  0.00000000000E+00  0.00000000000E+00  0.11650942600E+04  0.29373218745E+04  0.26963707386E+04 0.  0.
        1    1    3    3  502    0  0.25364283354E+03  0.75772171807E+03  0.17654585046E+04  0.19378649644E+04  0.50400001928E-02 0.  1.
       -1    1    3    3    0  502 -0.25364283354E+03 -0.75772171807E+03 -0.60036424451E+03  0.99945691010E+03  0.50400001928E-02 0. -1.
</event>
<event>
 5   0  0.7838364E-06  0.2702266E+04  0.7818609E-02  0.8334270E-01
        2   -1    0    0  501    0  0.00000000000E+00  0.00000000000E+00  0.99807850995E+03  0.99807850995E+03  0.25500000920E-02 0. -1.
       -2   -1    0    0    0  501  0.00000000000E+00  0.00000000000E+00 -0.18290750223E+04  0.18290750223E+04  0.25500000920E-02 0.  1.
    10030    2    1    2    0    0  0.00000000000E+00  0.00000000000E+00 -0.83099651235E+03  0.28271535323E+04  0.27022660660E+04 0.  0.
        2    1    3    3  502    0 -0.11587014017E+04  0.32071318728E+03  0.22952972407E+03  0.12239811195E+04  0.25500000920E-02 0. -1.
       -2    1    3    3    0  502  0.11587014017E+04 -0.32071318728E+03 -0.10605262364E+04  0.16031724127E+04  0.25500000920E-02 0.  1.
</event>
<event>
 5   0  0.3028601E-06  0.2697966E+04  0.7818609E-02  0.8335665E-01
        1   -1    0    0  501    0  0.00000000000E+00  0.00000000000E+00  0.12421544856E+04  0.12421544856E+04  0.50400001928E-02 0.  1.
       -1   -1    0    0    0  501  0.00000000000E+00  0.00000000000E+00 -0.14649992199E+04  0.14649992199E+04  0.50400001928E-02 0. -1.
    10030    2    1    2    0    0  0.00000000000E+00  0.00000000000E+00 -0.22284473431E+03  0.27071537055E+04  0.26979661617E+04 0.  0.
        3    1    3    3  502    0  0.22735756616E+03  0.40887685099E+02 -0.14450051202E+04  0.14633533659E+04  0.10100000352E+00 0. -1.
       -3    1    3    3    0  502 -0.22735756616E+03 -0.40887685099E+02  0.12221603859E+04  0.12438003396E+04  0.10100000352E+00 0.  1.
</event>
<event>
 5   0  0.3028601E-06  0.2728378E+04  0.7818609E-02  0.8325856E-01
        1   -1    0    0  501    0  0.00000000000E+00  0.00000000000E+00  0.19611286094E+04  0.19611286094E+04  0.50400001928E-02 0. -1.
       -1   -1    0    0    0  501  0.00000000000E+00  0.00000000000E+00 -0.94894920236E+03  0.94894920237E+03  0.50400001928E-02 0.  1.
    10030    2    1    2    0    0  0.00000000000E+00  0.00000000000E+00  0.10121794070E+04  0.29100778118E+04  0.27283778548E+04 0.  0.
        3    1    3    3  502    0 -0.79885741896E+03 -0.16233528035E+03  0.16727752181E+04  0.18608339151E+04  0.10100000352E+00 0. -1.
       -3    1    3    3    0  502  0.79885741896E+03  0.16233528035E+03 -0.66059581101E+03  0.10492438967E+04  0.10100000352E+00 0.  1.
</event>
<event>
 5   0  0.7838364E-06  0.2690965E+04  0.7818609E-02  0.8337942E-01
       -2   -1    0    0    0  501  0.00000000000E+00  0.00000000000E+00  0.31054111503E+04  0.31054111503E+04  0.25500000920E-02 0.  1.
        2   -1    0    0  501    0  0.00000000000E+00  0.00000000000E+00 -0.58295775827E+03  0.58295775828E+03  0.25500000920E-02 0. -1.
    10030    2    1    2    0    0  0.00000000000E+00  0.00000000000E+00  0.25224533920E+04  0.36883689085E+04  0.26909652712E+04 0.  0.
        2    1    3    3  502    0 -0.11679328676E+04  0.34499292313E+03  0.20453005010E+04  0.23804078305E+04  0.25500000920E-02 0.  1.
       -2    1    3    3    0  502  0.11679328676E+04 -0.34499292313E+03  0.47715289098E+03  0.13079610780E+04  0.25500000920E-02 0. -1.
</event>
<event>
 5   0  0.3089218E-06  0.2709899E+04  0.7818609E-02  0.8331800E-01
        1   -1    0    0  501    0  0.00000000000E+00  0.00000000000E+00  0.49083540715E+03  0.49083540718E+03  0.50400001928E-02 0.  1.
       -1   -1    0    0    0  501  0.00000000000E+00  0.00000000000E+00 -0.37403322521E+04  0.37403322521E+04  0.50400001928E-02 0. -1.
    10030    2    1    2    0    0  0.00000000000E+00  0.00000000000E+00 -0.32494968450E+04  0.42311676593E+04  0.27098985250E+04 0.  0.
        5    1    3    3  502    0  0.93616346128E+03  0.86390824389E+03 -0.90393086661E+03  0.15620027470E+04  0.46999998093E+01 0.  1.
       -5    1    3    3    0  502 -0.93616346128E+03 -0.86390824389E+03 -0.23455659784E+04  0.26691649123E+04  0.46999998093E+01 0. -1.
</event>
<event>
 5   0  0.8213334E-06  0.2707376E+04  0.7818609E-02  0.8332616E-01
       -2   -1    0    0    0  501  0.00000000000E+00  0.00000000000E+00  0.14609304487E+04  0.14609304487E+04  0.25500000920E-02 0. -1.
        2   -1    0    0  501    0  0.00000000000E+00  0.00000000000E+00 -0.12543180916E+04  0.12543180916E+04  0.25500000920E-02 0.  1.
    10030    2    1    2    0    0  0.00000000000E+00  0.00000000000E+00  0.20661235712E+03  0.27152485403E+04  0.27073762150E+04 0.  0.
        3    1    3    3  502    0  0.11594460688E+03 -0.49672895924E+03  0.13608615666E+04  0.14533158723E+04  0.10100000352E+00 0. -1.
       -3    1    3    3    0  502 -0.11594460688E+03  0.49672895924E+03 -0.11542492095E+04  0.12619326680E+04  0.10100000352E+00 0.  1.
</event>
<event>
 5   0  0.8213334E-06  0.2714390E+04  0.7818609E-02  0.8330351E-01
       -2   -1    0    0    0  501  0.00000000000E+00  0.00000000000E+00  0.82841176487E+03  0.82841176488E+03  0.25500000920E-02 0. -1.
        2   -1    0    0  501    0  0.00000000000E+00  0.00000000000E+00 -0.22235055804E+04  0.22235055804E+04  0.25500000920E-02 0.  1.
    10030    2    1    2    0    0  0.00000000000E+00  0.00000000000E+00 -0.13950938155E+04  0.30519173453E+04  0.27143899367E+04 0.  0.
        3    1    3    3  502    0  0.49436854358E+03  0.10856184033E+04  0.30254739940E+02  0.11932656594E+04  0.10100000352E+00 0. -1.
       -3    1    3    3    0  502 -0.49436854358E+03 -0.10856184033E+04 -0.14253485555E+04  0.18586516859E+04  0.10100000352E+00 0.  1.
</event>
<event>
 5   0  0.7838364E-06  0.2677915E+04  0.7818609E-02  0.8342207E-01
        2   -1    0    0  501    0  0.00000000000E+00  0.00000000000E+00  0.15488135866E+04  0.15488135866E+04  0.25500000920E-02 0.  1.
       -2   -1    0    0    0  501  0.00000000000E+00  0.00000000000E+00 -0.11575354799E+04  0.11575354799E+04  0.25500000920E-02 0. -1.
    10030    2    1    2    0    0  0.00000000000E+00  0.00000000000E+00  0.39127810672E+03  0.27063490666E+04  0.26779146203E+04 0.  0.
        2    1    3    3  502    0  0.46368554208E+03  0.90801012637E+03  0.10727950484E+04  0.14799918538E+04  0.25500000920E-02 0.  1.
       -2    1    3    3    0  502 -0.46368554208E+03 -0.90801012637E+03 -0.68151694165E+03  0.12263572128E+04  0.25500000920E-02 0. -1.
</event>
<event>
 5   0  0.3013407E-06  0.2692828E+04  0.7818609E-02  0.8337336E-01
        1   -1    0    0  501    0  0.00000000000E+00  0.00000000000E+00  0.23658552723E+04  0.23658552723E+04  0.50400001928E-02 0. -1.
       -1   -1    0    0    0  501  0.00000000000E+00  0.00000000000E+00 -0.76624746575E+03  0.76624746576E+03  0.50400001928E-02 0.  1.
    10030    2    1    2    0    0  0.00000000000E+00  0.00000000000E+00  0.15996078065E+04  0.31321027381E+04  0.26928279609E+04 0.  0.
        4    1    3    3  502    0 -0.88734204176E+03 -0.95159642277E+03  0.39702344694E+03  0.13603458682E+04  0.12699999809E+01 0.  1.
       -4    1    3    3    0  502  0.88734204176E+03  0.95159642277E+03  0.12025843596E+04  0.17717568698E+04  0.12699999809E+01 0. -1.
</event>
<event>
 5   0  0.8407622E-06  0.2564949E+04  0.7818609E-02  0.8380206E-01
        2   -1    0    0  501    0  0.00000000000E+00  0.00000000000E+00  0.80119685075E+03  0.80119685076E+03  0.25500000920E-02 0. -1.
       -2   -1    0    0    0  501  0.00000000000E+00  0.00000000000E+00 -0.20528547578E+04  0.20528547578E+04  0.25500000920E-02 0.  1.
    10030    2    1    2    0    0  0.00000000000E+00  0.00000000000E+00 -0.12516579070E+04  0.28540516085E+04  0.25649489406E+04 0.  0.
        1    1    3    3  502    0  0.96215118947E+03 -0.83906185440E+03 -0.48963608403E+03  0.13672977736E+04  0.50400001928E-02 0. -1.
       -1    1    3    3    0  502 -0.96215118947E+03  0.83906185440E+03 -0.76202182300E+03  0.14867538349E+04  0.50400001928E-02 0.  1.
</event>
<event>
 5   0  0.7838364E-06  0.2716422E+04  0.7818609E-02  0.8329696E-01
       -2   -1    0    0    0  501  0.00000000000E+00  0.00000000000E+00  0.12696934443E+04  0.12696934443E+04  0.25500000920E-02 0. -1.
        2   -1    0    0  501    0  0.00000000000E+00  0.00000000000E+00 -0.14528990993E+04  0.14528990993E+04  0.25500000920E-02 0.  1.
    10030    2    1    2    0    0  0.00000000000E+00  0.00000000000E+00 -0.18320565499E+03  0.27225925436E+04  0.27164215149E+04 0.  0.
        2    1    3    3  502    0  0.84954187498E+03  0.20236138971E+03  0.95098380062E+03  0.12911396975E+04  0.25500000920E-02 0. -1.
       -2    1    3    3    0  502 -0.84954187498E+03 -0.20236138971E+03 -0.11341894556E+04  0.14314528461E+04  0.25500000920E-02 0.  1.
</event>
<event>
 5   0  0.8407622E-06  0.2690756E+04  0.7818609E-02  0.8338011E-01
        2   -1    0    0  501    0  0.00000000000E+00  0.00000000000E+00  0.10702562264E+04  0.10702562264E+04  0.25500000920E-02 0.  1.
       -2   -1    0    0    0  501  0.00000000000E+00  0.00000000000E+00 -0.16912224303E+04  0.16912224303E+04  0.25500000920E-02 0. -1.
    10030    2    1    2    0    0  0.00000000000E+00  0.00000000000E+00 -0.62096620394E+03  0.27614786568E+04  0.26907555343E+04 0.  0.
        1    1    3    3  502    0  0.76837376233E+03 -0.50362148938E+03 -0.13191735799E+04  0.16075608160E+04  0.50400001928E-02 0. -1.
       -1    1    3    3    0  502 -0.76837376233E+03  0.50362148938E+03  0.69820737601E+03  0.11539178407E+04  0.50400001928E-02 0.  1.
</event>
<event>
 5   0  0.8213334E-06  0.2691464E+04  0.7818609E-02  0.8337780E-01
       -2   -1    0    0    0  501  0.00000000000E+00  0.00000000000E+00  0.79514624550E+03  0.79514624551E+03  0.25500000920E-02 0. -1.
        2   -1    0    0  501    0  0.00000000000E+00  0.00000000000E+00 -0.22775612118E+04  0.22775612118E+04  0.25500000920E-02 0.  1.
    10030    2    1    2    0    0  0.00000000000E+00  0.00000000000E+00 -0.14824149663E+04  0.30727074573E+04  0.26914637256E+04 0.  0.
        3    1    3    3  502    0 -0.68647390081E+03 -0.33491952309E+03  0.52369489079E+03  0.92610682553E+03  0.10100000352E+00 0. -1.
       -3    1    3    3    0  502  0.68647390081E+03  0.33491952309E+03 -0.20061098571E+04  0.21466006318E+04  0.10100000352E+00 0.  1.
</event>
<event>
 5   0  0.3046300E-06  0.2702912E+04  0.7818609E-02  0.8334061E-01
       -1   -1    0    0    0  501  0.00000000000E+00  0.00000000000E+00  0.79958045001E+03  0.79958045003E+03  0.50400001928E-02 0.  1.
        1   -1    0    0  501    0  0.00000000000E+00  0.00000000000E+00 -0.22842394800E+04  0.22842394800E+04  0.50400001928E-02 0. -1.
    10030    2    1    2    0    0  0.00000000000E+00  0.00000000000E+00 -0.14846590300E+04  0.30838199300E+04  0.27029119345E+04 0.  0.
        2    1    3    3  502    0  0.89006384731E+03  0.86547298869E+03 -0.13305408306E+03  0.12485834115E+04  0.25500000920E-02 0.  1.
       -2    1    3    3    0  502 -0.89006384731E+03 -0.86547298869E+03 -0.13516049469E+04  0.18352365185E+04  0.25500000920E-02 0. -1.
</event>
<event>
 5   0  0.8407622E-06  0.2698232E+04  0.7818609E-02  0.8335579E-01
       -2   -1    0    0    0  501  0.00000000000E+00  0.00000000000E+00  0.79432577583E+03  0.79432577584E+03  0.25500000920E-02 0. -1.
        2   -1    0    0  501    0  0.00000000000E+00  0.00000000000E+00 -0.22913946730E+04  0.22913946730E+04  0.25500000920E-02 0.  1.
    10030    2    1    2    0    0  0.00000000000E+00  0.00000000000E+00 -0.14970688972E+04  0.30857204489E+04  0.26982319036E+04 0.  0.
        1    1    3    3  502    0  0.10525767510E+04 -0.39088353386E+03  0.10680972914E+03  0.11278812313E+04  0.50400001928E-02 0.  1.
       -1    1    3    3    0  502 -0.10525767510E+04  0.39088353386E+03 -0.16038786263E+04  0.19578392175E+04  0.50400001928E-02 0. -1.
</event>
<event>
 5   0  0.7729970E-06  0.2733239E+04  0.7818609E-02  0.8324300E-01
       -2   -1    0    0    0  501  0.00000000000E+00  0.00000000000E+00  0.10524016006E+04  0.10524016006E+04  0.25500000920E-02 0.  1.
        2   -1    0    0  501    0  0.00000000000E+00  0.00000000000E+00 -0.17746543039E+04  0.17746543039E+04  0.25500000920E-02 0. -1.
    10030    2    1    2    0    0  0.00000000000E+00  0.00000000000E+00 -0.72225270331E+03  0.28270559045E+04  0.27332391260E+04 0.  0.
        4    1    3    3  502    0  0.75076834511E+03 -0.42078461460E+03 -0.14591359273E+04  0.16940460640E+04  0.12699999809E+01 0. -1.
       -4    1    3    3    0  502 -0.75076834511E+03  0.42078461460E+03  0.73688322398E+03  0.11330098405E+04  0.12699999809E+01 0.  1.
</event>
<event>
 5   0  0.3199840E-06  0.2704599E+04  0.7818609E-02  0.8333514E-01
        1   -1    0    0  501    0  0.00000000000E+00  0.00000000000E+00  0.20556872636E+04  0.20556872636E+04  0.50400001928E-02 0.  1.
       -1   -1    0    0    0  501  0.00000000000E+00  0.00000000000E+00 -0.88958776623E+03  0.88958776624E+03  0.50400001928E-02 0. -1.
    10030    2    1    2    0    0  0.00000000000E+00  0.00000000000E+00  0.11660994974E+04  0.29452750298E+04  0.27045992242E+04 0.  0.
        1    1    3    3  502    0 -0.52623271690E+03 -0.12354527586E+04  0.75677603999E+03  0.15414195943E+04  0.50400001928E-02 0. -1.
       -1    1    3    3    0  502  0.52623271690E+03  0.12354527586E+04  0.40932345736E+03  0.14038554355E+04  0.50400001928E-02 0.  1.
</event>
<event>
 5   0  0.3046300E-06  0.2696635E+04  0.7818609E-02  0.8336098E-01
       -1   -1    0    0    0  501  0.00000000000E+00  0.00000000000E+00  0.80673370267E+03  0.80673370269E+03  0.50400001928E-02 0. -1.
        1   -1    0    0  501    0  0.00000000000E+00  0.00000000000E+00 -0.22534824582E+04  0.22534824582E+04  0.50400001928E-02 0.  1.
    10030    2    1    2    0    0  0.00000000000E+00  0.00000000000E+00 -0.14467487555E+04  0.30602161609E+04  0.26966351236E+04 0.  0.
        2    1    3    3  502    0 -0.17083607497E+03 -0.13087733560E+04 -0.41075543834E+03  0.13823142522E+04  0.25500000920E-02 0. -1.
       -2    1    3    3    0  502  0.17083607497E+03  0.13087733560E+04 -0.10359933172E+04  0.16779019086E+04  0.25500000920E-02 0.  1.
</event>
<event>
 5   0  0.3089218E-06  0.2703024E+04  0.7818609E-02  0.8334024E-01
       -1   -1    0    0    0  501  0.00000000000E+00  0.00000000000E+00  0.91772022244E+03  0.91772022245E+03  0.50400001928E-02 0.  1.
        1   -1    0    0  501    0  0.00000000000E+00  0.00000000000E+00 -0.19903509778E+04  0.19903509778E+04  0.50400001928E-02 0. -1.
    10030    2    1    2    0    0  0.00000000000E+00  0.00000000000E+00 -0.10726307553E+04  0.29080712002E+04  0.27030244853E+04 0.  0.
        5    1    3    3  502    0  0.36018471053E+03  0.97378212274E+03  0.39452188541E+03  0.11106998948E+04  0.46999998093E+01 0.  1.
       -5    1    3    3    0  502 -0.36018471053E+03 -0.97378212274E+03 -0.14671526407E+04  0.17973713054E+04  0.46999998093E+01 0. -1.
</event>
<event>
 5   0  0.2654625E-06  0.2706472E+04  0.7818609E-02  0.8332908E-01
        3   -1    0    0  501    0  0.00000000000E+00  0.00000000000E+00  0.99844941863E+03  0.99844942374E+03  0.10100000352E+00 0. -1.
       -3   -1    0    0    0  501  0.00000000000E+00  0.00000000000E+00 -0.18340911326E+04  0.18340911354E+04  0.10100000352E+00 0.  1.
    10030    2    1    2    0    0  0.00000000000E+00  0.00000000000E+00 -0.83564171396E+03  0.28325405591E+04  0.27064716782E+04 0.  0.
        5    1    3    3  502    0  0.43350287201E+03  0.70020303536E+03  0.70598253640E+03  0.10847315163E+04  0.46999998093E+01 0. -1.
       -5    1    3    3    0  502 -0.43350287201E+03 -0.70020303536E+03 -0.15416242504E+04  0.17478090428E+04  0.46999998093E+01 0.  1.
</event>
<event>
 5   0  0.3028601E-06  0.2739630E+04  0.7818609E-02  0.8322260E-01
        1   -1    0    0  501    0  0.00000000000E+00  0.00000000000E+00  0.20025963190E+04  0.20025963191E+04  0.50400001928E-02 0. -1.
       -1   -1    0    0    0  501  0.00000000000E+00  0.00000000000E+00 -0.93698004100E+03  0.93698004101E+03  0.50400001928E-02 0.  1.
    10030    2    1    2    0    0  0.00000000000E+00  0.00000000000E+00  0.10656162780E+04  0.29395763601E+04  0.27396297422E+04 0.  0.
        3    1    3    3  502    0 -0.31007943929E+03 -0.58838948837E+03 -0.75210481240E+03  0.10039985596E+04  0.10100000352E+00 0.  1.
       -3    1    3    3    0  502  0.31007943929E+03  0.58838948837E+03  0.18177210904E+04  0.19355778004E+04  0.10100000352E+00 0. -1.
</event>
<event>
 5   0  0.7729970E-06  0.2694220E+04  0.7818609E-02  0.8336883E-01
       -2   -1    0    0    0  501  0.00000000000E+00  0.00000000000E+00  0.13130831594E+04  0.13130831594E+04  0.25500000920E-02 0.  1.
        2   -1    0    0  501    0  0.00000000000E+00  0.00000000000E+00 -0.13820181314E+04  0.13820181314E+04  0.25500000920E-02 0. -1.
    10030    2    1    2    0    0  0.00000000000E+00  0.00000000000E+00 -0.68934972045E+02  0.26951012908E+04  0.26942195414E+04 0.  0.
        4    1    3    3  502    0  0.20617463427E+03  0.34514424544E+02  0.12967587512E+04  0.13135007031E+04  0.12699999809E+01 0.  1.
       -4    1    3    3    0  502 -0.20617463427E+03 -0.34514424544E+02 -0.13656937232E+04  0.13816005877E+04  0.12699999809E+01 0. -1.
</event>
<event>
 5   0  0.3199840E-06  0.2725078E+04  0.7818609E-02  0.8326914E-01
       -1   -1    0    0    0  501  0.00000000000E+00  0.00000000000E+00  0.14272767210E+04  0.14272767210E+04  0.50400001928E-02 0. -1.
        1   -1    0    0  501    0  0.00000000000E+00  0.00000000000E+00 -0.13007376307E+04  0.13007376307E+04  0.50400001928E-02 0.  1.
    10030    2    1    2    0    0  0.00000000000E+00  0.00000000000E+00  0.12653909022E+03  0.27280143517E+04  0.27250780102E+04 0.  0.
        1    1    3    3  502    0  0.14125181902E+03  0.96657806676E+03  0.10141811225E+04  0.14081152597E+04  0.50400001928E-02 0. -1.
       -1    1    3    3    0  502 -0.14125181902E+03 -0.96657806676E+03 -0.88764203225E+03  0.13198990920E+04  0.50400001928E-02 0.  1.
</event>
<event>
 5   0  0.7812908E-06  0.2725650E+04  0.7818609E-02  0.8326730E-01
       -2   -1    0    0    0  501  0.00000000000E+00  0.00000000000E+00  0.12201727092E+04  0.12201727092E+04  0.25500000920E-02 0.  1.
        2   -1    0    0  501    0  0.00000000000E+00  0.00000000000E+00 -0.15221555193E+04  0.15221555193E+04  0.25500000920E-02 0. -1.
    10030    2    1    2    0    0  0.00000000000E+00  0.00000000000E+00 -0.30198281017E+03  0.27423282285E+04  0.27256504719E+04 0.  0.
        5    1    3    3  502    0  0.29492066818E+03  0.13345411450E+03 -0.14829051346E+04  0.15178333010E+04  0.46999998093E+01 0. -1.
       -5    1    3    3    0  502 -0.29492066818E+03 -0.13345411450E+03  0.11809223245E+04  0.12244949275E+04  0.46999998093E+01 0.  1.
</event>
<event>
 5   0  0.7812908E-06  0.2705347E+04  0.7818609E-02  0.8333272E-01
        2   -1    0    0  501    0  0.00000000000E+00  0.00000000000E+00  0.25988405914E+04  0.25988405914E+04  0.25500000920E-02 0.  1.
       -2   -1    0    0    0  501  0.00000000000E+00  0.00000000000E+00 -0.70405448968E+03  0.70405448969E+03  0.25500000920E-02 0. -1.
    10030    2    1    2    0    0  0.00000000000E+00  0.00000000000E+00  0.18947861017E+04  0.33028950810E+04  0.27053468438E+04 0.  0.
        5    1    3    3  502    0 -0.79266188319E+02 -0.85050972529E+03 -0.33310435978E+03  0.91685905456E+03  0.46999998093E+01 0. -1.
       -5    1    3    3    0  502  0.79266188319E+02  0.85050972529E+03  0.22278904615E+04  0.23860360265E+04  0.46999998093E+01 0.  1.
</event>
<event>
 5   0  0.7812908E-06  0.2689667E+04  0.7818609E-02  0.8338365E-01
        2   -1    0    0  501    0  0.00000000000E+00  0.00000000000E+00  0.15012597852E+04  0.15012597852E+04  0.25500000920E-02 0. -1.
       -2   -1    0    0    0  501  0.00000000000E+00  0.00000000000E+00 -0.12047065623E+04  0.12047065623E+04  0.25500000920E-02 0.  1.
    10030    2    1    2    0    0  0.00000000000E+00  0.00000000000E+00  0.29655322298E+03  0.27059663475E+04  0.26896672768E+04 0.  0.
        5    1    3    3  502    0 -0.83012845499E+03 -0.13716190607E+03  0.12037426540E+04  0.14686541824E+04  0.46999998093E+01 0. -1.
       -5    1    3    3    0  502  0.83012845499E+03  0.13716190607E+03 -0.90718943103E+03  0.12373121652E+04  0.46999998093E+01 0.  1.
</event>
<event>
 5   0  0.7838364E-06  0.2620113E+04  0.7818609E-02  0.8361401E-01
       -2   -1    0    0    0  501  0.00000000000E+00  0.00000000000E+00  0.11760343052E+04  0.11760343052E+04  0.25500000920E-02 0. -1.
        2   -1    0    0  501    0  0.00000000000E+00  0.00000000000E+00 -0.14593519233E+04  0.14593519233E+04  0.25500000920E-02 0.  1.
    10030    2    1    2    0    0  0.00000000000E+00  0.00000000000E+00 -0.28331761810E+03  0.26353862284E+04  0.26201129175E+04 0.  0.
        2    1    3    3  502    0 -0.97469944649E+02  0.67158854567E+03  0.98546089000E+03  0.11965219306E+04  0.25500000920E-02 0. -1.
       -2    1    3    3    0  502  0.97469944649E+02 -0.67158854567E+03 -0.12687785081E+04  0.14388642978E+04  0.25500000920E-02 0.  1.
</event>
<event>
 5   0  0.3013407E-06  0.2706879E+04  0.7818609E-02  0.8332776E-01
        1   -1    0    0  501    0  0.00000000000E+00  0.00000000000E+00  0.11643366660E+04  0.11643366660E+04  0.50400001928E-02 0. -1.
       -1   -1    0    0    0  501  0.00000000000E+00  0.00000000000E+00 -0.15732555686E+04  0.15732555686E+04  0.50400001928E-02 0.  1.
    10030    2    1    2    0    0  0.00000000000E+00  0.00000000000E+00 -0.40891890266E+03  0.27375922346E+04  0.27068794901E+04 0.  0.
        4    1    3    3  502    0 -0.36470765309E+03 -0.11398254982E+04 -0.84375799699E+03  0.14642892505E+04  0.12699999809E+01 0.  1.
       -4    1    3    3    0  502  0.36470765309E+03  0.11398254982E+04  0.43483909433E+03  0.12733029842E+04  0.12699999809E+01 0. -1.
</event>
<event>
 5   0  0.8407622E-06  0.2707128E+04  0.7818609E-02  0.8332696E-01
        2   -1    0    0  501    0  0.00000000000E+00  0.00000000000E+00  0.19560945753E+04  0.19560945753E+04  0.25500000920E-02 0. -1.
       -2   -1    0    0    0  501  0.00000000000E+00  0.00000000000E+00 -0.93662913507E+03  0.93662913508E+03  0.25500000920E-02 0.  1.
    10030    2    1    2    0    0  0.00000000000E+00  0.00000000000E+00  0.10194654403E+04  0.28927237104E+04  0.27071277548E+04 0.  0.
        1    1    3    3  502    0 -0.42082888677E+03 -0.91813596743E+03  0.14726599846E+04  0.17857205932E+04  0.50400001928E-02 0. -1.
       -1    1    3    3    0  502  0.42082888677E+03  0.91813596743E+03 -0.45319454430E+03  0.11070031173E+04  0.50400001928E-02 0.  1.
</event>
<event>
 5   0  0.7812908E-06  0.2715785E+04  0.7818609E-02  0.8329901E-01
       -2   -1    0    0    0  501  0.00000000000E+00  0.00000000000E+00  0.18609862658E+04  0.18609862658E+04  0.25500000920E-02 0.  1.
        2   -1    0    0  501    0  0.00000000000E+00  0.00000000000E+00 -0.99080358842E+03  0.99080358843E+03  0.25500000920E-02 0. -1.
    10030    2    1    2    0    0  0.00000000000E+00  0.00000000000E+00  0.87018267736E+03  0.28517898542E+04  0.27157848738E+04 0.  0.
        5    1    3    3  502    0 -0.41100195072E+03 -0.12932952064E+04  0.38457077555E+03  0.14104793035E+04  0.46999998093E+01 0. -1.
       -5    1    3    3    0  502  0.41100195072E+03  0.12932952064E+04  0.48561190182E+03  0.14413105507E+04  0.46999998093E+01 0.  1.
</event>
<event>
 5   0  0.7729970E-06  0.2682144E+04  0.7818609E-02  0.8340822E-01
       -2   -1    0    0    0  501  0.00000000000E+00  0.00000000000E+00  0.18336387522E+04  0.18336387522E+04  0.25500000920E-02 0.  1.
        2   -1    0    0  501    0  0.00000000000E+00  0.00000000000E+00 -0.98082224691E+03  0.98082224691E+03  0.25500000920E-02 0. -1.
    10030    2    1    2    0    0  0.00000000000E+00  0.00000000000E+00  0.85281650529E+03  0.28144609991E+04  0.26821436807E+04 0.  0.
        4    1    3    3  502    0 -0.47486967721E+03  0.12003570016E+04  0.45002274445E+02  0.12916597691E+04  0.12699999809E+01 0. -1.
       -4    1    3    3    0  502  0.47486967721E+03 -0.12003570016E+04  0.80781423084E+03  0.15228012300E+04  0.12699999809E+01 0.  1.
</event>
<event>
 5   0  0.7812908E-06  0.2699865E+04  0.7818609E-02  0.8335049E-01
       -2   -1    0    0    0  501  0.00000000000E+00  0.00000000000E+00  0.15201481354E+04  0.15201481354E+04  0.25500000920E-02 0.  1.
        2   -1    0    0  501    0  0.00000000000E+00  0.00000000000E+00 -0.11987762696E+04  0.11987762696E+04  0.25500000920E-02 0. -1.
    10030    2    1    2    0    0  0.00000000000E+00  0.00000000000E+00  0.32137186578E+03  0.27189244050E+04  0.26998648196E+04 0.  0.
        5    1    3    3  502    0  0.97020306974E+03  0.88791599947E+03 -0.14577568396E+03  0.13232390029E+04  0.46999998093E+01 0.  1.
       -5    1    3    3    0  502 -0.97020306974E+03 -0.88791599947E+03  0.46714754974E+03  0.13956854022E+04  0.46999998093E+01 0. -1.
</event>
<event>
 5   0  0.7812908E-06  0.2545860E+04  0.7818609E-02  0.8386828E-01
        2   -1    0    0  501    0  0.00000000000E+00  0.00000000000E+00  0.21144558250E+04  0.21144558250E+04  0.25500000920E-02 0. -1.
       -2   -1    0    0    0  501  0.00000000000E+00  0.00000000000E+00 -0.76632030909E+03  0.76632030909E+03  0.25500000920E-02 0.  1.
    10030    2    1    2    0    0  0.00000000000E+00  0.00000000000E+00  0.13481355159E+04  0.28807761341E+04  0.25458597301E+04 0.  0.
        5    1    3    3  502    0  0.29300102764E+03 -0.11308318283E+04  0.10187967177E+03  0.11726174924E+04  0.46999998093E+01 0.  1.
       -5    1    3    3    0  502 -0.29300102764E+03  0.11308318283E+04  0.12462558442E+04  0.17081586417E+04  0.46999998093E+01 0. -1.
</event>
<event>
 5   0  0.3013407E-06  0.2694907E+04  0.7818609E-02  0.8336659E-01
       -1   -1    0    0    0  501  0.00000000000E+00  0.00000000000E+00  0.14046464198E+04  0.14046464198E+04  0.50400001928E-02 0. -1.
        1   -1    0    0  501    0  0.00000000000E+00  0.00000000000E+00 -0.12925891344E+04  0.12925891344E+04  0.50400001928E-02 0.  1.
    10030    2    1    2    0    0  0.00000000000E+00  0.00000000000E+00  0.11205728544E+03  0.26972355542E+04  0.26949068258E+04 0.  0.
        4    1    3    3  502    0 -0.67489153082E+03 -0.19227947670E+03 -0.10952605807E+04  0.13007871955E+04  0.12699999809E+01 0.  1.
       -4    1    3    3    0  502  0.67489153082E+03  0.19227947670E+03  0.12073178661E+04  0.13964483586E+04  0.12699999809E+01 0. -1.
</event>
<event>
 5   0  0.3028601E-06  0.2714287E+04  0.7818609E-02  0.8330384E-01
       -1   -1    0    0    0  501  0.00000000000E+00  0.00000000000E+00  0.84292756481E+03  0.84292756483E+03  0.50400001928E-02 0. -1.
        1   -1    0    0  501    0  0.00000000000E+00  0.00000000000E+00 -0.21850495670E+04  0.21850495670E+04  0.50400001928E-02 0.  1.
    10030    2    1    2    0    0  0.00000000000E+00  0.00000000000E+00 -0.13421220022E+04  0.30279771319E+04  0.27142870228E+04 0.  0.
        3    1    3    3  502    0  0.10072105846E+04  0.86705010564E+03 -0.36435136422E+03  0.13780424428E+04  0.10100000352E+00 0. -1.
       -3    1    3    3    0  502 -0.10072105846E+04 -0.86705010564E+03 -0.97777063799E+03  0.16499346890E+04  0.10100000352E+00 0.  1.
</event>
<event>
 5   0  0.3089218E-06  0.2698304E+04  0.7818609E-02  0.8335556E-01
        1   -1    0    0  501    0  0.00000000000E+00  0.00000000000E+00  0.14853345119E+04  0.14853345119E+04  0.50400001928E-02 0. -1.
       -1   -1    0    0    0  501  0.00000000000E+00  0.00000000000E+00 -0.12254551573E+04  0.12254551573E+04  0.50400001928E-02 0.  1.
    10030    2    1    2    0    0  0.00000000000E+00  0.00000000000E+00  0.25987935461E+03  0.27107896692E+04  0.26983037916E+04 0.  0.
        5    1    3    3  502    0  0.89431308425E+03  0.78442885608E+03  0.76933127139E+03  0.14166923512E+04  0.46999998093E+01 0. -1.
       -5    1    3    3    0  502 -0.89431308425E+03 -0.78442885608E+03 -0.50945191678E+03  0.12940973180E+04  0.46999998093E+01 0.  1.
</event>
<event>
 5   0  0.8407622E-06  0.2694786E+04  0.7818609E-02  0.8336699E-01
       -2   -1    0    0    0  501  0.00000000000E+00  0.00000000000E+00  0.12060435687E+04  0.12060435687E+04  0.25500000920E-02 0. -1.
        2   -1    0    0  501    0  0.00000000000E+00  0.00000000000E+00 -0.15053089927E+04  0.15053089927E+04  0.25500000920E-02 0.  1.
    10030    2    1    2    0    0  0.00000000000E+00  0.00000000000E+00 -0.29926542402E+03  0.27113525614E+04  0.26947862472E+04 0.  0.
        1    1    3    3  502    0 -0.86126574585E+02 -0.10708194278E+03 -0.14982397528E+04  0.15045287256E+04  0.50400001928E-02 0.  1.
       -1    1    3    3    0  502  0.86126574585E+02  0.10708194278E+03  0.11989743288E+04  0.12068238357E+04  0.50400001928E-02 0. -1.
</event>
<event>
 5   0  0.7812908E-06  0.2709451E+04  0.7818609E-02  0.8331945E-01
       -2   -1    0    0    0  501  0.00000000000E+00  0.00000000000E+00  0.10801405884E+04  0.10801405884E+04  0.25500000920E-02 0. -1.
        2   -1    0    0  501    0  0.00000000000E+00  0.00000000000E+00 -0.16991128375E+04  0.16991128375E+04  0.25500000920E-02 0.  1.
    10030    2    1    2    0    0  0.00000000000E+00  0.00000000000E+00 -0.61897224914E+03  0.27792534259E+04  0.27094506750E+04 0.  0.
        5    1    3    3  502    0 -0.60890984921E+02 -0.41267167039E+03 -0.16315876113E+04  0.16840741797E+04  0.46999998093E+01 0.  1.
       -5    1    3    3    0  502  0.60890984921E+02  0.41267167039E+03  0.10126153621E+04  0.10951792462E+04  0.46999998093E+01 0. -1.
</event>
<event>
 5   0  0.3089218E-06  0.2702768E+04  0.7818609E-02  0.8334107E-01
       -1   -1    0    0    0  501  0.00000000000E+00  0.00000000000E+00  0.11802068891E+04  0.11802068891E+04  0.50400001928E-02 0.  1.
        1   -1    0    0  501    0  0.00000000000E+00  0.00000000000E+00 -0.15473889085E+04  0.15473889085E+04  0.50400001928E-02 0. -1.
    10030    2    1    2    0    0  0.00000000000E+00  0.00000000000E+00 -0.36718201942E+03  0.27275957976E+04  0.27027682475E+04 0.  0.
        5    1    3    3  502    0  0.35267391430E+03  0.11356799384E+04 -0.83141384753E+03  0.14510061641E+04  0.46999998093E+01 0. -1.
       -5    1    3    3    0  502 -0.35267391430E+03 -0.11356799384E+04  0.46423182812E+03  0.12765896336E+04  0.46999998093E+01 0.  1.
</event>
<event>
 5   0  0.3199840E-06  0.2679872E+04  0.7818609E-02  0.8341565E-01
       -1   -1    0    0    0  501  0.00000000000E+00  0.00000000000E+00  0.10698220860E+04  0.10698220860E+04  0.50400001928E-02 0. -1.
        1   -1    0    0  501    0  0.00000000000E+00  0.00000000000E+00 -0.16782498668E+04  0.16782498668E+04  0.50400001928E-02 0.  1.
    10030    2    1    2    0    0  0.00000000000E+00  0.00000000000E+00 -0.60842778077E+03  0.27480719528E+04  0.26798722158E+04 0.  0.
        1    1    3    3  502    0 -0.56759060323E+03 -0.38181244377E+03 -0.14857023094E+04  0.16356195117E+04  0.50400001928E-02 0.  1.
       -1    1    3    3    0  502  0.56759060323E+03  0.38181244377E+03  0.87727452858E+03  0.11124524411E+04  0.50400001928E-02 0. -1.
</event>
<event>
 5   0  0.7838364E-06  0.2715993E+04  0.7818609E-02  0.8329835E-01
       -2   -1    0    0    0  501  0.00000000000E+00  0.00000000000E+00  0.18034056466E+04  0.18034056466E+04  0.25500000920E-02 0. -1.
        2   -1    0    0  501    0  0.00000000000E+00  0.00000000000E+00 -0.10225951858E+04  0.10225951858E+04  0.25500000920E-02 0.  1.
    10030    2    1    2    0    0  0.00000000000E+00  0.00000000000E+00  0.78081046075E+03  0.28260008324E+04  0.27159925864E+04 0.  0.
        2    1    3    3  502    0  0.84027001174E+03  0.28581208577E+03 -0.67904432620E+03  0.11175166388E+04  0.25500000920E-02 0.  1.
       -2    1    3    3    0  502 -0.84027001174E+03 -0.28581208577E+03  0.14598547869E+04  0.17084841937E+04  0.25500000920E-02 0. -1.
</event>
<event>
 5   0  0.3199840E-06  0.2678173E+04  0.7818609E-02  0.8342122E-01
        1   -1    0    0  501    0  0.00000000000E+00  0.00000000000E+00  0.15152403562E+04  0.15152403562E+04  0.50400001928E-02 0. -1.
       -1   -1    0    0    0  501  0.00000000000E+00  0.00000000000E+00 -0.11834109412E+04  0.11834109412E+04  0.50400001928E-02 0.  1.
    10030    2    1    2    0    0  0.00000000000E+00  0.00000000000E+00  0.33182941502E+03  0.26986512975E+04  0.26781725233E+04 0.  0.
        1    1    3    3  502    0  0.21296643226E+03 -0.13208061968E+04  0.10830846698E+03  0.13422423160E+04  0.50400001928E-02 0.  1.
       -1    1    3    3    0  502 -0.21296643226E+03  0.13208061968E+04  0.22352094804E+03  0.13564089815E+04  0.50400001928E-02 0. -1.
</event>
<event>
 5   0  0.7729970E-06  0.2712712E+04  0.7818609E-02  0.8330892E-01
       -2   -1    0    0    0  501  0.00000000000E+00  0.00000000000E+00  0.80982286533E+03  0.80982286533E+03  0.25500000920E-02 0.  1.
        2   -1    0    0  501    0  0.00000000000E+00  0.00000000000E+00 -0.22717338694E+04  0.22717338694E+04  0.25500000920E-02 0. -1.
    10030    2    1    2    0    0  0.00000000000E+00  0.00000000000E+00 -0.14619110041E+04  0.30815567348E+04  0.27127123190E+04 0.  0.
        4    1    3    3  502    0 -0.94022941876E+03 -0.41905980429E+03 -0.17342532998E+04  0.20167495135E+04  0.12699999809E+01 0. -1.
       -4    1    3    3    0  502  0.94022941876E+03  0.41905980429E+03  0.27234229572E+03  0.10648072212E+04  0.12699999809E+01 0.  1.
</event>
<event>
 5   0  0.8407622E-06  0.2696668E+04  0.7818609E-02  0.8336087E-01
        2   -1    0    0  501    0  0.00000000000E+00  0.00000000000E+00  0.11273274319E+04  0.11273274319E+04  0.25500000920E-02 0.  1.
       -2   -1    0    0    0  501  0.00000000000E+00  0.00000000000E+00 -0.16126674393E+04  0.16126674393E+04  0.25500000920E-02 0. -1.
    10030    2    1    2    0    0  0.00000000000E+00  0.00000000000E+00 -0.48534000746E+03  0.27399948712E+04  0.26966677532E+04 0.  0.
        1    1    3    3  502    0 -0.65420661435E+03 -0.90724612258E+03 -0.10077099721E+04  0.15055102819E+04  0.50400001928E-02 0. -1.
       -1    1    3    3    0  502  0.65420661435E+03  0.90724612258E+03  0.52236996460E+03  0.12344845893E+04  0.50400001928E-02 0.  1.
</event>
<event>
 5   0  0.3046300E-06  0.2705809E+04  0.7818609E-02  0.8333123E-01
       -1   -1    0    0    0  501  0.00000000000E+00  0.00000000000E+00  0.81101555803E+03  0.81101555805E+03  0.50400001928E-02 0.  1.
        1   -1    0    0  501    0  0.00000000000E+00  0.00000000000E+00 -0.22568622329E+04  0.22568622329E+04  0.50400001928E-02 0. -1.
    10030    2    1    2    0    0  0.00000000000E+00  0.00000000000E+00 -0.14458466749E+04  0.30678777910E+04  0.27058088501E+04 0.  0.
        2    1    3    3  502    0  0.80910125693E+03 -0.56713985492E+03 -0.17707383243E+04  0.20277590272E+04  0.25500000920E-02 0. -1.
       -2    1    3    3    0  502 -0.80910125693E+03  0.56713985492E+03  0.32489164941E+03  0.10401187638E+04  0.25500000920E-02 0.  1.
</event>
<event>
 5   0  0.3199840E-06  0.2698810E+04  0.7818609E-02  0.8335391E-01
        1   -1    0    0  501    0  0.00000000000E+00  0.00000000000E+00  0.22674599134E+04  0.22674599134E+04  0.50400001928E-02 0.  1.
       -1   -1    0    0    0  501  0.00000000000E+00  0.00000000000E+00 -0.80305462008E+03  0.80305462010E+03  0.50400001928E-02 0. -1.
    10030    2    1    2    0    0  0.00000000000E+00  0.00000000000E+00  0.14644052933E+04  0.30705145335E+04  0.26988102263E+04 0.  0.
        1    1    3    3  502    0 -0.16854315372E+03 -0.10427837706E+04 -0.22314380438E+03  0.10796286141E+04  0.50400001928E-02 0. -1.
       -1    1    3    3    0  502  0.16854315372E+03  0.10427837706E+04  0.16875490977E+04  0.19908859194E+04  0.50400001928E-02 0.  1.
</event>
<event>
 5   0  0.2654625E-06  0.2839887E+04  0.7818609E-02  0.8290991E-01
        3   -1    0    0  501    0  0.00000000000E+00  0.00000000000E+00  0.10903936924E+04  0.10903936971E+04  0.10100000352E+00 0. -1.
       -3   -1    0    0    0  501  0.00000000000E+00  0.00000000000E+00 -0.18490937056E+04  0.18490937084E+04  0.10100000352E+00 0.  1.
    10030    2    1    2    0    0  0.00000000000E+00  0.00000000000E+00 -0.75870001322E+03  0.29394874055E+04  0.28398874092E+04 0.  0.
        1    1    3    3  502    0  0.43309229484E+03 -0.13442231414E+04 -0.53194969404E+03  0.15091306328E+04  0.50400001928E-02 0.  1.
       -1    1    3    3    0  502 -0.43309229484E+03  0.13442231414E+04 -0.22675031918E+03  0.14303567727E+04  0.50400001928E-02 0. -1.
</event>
<event>
 5   0  0.7729970E-06  0.2735436E+04  0.7818609E-02  0.8323598E-01
       -2   -1    0    0    0  501  0.00000000000E+00  0.00000000000E+00  0.15460883995E+04  0.15460883995E+04  0.25500000920E-02 0. -1.
        2   -1    0    0  501    0  0.00000000000E+00  0.00000000000E+00 -0.12099262940E+04  0.12099262940E+04  0.25500000920E-02 0.  1.
    10030    2    1    2    0    0  0.00000000000E+00  0.00000000000E+00  0.33616210548E+03  0.27560146934E+04  0.27354363508E+04 0.  0.
        4    1    3    3  502    0 -0.10881505116E+04  0.69379987593E+03  0.62450291601E+03  0.14336789420E+04  0.12699999809E+01 0. -1.
       -4    1    3    3    0  502  0.10881505116E+04 -0.69379987593E+03 -0.28834081054E+03  0.13223357515E+04  0.12699999809E+01 0.  1.
</event>
<event>
 5   0  0.3013407E-06  0.2381031E+04  0.7818609E-02  0.8446640E-01
       -1   -1    0    0    0  501  0.00000000000E+00  0.00000000000E+00  0.55535152110E+03  0.55535152112E+03  0.50400001928E-02 0.  1.
        1   -1    0    0  501    0  0.00000000000E+00  0.00000000000E+00 -0.25521264393E+04  0.25521264393E+04  0.50400001928E-02 0. -1.
    10030    2    1    2    0    0  0.00000000000E+00  0.00000000000E+00 -0.19967749182E+04  0.31074779604E+04  0.23810311213E+04 0.  0.
        4    1    3    3  502    0  0.34921780130E+03 -0.22271763945E+03  0.45828472264E+03  0.61772382143E+03  0.12699999809E+01 0.  1.
       -4    1    3    3    0  502 -0.34921780130E+03  0.22271763945E+03 -0.24550596408E+04  0.24897541390E+04  0.12699999809E+01 0. -1.
</event>
<event>
 5   0  0.7729970E-06  0.2685510E+04  0.7818609E-02  0.8339722E-01
        2   -1    0    0  501    0  0.00000000000E+00  0.00000000000E+00  0.11604730557E+04  0.11604730557E+04  0.25500000920E-02 0.  1.
       -2   -1    0    0    0  501  0.00000000000E+00  0.00000000000E+00 -0.15536691593E+04  0.15536691593E+04  0.25500000920E-02 0. -1.
    10030    2    1    2    0    0  0.00000000000E+00  0.00000000000E+00 -0.39319610355E+03  0.27141422150E+04  0.26855101540E+04 0.  0.
        4    1    3    3  502    0 -0.10383267233E+04  0.54468426670E+03  0.46473794074E+03  0.12612637714E+04  0.12699999809E+01 0.  1.
       -4    1    3    3    0  502  0.10383267233E+04 -0.54468426670E+03 -0.85793404428E+03  0.14528784436E+04  0.12699999809E+01 0. -1.
</event>
<event>
 5   0  0.3046300E-06  0.2356916E+04  0.7818609E-02  0.8455812E-01
       -1   -1    0    0    0  501  0.00000000000E+00  0.00000000000E+00  0.14340236239E+04  0.14340236239E+04  0.50400001928E-02 0.  1.
        1   -1    0    0  501    0  0.00000000000E+00  0.00000000000E+00 -0.96843850853E+03  0.96843850854E+03  0.50400001928E-02 0. -1.
    10030    2    1    2    0    0  0.00000000000E+00  0.00000000000E+00  0.46558511535E+03  0.24024621324E+04  0.23569163749E+04 0.  0.
        2    1    3    3  502    0  0.18400468493E+03  0.31095375097E+03  0.13761699193E+04  0.14228118660E+04  0.25500000920E-02 0.  1.
       -2    1    3    3    0  502 -0.18400468493E+03 -0.31095375097E+03 -0.91058480393E+03  0.97965026641E+03  0.25500000920E-02 0. -1.
</event>
<event>
 5   0  0.8407622E-06  0.2680183E+04  0.7818609E-02  0.8341464E-01
       -2   -1    0    0    0  501  0.00000000000E+00  0.00000000000E+00  0.13962007416E+04  0.13962007416E+04  0.25500000920E-02 0. -1.
        2   -1    0    0  501    0  0.00000000000E+00  0.00000000000E+00 -0.12862371767E+04  0.12862371767E+04  0.25500000920E-02 0.  1.
    10030    2    1    2    0    0  0.00000000000E+00  0.00000000000E+00  0.10996356484E+03  0.26824379183E+04  0.26801830534E+04 0.  0.
        1    1    3    3  502    0  0.97117438386E+03  0.52020427966E+03  0.81854769951E+03  0.13725204963E+04  0.50400001928E-02 0.  1.
       -1    1    3    3    0  502 -0.97117438386E+03 -0.52020427966E+03 -0.70858413467E+03  0.13099174220E+04  0.50400001928E-02 0. -1.
</event>
<event>
 5   0  0.3028601E-06  0.2657386E+04  0.7818609E-02  0.8348965E-01
        1   -1    0    0  501    0  0.00000000000E+00  0.00000000000E+00  0.16305937040E+04  0.16305937040E+04  0.50400001928E-02 0. -1.
       -1   -1    0    0    0  501  0.00000000000E+00  0.00000000000E+00 -0.10826888527E+04  0.10826888527E+04  0.50400001928E-02 0.  1.
    10030    2    1    2    0    0  0.00000000000E+00  0.00000000000E+00  0.54790485127E+03  0.27132825568E+04  0.26573864052E+04 0.  0.
        3    1    3    3  502    0  0.68125675660E+03  0.26812718013E+03 -0.85816355622E+03  0.11280282144E+04  0.10100000352E+00 0.  1.
       -3    1    3    3    0  502 -0.68125675660E+03 -0.26812718013E+03  0.14060684075E+04  0.15852543423E+04  0.10100000352E+00 0. -1.
</event>
<event>
 5   0  0.3199840E-06  0.2706275E+04  0.7818609E-02  0.8332972E-01
        1   -1    0    0  501    0  0.00000000000E+00  0.00000000000E+00  0.19969078595E+04  0.19969078595E+04  0.50400001928E-02 0.  1.
       -1   -1    0    0    0  501  0.00000000000E+00  0.00000000000E+00 -0.91690790865E+03  0.91690790866E+03  0.50400001928E-02 0. -1.
    10030    2    1    2    0    0  0.00000000000E+00  0.00000000000E+00  0.10799999509E+04  0.29138157682E+04  0.27062746418E+04 0.  0.
        1    1    3    3  502    0  0.13349181876E+04 -0.12292197710E+03  0.34186514955E+03  0.13834696096E+04  0.50400001928E-02 0.  1.
       -1    1    3    3    0  502 -0.13349181876E+04  0.12292197710E+03  0.73813480131E+03  0.15303461586E+04  0.50400001928E-02 0. -1.
</event>
<event>
 5   0  0.3028601E-06  0.2678977E+04  0.7818609E-02  0.8341859E-01
        1   -1    0    0  501    0  0.00000000000E+00  0.00000000000E+00  0.19349891706E+04  0.19349891706E+04  0.50400001928E-02 0. -1.
       -1   -1    0    0    0  501  0.00000000000E+00  0.00000000000E+00 -0.92725557513E+03  0.92725557514E+03  0.50400001928E-02 0.  1.
    10030    2    1    2    0    0  0.00000000000E+00  0.00000000000E+00  0.10077335955E+04  0.28622447458E+04  0.26789770408E+04 0.  0.
        3    1    3    3  502    0  0.89366961661E+03  0.95012969375E+03  0.82940344428E+03  0.15457366859E+04  0.10100000352E+00 0.  1.
       -3    1    3    3    0  502 -0.89366961661E+03 -0.95012969375E+03  0.17833015121E+03  0.13165080598E+04  0.10100000352E+00 0. -1.
</event>
<event>
 5   0  0.8213334E-06  0.2703271E+04  0.7818609E-02  0.8333944E-01
        2   -1    0    0  501    0  0.00000000000E+00  0.00000000000E+00  0.14738391186E+04  0.14738391186E+04  0.25500000920E-02 0.  1.
       -2   -1    0    0    0  501  0.00000000000E+00  0.00000000000E+00 -0.12395647564E+04  0.12395647564E+04  0.25500000920E-02 0. -1.
    10030    2    1    2    0    0  0.00000000000E+00  0.00000000000E+00  0.23427436218E+03  0.27134038751E+04  0.27032713723E+04 0.  0.
        3    1    3    3  502    0  0.13859409649E+03 -0.70533495623E+02 -0.12305553692E+04  0.12403426238E+04  0.10100000352E+00 0. -1.
       -3    1    3    3    0  502 -0.13859409649E+03  0.70533495623E+02  0.14648297314E+04  0.14730612512E+04  0.10100000352E+00 0.  1.
</event>
<event>
 5   0  0.7838364E-06  0.2698111E+04  0.7818609E-02  0.8335618E-01
        2   -1    0    0  501    0  0.00000000000E+00  0.00000000000E+00  0.13799818189E+04  0.13799818189E+04  0.25500000920E-02 0.  1.
       -2   -1    0    0    0  501  0.00000000000E+00  0.00000000000E+00 -0.13188223342E+04  0.13188223342E+04  0.25500000920E-02 0. -1.
    10030    2    1    2    0    0  0.00000000000E+00  0.00000000000E+00  0.61159484637E+02  0.26988041531E+04  0.26981110752E+04 0.  0.
        2    1    3    3  502    0 -0.98708800531E+03  0.72884752974E+03  0.59142814446E+03  0.13621118537E+04  0.25500000920E-02 0.  1.
       -2    1    3    3    0  502  0.98708800531E+03 -0.72884752974E+03 -0.53026865982E+03  0.13366922995E+04  0.25500000920E-02 0. -1.
</event>
<event>
 5   0  0.3013407E-06  0.2611433E+04  0.7818609E-02  0.8364328E-01
        1   -1    0    0  501    0  0.00000000000E+00  0.00000000000E+00  0.11539379152E+04  0.11539379152E+04  0.50400001928E-02 0.  1.
       -1   -1    0    0    0  501  0.00000000000E+00  0.00000000000E+00 -0.14774592165E+04  0.14774592165E+04  0.50400001928E-02 0. -1.
    10030    2    1    2    0    0  0.00000000000E+00  0.00000000000E+00 -0.32352130124E+03  0.26313971317E+04  0.26114334823E+04 0.  0.
        4    1    3    3  502    0  0.12598671434E+04  0.18277839655E+03  0.13066720845E+03  0.12797455581E+04  0.12699999809E+01 0.  1.
       -4    1    3    3    0  502 -0.12598671434E+04 -0.18277839655E+03 -0.45418850969E+03  0.13516515736E+04  0.12699999809E+01 0. -1.
</event>
<event>
 5   0  0.7729970E-06  0.2800935E+04  0.7818609E-02  0.8302978E-01
       -2   -1    0    0    0  501  0.00000000000E+00  0.00000000000E+00  0.13390047883E+04  0.13390047883E+04  0.25500000920E-02 0.  1.
        2   -1    0    0  501    0  0.00000000000E+00  0.00000000000E+00 -0.14647511658E+04  0.14647511658E+04  0.25500000920E-02 0. -1.
    10030    2    1    2    0    0  0.00000000000E+00  0.00000000000E+00 -0.12574637757E+03  0.28037559541E+04  0.28009347187E+04 0.  0.
        4    1    3    3  502    0 -0.42726976137E+02 -0.90458601030E+03  0.10064751544E+04  0.13539184960E+04  0.12699999809E+01 0.  1.
       -4    1    3    3    0  502  0.42726976137E+02  0.90458601030E+03 -0.11322215320E+04  0.14498374581E+04  0.12699999809E+01 0. -1.
</event>
<event>
 5   0  0.7812908E-06  0.2610740E+04  0.7818609E-02  0.8364562E-01
       -2   -1    0    0    0  501  0.00000000000E+00  0.00000000000E+00  0.97621813398E+03  0.97621813399E+03  0.25500000920E-02 0. -1.
        2   -1    0    0  501    0  0.00000000000E+00  0.00000000000E+00 -0.17455025138E+04  0.17455025138E+04  0.25500000920E-02 0.  1.
    10030    2    1    2    0    0  0.00000000000E+00  0.00000000000E+00 -0.76928437981E+03  0.27217206478E+04  0.26107402834E+04 0.  0.
        5    1    3    3  502    0 -0.88238644463E+03 -0.67022817365E+03  0.33473254459E+03  0.11575316880E+04  0.46999998093E+01 0.  1.
       -5    1    3    3    0  502  0.88238644463E+03  0.67022817365E+03 -0.11040169244E+04  0.15641889597E+04  0.46999998093E+01 0. -1.
</event>
<event>
 5   0  0.3013407E-06  0.2705325E+04  0.7818609E-02  0.8333279E-01
        1   -1    0    0  501    0  0.00000000000E+00  0.00000000000E+00  0.87465323044E+03  0.87465323045E+03  0.50400001928E-02 0.  1.
       -1   -1    0    0    0  501  0.00000000000E+00  0.00000000000E+00 -0.20919102590E+04  0.20919102590E+04  0.50400001928E-02 0. -1.
    10030    2    1    2    0    0  0.00000000000E+00  0.00000000000E+00 -0.12172570285E+04  0.29665634894E+04  0.27053251678E+04 0.  0.
        4    1    3    3  502    0 -0.63883379208E+03 -0.10646455278E+04 -0.20032026468E+02  0.12417655209E+04  0.12699999809E+01 0.  1.
       -4    1    3    3    0  502  0.63883379208E+03  0.10646455278E+04 -0.11972250021E+04  0.17247979686E+04  0.12699999809E+01 0. -1.
</event>
<event>
 5   0  0.8407622E-06  0.2718865E+04  0.7818609E-02  0.8328910E-01
       -2   -1    0    0    0  501  0.00000000000E+00  0.00000000000E+00  0.17184942689E+04  0.17184942689E+04  0.25500000920E-02 0. -1.
        2   -1    0    0  501    0  0.00000000000E+00  0.00000000000E+00 -0.10753933975E+04  0.10753933975E+04  0.25500000920E-02 0.  1.
    10030    2    1    2    0    0  0.00000000000E+00  0.00000000000E+00  0.64310087136E+03  0.27938876664E+04  0.27188654916E+04 0.  0.
        1    1    3    3  502    0 -0.58291214276E+03 -0.70481538057E+03  0.13550385152E+04  0.16348335281E+04  0.50400001928E-02 0. -1.
       -1    1    3    3    0  502  0.58291214276E+03  0.70481538057E+03 -0.71193764381E+03  0.11590541383E+04  0.50400001928E-02 0.  1.
</event>
<event>
 5   0  0.3199840E-06  0.2565131E+04  0.7818609E-02  0.8380143E-01
        1   -1    0    0  501    0  0.00000000000E+00  0.00000000000E+00  0.27599834881E+04  0.27599834882E+04  0.50400001928E-02 0. -1.
       -1   -1    0    0    0  501  0.00000000000E+00  0.00000000000E+00 -0.59600875569E+03  0.59600875571E+03  0.50400001928E-02 0.  1.
    10030    2    1    2    0    0  0.00000000000E+00  0.00000000000E+00  0.21639747325E+04  0.33559922439E+04  0.25651310489E+04 0.  0.
        1    1    3    3  502    0  0.20811783321E+03 -0.12648520200E+04  0.10263162669E+04  0.16420988839E+04  0.50400001928E-02 0.  1.
       -1    1    3    3    0  502 -0.20811783321E+03  0.12648520200E+04  0.11376584656E+04  0.17138933599E+04  0.50400001928E-02 0. -1.
</event>
<event>
 5   0  0.8407622E-06  0.2703644E+04  0.7818609E-02  0.8333824E-01
        2   -1    0    0  501    0  0.00000000000E+00  0.00000000000E+00  0.14739546083E+04  0.14739546083E+04  0.25500000920E-02 0.  1.
       -2   -1    0    0    0  501  0.00000000000E+00  0.00000000000E+00 -0.12398090379E+04  0.12398090379E+04  0.25500000920E-02 0. -1.
    10030    2    1    2    0    0  0.00000000000E+00  0.00000000000E+00  0.23414557032E+03  0.27137636462E+04  0.27036436487E+04 0.  0.
        1    1    3    3  502    0 -0.21526796147E+03 -0.66188252848E+03  0.12802865192E+04  0.14572447797E+04  0.50400001928E-02 0.  1.
       -1    1    3    3    0  502  0.21526796147E+03  0.66188252848E+03 -0.10461409489E+04  0.12565188665E+04  0.50400001928E-02 0. -1.
</event>
<event>
 5   0  0.3013407E-06  0.2715001E+04  0.7818609E-02  0.8330154E-01
        1   -1    0    0  501    0  0.00000000000E+00  0.00000000000E+00  0.13200640776E+04  0.13200640776E+04  0.50400001928E-02 0. -1.
       -1   -1    0    0    0  501  0.00000000000E+00  0.00000000000E+00 -0.13959989565E+04  0.13959989566E+04  0.50400001928E-02 0.  1.
    10030    2    1    2    0    0  0.00000000000E+00  0.00000000000E+00 -0.75934878930E+02  0.27160630342E+04  0.27150013444E+04 0.  0.
        4    1    3    3  502    0 -0.58450593628E+03  0.72157379893E+03 -0.10285518672E+04  0.13857259806E+04  0.12699999809E+01 0.  1.
       -4    1    3    3    0  502  0.58450593628E+03 -0.72157379893E+03  0.95261698830E+03  0.13303370536E+04  0.12699999809E+01 0. -1.
</event>
<event>
 5   0  0.7838364E-06  0.2695123E+04  0.7818609E-02  0.8336589E-01
       -2   -1    0    0    0  501  0.00000000000E+00  0.00000000000E+00  0.18992798684E+04  0.18992798684E+04  0.25500000920E-02 0. -1.
        2   -1    0    0  501    0  0.00000000000E+00  0.00000000000E+00 -0.95611046576E+03  0.95611046576E+03  0.25500000920E-02 0.  1.
    10030    2    1    2    0    0  0.00000000000E+00  0.00000000000E+00  0.94316940266E+03  0.28553903342E+04  0.26951225275E+04 0.  0.
        2    1    3    3  502    0 -0.25313231169E+03  0.97135818012E+03 -0.48093856305E+03  0.11130653991E+04  0.25500000920E-02 0.  1.
       -2    1    3    3    0  502  0.25313231169E+03 -0.97135818012E+03  0.14241079657E+04  0.17423249351E+04  0.25500000920E-02 0. -1.
</event>
<event>
 5   0  0.7838364E-06  0.2689466E+04  0.7818609E-02  0.8338431E-01
        2   -1    0    0  501    0  0.00000000000E+00  0.00000000000E+00  0.11326995507E+04  0.11326995507E+04  0.25500000920E-02 0.  1.
       -2   -1    0    0    0  501  0.00000000000E+00  0.00000000000E+00 -0.15964581868E+04  0.15964581868E+04  0.25500000920E-02 0. -1.
    10030    2    1    2    0    0  0.00000000000E+00  0.00000000000E+00 -0.46375863608E+03  0.27291577374E+04  0.26894664681E+04 0.  0.
        2    1    3    3  502    0  0.10640923099E+04  0.60837787936E+03 -0.79311609864E+03  0.14599483669E+04  0.25500000920E-02 0. -1.
       -2    1    3    3    0  502 -0.10640923099E+04 -0.60837787936E+03  0.32935746256E+03  0.12692093705E+04  0.25500000920E-02 0.  1.
</event>
<event>
 5   0  0.3013407E-06  0.2702348E+04  0.7818609E-02  0.8334244E-01
        1   -1    0    0  501    0  0.00000000000E+00  0.00000000000E+00  0.18533859163E+04  0.18533859163E+04  0.50400001928E-02 0.  1.
       -1   -1    0    0    0  501  0.00000000000E+00  0.00000000000E+00 -0.98504642438E+03  0.98504642439E+03  0.50400001928E-02 0. -1.
    10030    2    1    2    0    0  0.00000000000E+00  0.00000000000E+00  0.86833949192E+03  0.28384323407E+04  0.27023479938E+04 0.  0.
        4    1    3    3  502    0 -0.10722585833E+04 -0.42391680242E+03  0.11740762908E+04  0.16455700150E+04  0.12699999809E+01 0. -1.
       -4    1    3    3    0  502  0.10722585833E+04  0.42391680242E+03 -0.30573679891E+03  0.11928623257E+04  0.12699999809E+01 0.  1.
</event>
<event>
 5   0  0.3089218E-06  0.2911412E+04  0.7818609E-02  0.8269490E-01
       -1   -1    0    0    0  501  0.00000000000E+00  0.00000000000E+00  0.11182957582E+04  0.11182957582E+04  0.50400001928E-02 0.  1.
        1   -1    0    0  501    0  0.00000000000E+00  0.00000000000E+00 -0.18949194250E+04  0.18949194250E+04  0.50400001928E-02 0. -1.
    10030    2    1    2    0    0  0.00000000000E+00  0.00000000000E+00 -0.77662366678E+03  0.30132151832E+04  0.29114122725E+04 0.  0.
        5    1    3    3  502    0  0.99642413003E+02  0.44911303714E+03  0.10410771054E+04  0.11381980319E+04  0.46999998093E+01 0.  1.
       -5    1    3    3    0  502 -0.99642413003E+02 -0.44911303714E+03 -0.18177007722E+04  0.18750171513E+04  0.46999998093E+01 0. -1.
</event>
<event>
 5   0  0.3046300E-06  0.2698348E+04  0.7818609E-02  0.8335541E-01
       -1   -1    0    0    0  501  0.00000000000E+00  0.00000000000E+00  0.13130693044E+04  0.13130693044E+04  0.50400001928E-02 0.  1.
        1   -1    0    0  501    0  0.00000000000E+00  0.00000000000E+00 -0.13862711017E+04  0.13862711017E+04  0.50400001928E-02 0. -1.
    10030    2    1    2    0    0  0.00000000000E+00  0.00000000000E+00 -0.73201797298E+02  0.26993404061E+04  0.26983476657E+04 0.  0.
        2    1    3    3  502    0 -0.10556630605E+04 -0.77247101397E+03 -0.36707689407E+03  0.13586321838E+04  0.25500000920E-02 0. -1.
       -2    1    3    3    0  502  0.10556630605E+04  0.77247101397E+03  0.29387509677E+03  0.13407082223E+04  0.25500000920E-02 0.  1.
</event>
<event>
 5   0  0.8213334E-06  0.2705967E+04  0.7818609E-02  0.8333071E-01
       -2   -1    0    0    0  501  0.00000000000E+00  0.00000000000E+00  0.14587359891E+04  0.14587359891E+04  0.25500000920E-02 0. -1.
        2   -1    0    0  501    0  0.00000000000E+00  0.00000000000E+00 -0.12548977339E+04  0.12548977339E+04  0.25500000920E-02 0.  1.
    10030    2    1    2    0    0  0.00000000000E+00  0.00000000000E+00  0.20383825520E+03  0.27136337230E+04  0.27059671003E+04 0.  0.
        3    1    3    3  502    0 -0.14394672977E+03  0.11310539812E+04 -0.62854056711E+03  0.13019473968E+04  0.10100000352E+00 0.  1.
       -3    1    3    3    0  502  0.14394672977E+03 -0.11310539812E+04  0.83237882231E+03  0.14116863261E+04  0.10100000352E+00 0. -1.
</event>
<event>
 5   0  0.3046300E-06  0.2714719E+04  0.7818609E-02  0.8330245E-01
       -1   -1    0    0    0  501  0.00000000000E+00  0.00000000000E+00  0.93052128051E+03  0.93052128053E+03  0.50400001928E-02 0. -1.
        1   -1    0    0  501    0  0.00000000000E+00  0.00000000000E+00 -0.19799915754E+04  0.19799915754E+04  0.50400001928E-02 0.  1.
    10030    2    1    2    0    0  0.00000000000E+00  0.00000000000E+00 -0.10494702949E+04  0.29105128560E+04  0.27147186198E+04 0.  0.
        2    1    3    3  502    0  0.83348557335E+03  0.10264942574E+04 -0.85350420020E+03  0.15738036984E+04  0.25500000920E-02 0.  1.
       -2    1    3    3    0  502 -0.83348557335E+03 -0.10264942574E+04 -0.19596609470E+03  0.13367091575E+04  0.25500000920E-02 0. -1.
</event>
<event>
 5   0  0.3199840E-06  0.2705995E+04  0.7818609E-02  0.8333062E-01
        1   -1    0    0  501    0  0.00000000000E+00  0.00000000000E+00  0.14943045928E+04  0.14943045928E+04  0.50400001928E-02 0. -1.
       -1   -1    0    0    0  501  0.00000000000E+00  0.00000000000E+00 -0.12250528893E+04  0.12250528893E+04  0.50400001928E-02 0.  1.
    10030    2    1    2    0    0  0.00000000000E+00  0.00000000000E+00  0.26925170351E+03  0.27193574822E+04  0.27059949438E+04 0.  0.
        1    1    3    3  502    0  0.11009616825E+04 -0.39197724501E+03  0.81978391822E+03  0.14275182869E+04  0.50400001928E-02 0. -1.
       -1    1    3    3    0  502 -0.11009616825E+04  0.39197724501E+03 -0.55053221471E+03  0.12918391953E+04  0.50400001928E-02 0.  1.
</event>
<event>
 5   0  0.8407622E-06  0.2726163E+04  0.7818609E-02  0.8326565E-01
        2   -1    0    0  501    0  0.00000000000E+00  0.00000000000E+00  0.97169165210E+03  0.97169165211E+03  0.25500000920E-02 0.  1.
       -2   -1    0    0    0  501  0.00000000000E+00  0.00000000000E+00 -0.19121206089E+04  0.19121206089E+04  0.25500000920E-02 0. -1.
    10030    2    1    2    0    0  0.00000000000E+00  0.00000000000E+00 -0.94042895681E+03  0.28838122610E+04  0.27261633359E+04 0.  0.
        1    1    3    3  502    0 -0.12368695184E+04  0.39138108671E+03 -0.27735868014E+02  0.12976111278E+04  0.50400001928E-02 0.  1.
       -1    1    3    3    0  502  0.12368695184E+04 -0.39138108671E+03 -0.91269308880E+03  0.15862011332E+04  0.50400001928E-02 0. -1.
</event>
<event>
 5   0  0.2654625E-06  0.2706420E+04  0.7818609E-02  0.8332925E-01
        3   -1    0    0  501    0  0.00000000000E+00  0.00000000000E+00  0.14760880634E+04  0.14760880668E+04  0.10100000352E+00 0. -1.
       -3   -1    0    0    0  501  0.00000000000E+00  0.00000000000E+00 -0.12405607609E+04  0.12405607650E+04  0.10100000352E+00 0.  1.
    10030    2    1    2    0    0  0.00000000000E+00  0.00000000000E+00  0.23552730245E+03  0.27166488319E+04  0.27064197320E+04 0.  0.
        2    1    3    3  502    0 -0.39879858203E+03 -0.90811476451E+03 -0.80629392908E+03  0.12782107161E+04  0.25500000920E-02 0.  1.
       -2    1    3    3    0  502  0.39879858203E+03  0.90811476451E+03  0.10418212315E+04  0.14384381158E+04  0.25500000920E-02 0. -1.
</event>
<event>
 5   0  0.3089218E-06  0.2692201E+04  0.7818609E-02  0.8337540E-01
       -1   -1    0    0    0  501  0.00000000000E+00  0.00000000000E+00  0.92841072321E+03  0.92841072322E+03  0.50400001928E-02 0. -1.
        1   -1    0    0  501    0  0.00000000000E+00  0.00000000000E+00 -0.19517078381E+04  0.19517078381E+04  0.50400001928E-02 0.  1.
    10030    2    1    2    0    0  0.00000000000E+00  0.00000000000E+00 -0.10232971149E+04  0.28801185613E+04  0.26922009475E+04 0.  0.
        5    1    3    3  502    0 -0.11971332215E+04 -0.59016359537E+03 -0.32468308398E+03  0.13736310328E+04  0.46999998093E+01 0. -1.
       -5    1    3    3    0  502  0.11971332215E+04  0.59016359537E+03 -0.69861403089E+03  0.15064875285E+04  0.46999998093E+01 0.  1.
</event>
<event>
 5   0  0.7838364E-06  0.2700791E+04  0.7818609E-02  0.8334748E-01
       -2   -1    0    0    0  501  0.00000000000E+00  0.00000000000E+00  0.13541974521E+04  0.13541974521E+04  0.25500000920E-02 0.  1.
        2   -1    0    0  501    0  0.00000000000E+00  0.00000000000E+00 -0.13466038704E+04  0.13466038704E+04  0.25500000920E-02 0. -1.
    10030    2    1    2    0    0  0.00000000000E+00  0.00000000000E+00  0.75935817893E+01  0.27008013225E+04  0.27007906474E+04 0.  0.
        2    1    3    3  502    0  0.49360566238E+03 -0.72991841781E+03  0.10270994644E+04  0.13532777824E+04  0.25500000920E-02 0.  1.
       -2    1    3    3    0  502 -0.49360566238E+03  0.72991841781E+03 -0.10195058826E+04  0.13475235401E+04  0.25500000920E-02 0. -1.
</event>
<event>
 5   0  0.7838364E-06  0.2960877E+04  0.7818609E-02  0.8254992E-01
        2   -1    0    0  501    0  0.00000000000E+00  0.00000000000E+00  0.15035262133E+04  0.15035262133E+04  0.25500000920E-02 0.  1.
       -2   -1    0    0    0  501  0.00000000000E+00  0.00000000000E+00 -0.14577048684E+04  0.14577048684E+04  0.25500000920E-02 0. -1.
    10030    2    1    2    0    0  0.00000000000E+00  0.00000000000E+00  0.45821344875E+02  0.29612310818E+04  0.29608765466E+04 0.  0.
        2    1    3    3  502    0  0.37568320577E+03 -0.10436414439E+04  0.10035239446E+04  0.14957893040E+04  0.25500000920E-02 0.  1.
       -2    1    3    3    0  502 -0.37568320577E+03  0.10436414439E+04 -0.95770259972E+03  0.14654417778E+04  0.25500000920E-02 0. -1.
</event>
<event>
 5   0  0.3028601E-06  0.2699176E+04  0.7818609E-02  0.8335272E-01
        1   -1    0    0  501    0  0.00000000000E+00  0.00000000000E+00  0.14692404300E+04  0.14692404300E+04  0.50400001928E-02 0. -1.
       -1   -1    0    0    0  501  0.00000000000E+00  0.00000000000E+00 -0.12396802476E+04  0.12396802476E+04  0.50400001928E-02 0.  1.
    10030    2    1    2    0    0  0.00000000000E+00  0.00000000000E+00  0.22956018240E+03  0.27089206776E+04  0.26991764226E+04 0.  0.
        3    1    3    3  502    0 -0.63163984254E+03  0.89851549619E+03 -0.67232753012E+03  0.12877590246E+04  0.10100000352E+00 0.  1.
       -3    1    3    3    0  502  0.63163984254E+03 -0.89851549619E+03  0.90188771252E+03  0.14211616529E+04  0.10100000352E+00 0. -1.
</event>
<event>
 5   0  0.7812908E-06  0.2694586E+04  0.7818609E-02  0.8336764E-01
        2   -1    0    0  501    0  0.00000000000E+00  0.00000000000E+00  0.22966386087E+04  0.22966386087E+04  0.25500000920E-02 0. -1.
       -2   -1    0    0    0  501  0.00000000000E+00  0.00000000000E+00 -0.79037195768E+03  0.79037195769E+03  0.25500000920E-02 0.  1.
    10030    2    1    2    0    0  0.00000000000E+00  0.00000000000E+00  0.15062666510E+04  0.30870105664E+04  0.26945862415E+04 0.  0.
        5    1    3    3  502    0 -0.33840192959E+02  0.78089675620E+02  0.22935466087E+04  0.22951299075E+04  0.46999998093E+01 0. -1.
       -5    1    3    3    0  502  0.33840192959E+02 -0.78089675620E+02 -0.78727995769E+03  0.79188065886E+03  0.46999998093E+01 0.  1.
</event>
<event>
 5   0  0.3013407E-06  0.2705759E+04  0.7818609E-02  0.8333139E-01
        1   -1    0    0  501    0  0.00000000000E+00  0.00000000000E+00  0.18508499044E+04  0.18508499044E+04  0.50400001928E-02 0.  1.
       -1   -1    0    0    0  501  0.00000000000E+00  0.00000000000E+00 -0.98888748693E+03  0.98888748694E+03  0.50400001928E-02 0. -1.
    10030    2    1    2    0    0  0.00000000000E+00  0.00000000000E+00  0.86196241744E+03  0.28397373913E+04  0.27057585337E+04 0.  0.
        4    1    3    3  502    0 -0.10915837104E+03 -0.94297292016E+02  0.18427553305E+04  0.18483929101E+04  0.12699999809E+01 0.  1.
       -4    1    3    3    0  502  0.10915837104E+03  0.94297292016E+02 -0.98079291304E+03  0.99134448120E+03  0.12699999809E+01 0. -1.
</event>
<event>
 5   0  0.7838364E-06  0.2675693E+04  0.7818609E-02  0.8342935E-01
       -2   -1    0    0    0  501  0.00000000000E+00  0.00000000000E+00  0.13102985378E+04  0.13102985378E+04  0.25500000920E-02 0. -1.
        2   -1    0    0  501    0  0.00000000000E+00  0.00000000000E+00 -0.13659732064E+04  0.13659732064E+04  0.25500000920E-02 0.  1.
    10030    2    1    2    0    0  0.00000000000E+00  0.00000000000E+00 -0.55674668613E+02  0.26762717442E+04  0.26756925795E+04 0.  0.
        2    1    3    3  502    0 -0.58382118799E+02  0.68816600940E+03  0.11182081153E+04  0.13142946083E+04  0.25500000920E-02 0. -1.
       -2    1    3    3    0  502  0.58382118799E+02 -0.68816600940E+03 -0.11738827839E+04  0.13619771359E+04  0.25500000920E-02 0.  1.
</event>
<event>
 5   0  0.3089218E-06  0.2695490E+04  0.7818609E-02  0.8336470E-01
       -1   -1    0    0    0  501  0.00000000000E+00  0.00000000000E+00  0.11851456960E+04  0.11851456960E+04  0.50400001928E-02 0. -1.
        1   -1    0    0  501    0  0.00000000000E+00  0.00000000000E+00 -0.15326526633E+04  0.15326526633E+04  0.50400001928E-02 0.  1.
    10030    2    1    2    0    0  0.00000000000E+00  0.00000000000E+00 -0.34750696730E+03  0.27177983593E+04  0.26954900908E+04 0.  0.
        5    1    3    3  502    0  0.75433507184E+03 -0.33971989447E+03  0.89898960528E+03  0.12217345897E+04  0.46999998093E+01 0. -1.
       -5    1    3    3    0  502 -0.75433507184E+03  0.33971989447E+03 -0.12464965726E+04  0.14960637696E+04  0.46999998093E+01 0.  1.
</event>
<event>
 5   0  0.2654625E-06  0.2692417E+04  0.7818609E-02  0.8337469E-01
       -3   -1    0    0    0  501  0.00000000000E+00  0.00000000000E+00  0.13322933727E+04  0.13322933765E+04  0.10100000352E+00 0.  1.
        3   -1    0    0  501    0  0.00000000000E+00  0.00000000000E+00 -0.13602693520E+04  0.13602693558E+04  0.10100000352E+00 0. -1.
    10030    2    1    2    0    0  0.00000000000E+00  0.00000000000E+00 -0.27975979364E+02  0.26925627323E+04  0.26924173919E+04 0.  0.
        2    1    3    3  502    0  0.95431474611E+03  0.94170586609E+03 -0.13544939410E+03  0.13475433615E+04  0.25500000920E-02 0. -1.
       -2    1    3    3    0  502 -0.95431474611E+03 -0.94170586609E+03  0.10747341473E+03  0.13450193708E+04  0.25500000920E-02 0.  1.
</event>
<event>
 5   0  0.3046300E-06  0.2696469E+04  0.7818609E-02  0.8336151E-01
        1   -1    0    0  501    0  0.00000000000E+00  0.00000000000E+00  0.24427417760E+04  0.24427417760E+04  0.50400001928E-02 0.  1.
       -1   -1    0    0    0  501  0.00000000000E+00  0.00000000000E+00 -0.74413795906E+03  0.74413795908E+03  0.50400001928E-02 0. -1.
    10030    2    1    2    0    0  0.00000000000E+00  0.00000000000E+00  0.16986038169E+04  0.31868797350E+04  0.26964694545E+04 0.  0.
        2    1    3    3  502    0 -0.74722589592E+03  0.72683863904E+03  0.18598508548E+04  0.21320614787E+04  0.25500000920E-02 0. -1.
       -2    1    3    3    0  502  0.74722589592E+03 -0.72683863904E+03 -0.16124703790E+03  0.10548182564E+04  0.25500000920E-02 0.  1.
</event>
<event>
 5   0  0.3089218E-06  0.2690100E+04  0.7818609E-02  0.8338224E-01
       -1   -1    0    0    0  501  0.00000000000E+00  0.00000000000E+00  0.10508432532E+04  0.10508432532E+04  0.50400001928E-02 0.  1.
        1   -1    0    0  501    0  0.00000000000E+00  0.00000000000E+00 -0.17216265837E+04  0.17216265838E+04  0.50400001928E-02 0. -1.
    10030    2    1    2    0    0  0.00000000000E+00  0.00000000000E+00 -0.67078333059E+03  0.27724698369E+04  0.26901001320E+04 0.  0.
        5    1    3    3  502    0 -0.11452174604E+04 -0.25393104879E+03  0.34288880413E+03  0.12221288112E+04  0.46999998093E+01 0. -1.
       -5    1    3    3    0  502  0.11452174604E+04  0.25393104879E+03 -0.10136721347E+04  0.15503410257E+04  0.46999998093E+01 0.  1.
</event>
<event>
 5   0  0.7838364E-06  0.2760043E+04  0.7818609E-02  0.8315782E-01
        2   -1    0    0  501    0  0.00000000000E+00  0.00000000000E+00  0.17014195397E+04  0.17014195397E+04  0.25500000920E-02 0.  1.
       -2   -1    0    0    0  501  0.00000000000E+00  0.00000000000E+00 -0.11193352780E+04  0.11193352780E+04  0.25500000920E-02 0. -1.
    10030    2    1    2    0    0  0.00000000000E+00  0.00000000000E+00  0.58208426176E+03  0.28207548177E+04  0.27600426906E+04 0.  0.
        2    1    3    3  502    0 -0.55030099237E+03 -0.80079432637E+03  0.12925761518E+04  0.16170515897E+04  0.25500000920E-02 0.  1.
       -2    1    3    3    0  502  0.55030099237E+03  0.80079432637E+03 -0.71049189009E+03  0.12037032281E+04  0.25500000920E-02 0. -1.
</event>
<event>
 5   0  0.7838364E-06  0.2706675E+04  0.7818609E-02  0.8332842E-01
        2   -1    0    0  501    0  0.00000000000E+00  0.00000000000E+00  0.32028479866E+04  0.32028479866E+04  0.25500000920E-02 0.  1.
       -2   -1    0    0    0  501  0.00000000000E+00  0.00000000000E+00 -0.57184185082E+03  0.57184185082E+03  0.25500000920E-02 0. -1.
    10030    2    1    2    0    0  0.00000000000E+00  0.00000000000E+00  0.26310061358E+04  0.37746898375E+04  0.27066750973E+04 0.  0.
        2    1    3    3  502    0  0.10033696709E+04 -0.51305178205E+03  0.23605582948E+04  0.26157615126E+04  0.25500000920E-02 0.  1.
       -2    1    3    3    0  502 -0.10033696709E+04  0.51305178205E+03  0.27044784102E+03  0.11589283249E+04  0.25500000920E-02 0. -1.
</event>
<event>
 5   0  0.3013407E-06  0.2721294E+04  0.7818609E-02  0.8328129E-01
        1   -1    0    0  501    0  0.00000000000E+00  0.00000000000E+00  0.16355660077E+04  0.16355660077E+04  0.50400001928E-02 0. -1.
       -1   -1    0    0    0  501  0.00000000000E+00  0.00000000000E+00 -0.11319388402E+04  0.11319388402E+04  0.50400001928E-02 0.  1.
    10030    2    1    2    0    0  0.00000000000E+00  0.00000000000E+00  0.50362716748E+03  0.27675048479E+04  0.27212943169E+04 0.  0.
        4    1    3    3  502    0 -0.59182410570E+00 -0.65216071443E+02  0.16339749102E+04  0.16352764617E+04  0.12699999809E+01 0. -1.
       -4    1    3    3    0  502  0.59182410570E+00  0.65216071443E+02 -0.11303477427E+04  0.11322283862E+04  0.12699999809E+01 0.  1.
</event>
<event>
 5   0  0.7729970E-06  0.2689826E+04  0.7818609E-02  0.8338314E-01
       -2   -1    0    0    0  501  0.00000000000E+00  0.00000000000E+00  0.97810922171E+03  0.97810922171E+03  0.25500000920E-02 0.  1.
        2   -1    0    0  501    0  0.00000000000E+00  0.00000000000E+00 -0.18492733145E+04  0.18492733145E+04  0.25500000920E-02 0. -1.
    10030    2    1    2    0    0  0.00000000000E+00  0.00000000000E+00 -0.87116409283E+03  0.28273825363E+04  0.26898262267E+04 0.  0.
        4    1    3    3  502    0 -0.41528247942E+03  0.18474424507E+03  0.89492956764E+03  0.10037382715E+04  0.12699999809E+01 0.  1.
       -4    1    3    3    0  502  0.41528247942E+03 -0.18474424507E+03 -0.17660936605E+04  0.18236442647E+04  0.12699999809E+01 0. -1.
</event>
<event>
 5   0  0.2654625E-06  0.2668484E+04  0.7818609E-02  0.8345304E-01
       -3   -1    0    0    0  501  0.00000000000E+00  0.00000000000E+00  0.19991425445E+04  0.19991425471E+04  0.10100000352E+00 0. -1.
        3   -1    0    0  501    0  0.00000000000E+00  0.00000000000E+00 -0.89048258757E+03  0.89048259330E+03  0.10100000352E+00 0.  1.
    10030    2    1    2    0    0  0.00000000000E+00  0.00000000000E+00  0.11086599570E+04  0.28896251404E+04  0.26684839426E+04 0.  0.
        3    1    3    3  502    0  0.94038319122E+03  0.59428573486E+03  0.13520657071E+04  0.17508791413E+04  0.10100000352E+00 0.  1.
       -3    1    3    3    0  502 -0.94038319122E+03 -0.59428573486E+03 -0.24340575014E+03  0.11387459991E+04  0.10100000352E+00 0. -1.
</event>
<event>
 5   0  0.2654625E-06  0.2723669E+04  0.7818609E-02  0.8327366E-01
        3   -1    0    0  501    0  0.00000000000E+00  0.00000000000E+00  0.11464683159E+04  0.11464683204E+04  0.10100000352E+00 0.  1.
       -3   -1    0    0    0  501  0.00000000000E+00  0.00000000000E+00 -0.16176573517E+04  0.16176573548E+04  0.10100000352E+00 0. -1.
    10030    2    1    2    0    0  0.00000000000E+00  0.00000000000E+00 -0.47118903575E+03  0.27641256752E+04  0.27236687832E+04 0.  0.
        2    1    3    3  502    0  0.45693534030E+03 -0.65093808390E+03 -0.13574935540E+04  0.15733083116E+04  0.25500000920E-02 0. -1.
       -2    1    3    3    0  502 -0.45693534030E+03  0.65093808390E+03  0.88630451824E+03  0.11908173636E+04  0.25500000920E-02 0.  1.
</event>
<event>
 5   0  0.3028601E-06  0.2702124E+04  0.7818609E-02  0.8334316E-01
       -1   -1    0    0    0  501  0.00000000000E+00  0.00000000000E+00  0.13071290864E+04  0.13071290864E+04  0.50400001928E-02 0. -1.
        1   -1    0    0  501    0  0.00000000000E+00  0.00000000000E+00 -0.13964719422E+04  0.13964719422E+04  0.50400001928E-02 0.  1.
    10030    2    1    2    0    0  0.00000000000E+00  0.00000000000E+00 -0.89342855806E+02  0.27036010286E+04  0.27021244190E+04 0.  0.
        3    1    3    3  502    0  0.32349479058E+03 -0.12111699887E+04  0.45937709066E+03  0.13351437910E+04  0.10100000352E+00 0. -1.
       -3    1    3    3    0  502 -0.32349479058E+03  0.12111699887E+04 -0.54871994647E+03  0.13684572375E+04  0.10100000352E+00 0.  1.
</event>
<event>
 5   0  0.7838364E-06  0.2705111E+04  0.7818609E-02  0.8333349E-01
        2   -1    0    0  501    0  0.00000000000E+00  0.00000000000E+00  0.10636855481E+04  0.10636855481E+04  0.25500000920E-02 0. -1.
       -2   -1    0    0    0  501  0.00000000000E+00  0.00000000000E+00 -0.17198752113E+04  0.17198752113E+04  0.25500000920E-02 0.  1.
    10030    2    1    2    0    0  0.00000000000E+00  0.00000000000E+00 -0.65618966319E+03  0.27835607594E+04  0.27051110194E+04 0.  0.
        2    1    3    3  502    0  0.76810224020E+03  0.98970060066E+03 -0.85270155733E+03  0.15154498594E+04  0.25500000920E-02 0.  1.
       -2    1    3    3    0  502 -0.76810224020E+03 -0.98970060066E+03  0.19651189414E+03  0.12681109001E+04  0.25500000920E-02 0. -1.
</event>
<event>
 5   0  0.3199840E-06  0.2677912E+04  0.7818609E-02  0.8342207E-01
       -1   -1    0    0    0  501  0.00000000000E+00  0.00000000000E+00  0.16936464440E+04  0.16936464440E+04  0.50400001928E-02 0.  1.
        1   -1    0    0  501    0  0.00000000000E+00  0.00000000000E+00 -0.10585463876E+04  0.10585463876E+04  0.50400001928E-02 0. -1.
    10030    2    1    2    0    0  0.00000000000E+00  0.00000000000E+00  0.63510005642E+03  0.27521928316E+04  0.26779121159E+04 0.  0.
        1    1    3    3  502    0 -0.32529641980E+03 -0.15019207621E+03  0.16434630422E+04  0.16820660486E+04  0.50400001928E-02 0.  1.
       -1    1    3    3    0  502  0.32529641980E+03  0.15019207621E+03 -0.10083629858E+04  0.10701267830E+04  0.50400001928E-02 0. -1.
</event>
<event>
 5   0  0.7838364E-06  0.2715096E+04  0.7818609E-02  0.8330123E-01
       -2   -1    0    0    0  501  0.00000000000E+00  0.00000000000E+00  0.10855974314E+04  0.10855974314E+04  0.25500000920E-02 0.  1.
        2   -1    0    0  501    0  0.00000000000E+00  0.00000000000E+00 -0.16976242100E+04  0.16976242100E+04  0.25500000920E-02 0. -1.
    10030    2    1    2    0    0  0.00000000000E+00  0.00000000000E+00 -0.61202677858E+03  0.27832216414E+04  0.27150959334E+04 0.  0.
        2    1    3    3  502    0  0.70523303833E+03  0.10576206250E+04 -0.79443634426E+03  0.14990143861E+04  0.25500000920E-02 0. -1.
       -2    1    3    3    0  502 -0.70523303833E+03 -0.10576206250E+04  0.18240956568E+03  0.12842072552E+04  0.25500000920E-02 0.  1.
</event>
<event>
 5   0  0.7838364E-06  0.2718083E+04  0.7818609E-02  0.8329161E-01
        2   -1    0    0  501    0  0.00000000000E+00  0.00000000000E+00  0.27741466430E+04  0.27741466430E+04  0.25500000920E-02 0. -1.
       -2   -1    0    0    0  501  0.00000000000E+00  0.00000000000E+00 -0.66578819371E+03  0.66578819371E+03  0.25500000920E-02 0.  1.
    10030    2    1    2    0    0  0.00000000000E+00  0.00000000000E+00  0.21083584493E+04  0.34399348367E+04  0.27180832088E+04 0.  0.
        2    1    3    3  502    0 -0.11923068901E+03 -0.12173000469E+04  0.18039275207E+04  0.21794930286E+04  0.25500000920E-02 0. -1.
       -2    1    3    3    0  502  0.11923068901E+03  0.12173000469E+04  0.30443092856E+03  0.12604418082E+04  0.25500000920E-02 0.  1.
</event>
<event>
 5   0  0.3028601E-06  0.2699780E+04  0.7818609E-02  0.8335076E-01
       -1   -1    0    0    0  501  0.00000000000E+00  0.00000000000E+00  0.13835477504E+04  0.13835477504E+04  0.50400001928E-02 0. -1.
        1   -1    0    0  501    0  0.00000000000E+00  0.00000000000E+00 -0.13170507139E+04  0.13170507139E+04  0.50400001928E-02 0.  1.
    10030    2    1    2    0    0  0.00000000000E+00  0.00000000000E+00  0.66497036431E+02  0.27005984643E+04  0.26997796594E+04 0.  0.
        3    1    3    3  502    0  0.34714413428E+03 -0.22061285519E+03 -0.12528410158E+04  0.13186317541E+04  0.10100000352E+00 0.  1.
       -3    1    3    3    0  502 -0.34714413428E+03  0.22061285519E+03  0.13193380522E+04  0.13819667102E+04  0.10100000352E+00 0. -1.
</event>
<event>
 5   0  0.3199840E-06  0.2697581E+04  0.7818609E-02  0.8335790E-01
        1   -1    0    0  501    0  0.00000000000E+00  0.00000000000E+00  0.16465589271E+04  0.16465589271E+04  0.50400001928E-02 0. -1.
       -1   -1    0    0    0  501  0.00000000000E+00  0.00000000000E+00 -0.11048716062E+04  0.11048716062E+04  0.50400001928E-02 0.  1.
    10030    2    1    2    0    0  0.00000000000E+00  0.00000000000E+00  0.54168732093E+03  0.27514305334E+04  0.26975812919E+04 0.  0.
        1    1    3    3  502    0 -0.41170179601E+03  0.78095905670E+03 -0.76923799388E+03  0.11709494047E+04  0.50400001928E-02 0.  1.
       -1    1    3    3    0  502  0.41170179601E+03 -0.78095905670E+03  0.13109253148E+04  0.15804811287E+04  0.50400001928E-02 0. -1.
</event>
<event>
 5   0  0.3028601E-06  0.2703627E+04  0.7818609E-02  0.8333829E-01
        1   -1    0    0  501    0  0.00000000000E+00  0.00000000000E+00  0.13583791175E+04  0.13583791175E+04  0.50400001928E-02 0.  1.
       -1   -1    0    0    0  501  0.00000000000E+00  0.00000000000E+00 -0.13452794491E+04  0.13452794491E+04  0.50400001928E-02 0. -1.
    10030    2    1    2    0    0  0.00000000000E+00  0.00000000000E+00  0.13099668444E+02  0.27036585667E+04  0.27036268314E+04 0.  0.
        3    1    3    3  502    0  0.12927380741E+04  0.24397542723E+03 -0.30442610305E+03  0.13503225540E+04  0.10100000352E+00 0.  1.
       -3    1    3    3    0  502 -0.12927380741E+04 -0.24397542723E+03  0.31752577149E+03  0.13533360127E+04  0.10100000352E+00 0. -1.
</event>
<event>
 5   0  0.2654625E-06  0.2683040E+04  0.7818609E-02  0.8340529E-01
        3   -1    0    0  501    0  0.00000000000E+00  0.00000000000E+00  0.11445323133E+04  0.11445323177E+04  0.10100000352E+00 0.  1.
       -3   -1    0    0    0  501  0.00000000000E+00  0.00000000000E+00 -0.15724117985E+04  0.15724118018E+04  0.10100000352E+00 0. -1.
    10030    2    1    2    0    0  0.00000000000E+00  0.00000000000E+00 -0.42787948525E+03  0.27169441195E+04  0.26830401590E+04 0.  0.
        1    1    3    3  502    0  0.20827163385E+03  0.68907645495E+03 -0.13602659215E+04  0.15390018880E+04  0.50400001928E-02 0. -1.
       -1    1    3    3    0  502 -0.20827163385E+03 -0.68907645495E+03  0.93238643622E+03  0.11779422315E+04  0.50400001928E-02 0.  1.
</event>
<event>
 5   0  0.3013407E-06  0.2882191E+04  0.7818609E-02  0.8278196E-01
        1   -1    0    0  501    0  0.00000000000E+00  0.00000000000E+00  0.13321486823E+04  0.13321486823E+04  0.50400001928E-02 0.  1.
       -1   -1    0    0    0  501  0.00000000000E+00  0.00000000000E+00 -0.15589526597E+04  0.15589526597E+04  0.50400001928E-02 0. -1.
    10030    2    1    2    0    0  0.00000000000E+00  0.00000000000E+00 -0.22680397740E+03  0.28911013420E+04  0.28821913409E+04 0.  0.
        4    1    3    3  502    0 -0.97855133579E+03 -0.26873526777E+03 -0.11397825170E+04  0.15260691858E+04  0.12699999809E+01 0. -1.
       -4    1    3    3    0  502  0.97855133579E+03  0.26873526777E+03  0.91297853955E+03  0.13650321562E+04  0.12699999809E+01 0.  1.
</event>
<event>
 5   0  0.3013407E-06  0.2702096E+04  0.7818609E-02  0.8334325E-01
        1   -1    0    0  501    0  0.00000000000E+00  0.00000000000E+00  0.13599414971E+04  0.13599414972E+04  0.50400001928E-02 0. -1.
       -1   -1    0    0    0  501  0.00000000000E+00  0.00000000000E+00 -0.13422127089E+04  0.13422127089E+04  0.50400001928E-02 0.  1.
    10030    2    1    2    0    0  0.00000000000E+00  0.00000000000E+00  0.17728788266E+02  0.27021542060E+04  0.27020960463E+04 0.  0.
        4    1    3    3  502    0 -0.69419660950E+03  0.99509140088E+03  0.60319471007E+03  0.13549764942E+04  0.12699999809E+01 0. -1.
       -4    1    3    3    0  502  0.69419660950E+03 -0.99509140088E+03 -0.58546592180E+03  0.13471777118E+04  0.12699999809E+01 0.  1.
</event>
<event>
 5   0  0.8407622E-06  0.2716763E+04  0.7818609E-02  0.8329586E-01
        2   -1    0    0  501    0  0.00000000000E+00  0.00000000000E+00  0.12476118858E+04  0.12476118858E+04  0.25500000920E-02 0. -1.
       -2   -1    0    0    0  501  0.00000000000E+00  0.00000000000E+00 -0.14789857860E+04  0.14789857860E+04  0.25500000920E-02 0.  1.
    10030    2    1    2    0    0  0.00000000000E+00  0.00000000000E+00 -0.23137390022E+03  0.27265976718E+04  0.27167629602E+04 0.  0.
        1    1    3    3  502    0 -0.44685125908E+03  0.51283978795E+03  0.10643753951E+04  0.12631609864E+04  0.50400001928E-02 0. -1.
       -1    1    3    3    0  502  0.44685125908E+03 -0.51283978795E+03 -0.12957492953E+04  0.14634366854E+04  0.50400001928E-02 0.  1.
</event>
<event>
 5   0  0.8213334E-06  0.2676771E+04  0.7818609E-02  0.8342581E-01
       -2   -1    0    0    0  501  0.00000000000E+00  0.00000000000E+00  0.97990991144E+03  0.97990991145E+03  0.25500000920E-02 0.  1.
        2   -1    0    0  501    0  0.00000000000E+00  0.00000000000E+00 -0.18280009280E+04  0.18280009280E+04  0.25500000920E-02 0. -1.
    10030    2    1    2    0    0  0.00000000000E+00  0.00000000000E+00 -0.84809101653E+03  0.28079108394E+04  0.26767713593E+04 0.  0.
        3    1    3    3  502    0  0.12513945653E+04  0.45142153519E+03 -0.27021004284E+03  0.13574915241E+04  0.10100000352E+00 0.  1.
       -3    1    3    3    0  502 -0.12513945653E+04 -0.45142153519E+03 -0.57788097368E+03  0.14504193154E+04  0.10100000352E+00 0. -1.
</event>
<event>
 5   0  0.2654625E-06  0.2711797E+04  0.7818609E-02  0.8331187E-01
       -3   -1    0    0    0  501  0.00000000000E+00  0.00000000000E+00  0.15985680450E+04  0.15985680482E+04  0.10100000352E+00 0. -1.
        3   -1    0    0  501    0  0.00000000000E+00  0.00000000000E+00 -0.11500674320E+04  0.11500674364E+04  0.10100000352E+00 0.  1.
    10030    2    1    2    0    0  0.00000000000E+00  0.00000000000E+00  0.44850061304E+03  0.27486354847E+04  0.27117972320E+04 0.  0.
        2    1    3    3  502    0  0.66879273988E+02  0.56082674584E+03 -0.10251591755E+04  0.11704489785E+04  0.25500000920E-02 0.  1.
       -2    1    3    3    0  502 -0.66879273988E+02 -0.56082674584E+03  0.14736597885E+04  0.15781865062E+04  0.25500000920E-02 0. -1.
</event>
<event>
 5   0  0.7838364E-06  0.2693586E+04  0.7818609E-02  0.8337089E-01
        2   -1    0    0  501    0  0.00000000000E+00  0.00000000000E+00  0.29381122520E+04  0.29381122520E+04  0.25500000920E-02 0. -1.
       -2   -1    0    0    0  501  0.00000000000E+00  0.00000000000E+00 -0.61735277324E+03  0.61735277324E+03  0.25500000920E-02 0.  1.
    10030    2    1    2    0    0  0.00000000000E+00  0.00000000000E+00  0.23207594788E+04  0.35554650252E+04  0.26935862688E+04 0.  0.
        2    1    3    3  502    0  0.32063813780E+03 -0.36992540054E+03  0.28165127640E+04  0.28587405911E+04  0.25500000920E-02 0. -1.
       -2    1    3    3    0  502 -0.32063813780E+03  0.36992540054E+03 -0.49575328521E+03  0.69672443418E+03  0.25500000920E-02 0.  1.
</event>
<event>
 5   0  0.7729970E-06  0.2711833E+04  0.7818609E-02  0.8331176E-01
        2   -1    0    0  501    0  0.00000000000E+00  0.00000000000E+00  0.64353821447E+03  0.64353821447E+03  0.25500000920E-02 0.  1.
       -2   -1    0    0    0  501  0.00000000000E+00  0.00000000000E+00 -0.28568780918E+04  0.28568780918E+04  0.25500000920E-02 0. -1.
    10030    2    1    2    0    0  0.00000000000E+00  0.00000000000E+00 -0.22133398773E+04  0.35004163063E+04  0.27118334950E+04 0.  0.
        4    1    3    3  502    0  0.12943699134E+04  0.99649400596E+02 -0.60146801803E+03  0.14307651329E+04  0.12699999809E+01 0.  1.
       -4    1    3    3    0  502 -0.12943699134E+04 -0.99649400596E+02 -0.16118718593E+04  0.20696511734E+04  0.12699999809E+01 0. -1.
</event>
<event>
 5   0  0.3013407E-06  0.2696544E+04  0.7818609E-02  0.8336127E-01
       -1   -1    0    0    0  501  0.00000000000E+00  0.00000000000E+00  0.12595824525E+04  0.12595824525E+04  0.50400001928E-02 0.  1.
        1   -1    0    0  501    0  0.00000000000E+00  0.00000000000E+00 -0.14432064615E+04  0.14432064615E+04  0.50400001928E-02 0. -1.
    10030    2    1    2    0    0  0.00000000000E+00  0.00000000000E+00 -0.18362400900E+03  0.27027889141E+04  0.26965441100E+04 0.  0.
        4    1    3    3  502    0  0.11918755654E+03  0.10589873254E+04  0.73604027236E+03  0.12951512361E+04  0.12699999809E+01 0.  1.
       -4    1    3    3    0  502 -0.11918755654E+03 -0.10589873254E+04 -0.91966428136E+03  0.14076376779E+04  0.12699999809E+01 0. -1.
</event>
<event>
 5   0  0.7812908E-06  0.2695684E+04  0.7818609E-02  0.8336407E-01
        2   -1    0    0  501    0  0.00000000000E+00  0.00000000000E+00  0.14174077516E+04  0.14174077516E+04  0.25500000920E-02 0.  1.
       -2   -1    0    0    0  501  0.00000000000E+00  0.00000000000E+00 -0.12816904372E+04  0.12816904372E+04  0.25500000920E-02 0. -1.
    10030    2    1    2    0    0  0.00000000000E+00  0.00000000000E+00  0.13571731443E+03  0.26990981888E+04  0.26956839287E+04 0.  0.
        5    1    3    3  502    0 -0.91761226144E+03 -0.43426095368E+03 -0.81986511122E+03  0.13049121537E+04  0.46999998093E+01 0. -1.
       -5    1    3    3    0  502  0.91761226144E+03  0.43426095368E+03  0.95558242566E+03  0.13941860351E+04  0.46999998093E+01 0.  1.
</event>
<event>
 5   0  0.8213334E-06  0.2707177E+04  0.7818609E-02  0.8332680E-01
       -2   -1    0    0    0  501  0.00000000000E+00  0.00000000000E+00  0.13191842034E+04  0.13191842034E+04  0.25500000920E-02 0. -1.
        2   -1    0    0  501    0  0.00000000000E+00  0.00000000000E+00 -0.13888898152E+04  0.13888898152E+04  0.25500000920E-02 0.  1.
    10030    2    1    2    0    0  0.00000000000E+00  0.00000000000E+00 -0.69705611794E+02  0.27080740187E+04  0.27071767615E+04 0.  0.
        3    1    3    3  502    0 -0.22431921086E+03  0.66162019281E+03  0.11249024480E+04  0.13241850005E+04  0.10100000352E+00 0. -1.
       -3    1    3    3    0  502  0.22431921086E+03 -0.66162019281E+03 -0.11946080598E+04  0.13838890182E+04  0.10100000352E+00 0.  1.
</event>
<event>
 5   0  0.3013407E-06  0.2699630E+04  0.7818609E-02  0.8335125E-01
       -1   -1    0    0    0  501  0.00000000000E+00  0.00000000000E+00  0.89435111499E+03  0.89435111500E+03  0.50400001928E-02 0.  1.
        1   -1    0    0  501    0  0.00000000000E+00  0.00000000000E+00 -0.20372310708E+04  0.20372310708E+04  0.50400001928E-02 0. -1.
    10030    2    1    2    0    0  0.00000000000E+00  0.00000000000E+00 -0.11428799558E+04  0.29315821858E+04  0.26996295151E+04 0.  0.
        4    1    3    3  502    0  0.62766856307E+03  0.28931475983E+03  0.68763163793E+03  0.97494088934E+03  0.12699999809E+01 0.  1.
       -4    1    3    3    0  502 -0.62766856307E+03 -0.28931475983E+03 -0.18305115937E+04  0.19566412964E+04  0.12699999809E+01 0. -1.
</event>
<event>
 5   0  0.3028601E-06  0.2721584E+04  0.7818609E-02  0.8328035E-01
       -1   -1    0    0    0  501  0.00000000000E+00  0.00000000000E+00  0.61107540871E+03  0.61107540873E+03  0.50400001928E-02 0.  1.
        1   -1    0    0  501    0  0.00000000000E+00  0.00000000000E+00 -0.30303218859E+04  0.30303218859E+04  0.50400001928E-02 0. -1.
    10030    2    1    2    0    0  0.00000000000E+00  0.00000000000E+00 -0.24192464772E+04  0.36413972947E+04  0.27215842335E+04 0.  0.
        3    1    3    3  502    0  0.51585784186E+03  0.45818307249E+03 -0.27789391729E+04  0.28633099689E+04  0.10100000352E+00 0. -1.
       -3    1    3    3    0  502 -0.51585784186E+03 -0.45818307249E+03  0.35969269573E+03  0.77808732575E+03  0.10100000352E+00 0.  1.
</event>
<event>
 5   0  0.7729970E-06  0.2696914E+04  0.7818609E-02  0.8336007E-01
       -2   -1    0    0    0  501  0.00000000000E+00  0.00000000000E+00  0.13222798492E+04  0.13222798492E+04  0.25500000920E-02 0. -1.
        2   -1    0    0  501    0  0.00000000000E+00  0.00000000000E+00 -0.13751521546E+04  0.13751521546E+04  0.25500000920E-02 0.  1.
    10030    2    1    2    0    0  0.00000000000E+00  0.00000000000E+00 -0.52872305401E+02  0.26974320038E+04  0.26969137796E+04 0.  0.
        4    1    3    3  502    0 -0.20358516342E+03 -0.38481561310E+03  0.12500552967E+04  0.13236955211E+04  0.12699999809E+01 0. -1.
       -4    1    3    3    0  502  0.20358516342E+03  0.38481561310E+03 -0.13029276021E+04  0.13737364827E+04  0.12699999809E+01 0.  1.
</event>
<event>
 5   0  0.8213334E-06  0.2702186E+04  0.7818609E-02  0.8334296E-01
        2   -1    0    0  501    0  0.00000000000E+00  0.00000000000E+00  0.15468506048E+04  0.15468506048E+04  0.25500000920E-02 0.  1.
       -2   -1    0    0    0  501  0.00000000000E+00  0.00000000000E+00 -0.11801087651E+04  0.11801087651E+04  0.25500000920E-02 0. -1.
    10030    2    1    2    0    0  0.00000000000E+00  0.00000000000E+00  0.36674183966E+03  0.27269593698E+04  0.27021857501E+04 0.  0.
        3    1    3    3  502    0  0.12169239006E+04  0.46036634530E+03 -0.18412560329E+03  0.13140560109E+04  0.10100000352E+00 0. -1.
       -3    1    3    3    0  502 -0.12169239006E+04 -0.46036634530E+03  0.55086744295E+03  0.14129033589E+04  0.10100000352E+00 0.  1.
</event>
<event>
 5   0  0.7838364E-06  0.2706519E+04  0.7818609E-02  0.8332893E-01
       -2   -1    0    0    0  501  0.00000000000E+00  0.00000000000E+00  0.93286408296E+03  0.93286408296E+03  0.25500000920E-02 0. -1.
        2   -1    0    0  501    0  0.00000000000E+00  0.00000000000E+00 -0.19631065496E+04  0.19631065496E+04  0.25500000920E-02 0.  1.
    10030    2    1    2    0    0  0.00000000000E+00  0.00000000000E+00 -0.10302424667E+04  0.28959706326E+04  0.27065192341E+04 0.  0.
        2    1    3    3  502    0 -0.61535839855E+03  0.28639928730E+03 -0.17678058358E+04  0.18936282590E+04  0.25500000920E-02 0.  1.
       -2    1    3    3    0  502  0.61535839855E+03 -0.28639928730E+03  0.73756336909E+03  0.10023423736E+04  0.25500000920E-02 0. -1.
</event>
<event>
 5   0  0.7838364E-06  0.2701870E+04  0.7818609E-02  0.8334398E-01
       -2   -1    0    0    0  501  0.00000000000E+00  0.00000000000E+00  0.69745267498E+03  0.69745267498E+03  0.25500000920E-02 0.  1.
        2   -1    0    0  501    0  0.00000000000E+00  0.00000000000E+00 -0.26167019929E+04  0.26167019929E+04  0.25500000920E-02 0. -1.
    10030    2    1    2    0    0  0.00000000000E+00  0.00000000000E+00 -0.19192493179E+04  0.33141546679E+04  0.27018703186E+04 0.  0.
        2    1    3    3  502    0 -0.28508783148E+03 -0.64836829290E+03  0.45144611953E+03  0.83991673024E+03  0.25500000920E-02 0.  1.
       -2    1    3    3    0  502  0.28508783148E+03  0.64836829290E+03 -0.23706954375E+04  0.24742379377E+04  0.25500000920E-02 0. -1.
</event>
<event>
 5   0  0.7729970E-06  0.2718361E+04  0.7818609E-02  0.8329072E-01
       -2   -1    0    0    0  501  0.00000000000E+00  0.00000000000E+00  0.55255884599E+03  0.55255884599E+03  0.25500000920E-02 0. -1.
        2   -1    0    0  501    0  0.00000000000E+00  0.00000000000E+00 -0.33433031667E+04  0.33433031667E+04  0.25500000920E-02 0.  1.
    10030    2    1    2    0    0  0.00000000000E+00  0.00000000000E+00 -0.27907443207E+04  0.38958620127E+04  0.27183610795E+04 0.  0.
        4    1    3    3  502    0  0.19970454566E+03  0.13369266669E+04 -0.15986358339E+04  0.20935359946E+04  0.12699999809E+01 0. -1.
       -4    1    3    3    0  502 -0.19970454566E+03 -0.13369266669E+04 -0.11921084869E+04  0.18023260181E+04  0.12699999809E+01 0.  1.
</event>
<event>
 5   0  0.7812908E-06  0.2701202E+04  0.7818609E-02  0.8334615E-01
        2   -1    0    0  501    0  0.00000000000E+00  0.00000000000E+00  0.19729281398E+04  0.19729281398E+04  0.25500000920E-02 0. -1.
       -2   -1    0    0    0  501  0.00000000000E+00  0.00000000000E+00 -0.92457646703E+03  0.92457646704E+03  0.25500000920E-02 0.  1.
    10030    2    1    2    0    0  0.00000000000E+00  0.00000000000E+00  0.10483516728E+04  0.28975046069E+04  0.27012019023E+04 0.  0.
        5    1    3    3  502    0  0.26530598460E+03 -0.42894882218E+03  0.18681090818E+04  0.19350033564E+04  0.46999998093E+01 0. -1.
       -5    1    3    3    0  502 -0.26530598460E+03  0.42894882218E+03 -0.81975740905E+03  0.96250125049E+03  0.46999998093E+01 0.  1.
</event>
<event>
 5   0  0.7812908E-06  0.2691561E+04  0.7818609E-02  0.8337748E-01
       -2   -1    0    0    0  501  0.00000000000E+00  0.00000000000E+00  0.17823793757E+04  0.17823793757E+04  0.25500000920E-02 0.  1.
        2   -1    0    0  501    0  0.00000000000E+00  0.00000000000E+00 -0.10161277587E+04  0.10161277587E+04  0.25500000920E-02 0. -1.
    10030    2    1    2    0    0  0.00000000000E+00  0.00000000000E+00  0.76625161702E+03  0.27985071344E+04  0.26915610045E+04 0.  0.
        5    1    3    3  502    0 -0.61290174845E+03  0.18722988046E+03 -0.84727940485E+03  0.10623596666E+04  0.46999998093E+01 0. -1.
       -5    1    3    3    0  502  0.61290174845E+03 -0.18722988046E+03  0.16135310219E+04  0.17361474678E+04  0.46999998093E+01 0.  1.
</event>
<event>
 5   0  0.8213334E-06  0.2681628E+04  0.7818609E-02  0.8340991E-01
       -2   -1    0    0    0  501  0.00000000000E+00  0.00000000000E+00  0.26875044117E+04  0.26875044117E+04  0.25500000920E-02 0.  1.
        2   -1    0    0  501    0  0.00000000000E+00  0.00000000000E+00 -0.66894105072E+03  0.66894105073E+03  0.25500000920E-02 0. -1.
    10030    2    1    2    0    0  0.00000000000E+00  0.00000000000E+00  0.20185633609E+04  0.33564454624E+04  0.26816278824E+04 0.  0.
        3    1    3    3  502    0 -0.38392780410E+02 -0.26991437528E+03  0.26524458666E+04  0.26664202334E+04  0.10100000352E+00 0.  1.
       -3    1    3    3    0  502  0.38392780410E+02  0.26991437528E+03 -0.63388250562E+03  0.69002522904E+03  0.10100000352E+00 0. -1.
</event>
<event>
 5   0  0.3199840E-06  0.2702846E+04  0.7818609E-02  0.8334082E-01
       -1   -1    0    0    0  501  0.00000000000E+00  0.00000000000E+00  0.99801664841E+03  0.99801664842E+03  0.50400001928E-02 0. -1.
        1   -1    0    0  501    0  0.00000000000E+00  0.00000000000E+00 -0.18299741650E+04  0.18299741650E+04  0.50400001928E-02 0.  1.
    10030    2    1    2    0    0  0.00000000000E+00  0.00000000000E+00 -0.83195751662E+03  0.28279908135E+04  0.27028464129E+04 0.  0.
        1    1    3    3  502    0  0.16900247955E+03  0.92647581773E+03  0.59813757264E+03  0.11156557869E+04  0.50400001928E-02 0. -1.
       -1    1    3    3    0  502 -0.16900247955E+03 -0.92647581773E+03 -0.14300950893E+04  0.17123350266E+04  0.50400001928E-02 0.  1.
</event>
<event>
 5   0  0.3199840E-06  0.2687812E+04  0.7818609E-02  0.8338970E-01
       -1   -1    0    0    0  501  0.00000000000E+00  0.00000000000E+00  0.78071952848E+03  0.78071952849E+03  0.50400001928E-02 0.  1.
        1   -1    0    0  501    0  0.00000000000E+00  0.00000000000E+00 -0.23133582536E+04  0.23133582536E+04  0.50400001928E-02 0. -1.
    10030    2    1    2    0    0  0.00000000000E+00  0.00000000000E+00 -0.15326387251E+04  0.30940777821E+04  0.26878124674E+04 0.  0.
        1    1    3    3  502    0 -0.83276803429E+03  0.86993105698E+03 -0.79668386186E+02  0.12069091493E+04  0.50400001928E-02 0.  1.
       -1    1    3    3    0  502  0.83276803429E+03 -0.86993105698E+03 -0.14529703389E+04  0.18871686328E+04  0.50400001928E-02 0. -1.
</event>
<event>
 5   0  0.7838364E-06  0.2706077E+04  0.7818609E-02  0.8333036E-01
        2   -1    0    0  501    0  0.00000000000E+00  0.00000000000E+00  0.24055028034E+04  0.24055028034E+04  0.25500000920E-02 0. -1.
       -2   -1    0    0    0  501  0.00000000000E+00  0.00000000000E+00 -0.76105204204E+03  0.76105204205E+03  0.25500000920E-02 0.  1.
    10030    2    1    2    0    0  0.00000000000E+00  0.00000000000E+00  0.16444507613E+04  0.31665548454E+04  0.27060767326E+04 0.  0.
        2    1    3    3  502    0 -0.11186593758E+04 -0.57674097901E+03  0.14034142380E+04  0.18850995940E+04  0.25500000920E-02 0. -1.
       -2    1    3    3    0  502  0.11186593758E+04  0.57674097901E+03  0.24103652332E+03  0.12814552514E+04  0.25500000920E-02 0.  1.
</event>
<event>
 5   0  0.7729970E-06  0.2697863E+04  0.7818609E-02  0.8335699E-01
        2   -1    0    0  501    0  0.00000000000E+00  0.00000000000E+00  0.14661946543E+04  0.14661946543E+04  0.25500000920E-02 0. -1.
       -2   -1    0    0    0  501  0.00000000000E+00  0.00000000000E+00 -0.12410464555E+04  0.12410464555E+04  0.25500000920E-02 0.  1.
    10030    2    1    2    0    0  0.00000000000E+00  0.00000000000E+00  0.22514819874E+03  0.27072411098E+04  0.26978626198E+04 0.  0.
        4    1    3    3  502    0 -0.41486965566E+03  0.87954358210E+03  0.10506501644E+04  0.14316358213E+04  0.12699999809E+01 0. -1.
       -4    1    3    3    0  502  0.41486965566E+03 -0.87954358210E+03 -0.82550196561E+03  0.12756052885E+04  0.12699999809E+01 0.  1.
</event>
<event>
 5   0  0.3089218E-06  0.2701566E+04  0.7818609E-02  0.8334497E-01
        1   -1    0    0  501    0  0.00000000000E+00  0.00000000000E+00  0.13566701937E+04  0.13566701937E+04  0.50400001928E-02 0. -1.
       -1   -1    0    0    0  501  0.00000000000E+00  0.00000000000E+00 -0.13449210242E+04  0.13449210242E+04  0.50400001928E-02 0.  1.
    10030    2    1    2    0    0  0.00000000000E+00  0.00000000000E+00  0.11749169459E+02  0.27015912179E+04  0.27015656693E+04 0.  0.
        5    1    3    3  502    0 -0.82907864949E+03  0.10181679046E+04 -0.31123232039E+03  0.13494165170E+04  0.46999998093E+01 0.  1.
       -5    1    3    3    0  502  0.82907864949E+03 -0.10181679046E+04  0.32298148984E+03  0.13521747009E+04  0.46999998093E+01 0. -1.
</event>
<event>
 5   0  0.7729970E-06  0.2711543E+04  0.7818609E-02  0.8331269E-01
        2   -1    0    0  501    0  0.00000000000E+00  0.00000000000E+00  0.17019490264E+04  0.17019490264E+04  0.25500000920E-02 0. -1.
       -2   -1    0    0    0  501  0.00000000000E+00  0.00000000000E+00 -0.10800065174E+04  0.10800065174E+04  0.25500000920E-02 0.  1.
    10030    2    1    2    0    0  0.00000000000E+00  0.00000000000E+00  0.62194250901E+03  0.27819555438E+04  0.27115427644E+04 0.  0.
        4    1    3    3  502    0 -0.83790735154E+03 -0.27953202576E+03  0.13662166829E+04  0.16268916746E+04  0.12699999809E+01 0. -1.
       -4    1    3    3    0  502  0.83790735154E+03  0.27953202576E+03 -0.74427417389E+03  0.11550638692E+04  0.12699999809E+01 0.  1.
</event>
<event>
 5   0  0.3089218E-06  0.2713451E+04  0.7818609E-02  0.8330654E-01
        1   -1    0    0  501    0  0.00000000000E+00  0.00000000000E+00  0.17916898018E+04  0.17916898018E+04  0.50400001928E-02 0.  1.
       -1   -1    0    0    0  501  0.00000000000E+00  0.00000000000E+00 -0.10273564242E+04  0.10273564242E+04  0.50400001928E-02 0. -1.
    10030    2    1    2    0    0  0.00000000000E+00  0.00000000000E+00  0.76433337760E+03  0.28190462261E+04  0.27134509600E+04 0.  0.
        5    1    3    3  502    0 -0.67139622510E+03  0.37886123656E+03 -0.77768984471E+03  0.10950489999E+04  0.46999998093E+01 0. -1.
       -5    1    3    3    0  502  0.67139622510E+03 -0.37886123656E+03  0.15420232223E+04  0.17239972261E+04  0.46999998093E+01 0.  1.
</event>
<event>
 5   0  0.3013407E-06  0.2697822E+04  0.7818609E-02  0.8335712E-01
        1   -1    0    0  501    0  0.00000000000E+00  0.00000000000E+00  0.15681959808E+04  0.15681959809E+04  0.50400001928E-02 0. -1.
       -1   -1    0    0    0  501  0.00000000000E+00  0.00000000000E+00 -0.11602894959E+04  0.11602894959E+04  0.50400001928E-02 0.  1.
    10030    2    1    2    0    0  0.00000000000E+00  0.00000000000E+00  0.40790648499E+03  0.27284854767E+04  0.26978223248E+04 0.  0.
        4    1    3    3  502    0 -0.48333252423E+03  0.12386923678E+04 -0.25763999096E+02  0.13299001870E+04  0.12699999809E+01 0. -1.
       -4    1    3    3    0  502  0.48333252423E+03 -0.12386923678E+04  0.43367048408E+03  0.13985852897E+04  0.12699999809E+01 0.  1.
</event>
<event>
 5   0  0.3199840E-06  0.2611295E+04  0.7818609E-02  0.8364375E-01
        1   -1    0    0  501    0  0.00000000000E+00  0.00000000000E+00  0.66637539178E+03  0.66637539180E+03  0.50400001928E-02 0. -1.
       -1   -1    0    0    0  501  0.00000000000E+00  0.00000000000E+00 -0.25581915277E+04  0.25581915277E+04  0.50400001928E-02 0.  1.
    10030    2    1    2    0    0  0.00000000000E+00  0.00000000000E+00 -0.18918161360E+04  0.32245669195E+04  0.26112953733E+04 0.  0.
        1    1    3    3  502    0  0.65231134744E+03 -0.73469256926E+03  0.11594566141E+03  0.98930615168E+03  0.50400001928E-02 0. -1.
       -1    1    3    3    0  502 -0.65231134744E+03  0.73469256926E+03 -0.20077617974E+04  0.22352607679E+04  0.50400001928E-02 0.  1.
</event>
<event>
 5   0  0.3199840E-06  0.2708900E+04  0.7818609E-02  0.8332123E-01
       -1   -1    0    0    0  501  0.00000000000E+00  0.00000000000E+00  0.87800957443E+03  0.87800957445E+03  0.50400001928E-02 0.  1.
        1   -1    0    0  501    0  0.00000000000E+00  0.00000000000E+00 -0.20894242803E+04  0.20894242803E+04  0.50400001928E-02 0. -1.
    10030    2    1    2    0    0  0.00000000000E+00  0.00000000000E+00 -0.12114147059E+04  0.29674338547E+04  0.27088997938E+04 0.  0.
        1    1    3    3  502    0 -0.94820305561E+03 -0.73482506858E+03 -0.12945960448E+04  0.17649464115E+04  0.50400001928E-02 0. -1.
       -1    1    3    3    0  502  0.94820305561E+03  0.73482506858E+03  0.83181338944E+02  0.12024874433E+04  0.50400001928E-02 0.  1.
</event>
<event>
 5   0  0.3199840E-06  0.2700262E+04  0.7818609E-02  0.8334920E-01
       -1   -1    0    0    0  501  0.00000000000E+00  0.00000000000E+00  0.96994488709E+03  0.96994488710E+03  0.50400001928E-02 0.  1.
        1   -1    0    0  501    0  0.00000000000E+00  0.00000000000E+00 -0.18793380894E+04  0.18793380894E+04  0.50400001928E-02 0. -1.
    10030    2    1    2    0    0  0.00000000000E+00  0.00000000000E+00 -0.90939320226E+03  0.28492829765E+04  0.27002624842E+04 0.  0.
        1    1    3    3  502    0  0.88968992594E+03  0.50147788538E+03  0.47711581767E+03  0.11272389886E+04  0.50400001928E-02 0.  1.
       -1    1    3    3    0  502 -0.88968992594E+03 -0.50147788538E+03 -0.13865090199E+04  0.17220439879E+04  0.50400001928E-02 0. -1.
</event>
<event>
 5   0  0.3046300E-06  0.2703245E+04  0.7818609E-02  0.8333953E-01
        1   -1    0    0  501    0  0.00000000000E+00  0.00000000000E+00  0.12944586159E+04  0.12944586159E+04  0.50400001928E-02 0.  1.
       -1   -1    0    0    0  501  0.00000000000E+00  0.00000000000E+00 -0.14113105012E+04  0.14113105012E+04  0.50400001928E-02 0. -1.
    10030    2    1    2    0    0  0.00000000000E+00  0.00000000000E+00 -0.11685188528E+03  0.27057691170E+04  0.27032447451E+04 0.  0.
        2    1    3    3  502    0 -0.41421047018E+03 -0.38682495089E+02  0.12287828978E+04  0.12972949006E+04  0.25500000920E-02 0.  1.
       -2    1    3    3    0  502  0.41421047018E+03  0.38682495089E+02 -0.13456347831E+04  0.14084742165E+04  0.25500000920E-02 0. -1.
</event>
<event>
 5   0  0.3089218E-06  0.2706955E+04  0.7818609E-02  0.8332752E-01
       -1   -1    0    0    0  501  0.00000000000E+00  0.00000000000E+00  0.10777502367E+04  0.10777502367E+04  0.50400001928E-02 0. -1.
        1   -1    0    0  501    0  0.00000000000E+00  0.00000000000E+00 -0.16997451595E+04  0.16997451595E+04  0.50400001928E-02 0.  1.
    10030    2    1    2    0    0  0.00000000000E+00  0.00000000000E+00 -0.62199492285E+03  0.27774953962E+04  0.27069545604E+04 0.  0.
        5    1    3    3  502    0  0.82046052579E+03 -0.35865261242E+03 -0.13523799756E+04  0.16219558746E+04  0.46999998093E+01 0. -1.
       -5    1    3    3    0  502 -0.82046052579E+03  0.35865261242E+03  0.73038505276E+03  0.11555395216E+04  0.46999998093E+01 0.  1.
</event>
<event>
 5   0  0.8213334E-06  0.2678567E+04  0.7818609E-02  0.8341993E-01
       -2   -1    0    0    0  501  0.00000000000E+00  0.00000000000E+00  0.69445411620E+03  0.69445411620E+03  0.25500000920E-02 0. -1.
        2   -1    0    0  501    0  0.00000000000E+00  0.00000000000E+00 -0.25828629782E+04  0.25828629782E+04  0.25500000920E-02 0.  1.
    10030    2    1    2    0    0  0.00000000000E+00  0.00000000000E+00 -0.18884088620E+04  0.32773170944E+04  0.26785666516E+04 0.  0.
        3    1    3    3  502    0  0.20856519598E+03  0.73980273267E+03 -0.22861217757E+04  0.24118789994E+04  0.10100000352E+00 0.  1.
       -3    1    3    3    0  502 -0.20856519598E+03 -0.73980273267E+03  0.39771291374E+03  0.86543809495E+03  0.10100000352E+00 0. -1.
</event>
<event>
 5   0  0.3028601E-06  0.2656456E+04  0.7818609E-02  0.8349273E-01
        1   -1    0    0  501    0  0.00000000000E+00  0.00000000000E+00  0.10117810393E+04  0.10117810393E+04  0.50400001928E-02 0. -1.
       -1   -1    0    0    0  501  0.00000000000E+00  0.00000000000E+00 -0.17436470298E+04  0.17436470298E+04  0.50400001928E-02 0.  1.
    10030    2    1    2    0    0  0.00000000000E+00  0.00000000000E+00 -0.73186599055E+03  0.27554280691E+04  0.26564555363E+04 0.  0.
        3    1    3    3  502    0 -0.42912587159E+03  0.85568725000E+03  0.58915481351E+03  0.11240342913E+04  0.10100000352E+00 0. -1.
       -3    1    3    3    0  502  0.42912587159E+03 -0.85568725000E+03 -0.13210208041E+04  0.16313937779E+04  0.10100000352E+00 0.  1.
</event>
<event>
 5   0  0.3046300E-06  0.2692980E+04  0.7818609E-02  0.8337286E-01
        1   -1    0    0  501    0  0.00000000000E+00  0.00000000000E+00  0.22360373153E+04  0.22360373153E+04  0.50400001928E-02 0. -1.
       -1   -1    0    0    0  501  0.00000000000E+00  0.00000000000E+00 -0.81082499426E+03  0.81082499427E+03  0.50400001928E-02 0.  1.
    10030    2    1    2    0    0  0.00000000000E+00  0.00000000000E+00  0.14252123210E+04  0.30468623095E+04  0.26929797202E+04 0.  0.
        2    1    3    3  502    0 -0.13125978335E+03 -0.11746077798E+04  0.14424330218E+04  0.18648178435E+04  0.25500000920E-02 0. -1.
       -2    1    3    3    0  502  0.13125978335E+03  0.11746077798E+04 -0.17220700765E+02  0.11820444660E+04  0.25500000920E-02 0.  1.
</event>
<event>
 5   0  0.7812908E-06  0.2697677E+04  0.7818609E-02  0.8335759E-01
        2   -1    0    0  501    0  0.00000000000E+00  0.00000000000E+00  0.17755152875E+04  0.17755152875E+04  0.25500000920E-02 0. -1.
       -2   -1    0    0    0  501  0.00000000000E+00  0.00000000000E+00 -0.10246967792E+04  0.10246967792E+04  0.25500000920E-02 0.  1.
    10030    2    1    2    0    0  0.00000000000E+00  0.00000000000E+00  0.75081850828E+03  0.28002120668E+04  0.26976766275E+04 0.  0.
        5    1    3    3  502    0  0.92073493899E+03  0.76461701205E+03  0.10211063809E+04  0.15732362614E+04  0.46999998093E+01 0. -1.
       -5    1    3    3    0  502 -0.92073493899E+03 -0.76461701205E+03 -0.27028787260E+03  0.12269758054E+04  0.46999998093E+01 0.  1.
</event>
<event>
 5   0  0.8213334E-06  0.2704939E+04  0.7818609E-02  0.8333404E-01
        2   -1    0    0  501    0  0.00000000000E+00  0.00000000000E+00  0.17190207272E+04  0.17190207272E+04  0.25500000920E-02 0.  1.
       -2   -1    0    0    0  501  0.00000000000E+00  0.00000000000E+00 -0.10640786925E+04  0.10640786925E+04  0.25500000920E-02 0. -1.
    10030    2    1    2    0    0  0.00000000000E+00  0.00000000000E+00  0.65494203469E+03  0.27830994197E+04  0.27049386889E+04 0.  0.
        3    1    3    3  502    0 -0.88079541136E+03  0.10025416301E+04  0.10138765612E+03  0.13383458984E+04  0.10100000352E+00 0. -1.
       -3    1    3    3    0  502  0.88079541136E+03 -0.10025416301E+04  0.55355437857E+03  0.14447535212E+04  0.10100000352E+00 0.  1.
</event>
<event>
 5   0  0.3199840E-06  0.2874857E+04  0.7818609E-02  0.8280398E-01
        1   -1    0    0  501    0  0.00000000000E+00  0.00000000000E+00  0.29530184790E+04  0.29530184790E+04  0.50400001928E-02 0. -1.
       -1   -1    0    0    0  501  0.00000000000E+00  0.00000000000E+00 -0.69969110179E+03  0.69969110181E+03  0.50400001928E-02 0.  1.
    10030    2    1    2    0    0  0.00000000000E+00  0.00000000000E+00  0.22533273772E+04  0.36527095808E+04  0.28748570422E+04 0.  0.
        1    1    3    3  502    0  0.51091526555E+03  0.13000435548E+04  0.69569268280E+03  0.15604922178E+04  0.50400001928E-02 0. -1.
       -1    1    3    3    0  502 -0.51091526555E+03 -0.13000435548E+04  0.15576346944E+04  0.20922173630E+04  0.50400001928E-02 0.  1.
</event>
<event>
 5   0  0.7729970E-06  0.2683483E+04  0.7818609E-02  0.8340384E-01
       -2   -1    0    0    0  501  0.00000000000E+00  0.00000000000E+00  0.86141652626E+03  0.86141652626E+03  0.25500000920E-02 0. -1.
        2   -1    0    0  501    0  0.00000000000E+00  0.00000000000E+00 -0.20898946961E+04  0.20898946961E+04  0.25500000920E-02 0.  1.
    10030    2    1    2    0    0  0.00000000000E+00  0.00000000000E+00 -0.12284781699E+04  0.29513112224E+04  0.26834826844E+04 0.  0.
        4    1    3    3  502    0 -0.11018826555E+04  0.26810667973E+03 -0.14029172754E+04  0.18039415380E+04  0.12699999809E+01 0.  1.
       -4    1    3    3    0  502  0.11018826555E+04 -0.26810667973E+03  0.17443910556E+03  0.11473696843E+04  0.12699999809E+01 0. -1.
</event>
<event>
 5   0  0.8407622E-06  0.2699782E+04  0.7818609E-02  0.8335076E-01
       -2   -1    0    0    0  501  0.00000000000E+00  0.00000000000E+00  0.10014301445E+04  0.10014301445E+04  0.25500000920E-02 0.  1.
        2   -1    0    0  501    0  0.00000000000E+00  0.00000000000E+00 -0.18196032936E+04  0.18196032936E+04  0.25500000920E-02 0. -1.
    10030    2    1    2    0    0  0.00000000000E+00  0.00000000000E+00 -0.81817314912E+03  0.28210334380E+04  0.26997819091E+04 0.  0.
        1    1    3    3  502    0 -0.94922254196E+03  0.27534695027E+02  0.59338834769E+03  0.11197728898E+04  0.50400001928E-02 0.  1.
       -1    1    3    3    0  502  0.94922254196E+03 -0.27534695027E+02 -0.14115614968E+04  0.17012605482E+04  0.50400001928E-02 0. -1.
</event>
<event>
 5   0  0.8213334E-06  0.2659247E+04  0.7818609E-02  0.8348350E-01
       -2   -1    0    0    0  501  0.00000000000E+00  0.00000000000E+00  0.80290088271E+03  0.80290088271E+03  0.25500000920E-02 0. -1.
        2   -1    0    0  501    0  0.00000000000E+00  0.00000000000E+00 -0.22018887858E+04  0.22018887858E+04  0.25500000920E-02 0.  1.
    10030    2    1    2    0    0  0.00000000000E+00  0.00000000000E+00 -0.13989879031E+04  0.30047896685E+04  0.26592468481E+04 0.  0.
        3    1    3    3  502    0 -0.73001817716E+03  0.10587534984E+04 -0.31796062613E+03  0.13247582720E+04  0.10100000352E+00 0. -1.
       -3    1    3    3    0  502  0.73001817716E+03 -0.10587534984E+04 -0.10810272770E+04  0.16800313965E+04  0.10100000352E+00 0.  1.
</event>
<event>
 5   0  0.3089218E-06  0.2694743E+04  0.7818609E-02  0.8336713E-01
       -1   -1    0    0    0  501  0.00000000000E+00  0.00000000000E+00  0.18744979691E+04  0.18744979691E+04  0.50400001928E-02 0.  1.
        1   -1    0    0  501    0  0.00000000000E+00  0.00000000000E+00 -0.96847759577E+03  0.96847759578E+03  0.50400001928E-02 0. -1.
    10030    2    1    2    0    0  0.00000000000E+00  0.00000000000E+00  0.90602037336E+03  0.28429755649E+04  0.26947425008E+04 0.  0.
        5    1    3    3  502    0  0.62946649101E+03 -0.77765281604E+03 -0.49908155578E+03  0.11180681799E+04  0.46999998093E+01 0. -1.
       -5    1    3    3    0  502 -0.62946649101E+03  0.77765281604E+03  0.14051019291E+04  0.17249073850E+04  0.46999998093E+01 0.  1.
</event>
<event>
 5   0  0.3046300E-06  0.2697354E+04  0.7818609E-02  0.8335864E-01
        1   -1    0    0  501    0  0.00000000000E+00  0.00000000000E+00  0.20238525948E+04  0.20238525948E+04  0.50400001928E-02 0. -1.
       -1   -1    0    0    0  501  0.00000000000E+00  0.00000000000E+00 -0.89874589688E+03  0.89874589690E+03  0.50400001928E-02 0.  1.
    10030    2    1    2    0    0  0.00000000000E+00  0.00000000000E+00  0.11251066979E+04  0.29225984917E+04  0.26973536776E+04 0.  0.
        2    1    3    3  502    0 -0.60648557571E+03 -0.75608529006E+03  0.15786481843E+04  0.18524631735E+04  0.25500000920E-02 0. -1.
       -2    1    3    3    0  502  0.60648557571E+03  0.75608529006E+03 -0.45354148638E+03  0.10701353182E+04  0.25500000920E-02 0.  1.
</event>
<event>
 5   0  0.3028601E-06  0.2841530E+04  0.7818609E-02  0.8290490E-01
        1   -1    0    0  501    0  0.00000000000E+00  0.00000000000E+00  0.22002123864E+04  0.22002123864E+04  0.50400001928E-02 0. -1.
       -1   -1    0    0    0  501  0.00000000000E+00  0.00000000000E+00 -0.91744477897E+03  0.91744477898E+03  0.50400001928E-02 0.  1.
    10030    2    1    2    0    0  0.00000000000E+00  0.00000000000E+00  0.12827676074E+04  0.31176571654E+04  0.28415301276E+04 0.  0.
        3    1    3    3  502    0  0.12782922811E+03  0.80137840171E+03 -0.63814376886E+03  0.10323638575E+04  0.10100000352E+00 0.  1.
       -3    1    3    3    0  502 -0.12782922811E+03 -0.80137840171E+03  0.19209113763E+04  0.20852933079E+04  0.10100000352E+00 0. -1.
</event>
<event>
 5   0  0.7838364E-06  0.2670519E+04  0.7818609E-02  0.8344634E-01
        2   -1    0    0  501    0  0.00000000000E+00  0.00000000000E+00  0.17957003002E+04  0.17957003002E+04  0.25500000920E-02 0. -1.
       -2   -1    0    0    0  501  0.00000000000E+00  0.00000000000E+00 -0.99288182021E+03  0.99288182022E+03  0.25500000920E-02 0.  1.
    10030    2    1    2    0    0  0.00000000000E+00  0.00000000000E+00  0.80281848003E+03  0.27885821205E+04  0.26705191875E+04 0.  0.
        2    1    3    3  502    0 -0.47490646597E+03  0.86023923245E+03 -0.54264558001E+03  0.11225025229E+04  0.25500000920E-02 0.  1.
       -2    1    3    3    0  502  0.47490646597E+03 -0.86023923245E+03  0.13454640600E+04  0.16660795975E+04  0.25500000920E-02 0. -1.
</event>
<event>
 5   0  0.7729970E-06  0.2665016E+04  0.7818609E-02  0.8346446E-01
        2   -1    0    0  501    0  0.00000000000E+00  0.00000000000E+00  0.20446616192E+04  0.20446616192E+04  0.25500000920E-02 0.  1.
       -2   -1    0    0    0  501  0.00000000000E+00  0.00000000000E+00 -0.86839677129E+03  0.86839677129E+03  0.25500000920E-02 0. -1.
    10030    2    1    2    0    0  0.00000000000E+00  0.00000000000E+00  0.11762648480E+04  0.29130583905E+04  0.26650159838E+04 0.  0.
        4    1    3    3  502    0 -0.61357072916E+03  0.20801072064E+03  0.18609124243E+04  0.19704654687E+04  0.12699999809E+01 0.  1.
       -4    1    3    3    0  502  0.61357072916E+03 -0.20801072064E+03 -0.68464757634E+03  0.94259292182E+03  0.12699999809E+01 0. -1.
</event>
<event>
 5   0  0.3046300E-06  0.2706577E+04  0.7818609E-02  0.8332874E-01
        1   -1    0    0  501    0  0.00000000000E+00  0.00000000000E+00  0.14694122398E+04  0.14694122398E+04  0.50400001928E-02 0.  1.
       -1   -1    0    0    0  501  0.00000000000E+00  0.00000000000E+00 -0.12463414828E+04  0.12463414828E+04  0.50400001928E-02 0. -1.
    10030    2    1    2    0    0  0.00000000000E+00  0.00000000000E+00  0.22307075702E+03  0.27157537226E+04  0.27065767528E+04 0.  0.
        2    1    3    3  502    0 -0.12779391142E+04 -0.18370070028E+03  0.51851524300E+03  0.13913059995E+04  0.25500000920E-02 0.  1.
       -2    1    3    3    0  502  0.12779391142E+04  0.18370070028E+03 -0.29544448598E+03  0.13244477231E+04  0.25500000920E-02 0. -1.
</event>
<event>
 5   0  0.3089218E-06  0.2697080E+04  0.7818609E-02  0.8335953E-01
        1   -1    0    0  501    0  0.00000000000E+00  0.00000000000E+00  0.11160298307E+04  0.11160298307E+04  0.50400001928E-02 0.  1.
       -1   -1    0    0    0  501  0.00000000000E+00  0.00000000000E+00 -0.16294901415E+04  0.16294901415E+04  0.50400001928E-02 0. -1.
    10030    2    1    2    0    0  0.00000000000E+00  0.00000000000E+00 -0.51346031079E+03  0.27455199722E+04  0.26970796108E+04 0.  0.
        5    1    3    3  502    0  0.18250285035E+03 -0.69446561327E+02 -0.16150140054E+04  0.16267828506E+04  0.46999998093E+01 0. -1.
       -5    1    3    3    0  502 -0.18250285035E+03  0.69446561327E+02  0.11015536946E+04  0.11187371216E+04  0.46999998093E+01 0.  1.
</event>
<event>
 5   0  0.3046300E-06  0.2705828E+04  0.7818609E-02  0.8333117E-01
       -1   -1    0    0    0  501  0.00000000000E+00  0.00000000000E+00  0.11280117764E+04  0.11280117764E+04  0.50400001928E-02 0. -1.
        1   -1    0    0  501    0  0.00000000000E+00  0.00000000000E+00 -0.16226564985E+04  0.16226564986E+04  0.50400001928E-02 0.  1.
    10030    2    1    2    0    0  0.00000000000E+00  0.00000000000E+00 -0.49464472211E+03  0.27506682750E+04  0.27058275181E+04 0.  0.
        2    1    3    3  502    0 -0.79880096456E+03  0.10829692762E+04 -0.10547430981E+03  0.13498260126E+04  0.25500000920E-02 0.  1.
       -2    1    3    3    0  502  0.79880096456E+03 -0.10829692762E+04 -0.38917041230E+03  0.14008422624E+04  0.25500000920E-02 0. -1.
</event>
<event>
 5   0  0.7838364E-06  0.2709706E+04  0.7818609E-02  0.8331863E-01
       -2   -1    0    0    0  501  0.00000000000E+00  0.00000000000E+00  0.14969017433E+04  0.14969017433E+04  0.25500000920E-02 0.  1.
        2   -1    0    0  501    0  0.00000000000E+00  0.00000000000E+00 -0.12262835998E+04  0.12262835998E+04  0.25500000920E-02 0. -1.
    10030    2    1    2    0    0  0.00000000000E+00  0.00000000000E+00  0.27061814352E+03  0.27231853431E+04  0.27097055621E+04 0.  0.
        2    1    3    3  502    0  0.14174411743E+02  0.64150074244E+03 -0.10639006463E+04  0.12424205012E+04  0.25500000920E-02 0. -1.
       -2    1    3    3    0  502 -0.14174411743E+02 -0.64150074244E+03  0.13345187899E+04  0.14807648419E+04  0.25500000920E-02 0.  1.
</event>
<event>
 5   0  0.8213334E-06  0.2713701E+04  0.7818609E-02  0.8330573E-01
       -2   -1    0    0    0  501  0.00000000000E+00  0.00000000000E+00  0.12566887208E+04  0.12566887208E+04  0.25500000920E-02 0.  1.
        2   -1    0    0  501    0  0.00000000000E+00  0.00000000000E+00 -0.14649953426E+04  0.14649953426E+04  0.25500000920E-02 0. -1.
    10030    2    1    2    0    0  0.00000000000E+00  0.00000000000E+00 -0.20830662178E+03  0.27216840634E+04  0.27137008848E+04 0.  0.
        3    1    3    3  502    0 -0.12065321664E+04  0.42220945543E+03 -0.56053307206E+03  0.13957714813E+04  0.10100000352E+00 0. -1.
       -3    1    3    3    0  502  0.12065321664E+04 -0.42220945543E+03  0.35222645028E+03  0.13259125821E+04  0.10100000352E+00 0.  1.
</event>
<event>
 5   0  0.7838364E-06  0.2712318E+04  0.7818609E-02  0.8331019E-01
        2   -1    0    0  501    0  0.00000000000E+00  0.00000000000E+00  0.20959838344E+04  0.20959838344E+04  0.25500000920E-02 0. -1.
       -2   -1    0    0    0  501  0.00000000000E+00  0.00000000000E+00 -0.87747220632E+03  0.87747220632E+03  0.25500000920E-02 0.  1.
    10030    2    1    2    0    0  0.00000000000E+00  0.00000000000E+00  0.12185116280E+04  0.29734560407E+04  0.27123182406E+04 0.  0.
        2    1    3    3  502    0  0.63312915109E+03 -0.41817440374E+03 -0.62299491437E+03  0.98175608847E+03  0.25500000920E-02 0.  1.
       -2    1    3    3    0  502 -0.63312915109E+03  0.41817440374E+03  0.18415065424E+04  0.19916999522E+04  0.25500000920E-02 0. -1.
</event>
<event>
 5   0  0.3028601E-06  0.2703448E+04  0.7818609E-02  0.8333887E-01
        1   -1    0    0  501    0  0.00000000000E+00  0.00000000000E+00  0.11196954552E+04  0.11196954552E+04  0.50400001928E-02 0.  1.
       -1   -1    0    0    0  501  0.00000000000E+00  0.00000000000E+00 -0.16318341152E+04  0.16318341152E+04  0.50400001928E-02 0. -1.
    10030    2    1    2    0    0  0.00000000000E+00  0.00000000000E+00 -0.51213866002E+03  0.27515295704E+04  0.27034476081E+04 0.  0.
        3    1    3    3  502    0  0.13491471930E+04  0.50796084563E+02 -0.32341905858E+03  0.13883005036E+04  0.10100000352E+00 0.  1.
       -3    1    3    3    0  502 -0.13491471930E+04 -0.50796084563E+02 -0.18871960144E+03  0.13632290668E+04  0.10100000352E+00 0. -1.
</event>
<event>
 5   0  0.3089218E-06  0.2705686E+04  0.7818609E-02  0.8333163E-01
       -1   -1    0    0    0  501  0.00000000000E+00  0.00000000000E+00  0.11827230860E+04  0.11827230860E+04  0.50400001928E-02 0. -1.
        1   -1    0    0  501    0  0.00000000000E+00  0.00000000000E+00 -0.15474320477E+04  0.15474320477E+04  0.50400001928E-02 0.  1.
    10030    2    1    2    0    0  0.00000000000E+00  0.00000000000E+00 -0.36470896165E+03  0.27301551337E+04  0.27056855743E+04 0.  0.
        5    1    3    3  502    0  0.12633075724E+03 -0.74153707029E+03 -0.13169454768E+04  0.15166423988E+04  0.46999998093E+01 0.  1.
       -5    1    3    3    0  502 -0.12633075724E+03  0.74153707029E+03  0.95223651520E+03  0.12135127349E+04  0.46999998093E+01 0. -1.
</event>
<event>
 5   0  0.7812908E-06  0.2694422E+04  0.7818609E-02  0.8336817E-01
       -2   -1    0    0    0  501  0.00000000000E+00  0.00000000000E+00  0.71965349288E+03  0.71965349289E+03  0.25500000920E-02 0.  1.
        2   -1    0    0  501    0  0.00000000000E+00  0.00000000000E+00 -0.25220157266E+04  0.25220157266E+04  0.25500000920E-02 0. -1.
    10030    2    1    2    0    0  0.00000000000E+00  0.00000000000E+00 -0.18023622337E+04  0.32416692195E+04  0.26944219616E+04 0.  0.
        5    1    3    3  502    0  0.65491559337E+03  0.11769218066E+04 -0.86516903364E+03  0.16008119565E+04  0.46999998093E+01 0. -1.
       -5    1    3    3    0  502 -0.65491559337E+03 -0.11769218066E+04 -0.93719320011E+03  0.16408572630E+04  0.46999998093E+01 0.  1.
</event>
<event>
 5   0  0.3089218E-06  0.2698396E+04  0.7818609E-02  0.8335526E-01
        1   -1    0    0  501    0  0.00000000000E+00  0.00000000000E+00  0.10809096993E+04  0.10809096993E+04  0.50400001928E-02 0.  1.
       -1   -1    0    0    0  501  0.00000000000E+00  0.00000000000E+00 -0.16840768516E+04  0.16840768516E+04  0.50400001928E-02 0. -1.
    10030    2    1    2    0    0  0.00000000000E+00  0.00000000000E+00 -0.60316715232E+03  0.27649865510E+04  0.26983958222E+04 0.  0.
        5    1    3    3  502    0 -0.10682587531E+04 -0.82373284623E+03 -0.27647692091E+03  0.13770163918E+04  0.46999998093E+01 0.  1.
       -5    1    3    3    0  502  0.10682587531E+04  0.82373284623E+03 -0.32669023141E+03  0.13879701592E+04  0.46999998093E+01 0. -1.
</event>
<event>
 5   0  0.3046300E-06  0.2691944E+04  0.7818609E-02  0.8337624E-01
        1   -1    0    0  501    0  0.00000000000E+00  0.00000000000E+00  0.17493385308E+04  0.17493385308E+04  0.50400001928E-02 0.  1.
       -1   -1    0    0    0  501  0.00000000000E+00  0.00000000000E+00 -0.10356148460E+04  0.10356148460E+04  0.50400001928E-02 0. -1.
    10030    2    1    2    0    0  0.00000000000E+00  0.00000000000E+00  0.71372368488E+03  0.27849533768E+04  0.26919442440E+04 0.  0.
        2    1    3    3  502    0 -0.65956038790E+03  0.11526585065E+04  0.58351921052E+03  0.14505640996E+04  0.25500000920E-02 0.  1.
       -2    1    3    3    0  502  0.65956038790E+03 -0.11526585065E+04  0.13020447436E+03  0.13343892772E+04  0.25500000920E-02 0. -1.
</event>
<event>
 5   0  0.7812908E-06  0.2605545E+04  0.7818609E-02  0.8366320E-01
       -2   -1    0    0    0  501  0.00000000000E+00  0.00000000000E+00  0.16991754256E+04  0.16991754256E+04  0.25500000920E-02 0.  1.
        2   -1    0    0  501    0  0.00000000000E+00  0.00000000000E+00 -0.99884696247E+03  0.99884696247E+03  0.25500000920E-02 0. -1.
    10030    2    1    2    0    0  0.00000000000E+00  0.00000000000E+00  0.70032846315E+03  0.26980223881E+04  0.26055450198E+04 0.  0.
        5    1    3    3  502    0  0.62681652125E+03 -0.23212593926E+02  0.15325118622E+04  0.16559143920E+04  0.46999998093E+01 0.  1.
       -5    1    3    3    0  502 -0.62681652125E+03  0.23212593926E+02 -0.83218339906E+03  0.10421079961E+04  0.46999998093E+01 0. -1.
</event>
<event>
 5   0  0.3199840E-06  0.2404265E+04  0.7818609E-02  0.8437908E-01
        1   -1    0    0  501    0  0.00000000000E+00  0.00000000000E+00  0.15770866702E+04  0.15770866702E+04  0.50400001928E-02 0. -1.
       -1   -1    0    0    0  501  0.00000000000E+00  0.00000000000E+00 -0.91632435806E+03  0.91632435807E+03  0.50400001928E-02 0.  1.
    10030    2    1    2    0    0  0.00000000000E+00  0.00000000000E+00  0.66076231213E+03  0.24934110283E+04  0.24042653187E+04 0.  0.
        1    1    3    3  502    0  0.63980255080E+03 -0.10119552621E+04  0.44266455986E+03  0.12764609939E+04  0.50400001928E-02 0.  1.
       -1    1    3    3    0  502 -0.63980255080E+03  0.10119552621E+04  0.21809775226E+03  0.12169500343E+04  0.50400001928E-02 0. -1.
</event>
<event>
 5   0  0.8213334E-06  0.2686617E+04  0.7818609E-02  0.8339360E-01
       -2   -1    0    0    0  501  0.00000000000E+00  0.00000000000E+00  0.92761735881E+03  0.92761735881E+03  0.25500000920E-02 0. -1.
        2   -1    0    0  501    0  0.00000000000E+00  0.00000000000E+00 -0.19452828342E+04  0.19452828342E+04  0.25500000920E-02 0.  1.
    10030    2    1    2    0    0  0.00000000000E+00  0.00000000000E+00 -0.10176654754E+04  0.28729001930E+04  0.26866172968E+04 0.  0.
        3    1    3    3  502    0 -0.10421526274E+04  0.46279485389E+03  0.25048482991E+03  0.11674775526E+04  0.10100000352E+00 0. -1.
       -3    1    3    3    0  502  0.10421526274E+04 -0.46279485389E+03 -0.12681503053E+04  0.17054226404E+04  0.10100000352E+00 0.  1.
</event>
<event>
 5   0  0.8407622E-06  0.2681712E+04  0.7818609E-02  0.8340963E-01
       -2   -1    0    0    0  501  0.00000000000E+00  0.00000000000E+00  0.13294155143E+04  0.13294155143E+04  0.25500000920E-02 0. -1.
        2   -1    0    0  501    0  0.00000000000E+00  0.00000000000E+00 -0.13523945006E+04  0.13523945006E+04  0.25500000920E-02 0.  1.
    10030    2    1    2    0    0  0.00000000000E+00  0.00000000000E+00 -0.22978986302E+02  0.26818100148E+04  0.26817115657E+04 0.  0.
        1    1    3    3  502    0 -0.82418328928E+03 -0.67694021096E+03 -0.82414967656E+03  0.13478682550E+04  0.50400001928E-02 0.  1.
       -1    1    3    3    0  502  0.82418328928E+03  0.67694021096E+03  0.80117069026E+03  0.13339417598E+04  0.50400001928E-02 0. -1.
</event>
<event>
 5   0  0.8213334E-06  0.2700756E+04  0.7818609E-02  0.8334760E-01
        2   -1    0    0  501    0  0.00000000000E+00  0.00000000000E+00  0.16186309532E+04  0.16186309532E+04  0.25500000920E-02 0. -1.
       -2   -1    0    0    0  501  0.00000000000E+00  0.00000000000E+00 -0.11265818067E+04  0.11265818067E+04  0.25500000920E-02 0.  1.
    10030    2    1    2    0    0  0.00000000000E+00  0.00000000000E+00  0.49204914652E+03  0.27452127599E+04  0.27007555859E+04 0.  0.
        3    1    3    3  502    0 -0.98586455535E+03  0.49601243709E+03 -0.54496427564E+03  0.12308303422E+04  0.10100000352E+00 0.  1.
       -3    1    3    3    0  502  0.98586455535E+03 -0.49601243709E+03  0.10370134222E+04  0.15143824177E+04  0.10100000352E+00 0. -1.
</event>
<event>
 5   0  0.3046300E-06  0.2712206E+04  0.7818609E-02  0.8331055E-01
       -1   -1    0    0    0  501  0.00000000000E+00  0.00000000000E+00  0.10632653079E+04  0.10632653079E+04  0.50400001928E-02 0. -1.
        1   -1    0    0  501    0  0.00000000000E+00  0.00000000000E+00 -0.17295920113E+04  0.17295920113E+04  0.50400001928E-02 0.  1.
    10030    2    1    2    0    0  0.00000000000E+00  0.00000000000E+00 -0.66632670342E+03  0.27928573192E+04  0.27122058789E+04 0.  0.
        2    1    3    3  502    0 -0.29455669547E+03  0.88219152278E+03 -0.13494196910E+04  0.16388895729E+04  0.25500000920E-02 0.  1.
       -2    1    3    3    0  502  0.29455669547E+03 -0.88219152278E+03  0.68309298761E+03  0.11539677463E+04  0.25500000920E-02 0. -1.
</event>
<event>
 5   0  0.7729970E-06  0.2695988E+04  0.7818609E-02  0.8336308E-01
       -2   -1    0    0    0  501  0.00000000000E+00  0.00000000000E+00  0.82840780967E+03  0.82840780967E+03  0.25500000920E-02 0.  1.
        2   -1    0    0  501    0  0.00000000000E+00  0.00000000000E+00 -0.21934704201E+04  0.21934704201E+04  0.25500000920E-02 0. -1.
    10030    2    1    2    0    0  0.00000000000E+00  0.00000000000E+00 -0.13650626104E+04  0.30218782298E+04  0.26959881500E+04 0.  0.
        4    1    3    3  502    0 -0.55088141927E+03  0.67551871664E+03 -0.18350716953E+04  0.20315722026E+04  0.12699999809E+01 0. -1.
       -4    1    3    3    0  502  0.55088141927E+03 -0.67551871664E+03  0.47000908489E+03  0.99030602715E+03  0.12699999809E+01 0.  1.
</event>
<event>
 5   0  0.3089218E-06  0.2702455E+04  0.7818609E-02  0.8334209E-01
        1   -1    0    0  501    0  0.00000000000E+00  0.00000000000E+00  0.15527831619E+04  0.15527831619E+04  0.50400001928E-02 0. -1.
       -1   -1    0    0    0  501  0.00000000000E+00  0.00000000000E+00 -0.11758343361E+04  0.11758343361E+04  0.50400001928E-02 0.  1.
    10030    2    1    2    0    0  0.00000000000E+00  0.00000000000E+00  0.37694882584E+03  0.27286174980E+04  0.27024550012E+04 0.  0.
        5    1    3    3  502    0 -0.10323905775E+04  0.67326452050E+03  0.74762099735E+03  0.14415528657E+04  0.46999998093E+01 0. -1.
       -5    1    3    3    0  502  0.10323905775E+04 -0.67326452050E+03 -0.37067217151E+03  0.12870646323E+04  0.46999998093E+01 0.  1.
</event>
<event>
 5   0  0.3046300E-06  0.2699649E+04  0.7818609E-02  0.8335119E-01
        1   -1    0    0  501    0  0.00000000000E+00  0.00000000000E+00  0.22738307808E+04  0.22738307808E+04  0.50400001928E-02 0. -1.
       -1   -1    0    0    0  501  0.00000000000E+00  0.00000000000E+00 -0.80130230379E+03  0.80130230380E+03  0.50400001928E-02 0.  1.
    10030    2    1    2    0    0  0.00000000000E+00  0.00000000000E+00  0.14725284770E+04  0.30751330846E+04  0.26996487498E+04 0.  0.
        2    1    3    3  502    0  0.42677806352E+03  0.14324770437E+03  0.21858009497E+04  0.22316776676E+04  0.25500000920E-02 0. -1.
       -2    1    3    3    0  502 -0.42677806352E+03 -0.14324770437E+03 -0.71327247265E+03  0.84345541705E+03  0.25500000920E-02 0.  1.
</event>
<event>
 5   0  0.3046300E-06  0.2717560E+04  0.7818609E-02  0.8329330E-01
       -1   -1    0    0    0  501  0.00000000000E+00  0.00000000000E+00  0.10513202279E+04  0.10513202279E+04  0.50400001928E-02 0. -1.
        1   -1    0    0  501    0  0.00000000000E+00  0.00000000000E+00 -0.17561567018E+04  0.17561567018E+04  0.50400001928E-02 0.  1.
    10030    2    1    2    0    0  0.00000000000E+00  0.00000000000E+00 -0.70483647386E+03  0.28074769297E+04  0.27175599820E+04 0.  0.
        2    1    3    3  502    0  0.18544147311E+03 -0.13458814136E+04 -0.32936986500E+03  0.13979520119E+04  0.25500000920E-02 0.  1.
       -2    1    3    3    0  502 -0.18544147311E+03  0.13458814136E+04 -0.37546660885E+03  0.14095249178E+04  0.25500000920E-02 0. -1.
</event>
<event>
 5   0  0.3028601E-06  0.2737075E+04  0.7818609E-02  0.8323075E-01
       -1   -1    0    0    0  501  0.00000000000E+00  0.00000000000E+00  0.86720288478E+03  0.86720288479E+03  0.50400001928E-02 0. -1.
        1   -1    0    0  501    0  0.00000000000E+00  0.00000000000E+00 -0.21596969610E+04  0.21596969610E+04  0.50400001928E-02 0.  1.
    10030    2    1    2    0    0  0.00000000000E+00  0.00000000000E+00 -0.12924940763E+04  0.30268998458E+04  0.27370753990E+04 0.  0.
        3    1    3    3  502    0  0.76404320804E+03  0.62204391823E+02 -0.18999869863E+04  0.20488001290E+04  0.10100000352E+00 0.  1.
       -3    1    3    3    0  502 -0.76404320804E+03 -0.62204391823E+02  0.60749291006E+03  0.97809971685E+03  0.10100000352E+00 0. -1.
</event>
<event>
 5   0  0.3089218E-06  0.2704117E+04  0.7818609E-02  0.8333670E-01
        1   -1    0    0  501    0  0.00000000000E+00  0.00000000000E+00  0.13212860400E+04  0.13212860400E+04  0.50400001928E-02 0.  1.
       -1   -1    0    0    0  501  0.00000000000E+00  0.00000000000E+00 -0.13835473781E+04  0.13835473781E+04  0.50400001928E-02 0. -1.
    10030    2    1    2    0    0  0.00000000000E+00  0.00000000000E+00 -0.62261338037E+02  0.27048334181E+04  0.27041167404E+04 0.  0.
        5    1    3    3  502    0 -0.23019195815E+03 -0.13120988726E+04 -0.26238008428E+03  0.13577397348E+04  0.46999998093E+01 0.  1.
       -5    1    3    3    0  502  0.23019195815E+03  0.13120988726E+04  0.20011874624E+03  0.13470936833E+04  0.46999998093E+01 0. -1.
</event>
<event>
 5   0  0.7812908E-06  0.2700247E+04  0.7818609E-02  0.8334925E-01
       -2   -1    0    0    0  501  0.00000000000E+00  0.00000000000E+00  0.11706079860E+04  0.11706079860E+04  0.25500000920E-02 0. -1.
        2   -1    0    0  501    0  0.00000000000E+00  0.00000000000E+00 -0.15571684341E+04  0.15571684341E+04  0.25500000920E-02 0.  1.
    10030    2    1    2    0    0  0.00000000000E+00  0.00000000000E+00 -0.38656044802E+03  0.27277764201E+04  0.27002472513E+04 0.  0.
        5    1    3    3  502    0 -0.33346862180E+03  0.70164351263E+03  0.92219963082E+03  0.12058105944E+04  0.46999998093E+01 0. -1.
       -5    1    3    3    0  502  0.33346862180E+03 -0.70164351263E+03 -0.13087600788E+04  0.15219658257E+04  0.46999998093E+01 0.  1.
</event>
<event>
 5   0  0.3199840E-06  0.2699645E+04  0.7818609E-02  0.8335120E-01
       -1   -1    0    0    0  501  0.00000000000E+00  0.00000000000E+00  0.26200279914E+04  0.26200279914E+04  0.50400001928E-02 0.  1.
        1   -1    0    0  501    0  0.00000000000E+00  0.00000000000E+00 -0.69542031160E+03  0.69542031162E+03  0.50400001928E-02 0. -1.
    10030    2    1    2    0    0  0.00000000000E+00  0.00000000000E+00  0.19246076798E+04  0.33154483030E+04  0.26996449265E+04 0.  0.
        1    1    3    3  502    0 -0.12341114314E+03  0.15569901623E+03 -0.67736541405E+03  0.70590112486E+03  0.50400001928E-02 0. -1.
       -1    1    3    3    0  502  0.12341114314E+03 -0.15569901623E+03  0.26019730939E+04  0.26095471782E+04  0.50400001928E-02 0.  1.
</event>
<event>
 5   0  0.3089218E-06  0.2696779E+04  0.7818609E-02  0.8336051E-01
       -1   -1    0    0    0  501  0.00000000000E+00  0.00000000000E+00  0.15640150438E+04  0.15640150438E+04  0.50400001928E-02 0.  1.
        1   -1    0    0  501    0  0.00000000000E+00  0.00000000000E+00 -0.11624913165E+04  0.11624913165E+04  0.50400001928E-02 0. -1.
    10030    2    1    2    0    0  0.00000000000E+00  0.00000000000E+00  0.40152372731E+03  0.27265063603E+04  0.26967787505E+04 0.  0.
        5    1    3    3  502    0 -0.13085424355E+04  0.27257216223E+03  0.21172326021E+02  0.13368056128E+04  0.46999998093E+01 0. -1.
       -5    1    3    3    0  502  0.13085424355E+04 -0.27257216223E+03  0.38035140129E+03  0.13897007475E+04  0.46999998093E+01 0.  1.
</event>
<event>
 5   0  0.3013407E-06  0.2684716E+04  0.7818609E-02  0.8339981E-01
       -1   -1    0    0    0  501  0.00000000000E+00  0.00000000000E+00  0.16017044833E+04  0.16017044833E+04  0.50400001928E-02 0.  1.
        1   -1    0    0  501    0  0.00000000000E+00  0.00000000000E+00 -0.11250046575E+04  0.11250046575E+04  0.50400001928E-02 0. -1.
    10030    2    1    2    0    0  0.00000000000E+00  0.00000000000E+00  0.47669982579E+03  0.27267091409E+04  0.26847160027E+04 0.  0.
        4    1    3    3  502    0 -0.39719570531E+03  0.92281207135E+03 -0.66584311166E+03  0.12052780632E+04  0.12699999809E+01 0. -1.
       -4    1    3    3    0  502  0.39719570531E+03 -0.92281207135E+03  0.11425429374E+04  0.15214310777E+04  0.12699999809E+01 0.  1.
</event>
<event>
 5   0  0.3046300E-06  0.2680160E+04  0.7818609E-02  0.8341471E-01
       -1   -1    0    0    0  501  0.00000000000E+00  0.00000000000E+00  0.13447037034E+04  0.13447037034E+04  0.50400001928E-02 0. -1.
        1   -1    0    0  501    0  0.00000000000E+00  0.00000000000E+00 -0.13354722494E+04  0.13354722494E+04  0.50400001928E-02 0.  1.
    10030    2    1    2    0    0  0.00000000000E+00  0.00000000000E+00  0.92314539653E+01  0.26801759528E+04  0.26801600546E+04 0.  0.
        2    1    3    3  502    0  0.46300621215E+03  0.87096074901E+03 -0.90250987785E+03  0.13369635217E+04  0.25500000920E-02 0.  1.
       -2    1    3    3    0  502 -0.46300621215E+03 -0.87096074901E+03  0.91174133182E+03  0.13432124311E+04  0.25500000920E-02 0. -1.
</event>
<event>
 5   0  0.7838364E-06  0.2690815E+04  0.7818609E-02  0.8337991E-01
       -2   -1    0    0    0  501  0.00000000000E+00  0.00000000000E+00  0.18819400364E+04  0.18819400364E+04  0.25500000920E-02 0.  1.
        2   -1    0    0  501    0  0.00000000000E+00  0.00000000000E+00 -0.96183786521E+03  0.96183786521E+03  0.25500000920E-02 0. -1.
    10030    2    1    2    0    0  0.00000000000E+00  0.00000000000E+00  0.92010217120E+03  0.28437779016E+04  0.26908148856E+04 0.  0.
        2    1    3    3  502    0  0.93202578433E+03 -0.89529065292E+03  0.85535085795E+03  0.15497878907E+04  0.25500000920E-02 0. -1.
       -2    1    3    3    0  502 -0.93202578433E+03  0.89529065292E+03  0.64751313242E+02  0.12939900109E+04  0.25500000920E-02 0.  1.
</event>
<event>
 5   0  0.8213334E-06  0.2715684E+04  0.7818609E-02  0.8329934E-01
       -2   -1    0    0    0  501  0.00000000000E+00  0.00000000000E+00  0.68032445450E+03  0.68032445450E+03  0.25500000920E-02 0.  1.
        2   -1    0    0  501    0  0.00000000000E+00  0.00000000000E+00 -0.27100821653E+04  0.27100821653E+04  0.25500000920E-02 0. -1.
    10030    2    1    2    0    0  0.00000000000E+00  0.00000000000E+00 -0.20297577108E+04  0.33904066198E+04  0.27156842017E+04 0.  0.
        3    1    3    3  502    0  0.65557414497E+03 -0.52771475613E+03  0.31545694588E+03  0.89876215891E+03  0.10100000352E+00 0.  1.
       -3    1    3    3    0  502 -0.65557414497E+03  0.52771475613E+03 -0.23452146567E+04  0.24916444609E+04  0.10100000352E+00 0. -1.
</event>
<event>
 5   0  0.7729970E-06  0.2727007E+04  0.7818609E-02  0.8326295E-01
        2   -1    0    0  501    0  0.00000000000E+00  0.00000000000E+00  0.14213293770E+04  0.14213293770E+04  0.25500000920E-02 0. -1.
       -2   -1    0    0    0  501  0.00000000000E+00  0.00000000000E+00 -0.13080307008E+04  0.13080307008E+04  0.25500000920E-02 0.  1.
    10030    2    1    2    0    0  0.00000000000E+00  0.00000000000E+00  0.11329867613E+03  0.27293600778E+04  0.27270074889E+04 0.  0.
        4    1    3    3  502    0  0.10421624908E+04 -0.80592156267E+03 -0.29512026532E+03  0.13500777038E+04  0.12699999809E+01 0.  1.
       -4    1    3    3    0  502 -0.10421624908E+04  0.80592156267E+03  0.40841894146E+03  0.13792823740E+04  0.12699999809E+01 0. -1.
</event>
<event>
 5   0  0.3089218E-06  0.2678067E+04  0.7818609E-02  0.8342157E-01
        1   -1    0    0  501    0  0.00000000000E+00  0.00000000000E+00  0.11125225924E+04  0.11125225924E+04  0.50400001928E-02 0.  1.
       -1   -1    0    0    0  501  0.00000000000E+00  0.00000000000E+00 -0.16116620618E+04  0.16116620618E+04  0.50400001928E-02 0. -1.
    10030    2    1    2    0    0  0.00000000000E+00  0.00000000000E+00 -0.49913946934E+03  0.27241846542E+04  0.26780668066E+04 0.  0.
        5    1    3    3  502    0  0.71756175711E+01  0.23353139111E+03 -0.15907587500E+04  0.16078320468E+04  0.46999998093E+01 0. -1.
       -5    1    3    3    0  502 -0.71756175711E+01 -0.23353139111E+03  0.10916192807E+04  0.11163526074E+04  0.46999998093E+01 0.  1.
</event>
<event>
 5   0  0.8407622E-06  0.2676000E+04  0.7818609E-02  0.8342834E-01
       -2   -1    0    0    0  501  0.00000000000E+00  0.00000000000E+00  0.16686650668E+04  0.16686650668E+04  0.25500000920E-02 0. -1.
        2   -1    0    0  501    0  0.00000000000E+00  0.00000000000E+00 -0.10728598320E+04  0.10728598320E+04  0.25500000920E-02 0.  1.
    10030    2    1    2    0    0  0.00000000000E+00  0.00000000000E+00  0.59580523476E+03  0.27415248988E+04  0.26759997932E+04 0.  0.
        1    1    3    3  502    0  0.63655711404E+03  0.21212909507E+03  0.14838488556E+04  0.16284996588E+04  0.50400001928E-02 0. -1.
       -1    1    3    3    0  502 -0.63655711404E+03 -0.21212909507E+03 -0.88804362083E+03  0.11130252400E+04  0.50400001928E-02 0.  1.
</event>
<event>
 5   0  0.7812908E-06  0.2703952E+04  0.7818609E-02  0.8333724E-01
        2   -1    0    0  501    0  0.00000000000E+00  0.00000000000E+00  0.24028417935E+04  0.24028417935E+04  0.25500000920E-02 0. -1.
       -2   -1    0    0    0  501  0.00000000000E+00  0.00000000000E+00 -0.76069893822E+03  0.76069893823E+03  0.25500000920E-02 0.  1.
    10030    2    1    2    0    0  0.00000000000E+00  0.00000000000E+00  0.16421428553E+04  0.31635407317E+04  0.27039520714E+04 0.  0.
        5    1    3    3  502    0  0.13452563423E+04 -0.73991053608E+02  0.68959786320E+03  0.15135245638E+04  0.46999998093E+01 0. -1.
       -5    1    3    3    0  502 -0.13452563423E+04  0.73991053608E+02  0.95254499207E+03  0.16500161679E+04  0.46999998093E+01 0.  1.
</event>
<event>
 5   0  0.3013407E-06  0.2704101E+04  0.7818609E-02  0.8333675E-01
        1   -1    0    0  501    0  0.00000000000E+00  0.00000000000E+00  0.13690298802E+04  0.13690298802E+04  0.50400001928E-02 0.  1.
       -1   -1    0    0    0  501  0.00000000000E+00  0.00000000000E+00 -0.13352821086E+04  0.13352821086E+04  0.50400001928E-02 0. -1.
    10030    2    1    2    0    0  0.00000000000E+00  0.00000000000E+00  0.33747771612E+02  0.27043119889E+04  0.27041014073E+04 0.  0.
        4    1    3    3  502    0  0.16306440095E+03 -0.55625237673E+03 -0.12047091771E+04  0.13369115602E+04  0.12699999809E+01 0. -1.
       -4    1    3    3    0  502 -0.16306440095E+03  0.55625237673E+03  0.12384569487E+04  0.13674004286E+04  0.12699999809E+01 0.  1.
</event>
<event>
 5   0  0.3046300E-06  0.2736076E+04  0.7818609E-02  0.8323394E-01
        1   -1    0    0  501    0  0.00000000000E+00  0.00000000000E+00  0.23872173565E+04  0.23872173565E+04  0.50400001928E-02 0. -1.
       -1   -1    0    0    0  501  0.00000000000E+00  0.00000000000E+00 -0.78397902322E+03  0.78397902324E+03  0.50400001928E-02 0.  1.
    10030    2    1    2    0    0  0.00000000000E+00  0.00000000000E+00  0.16032383333E+04  0.31711963798E+04  0.27360762646E+04 0.  0.
        2    1    3    3  502    0  0.51214175407E+03  0.97296503601E+03 -0.14181914374E+03  0.11086310509E+04  0.25500000920E-02 0.  1.
       -2    1    3    3    0  502 -0.51214175407E+03 -0.97296503601E+03  0.17450574770E+04  0.20625653288E+04  0.25500000920E-02 0. -1.
</event>
<event>
 5   0  0.3046300E-06  0.2700098E+04  0.7818609E-02  0.8334973E-01
       -1   -1    0    0    0  501  0.00000000000E+00  0.00000000000E+00  0.62286023188E+03  0.62286023190E+03  0.50400001928E-02 0. -1.
        1   -1    0    0  501    0  0.00000000000E+00  0.00000000000E+00 -0.29262309012E+04  0.29262309012E+04  0.50400001928E-02 0.  1.
    10030    2    1    2    0    0  0.00000000000E+00  0.00000000000E+00 -0.23033706693E+04  0.35490911331E+04  0.27000984113E+04 0.  0.
        2    1    3    3  502    0 -0.10348572808E+04 -0.56097606511E+03 -0.28275930276E+03  0.12106099953E+04  0.25500000920E-02 0. -1.
       -2    1    3    3    0  502  0.10348572808E+04  0.56097606511E+03 -0.20206113665E+04  0.23384811378E+04  0.25500000920E-02 0.  1.
</event>
<event>
 5   0  0.3089218E-06  0.2621722E+04  0.7818609E-02  0.8360860E-01
        1   -1    0    0  501    0  0.00000000000E+00  0.00000000000E+00  0.26681003813E+04  0.26681003813E+04  0.50400001928E-02 0. -1.
       -1   -1    0    0    0  501  0.00000000000E+00  0.00000000000E+00 -0.64403727900E+03  0.64403727902E+03  0.50400001928E-02 0.  1.
    10030    2    1    2    0    0  0.00000000000E+00  0.00000000000E+00  0.20240631023E+04  0.33121376603E+04  0.26217216555E+04 0.  0.
        5    1    3    3  502    0  0.10393522580E+04  0.68847600490E+03  0.50028860712E+03  0.13433402793E+04  0.46999998093E+01 0.  1.
       -5    1    3    3    0  502 -0.10393522580E+04 -0.68847600490E+03  0.15237744952E+04  0.19687973810E+04  0.46999998093E+01 0. -1.
</event>
<event>
 5   0  0.3046300E-06  0.2696878E+04  0.7818609E-02  0.8336019E-01
       -1   -1    0    0    0  501  0.00000000000E+00  0.00000000000E+00  0.83582555296E+03  0.83582555297E+03  0.50400001928E-02 0. -1.
        1   -1    0    0  501    0  0.00000000000E+00  0.00000000000E+00 -0.21754389307E+04  0.21754389307E+04  0.50400001928E-02 0.  1.
    10030    2    1    2    0    0  0.00000000000E+00  0.00000000000E+00 -0.13396133777E+04  0.30112644837E+04  0.26968777853E+04 0.  0.
        2    1    3    3  502    0  0.90204436145E+03  0.56562535908E+03  0.25410129499E+03  0.10946157065E+04  0.25500000920E-02 0. -1.
       -2    1    3    3    0  502 -0.90204436145E+03 -0.56562535908E+03 -0.15937146727E+04  0.19166487771E+04  0.25500000920E-02 0.  1.
</event>
<event>
 5   0  0.7838364E-06  0.2699301E+04  0.7818609E-02  0.8335232E-01
       -2   -1    0    0    0  501  0.00000000000E+00  0.00000000000E+00  0.20028544452E+04  0.20028544452E+04  0.25500000920E-02 0.  1.
        2   -1    0    0  501    0  0.00000000000E+00  0.00000000000E+00 -0.90948036512E+03  0.90948036512E+03  0.25500000920E-02 0. -1.
    10030    2    1    2    0    0  0.00000000000E+00  0.00000000000E+00  0.10933740801E+04  0.29123348103E+04  0.26993012371E+04 0.  0.
        2    1    3    3  502    0 -0.89978086966E+03  0.78361025544E+03  0.12272687463E+04  0.17116773123E+04  0.25500000920E-02 0.  1.
       -2    1    3    3    0  502  0.89978086966E+03 -0.78361025544E+03 -0.13389466625E+03  0.12006574980E+04  0.25500000920E-02 0. -1.
</event>
<event>
 5   0  0.7838364E-06  0.2694080E+04  0.7818609E-02  0.8336928E-01
       -2   -1    0    0    0  501  0.00000000000E+00  0.00000000000E+00  0.11703997803E+04  0.11703997803E+04  0.25500000920E-02 0. -1.
        2   -1    0    0  501    0  0.00000000000E+00  0.00000000000E+00 -0.15503395186E+04  0.15503395186E+04  0.25500000920E-02 0.  1.
    10030    2    1    2    0    0  0.00000000000E+00  0.00000000000E+00 -0.37993973827E+03  0.27207392989E+04  0.26940802007E+04 0.  0.
        2    1    3    3  502    0  0.81102235284E+02 -0.23488899947E+03  0.11470518313E+04  0.11736602227E+04  0.25500000920E-02 0. -1.
       -2    1    3    3    0  502 -0.81102235284E+02  0.23488899947E+03 -0.15269915695E+04  0.15470790762E+04  0.25500000920E-02 0.  1.
</event>
<event>
 5   0  0.8213334E-06  0.2676429E+04  0.7818609E-02  0.8342694E-01
        2   -1    0    0  501    0  0.00000000000E+00  0.00000000000E+00  0.21122384912E+04  0.21122384912E+04  0.25500000920E-02 0. -1.
       -2   -1    0    0    0  501  0.00000000000E+00  0.00000000000E+00 -0.84782927947E+03  0.84782927947E+03  0.25500000920E-02 0.  1.
    10030    2    1    2    0    0  0.00000000000E+00  0.00000000000E+00  0.12644092117E+04  0.29600677706E+04  0.26764286936E+04 0.  0.
        3    1    3    3  502    0 -0.75528903829E+03 -0.69929229050E+03 -0.31361331332E+03  0.10760225645E+04  0.10100000352E+00 0.  1.
       -3    1    3    3    0  502  0.75528903829E+03  0.69929229050E+03  0.15780225250E+04  0.18840452061E+04  0.10100000352E+00 0. -1.
</event>
<event>
 5   0  0.3199840E-06  0.2698144E+04  0.7818609E-02  0.8335608E-01
        1   -1    0    0  501    0  0.00000000000E+00  0.00000000000E+00  0.25544984456E+04  0.25544984456E+04  0.50400001928E-02 0. -1.
       -1   -1    0    0    0  501  0.00000000000E+00  0.00000000000E+00 -0.71246658885E+03  0.71246658887E+03  0.50400001928E-02 0.  1.
    10030    2    1    2    0    0  0.00000000000E+00  0.00000000000E+00  0.18420318567E+04  0.32669650344E+04  0.26981436535E+04 0.  0.
        1    1    3    3  502    0 -0.20044561970E+03 -0.62846890471E+03 -0.50386875018E+03  0.83008151894E+03  0.50400001928E-02 0.  1.
       -1    1    3    3    0  502  0.20044561970E+03  0.62846890471E+03  0.23459006069E+04  0.24368835155E+04  0.50400001928E-02 0. -1.
</event>
<event>
 5   0  0.3046300E-06  0.2712828E+04  0.7818609E-02  0.8330855E-01
       -1   -1    0    0    0  501  0.00000000000E+00  0.00000000000E+00  0.10081780854E+04  0.10081780854E+04  0.50400001928E-02 0. -1.
        1   -1    0    0  501    0  0.00000000000E+00  0.00000000000E+00 -0.18249345329E+04  0.18249345329E+04  0.50400001928E-02 0.  1.
    10030    2    1    2    0    0  0.00000000000E+00  0.00000000000E+00 -0.81675644748E+03  0.28331126183E+04  0.27128280472E+04 0.  0.
        2    1    3    3  502    0 -0.54534278341E+03  0.70746441047E+03 -0.14743996153E+04  0.17238790182E+04  0.25500000920E-02 0.  1.
       -2    1    3    3    0  502  0.54534278341E+03 -0.70746441047E+03  0.65764316786E+03  0.11092336002E+04  0.25500000920E-02 0. -1.
</event>
<event>
 5   0  0.3046300E-06  0.2647929E+04  0.7818609E-02  0.8352101E-01
        1   -1    0    0  501    0  0.00000000000E+00  0.00000000000E+00  0.13572923952E+04  0.13572923952E+04  0.50400001928E-02 0.  1.
       -1   -1    0    0    0  501  0.00000000000E+00  0.00000000000E+00 -0.12914548572E+04  0.12914548572E+04  0.50400001928E-02 0. -1.
    10030    2    1    2    0    0  0.00000000000E+00  0.00000000000E+00  0.65837537979E+02  0.26487472524E+04  0.26479288936E+04 0.  0.
        2    1    3    3  502    0  0.54618457539E+03  0.86147569728E+03  0.87723169382E+03  0.13453599563E+04  0.25500000920E-02 0.  1.
       -2    1    3    3    0  502 -0.54618457539E+03 -0.86147569728E+03 -0.81139415585E+03  0.13033872961E+04  0.25500000920E-02 0. -1.
</event>
<event>
 5   0  0.8213334E-06  0.2809074E+04  0.7818609E-02  0.8300457E-01
        2   -1    0    0  501    0  0.00000000000E+00  0.00000000000E+00  0.23120864119E+04  0.23120864119E+04  0.25500000920E-02 0.  1.
       -2   -1    0    0    0  501  0.00000000000E+00  0.00000000000E+00 -0.85322266983E+03  0.85322266984E+03  0.25500000920E-02 0. -1.
    10030    2    1    2    0    0  0.00000000000E+00  0.00000000000E+00  0.14588637421E+04  0.31653090818E+04  0.28090742541E+04 0.  0.
        3    1    3    3  502    0  0.13833680509E+04  0.23551463854E+03  0.66229197729E+03  0.15517103411E+04  0.10100000352E+00 0.  1.
       -3    1    3    3    0  502 -0.13833680509E+04 -0.23551463854E+03  0.79657176480E+03  0.16135987407E+04  0.10100000352E+00 0. -1.
</event>
<event>
 5   0  0.7838364E-06  0.2633993E+04  0.7818609E-02  0.8356745E-01
        2   -1    0    0  501    0  0.00000000000E+00  0.00000000000E+00  0.15091016052E+04  0.15091016052E+04  0.25500000920E-02 0. -1.
       -2   -1    0    0    0  501  0.00000000000E+00  0.00000000000E+00 -0.11493460775E+04  0.11493460776E+04  0.25500000920E-02 0.  1.
    10030    2    1    2    0    0  0.00000000000E+00  0.00000000000E+00  0.35975552762E+03  0.26584476827E+04  0.26339931743E+04 0.  0.
        2    1    3    3  502    0  0.97181819038E+03  0.83639295617E+03 -0.12374108979E+03  0.12881364949E+04  0.25500000920E-02 0.  1.
       -2    1    3    3    0  502 -0.97181819038E+03 -0.83639295617E+03  0.48349661741E+03  0.13703111878E+04  0.25500000920E-02 0. -1.
</event>
<event>
 5   0  0.7838364E-06  0.2714573E+04  0.7818609E-02  0.8330292E-01
        2   -1    0    0  501    0  0.00000000000E+00  0.00000000000E+00  0.10063171910E+04  0.10063171911E+04  0.25500000920E-02 0. -1.
       -2   -1    0    0    0  501  0.00000000000E+00  0.00000000000E+00 -0.18306622814E+04  0.18306622814E+04  0.25500000920E-02 0.  1.
    10030    2    1    2    0    0  0.00000000000E+00  0.00000000000E+00 -0.82434509032E+03  0.28369794724E+04  0.27145732075E+04 0.  0.
        2    1    3    3  502    0  0.10733163627E+04  0.82076020989E+03 -0.27763710602E+03  0.13793975856E+04  0.25500000920E-02 0.  1.
       -2    1    3    3    0  502 -0.10733163627E+04 -0.82076020989E+03 -0.54670798430E+03  0.14575818868E+04  0.25500000920E-02 0. -1.
</event>
<event>
 5   0  0.3013407E-06  0.2654222E+04  0.7818609E-02  0.8350013E-01
       -1   -1    0    0    0  501  0.00000000000E+00  0.00000000000E+00  0.83503465593E+03  0.83503465594E+03  0.50400001928E-02 0.  1.
        1   -1    0    0  501    0  0.00000000000E+00  0.00000000000E+00 -0.21091625636E+04  0.21091625636E+04  0.50400001928E-02 0. -1.
    10030    2    1    2    0    0  0.00000000000E+00  0.00000000000E+00 -0.12741279077E+04  0.29441972196E+04  0.26542221728E+04 0.  0.
        4    1    3    3  502    0 -0.12917580874E+04  0.12984932969E+03 -0.33182366082E+03  0.13400031193E+04  0.12699999809E+01 0.  1.
       -4    1    3    3    0  502  0.12917580874E+04 -0.12984932969E+03 -0.94230424687E+03  0.16041941003E+04  0.12699999809E+01 0. -1.
</event>
<event>
 5   0  0.2654625E-06  0.2749324E+04  0.7818609E-02  0.8319176E-01
       -3   -1    0    0    0  501  0.00000000000E+00  0.00000000000E+00  0.11822070291E+04  0.11822070334E+04  0.10100000352E+00 0.  1.
        3   -1    0    0  501    0  0.00000000000E+00  0.00000000000E+00 -0.15984469018E+04  0.15984469050E+04  0.10100000352E+00 0. -1.
    10030    2    1    2    0    0  0.00000000000E+00  0.00000000000E+00 -0.41623987274E+03  0.27806539384E+04  0.27493236793E+04 0.  0.
        1    1    3    3  502    0 -0.95963764841E+02  0.61645438830E+03  0.10307757632E+04  0.12048749857E+04  0.50400001928E-02 0.  1.
       -1    1    3    3    0  502  0.95963764841E+02 -0.61645438830E+03 -0.14470156360E+04  0.15757789527E+04  0.50400001928E-02 0. -1.
</event>
<event>
 5   0  0.8407622E-06  0.2751452E+04  0.7818609E-02  0.8318501E-01
        2   -1    0    0  501    0  0.00000000000E+00  0.00000000000E+00  0.15184923036E+04  0.15184923036E+04  0.25500000920E-02 0.  1.
       -2   -1    0    0    0  501  0.00000000000E+00  0.00000000000E+00 -0.12463826649E+04  0.12463826649E+04  0.25500000920E-02 0. -1.
    10030    2    1    2    0    0  0.00000000000E+00  0.00000000000E+00  0.27210963864E+03  0.27648749685E+04  0.27514523322E+04 0.  0.
        1    1    3    3  502    0  0.81025704936E+03 -0.51252879957E+03 -0.85537890296E+03  0.12848639321E+04  0.50400001928E-02 0. -1.
       -1    1    3    3    0  502 -0.81025704936E+03  0.51252879957E+03  0.11274885416E+04  0.14800110364E+04  0.50400001928E-02 0.  1.
</event>
<event>
 5   0  0.8213334E-06  0.2691250E+04  0.7818609E-02  0.8337850E-01
       -2   -1    0    0    0  501  0.00000000000E+00  0.00000000000E+00  0.13533584841E+04  0.13533584841E+04  0.25500000920E-02 0. -1.
        2   -1    0    0  501    0  0.00000000000E+00  0.00000000000E+00 -0.13379356014E+04  0.13379356014E+04  0.25500000920E-02 0.  1.
    10030    2    1    2    0    0  0.00000000000E+00  0.00000000000E+00  0.15422882683E+02  0.26912940856E+04  0.26912498936E+04 0.  0.
        3    1    3    3  502    0 -0.15204952954E+03 -0.58279580801E+03  0.12110335206E+04  0.13525428686E+04  0.10100000352E+00 0. -1.
       -3    1    3    3    0  502  0.15204952954E+03  0.58279580801E+03 -0.11956106379E+04  0.13387512170E+04  0.10100000352E+00 0.  1.
</event>
<event>
 5   0  0.3046300E-06  0.2705422E+04  0.7818609E-02  0.8333248E-01
       -1   -1    0    0    0  501  0.00000000000E+00  0.00000000000E+00  0.11847854913E+04  0.11847854913E+04  0.50400001928E-02 0.  1.
        1   -1    0    0  501    0  0.00000000000E+00  0.00000000000E+00 -0.15444379096E+04  0.15444379096E+04  0.50400001928E-02 0. -1.
    10030    2    1    2    0    0  0.00000000000E+00  0.00000000000E+00 -0.35965241827E+03  0.27292234009E+04  0.27054224273E+04 0.  0.
        2    1    3    3  502    0  0.99626442719E+03  0.59218637139E+03  0.52387793141E+03  0.12718787656E+04  0.25500000920E-02 0.  1.
       -2    1    3    3    0  502 -0.99626442719E+03 -0.59218637139E+03 -0.88353034969E+03  0.14573446353E+04  0.25500000920E-02 0. -1.
</event>
<event>
 5   0  0.8213334E-06  0.2701584E+04  0.7818609E-02  0.8334491E-01
        2   -1    0    0  501    0  0.00000000000E+00  0.00000000000E+00  0.22582979888E+04  0.22582979888E+04  0.25500000920E-02 0.  1.
       -2   -1    0    0    0  501  0.00000000000E+00  0.00000000000E+00 -0.80797068724E+03  0.80797068724E+03  0.25500000920E-02 0. -1.
    10030    2    1    2    0    0  0.00000000000E+00  0.00000000000E+00  0.14503273016E+04  0.30662686761E+04  0.27015836674E+04 0.  0.
        3    1    3    3  502    0 -0.98129900222E+03  0.63143305069E+03  0.14974429106E+04  0.18984179493E+04  0.10100000352E+00 0.  1.
       -3    1    3    3    0  502  0.98129900222E+03 -0.63143305069E+03 -0.47115609057E+02  0.11678507268E+04  0.10100000352E+00 0. -1.
</event>
<event>
 5   0  0.7838364E-06  0.2688225E+04  0.7818609E-02  0.8338836E-01
        2   -1    0    0  501    0  0.00000000000E+00  0.00000000000E+00  0.10382414774E+04  0.10382414774E+04  0.25500000920E-02 0.  1.
       -2   -1    0    0    0  501  0.00000000000E+00  0.00000000000E+00 -0.17400950829E+04  0.17400950829E+04  0.25500000920E-02 0. -1.
    10030    2    1    2    0    0  0.00000000000E+00  0.00000000000E+00 -0.70185360550E+03  0.27783365602E+04  0.26882253548E+04 0.  0.
        2    1    3    3  502    0  0.41096145912E+03 -0.34576192788E+03 -0.16243812818E+04  0.17108638696E+04  0.25500000920E-02 0. -1.
       -2    1    3    3    0  502 -0.41096145912E+03  0.34576192788E+03  0.92252767631E+03  0.10674726906E+04  0.25500000920E-02 0.  1.
</event>
<event>
 5   0  0.7812908E-06  0.2708576E+04  0.7818609E-02  0.8332228E-01
        2   -1    0    0  501    0  0.00000000000E+00  0.00000000000E+00  0.23102748573E+04  0.23102748573E+04  0.25500000920E-02 0.  1.
       -2   -1    0    0    0  501  0.00000000000E+00  0.00000000000E+00 -0.79388621897E+03  0.79388621897E+03  0.25500000920E-02 0. -1.
    10030    2    1    2    0    0  0.00000000000E+00  0.00000000000E+00  0.15163886383E+04  0.31041610762E+04  0.27085755454E+04 0.  0.
        5    1    3    3  502    0  0.43439650778E+03  0.36032224035E+03 -0.65267606625E+03  0.86286764936E+03  0.46999998093E+01 0. -1.
       -5    1    3    3    0  502 -0.43439650778E+03 -0.36032224035E+03  0.21690647046E+04  0.22412934269E+04  0.46999998093E+01 0.  1.
</event>
<event>
 5   0  0.3089218E-06  0.2704099E+04  0.7818609E-02  0.8333676E-01
        1   -1    0    0  501    0  0.00000000000E+00  0.00000000000E+00  0.18099471139E+04  0.18099471139E+04  0.50400001928E-02 0. -1.
       -1   -1    0    0    0  501  0.00000000000E+00  0.00000000000E+00 -0.10099949094E+04  0.10099949094E+04  0.50400001928E-02 0.  1.
    10030    2    1    2    0    0  0.00000000000E+00  0.00000000000E+00  0.79995220443E+03  0.28199420233E+04  0.27040986457E+04 0.  0.
        5    1    3    3  502    0  0.80116719208E+03  0.38156159198E+03 -0.66380095739E+03  0.11082021112E+04  0.46999998093E+01 0.  1.
       -5    1    3    3    0  502 -0.80116719208E+03 -0.38156159198E+03  0.14637531618E+04  0.17117399122E+04  0.46999998093E+01 0. -1.
</event>
<event>
 5   0  0.3089218E-06  0.2705584E+04  0.7818609E-02  0.8333195E-01
       -1   -1    0    0    0  501  0.00000000000E+00  0.00000000000E+00  0.15032385251E+04  0.15032385251E+04  0.50400001928E-02 0.  1.
        1   -1    0    0  501    0  0.00000000000E+00  0.00000000000E+00 -0.12174027337E+04  0.12174027337E+04  0.50400001928E-02 0. -1.
    10030    2    1    2    0    0  0.00000000000E+00  0.00000000000E+00  0.28583579133E+03  0.27206412588E+04  0.27055843656E+04 0.  0.
        5    1    3    3  502    0 -0.11118307469E+04 -0.76804055630E+03  0.79553775084E+02  0.13536634733E+04  0.46999998093E+01 0. -1.
       -5    1    3    3    0  502  0.11118307469E+04  0.76804055630E+03  0.20628201624E+03  0.13669777855E+04  0.46999998093E+01 0.  1.
</event>
<event>
 5   0  0.8407622E-06  0.2698741E+04  0.7818609E-02  0.8335413E-01
       -2   -1    0    0    0  501  0.00000000000E+00  0.00000000000E+00  0.86292970702E+03  0.86292970702E+03  0.25500000920E-02 0. -1.
        2   -1    0    0  501    0  0.00000000000E+00  0.00000000000E+00 -0.21100227143E+04  0.21100227143E+04  0.25500000920E-02 0.  1.
    10030    2    1    2    0    0  0.00000000000E+00  0.00000000000E+00 -0.12470930073E+04  0.29729524214E+04  0.26987413975E+04 0.  0.
        1    1    3    3  502    0 -0.55061801086E+01  0.55490066088E+03  0.73141050475E+03  0.91809933446E+03  0.50400001928E-02 0. -1.
       -1    1    3    3    0  502  0.55061801086E+01 -0.55490066088E+03 -0.19785035121E+04  0.20548530869E+04  0.50400001928E-02 0.  1.
</event>
<event>
 5   0  0.3013407E-06  0.2787169E+04  0.7818609E-02  0.8307263E-01
       -1   -1    0    0    0  501  0.00000000000E+00  0.00000000000E+00  0.91051517574E+03  0.91051517575E+03  0.50400001928E-02 0. -1.
        1   -1    0    0  501    0  0.00000000000E+00  0.00000000000E+00 -0.21329438641E+04  0.21329438641E+04  0.50400001928E-02 0.  1.
    10030    2    1    2    0    0  0.00000000000E+00  0.00000000000E+00 -0.12224286883E+04  0.30434590398E+04  0.27871689990E+04 0.  0.
        4    1    3    3  502    0  0.75531019863E+02  0.59989276177E+03 -0.19822575151E+04  0.20724195352E+04  0.12699999809E+01 0.  1.
       -4    1    3    3    0  502 -0.75531019863E+02 -0.59989276177E+03  0.75982882682E+03  0.97103950463E+03  0.12699999809E+01 0. -1.
</event>
<event>
 5   0  0.7838364E-06  0.2704037E+04  0.7818609E-02  0.8333696E-01
        2   -1    0    0  501    0  0.00000000000E+00  0.00000000000E+00  0.21907767431E+04  0.21907767431E+04  0.25500000920E-02 0.  1.
       -2   -1    0    0    0  501  0.00000000000E+00  0.00000000000E+00 -0.83438640088E+03  0.83438640089E+03  0.25500000920E-02 0. -1.
    10030    2    1    2    0    0  0.00000000000E+00  0.00000000000E+00  0.13563903422E+04  0.30251631440E+04  0.27040372200E+04 0.  0.
        2    1    3    3  502    0 -0.93815604518E+03  0.97254574801E+03  0.62851016490E+03  0.14903043395E+04  0.25500000920E-02 0.  1.
       -2    1    3    3    0  502  0.93815604518E+03 -0.97254574801E+03  0.72788017733E+03  0.15348588045E+04  0.25500000920E-02 0. -1.
</event>
<event>
 5   0  0.3199840E-06  0.2693390E+04  0.7818609E-02  0.8337153E-01
        1   -1    0    0  501    0  0.00000000000E+00  0.00000000000E+00  0.13351688164E+04  0.13351688164E+04  0.50400001928E-02 0. -1.
       -1   -1    0    0    0  501  0.00000000000E+00  0.00000000000E+00 -0.13583205460E+04  0.13583205460E+04  0.50400001928E-02 0.  1.
    10030    2    1    2    0    0  0.00000000000E+00  0.00000000000E+00 -0.23151729554E+02  0.26934893624E+04  0.26933898609E+04 0.  0.
        1    1    3    3  502    0  0.54550388408E+02  0.72176170854E+03  0.11241031466E+04  0.13369830190E+04  0.50400001928E-02 0. -1.
       -1    1    3    3    0  502 -0.54550388408E+02 -0.72176170854E+03 -0.11472548762E+04  0.13565063434E+04  0.50400001928E-02 0.  1.
</event>
<event>
 5   0  0.7729970E-06  0.2803629E+04  0.7818609E-02  0.8302143E-01
        2   -1    0    0  501    0  0.00000000000E+00  0.00000000000E+00  0.15440284576E+04  0.15440284576E+04  0.25500000920E-02 0. -1.
       -2   -1    0    0    0  501  0.00000000000E+00  0.00000000000E+00 -0.12726992424E+04  0.12726992424E+04  0.25500000920E-02 0.  1.
    10030    2    1    2    0    0  0.00000000000E+00  0.00000000000E+00  0.27132921519E+03  0.28167277000E+04  0.28036289685E+04 0.  0.
        4    1    3    3  502    0 -0.58806337527E+03  0.11598242821E+04  0.66162874729E+03  0.14590288246E+04  0.12699999809E+01 0.  1.
       -4    1    3    3    0  502  0.58806337527E+03 -0.11598242821E+04 -0.39029953210E+03  0.13576988755E+04  0.12699999809E+01 0. -1.
</event>
<event>
 5   0  0.3013407E-06  0.2703060E+04  0.7818609E-02  0.8334013E-01
        1   -1    0    0  501    0  0.00000000000E+00  0.00000000000E+00  0.18235296726E+04  0.18235296726E+04  0.50400001928E-02 0. -1.
       -1   -1    0    0    0  501  0.00000000000E+00  0.00000000000E+00 -0.10017020541E+04  0.10017020541E+04  0.50400001928E-02 0.  1.
    10030    2    1    2    0    0  0.00000000000E+00  0.00000000000E+00  0.82182761853E+03  0.28252317267E+04  0.27030600576E+04 0.  0.
        4    1    3    3  502    0 -0.20476283094E+02 -0.10669834721E+04  0.12777089278E+04  0.16647566564E+04  0.12699999809E+01 0. -1.
       -4    1    3    3    0  502  0.20476283094E+02  0.10669834721E+04 -0.45588130929E+03  0.11604750704E+04  0.12699999809E+01 0.  1.
</event>
<event>
 5   0  0.2654625E-06  0.2690805E+04  0.7818609E-02  0.8337994E-01
       -4   -1    0    0    0  501  0.00000000000E+00  0.00000000000E+00  0.16140677682E+04  0.16140682678E+04  0.12699999809E+01 0. -1.
        4   -1    0    0  501    0  0.00000000000E+00  0.00000000000E+00 -0.11214563714E+04  0.11214570905E+04  0.12699999809E+01 0.  1.
    10030    2    1    2    0    0  0.00000000000E+00  0.00000000000E+00  0.49261139680E+03  0.27355253584E+04  0.26908052694E+04 0.  0.
        4    1    3    3  502    0  0.52210028186E+03  0.25098947176E+03  0.14807859191E+04  0.15900669704E+04  0.12699999809E+01 0. -1.
       -4    1    3    3    0  502 -0.52210028186E+03 -0.25098947176E+03 -0.98817452227E+03  0.11454583880E+04  0.12699999809E+01 0.  1.
</event>
<event>
 5   0  0.3013407E-06  0.2653181E+04  0.7818609E-02  0.8350358E-01
        1   -1    0    0  501    0  0.00000000000E+00  0.00000000000E+00  0.22652167767E+04  0.22652167767E+04  0.50400001928E-02 0. -1.
       -1   -1    0    0    0  501  0.00000000000E+00  0.00000000000E+00 -0.77689815892E+03  0.77689815894E+03  0.50400001928E-02 0.  1.
    10030    2    1    2    0    0  0.00000000000E+00  0.00000000000E+00  0.14883186178E+04  0.30421149357E+04  0.26531812930E+04 0.  0.
        4    1    3    3  502    0 -0.54916968368E+03 -0.81312482573E+03 -0.27951107811E+03  0.10202388835E+04  0.12699999809E+01 0. -1.
       -4    1    3    3    0  502  0.54916968368E+03  0.81312482573E+03  0.17678296959E+04  0.20218760522E+04  0.12699999809E+01 0.  1.
</event>
<event>
 5   0  0.3089218E-06  0.2702642E+04  0.7818609E-02  0.8334148E-01
        1   -1    0    0  501    0  0.00000000000E+00  0.00000000000E+00  0.17555218080E+04  0.17555218080E+04  0.50400001928E-02 0.  1.
       -1   -1    0    0    0  501  0.00000000000E+00  0.00000000000E+00 -0.10401853449E+04  0.10401853449E+04  0.50400001928E-02 0. -1.
    10030    2    1    2    0    0  0.00000000000E+00  0.00000000000E+00  0.71533646311E+03  0.27957071529E+04  0.27026417131E+04 0.  0.
        5    1    3    3  502    0  0.91957620898E+03 -0.21187859081E+03 -0.64286787073E+03  0.11418468070E+04  0.46999998093E+01 0. -1.
       -5    1    3    3    0  502 -0.91957620898E+03  0.21187859081E+03  0.13582043338E+04  0.16538603459E+04  0.46999998093E+01 0.  1.
</event>
<event>
 5   0  0.8407622E-06  0.2709859E+04  0.7818609E-02  0.8331813E-01
       -2   -1    0    0    0  501  0.00000000000E+00  0.00000000000E+00  0.12916183810E+04  0.12916183810E+04  0.25500000920E-02 0. -1.
        2   -1    0    0  501    0  0.00000000000E+00  0.00000000000E+00 -0.14213435357E+04  0.14213435357E+04  0.25500000920E-02 0.  1.
    10030    2    1    2    0    0  0.00000000000E+00  0.00000000000E+00 -0.12972515467E+03  0.27129619168E+04  0.27098586210E+04 0.  0.
        1    1    3    3  502    0 -0.46511656551E+03  0.10446370507E+04 -0.79249159993E+03  0.13912738491E+04  0.50400001928E-02 0.  1.
       -1    1    3    3    0  502  0.46511656551E+03 -0.10446370507E+04  0.66276644526E+03  0.13216880677E+04  0.50400001928E-02 0. -1.
</event>
<event>
 5   0  0.3089218E-06  0.2734522E+04  0.7818609E-02  0.8323890E-01
        1   -1    0    0  501    0  0.00000000000E+00  0.00000000000E+00  0.13112162023E+04  0.13112162023E+04  0.50400001928E-02 0. -1.
       -1   -1    0    0    0  501  0.00000000000E+00  0.00000000000E+00 -0.14257011069E+04  0.14257011069E+04  0.50400001928E-02 0.  1.
    10030    2    1    2    0    0  0.00000000000E+00  0.00000000000E+00 -0.11448490462E+03  0.27369173092E+04  0.27345218163E+04 0.  0.
        5    1    3    3  502    0 -0.72598457899E+03 -0.11570801001E+04 -0.11639019453E+03  0.13709327972E+04  0.46999998093E+01 0. -1.
       -5    1    3    3    0  502  0.72598457899E+03  0.11570801001E+04  0.19052899094E+01  0.13659845120E+04  0.46999998093E+01 0.  1.
</event>
<event>
 5   0  0.8407622E-06  0.2657582E+04  0.7818609E-02  0.8348901E-01
       -2   -1    0    0    0  501  0.00000000000E+00  0.00000000000E+00  0.86144684332E+03  0.86144684332E+03  0.25500000920E-02 0. -1.
        2   -1    0    0  501    0  0.00000000000E+00  0.00000000000E+00 -0.20496739585E+04  0.20496739585E+04  0.25500000920E-02 0.  1.
    10030    2    1    2    0    0  0.00000000000E+00  0.00000000000E+00 -0.11882271152E+04  0.29111208019E+04  0.26575817289E+04 0.  0.
        1    1    3    3  502    0  0.50754493018E+03 -0.14705686370E+03  0.74140479017E+03  0.91044419940E+03  0.50400001928E-02 0. -1.
       -1    1    3    3    0  502 -0.50754493018E+03  0.14705686370E+03 -0.19296319054E+04  0.20006766025E+04  0.50400001928E-02 0.  1.
</event>
<event>
 5   0  0.3028601E-06  0.2698776E+04  0.7818609E-02  0.8335402E-01
        1   -1    0    0  501    0  0.00000000000E+00  0.00000000000E+00  0.14517797775E+04  0.14517797775E+04  0.50400001928E-02 0.  1.
       -1   -1    0    0    0  501  0.00000000000E+00  0.00000000000E+00 -0.12542178825E+04  0.12542178825E+04  0.50400001928E-02 0. -1.
    10030    2    1    2    0    0  0.00000000000E+00  0.00000000000E+00  0.19756189500E+03  0.27059976599E+04  0.26987761362E+04 0.  0.
        3    1    3    3  502    0  0.44201731323E+01 -0.71458177394E+03 -0.10489222758E+04  0.12692062876E+04  0.10100000352E+00 0. -1.
       -3    1    3    3    0  502 -0.44201731323E+01  0.71458177394E+03  0.12464841708E+04  0.14367913724E+04  0.10100000352E+00 0.  1.
</event>
<event>
 5   0  0.3089218E-06  0.2700646E+04  0.7818609E-02  0.8334796E-01
        1   -1    0    0  501    0  0.00000000000E+00  0.00000000000E+00  0.17858602962E+04  0.17858602962E+04  0.50400001928E-02 0. -1.
       -1   -1    0    0    0  501  0.00000000000E+00  0.00000000000E+00 -0.10210046518E+04  0.10210046519E+04  0.50400001928E-02 0.  1.
    10030    2    1    2    0    0  0.00000000000E+00  0.00000000000E+00  0.76485564431E+03  0.28068649480E+04  0.27006456043E+04 0.  0.
        5    1    3    3  502    0  0.64583686190E+02  0.70646876609E+03 -0.81170906258E+03  0.10780365774E+04  0.46999998093E+01 0.  1.
       -5    1    3    3    0  502 -0.64583686190E+02 -0.70646876609E+03  0.15765647069E+04  0.17288283706E+04  0.46999998093E+01 0. -1.
</event>
<event>
 5   0  0.7729970E-06  0.2725780E+04  0.7818609E-02  0.8326689E-01
        2   -1    0    0  501    0  0.00000000000E+00  0.00000000000E+00  0.15926180975E+04  0.15926180975E+04  0.25500000920E-02 0.  1.
       -2   -1    0    0    0  501  0.00000000000E+00  0.00000000000E+00 -0.11662989538E+04  0.11662989538E+04  0.25500000920E-02 0. -1.
    10030    2    1    2    0    0  0.00000000000E+00  0.00000000000E+00  0.42631914368E+03  0.27589170512E+04  0.27257797569E+04 0.  0.
        4    1    3    3  502    0 -0.93513651981E+03  0.49472144777E+03  0.10828124885E+04  0.15138408502E+04  0.12699999809E+01 0.  1.
       -4    1    3    3    0  502  0.93513651981E+03 -0.49472144777E+03 -0.65649334486E+03  0.12450762010E+04  0.12699999809E+01 0. -1.
</event>
<event>
 5   0  0.7838364E-06  0.2678147E+04  0.7818609E-02  0.8342131E-01
        2   -1    0    0  501    0  0.00000000000E+00  0.00000000000E+00  0.96676209789E+03  0.96676209789E+03  0.25500000920E-02 0.  1.
       -2   -1    0    0    0  501  0.00000000000E+00  0.00000000000E+00 -0.18547662023E+04  0.18547662023E+04  0.25500000920E-02 0. -1.
    10030    2    1    2    0    0  0.00000000000E+00  0.00000000000E+00 -0.88800410445E+03  0.28215283002E+04  0.26781468704E+04 0.  0.
        2    1    3    3  502    0  0.78510296008E+03  0.89973821602E+03  0.19441227951E+03  0.12098395140E+04  0.25500000920E-02 0.  1.
       -2    1    3    3    0  502 -0.78510296008E+03 -0.89973821602E+03 -0.10824163840E+04  0.16116887862E+04  0.25500000920E-02 0. -1.
</event>
<event>
 5   0  0.3013407E-06  0.2716224E+04  0.7818609E-02  0.8329760E-01
       -1   -1    0    0    0  501  0.00000000000E+00  0.00000000000E+00  0.76700625177E+03  0.76700625179E+03  0.50400001928E-02 0. -1.
        1   -1    0    0  501    0  0.00000000000E+00  0.00000000000E+00 -0.24047636135E+04  0.24047636135E+04  0.50400001928E-02 0.  1.
    10030    2    1    2    0    0  0.00000000000E+00  0.00000000000E+00 -0.16377573617E+04  0.31717698653E+04  0.27162243837E+04 0.  0.
        4    1    3    3  502    0  0.21693553379E+02 -0.13443539051E+04 -0.59514942590E+03  0.14703613449E+04  0.12699999809E+01 0. -1.
       -4    1    3    3    0  502 -0.21693553379E+02  0.13443539051E+04 -0.10426079358E+04  0.17014085204E+04  0.12699999809E+01 0.  1.
</event>
<event>
 5   0  0.7812908E-06  0.2700948E+04  0.7818609E-02  0.8334697E-01
       -2   -1    0    0    0  501  0.00000000000E+00  0.00000000000E+00  0.27741604924E+04  0.27741604924E+04  0.25500000920E-02 0.  1.
        2   -1    0    0  501    0  0.00000000000E+00  0.00000000000E+00 -0.65741710560E+03  0.65741710560E+03  0.25500000920E-02 0. -1.
    10030    2    1    2    0    0  0.00000000000E+00  0.00000000000E+00  0.21167433868E+04  0.34315775980E+04  0.27009483974E+04 0.  0.
        5    1    3    3  502    0  0.34223025785E+03  0.49195971587E+03  0.25959559166E+04  0.26642363113E+04  0.46999998093E+01 0.  1.
       -5    1    3    3    0  502 -0.34223025785E+03 -0.49195971587E+03 -0.47921252986E+03  0.76734128665E+03  0.46999998093E+01 0. -1.
</event>
<event>
 5   0  0.3199840E-06  0.2710808E+04  0.7818609E-02  0.8331507E-01
        1   -1    0    0  501    0  0.00000000000E+00  0.00000000000E+00  0.16675493972E+04  0.16675493972E+04  0.50400001928E-02 0. -1.
       -1   -1    0    0    0  501  0.00000000000E+00  0.00000000000E+00 -0.11016883919E+04  0.11016883920E+04  0.50400001928E-02 0.  1.
    10030    2    1    2    0    0  0.00000000000E+00  0.00000000000E+00  0.56586100521E+03  0.27692377891E+04  0.27108078603E+04 0.  0.
        1    1    3    3  502    0  0.10686239053E+04  0.13210871360E+03  0.11239062593E+04  0.15564623487E+04  0.50400001928E-02 0. -1.
       -1    1    3    3    0  502 -0.10686239053E+04 -0.13210871360E+03 -0.55804525412E+03  0.12127754404E+04  0.50400001928E-02 0.  1.
</event>
<event>
 5   0  0.7729970E-06  0.2718056E+04  0.7818609E-02  0.8329170E-01
       -2   -1    0    0    0  501  0.00000000000E+00  0.00000000000E+00  0.10136273023E+04  0.10136273023E+04  0.25500000920E-02 0. -1.
        2   -1    0    0  501    0  0.00000000000E+00  0.00000000000E+00 -0.18221265794E+04  0.18221265794E+04  0.25500000920E-02 0.  1.
    10030    2    1    2    0    0  0.00000000000E+00  0.00000000000E+00 -0.80849927714E+03  0.28357538817E+04  0.27180561062E+04 0.  0.
        4    1    3    3  502    0 -0.71376826928E+02 -0.95986971182E+03  0.59672860457E+03  0.11324889207E+04  0.12699999809E+01 0. -1.
       -4    1    3    3    0  502  0.71376826928E+02  0.95986971182E+03 -0.14052278817E+04  0.17032649610E+04  0.12699999809E+01 0.  1.
</event>
<event>
 5   0  0.3046300E-06  0.2665646E+04  0.7818609E-02  0.8346239E-01
        1   -1    0    0  501    0  0.00000000000E+00  0.00000000000E+00  0.22680037566E+04  0.22680037566E+04  0.50400001928E-02 0. -1.
       -1   -1    0    0    0  501  0.00000000000E+00  0.00000000000E+00 -0.78325114790E+03  0.78325114792E+03  0.50400001928E-02 0.  1.
    10030    2    1    2    0    0  0.00000000000E+00  0.00000000000E+00  0.14847526087E+04  0.30512549045E+04  0.26656455472E+04 0.  0.
        2    1    3    3  502    0  0.24988405586E+03  0.11555349066E+04  0.37956541955E+02  0.11828540320E+04  0.25500000920E-02 0.  1.
       -2    1    3    3    0  502 -0.24988405586E+03 -0.11555349066E+04  0.14467960667E+04  0.18684008726E+04  0.25500000920E-02 0. -1.
</event>
<event>
 5   0  0.3046300E-06  0.2714237E+04  0.7818609E-02  0.8330400E-01
        1   -1    0    0  501    0  0.00000000000E+00  0.00000000000E+00  0.19692423430E+04  0.19692423431E+04  0.50400001928E-02 0.  1.
       -1   -1    0    0    0  501  0.00000000000E+00  0.00000000000E+00 -0.93526835953E+03  0.93526835954E+03  0.50400001928E-02 0. -1.
    10030    2    1    2    0    0  0.00000000000E+00  0.00000000000E+00  0.10339739835E+04  0.29045107026E+04  0.27142365820E+04 0.  0.
        2    1    3    3  502    0  0.23273449575E+03  0.10263519702E+03 -0.90953226295E+03  0.94443012792E+03  0.25500000920E-02 0. -1.
       -2    1    3    3    0  502 -0.23273449575E+03 -0.10263519702E+03  0.19435062465E+04  0.19600805747E+04  0.25500000920E-02 0.  1.
</event>
<event>
 5   0  0.7838364E-06  0.2688623E+04  0.7818609E-02  0.8338706E-01
        2   -1    0    0  501    0  0.00000000000E+00  0.00000000000E+00  0.12516737017E+04  0.12516737017E+04  0.25500000920E-02 0.  1.
       -2   -1    0    0    0  501  0.00000000000E+00  0.00000000000E+00 -0.14438058487E+04  0.14438058487E+04  0.25500000920E-02 0. -1.
    10030    2    1    2    0    0  0.00000000000E+00  0.00000000000E+00 -0.19213214701E+03  0.26954795504E+04  0.26886232992E+04 0.  0.
        2    1    3    3  502    0  0.48161554140E+03 -0.11860973684E+04  0.31533792244E+03  0.13184151480E+04  0.25500000920E-02 0.  1.
       -2    1    3    3    0  502 -0.48161554140E+03  0.11860973684E+04 -0.50747006945E+03  0.13770644024E+04  0.25500000920E-02 0. -1.
</event>
<event>
 5   0  0.3089218E-06  0.2673838E+04  0.7818609E-02  0.8343544E-01
       -1   -1    0    0    0  501  0.00000000000E+00  0.00000000000E+00  0.13779403062E+04  0.13779403062E+04  0.50400001928E-02 0. -1.
        1   -1    0    0  501    0  0.00000000000E+00  0.00000000000E+00 -0.12971188822E+04  0.12971188822E+04  0.50400001928E-02 0.  1.
    10030    2    1    2    0    0  0.00000000000E+00  0.00000000000E+00  0.80821423966E+02  0.26750591885E+04  0.26738379830E+04 0.  0.
        5    1    3    3  502    0  0.72683357813E+03  0.79147408184E+03  0.83614308985E+03  0.13615710151E+04  0.46999998093E+01 0. -1.
       -5    1    3    3    0  502 -0.72683357813E+03 -0.79147408184E+03 -0.75532166588E+03  0.13134881733E+04  0.46999998093E+01 0.  1.
</event>
<event>
 5   0  0.3199840E-06  0.2704117E+04  0.7818609E-02  0.8333670E-01
       -1   -1    0    0    0  501  0.00000000000E+00  0.00000000000E+00  0.72370206035E+03  0.72370206036E+03  0.50400001928E-02 0. -1.
        1   -1    0    0  501    0  0.00000000000E+00  0.00000000000E+00 -0.25259881637E+04  0.25259881637E+04  0.50400001928E-02 0.  1.
    10030    2    1    2    0    0  0.00000000000E+00  0.00000000000E+00 -0.18022861033E+04  0.32496902240E+04  0.27041174815E+04 0.  0.
        1    1    3    3  502    0 -0.65940454155E+03  0.77308604143E+03 -0.19730574393E+04  0.22193314389E+04  0.50400001928E-02 0.  1.
       -1    1    3    3    0  502  0.65940454155E+03 -0.77308604143E+03  0.17077133599E+03  0.10303587851E+04  0.50400001928E-02 0. -1.
</event>
<event>
 5   0  0.3089218E-06  0.2707202E+04  0.7818609E-02  0.8332672E-01
        1   -1    0    0  501    0  0.00000000000E+00  0.00000000000E+00  0.11835966794E+04  0.11835966794E+04  0.50400001928E-02 0. -1.
       -1   -1    0    0    0  501  0.00000000000E+00  0.00000000000E+00 -0.15480236804E+04  0.15480236804E+04  0.50400001928E-02 0.  1.
    10030    2    1    2    0    0  0.00000000000E+00  0.00000000000E+00 -0.36442700100E+03  0.27316203598E+04  0.27072020152E+04 0.  0.
        5    1    3    3  502    0 -0.53882737031E+02  0.11288303112E+04  0.56952476885E+03  0.12655203567E+04  0.46999998093E+01 0. -1.
       -5    1    3    3    0  502  0.53882737031E+02 -0.11288303112E+04 -0.93395176985E+03  0.14661000031E+04  0.46999998093E+01 0.  1.
</event>
<event>
 5   0  0.7838364E-06  0.2722053E+04  0.7818609E-02  0.8327885E-01
       -2   -1    0    0    0  501  0.00000000000E+00  0.00000000000E+00  0.81305326822E+03  0.81305326822E+03  0.25500000920E-02 0.  1.
        2   -1    0    0  501    0  0.00000000000E+00  0.00000000000E+00 -0.22783162579E+04  0.22783162579E+04  0.25500000920E-02 0. -1.
    10030    2    1    2    0    0  0.00000000000E+00  0.00000000000E+00 -0.14652629896E+04  0.30913695261E+04  0.27220525193E+04 0.  0.
        2    1    3    3  502    0  0.40970316555E+03 -0.16552751505E+03 -0.21945849788E+04  0.22386288820E+04  0.25500000920E-02 0. -1.
       -2    1    3    3    0  502 -0.40970316555E+03  0.16552751505E+03  0.72932198919E+03  0.85274064406E+03  0.25500000920E-02 0.  1.
</event>
<event>
 5   0  0.7838364E-06  0.2690464E+04  0.7818609E-02  0.8338106E-01
       -2   -1    0    0    0  501  0.00000000000E+00  0.00000000000E+00  0.12681676943E+04  0.12681676943E+04  0.25500000920E-02 0.  1.
        2   -1    0    0  501    0  0.00000000000E+00  0.00000000000E+00 -0.14269797245E+04  0.14269797245E+04  0.25500000920E-02 0. -1.
    10030    2    1    2    0    0  0.00000000000E+00  0.00000000000E+00 -0.15881203014E+03  0.26951474188E+04  0.26904643369E+04 0.  0.
        2    1    3    3  502    0 -0.30215209883E+02 -0.33317527734E+02 -0.14262262841E+04  0.14269353279E+04  0.25500000920E-02 0. -1.
       -2    1    3    3    0  502  0.30215209883E+02  0.33317527734E+02  0.12674142539E+04  0.12682120909E+04  0.25500000920E-02 0.  1.
</event>
<event>
 5   0  0.3199840E-06  0.2689994E+04  0.7818609E-02  0.8338259E-01
       -1   -1    0    0    0  501  0.00000000000E+00  0.00000000000E+00  0.12922489044E+04  0.12922489044E+04  0.50400001928E-02 0.  1.
        1   -1    0    0  501    0  0.00000000000E+00  0.00000000000E+00 -0.13998983750E+04  0.13998983750E+04  0.50400001928E-02 0. -1.
    10030    2    1    2    0    0  0.00000000000E+00  0.00000000000E+00 -0.10764947066E+03  0.26921472794E+04  0.26899941571E+04 0.  0.
        1    1    3    3  502    0  0.30589979672E+02 -0.83050893876E+03 -0.11121853963E+04  0.13883937482E+04  0.50400001928E-02 0. -1.
       -1    1    3    3    0  502 -0.30589979672E+02  0.83050893876E+03  0.10045359256E+04  0.13037535312E+04  0.50400001928E-02 0.  1.
</event>
<event>
 5   0  0.8213334E-06  0.2705340E+04  0.7818609E-02  0.8333274E-01
        2   -1    0    0  501    0  0.00000000000E+00  0.00000000000E+00  0.99993232769E+03  0.99993232769E+03  0.25500000920E-02 0. -1.
       -2   -1    0    0    0  501  0.00000000000E+00  0.00000000000E+00 -0.18298398162E+04  0.18298398162E+04  0.25500000920E-02 0.  1.
    10030    2    1    2    0    0  0.00000000000E+00  0.00000000000E+00 -0.82990748849E+03  0.28297721439E+04  0.27053398949E+04 0.  0.
        3    1    3    3  502    0  0.40755078402E+03  0.68317151862E+03 -0.15593005416E+04  0.17504968308E+04  0.10100000352E+00 0.  1.
       -3    1    3    3    0  502 -0.40755078402E+03 -0.68317151862E+03  0.72939305307E+03  0.10792753131E+04  0.10100000352E+00 0. -1.
</event>
<event>
 5   0  0.8213334E-06  0.2692531E+04  0.7818609E-02  0.8337433E-01
        2   -1    0    0  501    0  0.00000000000E+00  0.00000000000E+00  0.12337582823E+04  0.12337582823E+04  0.25500000920E-02 0.  1.
       -2   -1    0    0    0  501  0.00000000000E+00  0.00000000000E+00 -0.14690317805E+04  0.14690317805E+04  0.25500000920E-02 0. -1.
    10030    2    1    2    0    0  0.00000000000E+00  0.00000000000E+00 -0.23527349821E+03  0.27027900628E+04  0.26925305021E+04 0.  0.
        3    1    3    3  502    0  0.68534617500E+03  0.33775507002E+03 -0.12303062186E+04  0.14482511069E+04  0.10100000352E+00 0. -1.
       -3    1    3    3    0  502 -0.68534617500E+03 -0.33775507002E+03  0.99503272043E+03  0.12545389559E+04  0.10100000352E+00 0.  1.
</event>
<event>
 5   0  0.7729970E-06  0.2726008E+04  0.7818609E-02  0.8326615E-01
        2   -1    0    0  501    0  0.00000000000E+00  0.00000000000E+00  0.15296035744E+04  0.15296035745E+04  0.25500000920E-02 0.  1.
       -2   -1    0    0    0  501  0.00000000000E+00  0.00000000000E+00 -0.12145497387E+04  0.12145497387E+04  0.25500000920E-02 0. -1.
    10030    2    1    2    0    0  0.00000000000E+00  0.00000000000E+00  0.31505383579E+03  0.27441533131E+04  0.27260077928E+04 0.  0.
        4    1    3    3  502    0 -0.68420291111E+03  0.67897713680E+03  0.11275982486E+04  0.14834496955E+04  0.12699999809E+01 0.  1.
       -4    1    3    3    0  502  0.68420291111E+03 -0.67897713680E+03 -0.81254441280E+03  0.12607036176E+04  0.12699999809E+01 0. -1.
</event>
<event>
 5   0  0.3013407E-06  0.2684296E+04  0.7818609E-02  0.8340119E-01
       -1   -1    0    0    0  501  0.00000000000E+00  0.00000000000E+00  0.10947362857E+04  0.10947362857E+04  0.50400001928E-02 0.  1.
        1   -1    0    0  501    0  0.00000000000E+00  0.00000000000E+00 -0.16454745087E+04  0.16454745087E+04  0.50400001928E-02 0. -1.
    10030    2    1    2    0    0  0.00000000000E+00  0.00000000000E+00 -0.55073822301E+03  0.27402107945E+04  0.26842955515E+04 0.  0.
        4    1    3    3  502    0  0.11289161742E+04  0.69526626644E+03 -0.48830987658E+03  0.14129030604E+04  0.12699999809E+01 0. -1.
       -4    1    3    3    0  502 -0.11289161742E+04 -0.69526626644E+03 -0.62428346428E+02  0.13273077341E+04  0.12699999809E+01 0.  1.
</event>
<event>
 5   0  0.3013407E-06  0.2673172E+04  0.7818609E-02  0.8343763E-01
       -1   -1    0    0    0  501  0.00000000000E+00  0.00000000000E+00  0.13211443721E+04  0.13211443721E+04  0.50400001928E-02 0. -1.
        1   -1    0    0  501    0  0.00000000000E+00  0.00000000000E+00 -0.13522078262E+04  0.13522078262E+04  0.50400001928E-02 0.  1.
    10030    2    1    2    0    0  0.00000000000E+00  0.00000000000E+00 -0.31063454170E+02  0.26733521983E+04  0.26731717188E+04 0.  0.
        4    1    3    3  502    0 -0.12199431573E+04  0.88965031905E+02  0.52328481052E+03  0.13304152321E+04  0.12699999809E+01 0.  1.
       -4    1    3    3    0  502  0.12199431573E+04 -0.88965031905E+02 -0.55434826469E+03  0.13429369663E+04  0.12699999809E+01 0. -1.
</event>
<event>
 5   0  0.7812908E-06  0.2834776E+04  0.7818609E-02  0.8292552E-01
        2   -1    0    0  501    0  0.00000000000E+00  0.00000000000E+00  0.19285603335E+04  0.19285603335E+04  0.25500000920E-02 0.  1.
       -2   -1    0    0    0  501  0.00000000000E+00  0.00000000000E+00 -0.10417038311E+04  0.10417038311E+04  0.25500000920E-02 0. -1.
    10030    2    1    2    0    0  0.00000000000E+00  0.00000000000E+00  0.88685650235E+03  0.29702641646E+04  0.28347759615E+04 0.  0.
        5    1    3    3  502    0 -0.69470036323E+03 -0.55456004971E+03  0.16001964108E+04  0.18305179831E+04  0.46999998093E+01 0.  1.
       -5    1    3    3    0  502  0.69470036323E+03  0.55456004971E+03 -0.71333990840E+03  0.11397461815E+04  0.46999998093E+01 0. -1.
</event>
<event>
 5   0  0.3013407E-06  0.2695737E+04  0.7818609E-02  0.8336389E-01
       -1   -1    0    0    0  501  0.00000000000E+00  0.00000000000E+00  0.13293259300E+04  0.13293259300E+04  0.50400001928E-02 0.  1.
        1   -1    0    0  501    0  0.00000000000E+00  0.00000000000E+00 -0.13666699999E+04  0.13666699999E+04  0.50400001928E-02 0. -1.
    10030    2    1    2    0    0  0.00000000000E+00  0.00000000000E+00 -0.37344069817E+02  0.26959959299E+04  0.26957372785E+04 0.  0.
        4    1    3    3  502    0  0.11044137545E+04  0.68963521604E+02  0.75098776399E+03  0.13373368846E+04  0.12699999809E+01 0.  1.
       -4    1    3    3    0  502 -0.11044137545E+04 -0.68963521604E+02 -0.78833183380E+03  0.13586590453E+04  0.12699999809E+01 0. -1.
</event>
<event>
 5   0  0.8213334E-06  0.2686206E+04  0.7818609E-02  0.8339495E-01
        2   -1    0    0  501    0  0.00000000000E+00  0.00000000000E+00  0.23170145273E+04  0.23170145273E+04  0.25500000920E-02 0. -1.
       -2   -1    0    0    0  501  0.00000000000E+00  0.00000000000E+00 -0.77855590918E+03  0.77855590919E+03  0.25500000920E-02 0.  1.
    10030    2    1    2    0    0  0.00000000000E+00  0.00000000000E+00  0.15384586181E+04  0.30955704365E+04  0.26862057642E+04 0.  0.
        3    1    3    3  502    0 -0.11353376916E+04 -0.58835684800E+03  0.12426518083E+04  0.17830700999E+04  0.10100000352E+00 0. -1.
       -3    1    3    3    0  502  0.11353376916E+04  0.58835684800E+03  0.29580680984E+03  0.13125003365E+04  0.10100000352E+00 0.  1.
</event>
<event>
 5   0  0.7812908E-06  0.2684875E+04  0.7818609E-02  0.8339929E-01
        2   -1    0    0  501    0  0.00000000000E+00  0.00000000000E+00  0.19378873431E+04  0.19378873431E+04  0.25500000920E-02 0. -1.
       -2   -1    0    0    0  501  0.00000000000E+00  0.00000000000E+00 -0.92995015057E+03  0.92995015057E+03  0.25500000920E-02 0.  1.
    10030    2    1    2    0    0  0.00000000000E+00  0.00000000000E+00  0.10079371925E+04  0.28678374937E+04  0.26848751379E+04 0.  0.
        5    1    3    3  502    0  0.50564477737E+03  0.12317675166E+04  0.32147918206E+03  0.13697805702E+04  0.46999998093E+01 0. -1.
       -5    1    3    3    0  502 -0.50564477737E+03 -0.12317675166E+04  0.68645801044E+03  0.14980569235E+04  0.46999998093E+01 0.  1.
</event>
<event>
 5   0  0.3013407E-06  0.2730500E+04  0.7818609E-02  0.8325176E-01
        1   -1    0    0  501    0  0.00000000000E+00  0.00000000000E+00  0.16185724264E+04  0.16185724264E+04  0.50400001928E-02 0. -1.
       -1   -1    0    0    0  501  0.00000000000E+00  0.00000000000E+00 -0.11515748569E+04  0.11515748569E+04  0.50400001928E-02 0.  1.
    10030    2    1    2    0    0  0.00000000000E+00  0.00000000000E+00  0.46699756945E+03  0.27701472833E+04  0.27304998153E+04 0.  0.
        4    1    3    3  502    0  0.38347550865E+01  0.11287868071E+04 -0.54559154065E+03  0.12537328676E+04  0.12699999809E+01 0.  1.
       -4    1    3    3    0  502 -0.38347550865E+01 -0.11287868071E+04  0.10125891101E+04  0.15164144157E+04  0.12699999809E+01 0. -1.
</event>
<event>
 5   0  0.3028601E-06  0.2662902E+04  0.7818609E-02  0.8347143E-01
        1   -1    0    0  501    0  0.00000000000E+00  0.00000000000E+00  0.16694424751E+04  0.16694424751E+04  0.50400001928E-02 0.  1.
       -1   -1    0    0    0  501  0.00000000000E+00  0.00000000000E+00 -0.10618887690E+04  0.10618887690E+04  0.50400001928E-02 0. -1.
    10030    2    1    2    0    0  0.00000000000E+00  0.00000000000E+00  0.60755370617E+03  0.27313312441E+04  0.26629023375E+04 0.  0.
        3    1    3    3  502    0  0.75486193989E+03  0.31068096800E+03  0.13826732181E+04  0.16056539012E+04  0.10100000352E+00 0.  1.
       -3    1    3    3    0  502 -0.75486193989E+03 -0.31068096800E+03 -0.77511951197E+03  0.11256773429E+04  0.10100000352E+00 0. -1.
</event>
<event>
 5   0  0.3013407E-06  0.2730185E+04  0.7818609E-02  0.8325277E-01
        1   -1    0    0  501    0  0.00000000000E+00  0.00000000000E+00  0.14390720945E+04  0.14390720945E+04  0.50400001928E-02 0. -1.
       -1   -1    0    0    0  501  0.00000000000E+00  0.00000000000E+00 -0.12949155640E+04  0.12949155640E+04  0.50400001928E-02 0.  1.
    10030    2    1    2    0    0  0.00000000000E+00  0.00000000000E+00  0.14415653052E+03  0.27339876585E+04  0.27301845014E+04 0.  0.
        4    1    3    3  502    0 -0.39227970466E+03 -0.51331848760E+03  0.12762907232E+04  0.14304890281E+04  0.12699999809E+01 0. -1.
       -4    1    3    3    0  502  0.39227970466E+03  0.51331848760E+03 -0.11321341927E+04  0.13034986304E+04  0.12699999809E+01 0.  1.
</event>
<event>
 5   0  0.7812908E-06  0.2706048E+04  0.7818609E-02  0.8333045E-01
        2   -1    0    0  501    0  0.00000000000E+00  0.00000000000E+00  0.18264606890E+04  0.18264606890E+04  0.25500000920E-02 0.  1.
       -2   -1    0    0    0  501  0.00000000000E+00  0.00000000000E+00 -0.10023066266E+04  0.10023066266E+04  0.25500000920E-02 0. -1.
    10030    2    1    2    0    0  0.00000000000E+00  0.00000000000E+00  0.82415406239E+03  0.28287673156E+04  0.27060477836E+04 0.  0.
        5    1    3    3  502    0 -0.55290845847E+03  0.11241689578E+04  0.94631940908E+03  0.15700337968E+04  0.46999998093E+01 0.  1.
       -5    1    3    3    0  502  0.55290845847E+03 -0.11241689578E+04 -0.12216534669E+03  0.12587335187E+04  0.46999998093E+01 0. -1.
</event>
<event>
 5   0  0.3013407E-06  0.2706715E+04  0.7818609E-02  0.8332830E-01
        1   -1    0    0  501    0  0.00000000000E+00  0.00000000000E+00  0.10370669770E+04  0.10370669770E+04  0.50400001928E-02 0. -1.
       -1   -1    0    0    0  501  0.00000000000E+00  0.00000000000E+00 -0.17661117705E+04  0.17661117705E+04  0.50400001928E-02 0.  1.
    10030    2    1    2    0    0  0.00000000000E+00  0.00000000000E+00 -0.72904479352E+03  0.28031787475E+04  0.27067147577E+04 0.  0.
        4    1    3    3  502    0 -0.30162906088E+03 -0.76092654577E+03 -0.14807014078E+04  0.16918828477E+04  0.12699999809E+01 0.  1.
       -4    1    3    3    0  502  0.30162906088E+03  0.76092654577E+03  0.75165661424E+03  0.11112958999E+04  0.12699999809E+01 0. -1.
</event>
<event>
 5   0  0.3046300E-06  0.2695301E+04  0.7818609E-02  0.8336531E-01
        1   -1    0    0  501    0  0.00000000000E+00  0.00000000000E+00  0.17926433468E+04  0.17926433468E+04  0.50400001928E-02 0. -1.
       -1   -1    0    0    0  501  0.00000000000E+00  0.00000000000E+00 -0.10131194628E+04  0.10131194628E+04  0.50400001928E-02 0.  1.
    10030    2    1    2    0    0  0.00000000000E+00  0.00000000000E+00  0.77952388400E+03  0.28057628095E+04  0.26953009957E+04 0.  0.
        2    1    3    3  502    0 -0.70861588126E+03  0.11388520056E+04  0.25386875732E+03  0.13651262593E+04  0.25500000920E-02 0.  1.
       -2    1    3    3    0  502  0.70861588126E+03 -0.11388520056E+04  0.52565512668E+03  0.14406365503E+04  0.25500000920E-02 0. -1.
</event>
<event>
 5   0  0.3089218E-06  0.2697789E+04  0.7818609E-02  0.8335723E-01
        1   -1    0    0  501    0  0.00000000000E+00  0.00000000000E+00  0.15442362183E+04  0.15442362183E+04  0.50400001928E-02 0.  1.
       -1   -1    0    0    0  501  0.00000000000E+00  0.00000000000E+00 -0.11782629995E+04  0.11782629995E+04  0.50400001928E-02 0. -1.
    10030    2    1    2    0    0  0.00000000000E+00  0.00000000000E+00  0.36597321872E+03  0.27224992178E+04  0.26977890196E+04 0.  0.
        5    1    3    3  502    0  0.12330284036E+04  0.51702859395E+03  0.36299275408E+03  0.13854470183E+04  0.46999998093E+01 0.  1.
       -5    1    3    3    0  502 -0.12330284036E+04 -0.51702859395E+03  0.29804646459E+01  0.13370521995E+04  0.46999998093E+01 0. -1.
</event>
<event>
 5   0  0.7838364E-06  0.2674901E+04  0.7818609E-02  0.8343195E-01
       -2   -1    0    0    0  501  0.00000000000E+00  0.00000000000E+00  0.99686548628E+03  0.99686548628E+03  0.25500000920E-02 0. -1.
        2   -1    0    0  501    0  0.00000000000E+00  0.00000000000E+00 -0.17943986336E+04  0.17943986336E+04  0.25500000920E-02 0.  1.
    10030    2    1    2    0    0  0.00000000000E+00  0.00000000000E+00 -0.79753314732E+03  0.27912641199E+04  0.26749011694E+04 0.  0.
        2    1    3    3  502    0  0.91029028469E+03 -0.63033117748E+03  0.38408809216E+03  0.11719511330E+04  0.25500000920E-02 0. -1.
       -2    1    3    3    0  502 -0.91029028469E+03  0.63033117748E+03 -0.11816212395E+04  0.16193129868E+04  0.25500000920E-02 0.  1.
</event>
<event>
 5   0  0.7729970E-06  0.2701677E+04  0.7818609E-02  0.8334461E-01
        2   -1    0    0  501    0  0.00000000000E+00  0.00000000000E+00  0.17937052445E+04  0.17937052445E+04  0.25500000920E-02 0. -1.
       -2   -1    0    0    0  501  0.00000000000E+00  0.00000000000E+00 -0.10173160619E+04  0.10173160619E+04  0.25500000920E-02 0.  1.
    10030    2    1    2    0    0  0.00000000000E+00  0.00000000000E+00  0.77638918263E+03  0.28110213064E+04  0.27016773719E+04 0.  0.
        4    1    3    3  502    0  0.56959033472E+03  0.92075719900E+03 -0.45229643541E+03  0.11733714873E+04  0.12699999809E+01 0.  1.
       -4    1    3    3    0  502 -0.56959033472E+03 -0.92075719900E+03  0.12286856180E+04  0.16376498190E+04  0.12699999809E+01 0. -1.
</event>
<event>
 5   0  0.8213334E-06  0.2703535E+04  0.7818609E-02  0.8333859E-01
        2   -1    0    0  501    0  0.00000000000E+00  0.00000000000E+00  0.15908830309E+04  0.15908830309E+04  0.25500000920E-02 0. -1.
       -2   -1    0    0    0  501  0.00000000000E+00  0.00000000000E+00 -0.11485922433E+04  0.11485922433E+04  0.25500000920E-02 0.  1.
    10030    2    1    2    0    0  0.00000000000E+00  0.00000000000E+00  0.44229078757E+03  0.27394752741E+04  0.27035353959E+04 0.  0.
        3    1    3    3  502    0  0.55757458676E+03 -0.20282225747E+03 -0.10095996043E+04  0.11710327319E+04  0.10100000352E+00 0.  1.
       -3    1    3    3    0  502 -0.55757458676E+03  0.20282225747E+03  0.14518903919E+04  0.15684425422E+04  0.10100000352E+00 0. -1.
</event>
<event>
 5   0  0.3199840E-06  0.2700629E+04  0.7818609E-02  0.8334801E-01
        1   -1    0    0  501    0  0.00000000000E+00  0.00000000000E+00  0.22275524025E+04  0.22275524025E+04  0.50400001928E-02 0. -1.
       -1   -1    0    0    0  501  0.00000000000E+00  0.00000000000E+00 -0.81854406503E+03  0.81854406504E+03  0.50400001928E-02 0.  1.
    10030    2    1    2    0    0  0.00000000000E+00  0.00000000000E+00  0.14090083374E+04  0.30460964675E+04  0.27006294071E+04 0.  0.
        1    1    3    3  502    0  0.11962396509E+03  0.12220782632E+04  0.70893011207E+02  0.12299638180E+04  0.50400001928E-02 0.  1.
       -1    1    3    3    0  502 -0.11962396509E+03 -0.12220782632E+04  0.13381153262E+04  0.18161326496E+04  0.50400001928E-02 0. -1.
</event>
<event>
 5   0  0.3028601E-06  0.2714774E+04  0.7818609E-02  0.8330227E-01
        1   -1    0    0  501    0  0.00000000000E+00  0.00000000000E+00  0.18742089236E+04  0.18742089236E+04  0.50400001928E-02 0. -1.
       -1   -1    0    0    0  501  0.00000000000E+00  0.00000000000E+00 -0.98308141344E+03  0.98308141345E+03  0.50400001928E-02 0.  1.
    10030    2    1    2    0    0  0.00000000000E+00  0.00000000000E+00  0.89112751019E+03  0.28572903371E+04  0.27147743610E+04 0.  0.
        3    1    3    3  502    0  0.98738032799E+03 -0.80738404312E+03  0.93439259697E+03  0.15811003892E+04  0.10100000352E+00 0.  1.
       -3    1    3    3    0  502 -0.98738032799E+03  0.80738404312E+03 -0.43265086787E+02  0.12761899479E+04  0.10100000352E+00 0. -1.
</event>
<event>
 5   0  0.3089218E-06  0.2697417E+04  0.7818609E-02  0.8335843E-01
        1   -1    0    0  501    0  0.00000000000E+00  0.00000000000E+00  0.22105883874E+04  0.22105883874E+04  0.50400001928E-02 0.  1.
       -1   -1    0    0    0  501  0.00000000000E+00  0.00000000000E+00 -0.82286460186E+03  0.82286460188E+03  0.50400001928E-02 0. -1.
    10030    2    1    2    0    0  0.00000000000E+00  0.00000000000E+00  0.13877237855E+04  0.30334529893E+04  0.26974172338E+04 0.  0.
        5    1    3    3  502    0 -0.94316252916E+03  0.53031651175E+03 -0.21154588012E+03  0.11025266021E+04  0.46999998093E+01 0. -1.
       -5    1    3    3    0  502  0.94316252916E+03 -0.53031651175E+03  0.15992696657E+04  0.19309263871E+04  0.46999998093E+01 0.  1.
</event>
<event>
 5   0  0.3089218E-06  0.2691186E+04  0.7818609E-02  0.8337870E-01
        1   -1    0    0  501    0  0.00000000000E+00  0.00000000000E+00  0.18695190304E+04  0.18695190305E+04  0.50400001928E-02 0. -1.
       -1   -1    0    0    0  501  0.00000000000E+00  0.00000000000E+00 -0.96849541097E+03  0.96849541099E+03  0.50400001928E-02 0.  1.
    10030    2    1    2    0    0  0.00000000000E+00  0.00000000000E+00  0.90102361947E+03  0.28380144414E+04  0.26911860595E+04 0.  0.
        5    1    3    3  502    0  0.11478311767E+04 -0.62382684270E+03  0.79046958922E+03  0.15269383096E+04  0.46999998093E+01 0.  1.
       -5    1    3    3    0  502 -0.11478311767E+04  0.62382684270E+03  0.11055403025E+03  0.13110761318E+04  0.46999998093E+01 0. -1.
</event>
<event>
 5   0  0.7838364E-06  0.2680177E+04  0.7818609E-02  0.8341466E-01
       -2   -1    0    0    0  501  0.00000000000E+00  0.00000000000E+00  0.10721931639E+04  0.10721931639E+04  0.25500000920E-02 0. -1.
        2   -1    0    0  501    0  0.00000000000E+00  0.00000000000E+00 -0.16749198625E+04  0.16749198625E+04  0.25500000920E-02 0.  1.
    10030    2    1    2    0    0  0.00000000000E+00  0.00000000000E+00 -0.60272669862E+03  0.27471130264E+04  0.26801773275E+04 0.  0.
        2    1    3    3  502    0  0.31447270226E+03 -0.11772903450E+03 -0.16311009496E+04  0.16653058319E+04  0.25500000920E-02 0.  1.
       -2    1    3    3    0  502 -0.31447270226E+03  0.11772903450E+03  0.10283742510E+04  0.10818071945E+04  0.25500000920E-02 0. -1.
</event>
<event>
 5   0  0.7838364E-06  0.2664276E+04  0.7818609E-02  0.8346690E-01
       -2   -1    0    0    0  501  0.00000000000E+00  0.00000000000E+00  0.13512490115E+04  0.13512490115E+04  0.25500000920E-02 0. -1.
        2   -1    0    0  501    0  0.00000000000E+00  0.00000000000E+00 -0.13132974527E+04  0.13132974527E+04  0.25500000920E-02 0.  1.
    10030    2    1    2    0    0  0.00000000000E+00  0.00000000000E+00  0.37951558793E+02  0.26645464643E+04  0.26642761755E+04 0.  0.
        2    1    3    3  502    0 -0.79032290937E+02  0.63787933588E+03 -0.11479569462E+04  0.13156524239E+04  0.25500000920E-02 0.  1.
       -2    1    3    3    0  502  0.79032290937E+02 -0.63787933588E+03  0.11859085049E+04  0.13488940404E+04  0.25500000920E-02 0. -1.
</event>
<event>
 5   0  0.3028601E-06  0.2648924E+04  0.7818609E-02  0.8351770E-01
       -1   -1    0    0    0  501  0.00000000000E+00  0.00000000000E+00  0.11706315584E+04  0.11706315584E+04  0.50400001928E-02 0.  1.
        1   -1    0    0  501    0  0.00000000000E+00  0.00000000000E+00 -0.14985067548E+04  0.14985067548E+04  0.50400001928E-02 0. -1.
    10030    2    1    2    0    0  0.00000000000E+00  0.00000000000E+00 -0.32787519644E+03  0.26691383132E+04  0.26489237797E+04 0.  0.
        3    1    3    3  502    0 -0.10465567633E+03 -0.49809804247E+03 -0.13960299084E+04  0.14859185663E+04  0.10100000352E+00 0. -1.
       -3    1    3    3    0  502  0.10465567633E+03  0.49809804247E+03  0.10681547119E+04  0.11832197469E+04  0.10100000352E+00 0.  1.
</event>
<event>
 5   0  0.3199840E-06  0.2701382E+04  0.7818609E-02  0.8334557E-01
       -1   -1    0    0    0  501  0.00000000000E+00  0.00000000000E+00  0.83872479867E+03  0.83872479868E+03  0.50400001928E-02 0. -1.
        1   -1    0    0  501    0  0.00000000000E+00  0.00000000000E+00 -0.21751658945E+04  0.21751658945E+04  0.50400001928E-02 0.  1.
    10030    2    1    2    0    0  0.00000000000E+00  0.00000000000E+00 -0.13364410959E+04  0.30138906932E+04  0.27013815554E+04 0.  0.
        1    1    3    3  502    0  0.10930465931E+04  0.53913406816E+03 -0.13177649738E+04  0.17949710093E+04  0.50400001928E-02 0.  1.
       -1    1    3    3    0  502 -0.10930465931E+04 -0.53913406816E+03 -0.18676122105E+02  0.12189196839E+04  0.50400001928E-02 0. -1.
</event>
<event>
 5   0  0.8407622E-06  0.2698946E+04  0.7818609E-02  0.8335347E-01
        2   -1    0    0  501    0  0.00000000000E+00  0.00000000000E+00  0.16552158731E+04  0.16552158732E+04  0.25500000920E-02 0. -1.
       -2   -1    0    0    0  501  0.00000000000E+00  0.00000000000E+00 -0.11002056345E+04  0.11002056345E+04  0.25500000920E-02 0.  1.
    10030    2    1    2    0    0  0.00000000000E+00  0.00000000000E+00  0.55501023870E+03  0.27554215076E+04  0.26989463351E+04 0.  0.
        1    1    3    3  502    0  0.28990180005E+03  0.42766180355E+03  0.15502427529E+04  0.16340716829E+04  0.50400001928E-02 0. -1.
       -1    1    3    3    0  502 -0.28990180005E+03 -0.42766180355E+03 -0.99523251424E+03  0.11213498247E+04  0.50400001928E-02 0.  1.
</event>
<event>
 5   0  0.7812908E-06  0.2708327E+04  0.7818609E-02  0.8332308E-01
       -2   -1    0    0    0  501  0.00000000000E+00  0.00000000000E+00  0.31192320304E+04  0.31192320304E+04  0.25500000920E-02 0. -1.
        2   -1    0    0  501    0  0.00000000000E+00  0.00000000000E+00 -0.58788778291E+03  0.58788778292E+03  0.25500000920E-02 0.  1.
    10030    2    1    2    0    0  0.00000000000E+00  0.00000000000E+00  0.25313442475E+04  0.37071198133E+04  0.27083267179E+04 0.  0.
        5    1    3    3  502    0  0.11814991024E+04 -0.81910324688E+02  0.21643788092E+04  0.24672266110E+04  0.46999998093E+01 0. -1.
       -5    1    3    3    0  502 -0.11814991024E+04  0.81910324688E+02  0.36696543821E+03  0.12398932023E+04  0.46999998093E+01 0.  1.
</event>
<event>
 5   0  0.3046300E-06  0.2767681E+04  0.7818609E-02  0.8313373E-01
       -1   -1    0    0    0  501  0.00000000000E+00  0.00000000000E+00  0.10954872520E+04  0.10954872520E+04  0.50400001928E-02 0.  1.
        1   -1    0    0  501    0  0.00000000000E+00  0.00000000000E+00 -0.17480935178E+04  0.17480935178E+04  0.50400001928E-02 0. -1.
    10030    2    1    2    0    0  0.00000000000E+00  0.00000000000E+00 -0.65260626580E+03  0.28435807697E+04  0.27676807359E+04 0.  0.
        2    1    3    3  502    0 -0.45196682944E+03 -0.22385668164E+03 -0.16502964703E+04  0.17256489413E+04  0.25500000920E-02 0. -1.
       -2    1    3    3    0  502  0.45196682944E+03  0.22385668164E+03  0.99769020450E+03  0.11179318284E+04  0.25500000920E-02 0.  1.
</event>
<event>
 5   0  0.3046300E-06  0.2722677E+04  0.7818609E-02  0.8327685E-01
        1   -1    0    0  501    0  0.00000000000E+00  0.00000000000E+00  0.14947701959E+04  0.14947701959E+04  0.50400001928E-02 0.  1.
       -1   -1    0    0    0  501  0.00000000000E+00  0.00000000000E+00 -0.12398172780E+04  0.12398172780E+04  0.50400001928E-02 0. -1.
    10030    2    1    2    0    0  0.00000000000E+00  0.00000000000E+00  0.25495291791E+03  0.27345874740E+04  0.27226765622E+04 0.  0.
        2    1    3    3  502    0  0.29078571396E+03 -0.57056349128E+03 -0.10790877373E+04  0.12548025238E+04  0.25500000920E-02 0. -1.
       -2    1    3    3    0  502 -0.29078571396E+03  0.57056349128E+03  0.13340406552E+04  0.14797849502E+04  0.25500000920E-02 0.  1.
</event>
<event>
 5   0  0.3028601E-06  0.2695735E+04  0.7818609E-02  0.8336390E-01
        1   -1    0    0  501    0  0.00000000000E+00  0.00000000000E+00  0.24134504660E+04  0.24134504660E+04  0.50400001928E-02 0.  1.
       -1   -1    0    0    0  501  0.00000000000E+00  0.00000000000E+00 -0.75275906560E+03  0.75275906561E+03  0.50400001928E-02 0. -1.
    10030    2    1    2    0    0  0.00000000000E+00  0.00000000000E+00  0.16606914004E+04  0.31662095316E+04  0.26957349408E+04 0.  0.
        3    1    3    3  502    0 -0.45088076582E+03 -0.91133011698E+03 -0.20891406655E+03  0.10380082584E+04  0.10100000352E+00 0. -1.
       -3    1    3    3    0  502  0.45088076582E+03  0.91133011698E+03  0.18696054670E+04  0.21282012732E+04  0.10100000352E+00 0.  1.
</event>
<event>
 5   0  0.8213334E-06  0.2713443E+04  0.7818609E-02  0.8330656E-01
       -2   -1    0    0    0  501  0.00000000000E+00  0.00000000000E+00  0.10337831355E+04  0.10337831355E+04  0.25500000920E-02 0.  1.
        2   -1    0    0  501    0  0.00000000000E+00  0.00000000000E+00 -0.17805415193E+04  0.17805415193E+04  0.25500000920E-02 0. -1.
    10030    2    1    2    0    0  0.00000000000E+00  0.00000000000E+00 -0.74675838385E+03  0.28143246548E+04  0.27134434173E+04 0.  0.
        3    1    3    3  502    0 -0.82719384524E+02  0.87772149380E+03  0.69620073312E+03  0.11233579075E+04  0.10100000352E+00 0.  1.
       -3    1    3    3    0  502  0.82719384524E+02 -0.87772149380E+03 -0.14429591170E+04  0.16909667474E+04  0.10100000352E+00 0. -1.
</event>
<event>
 5   0  0.3089218E-06  0.2704010E+04  0.7818609E-02  0.8333705E-01
        1   -1    0    0  501    0  0.00000000000E+00  0.00000000000E+00  0.13967710209E+04  0.13967710209E+04  0.50400001928E-02 0.  1.
       -1   -1    0    0    0  501  0.00000000000E+00  0.00000000000E+00 -0.13086737115E+04  0.13086737115E+04  0.50400001928E-02 0. -1.
    10030    2    1    2    0    0  0.00000000000E+00  0.00000000000E+00  0.88097309435E+02  0.27054447324E+04  0.27040099971E+04 0.  0.
        5    1    3    3  502    0 -0.10920338071E+04  0.78547598347E+03 -0.91614843862E+02  0.13483047601E+04  0.46999998093E+01 0. -1.
       -5    1    3    3    0  502  0.10920338071E+04 -0.78547598347E+03  0.17971215330E+03  0.13571399723E+04  0.46999998093E+01 0.  1.
</event>
<event>
 5   0  0.3013407E-06  0.2705753E+04  0.7818609E-02  0.8333141E-01
       -1   -1    0    0    0  501  0.00000000000E+00  0.00000000000E+00  0.96124469890E+03  0.96124469891E+03  0.50400001928E-02 0. -1.
        1   -1    0    0  501    0  0.00000000000E+00  0.00000000000E+00 -0.19040672627E+04  0.19040672627E+04  0.50400001928E-02 0.  1.
    10030    2    1    2    0    0  0.00000000000E+00  0.00000000000E+00 -0.94282256383E+03  0.28653119616E+04  0.27057528067E+04 0.  0.
        4    1    3    3  502    0  0.12533189274E+04  0.34279692172E+03 -0.87039848686E+03  0.15639415597E+04  0.12699999809E+01 0.  1.
       -4    1    3    3    0  502 -0.12533189274E+04 -0.34279692172E+03 -0.72424076965E+02  0.13013704020E+04  0.12699999809E+01 0. -1.
</event>
<event>
 5   0  0.8213334E-06  0.2707105E+04  0.7818609E-02  0.8332703E-01
        2   -1    0    0  501    0  0.00000000000E+00  0.00000000000E+00  0.13635293522E+04  0.13635293522E+04  0.25500000920E-02 0.  1.
       -2   -1    0    0    0  501  0.00000000000E+00  0.00000000000E+00 -0.13436486220E+04  0.13436486220E+04  0.25500000920E-02 0. -1.
    10030    2    1    2    0    0  0.00000000000E+00  0.00000000000E+00  0.19880730230E+02  0.27071779742E+04  0.27071049740E+04 0.  0.
        3    1    3    3  502    0 -0.70235996027E+03 -0.70401039136E+03  0.92820484461E+03  0.13603324552E+04  0.10100000352E+00 0.  1.
       -3    1    3    3    0  502  0.70235996027E+03  0.70401039136E+03 -0.90832411438E+03  0.13468455189E+04  0.10100000352E+00 0. -1.
</event>
<event>
 5   0  0.7812908E-06  0.2583554E+04  0.7818609E-02  0.8373809E-01
        2   -1    0    0  501    0  0.00000000000E+00  0.00000000000E+00  0.84920120347E+03  0.84920120347E+03  0.25500000920E-02 0. -1.
       -2   -1    0    0    0  501  0.00000000000E+00  0.00000000000E+00 -0.19650080399E+04  0.19650080399E+04  0.25500000920E-02 0.  1.
    10030    2    1    2    0    0  0.00000000000E+00  0.00000000000E+00 -0.11158068365E+04  0.28142092434E+04  0.25835535159E+04 0.  0.
        5    1    3    3  502    0  0.45387881958E+03 -0.11376534694E+04 -0.11089598830E+03  0.12298704848E+04  0.46999998093E+01 0. -1.
       -5    1    3    3    0  502 -0.45387881958E+03  0.11376534694E+04 -0.10049108482E+04  0.15843387586E+04  0.46999998093E+01 0.  1.
</event>
<event>
 5   0  0.7812908E-06  0.2665284E+04  0.7818609E-02  0.8346358E-01
       -2   -1    0    0    0  501  0.00000000000E+00  0.00000000000E+00  0.13025476235E+04  0.13025476235E+04  0.25500000920E-02 0.  1.
        2   -1    0    0  501    0  0.00000000000E+00  0.00000000000E+00 -0.13634319593E+04  0.13634319593E+04  0.25500000920E-02 0. -1.
    10030    2    1    2    0    0  0.00000000000E+00  0.00000000000E+00 -0.60884335752E+02  0.26659795828E+04  0.26652842688E+04 0.  0.
        5    1    3    3  502    0  0.37364861966E+02 -0.99963549790E+03 -0.91115224996E+03  0.13531030168E+04  0.46999998093E+01 0. -1.
       -5    1    3    3    0  502 -0.37364861966E+02  0.99963549790E+03  0.85026791421E+03  0.13128765660E+04  0.46999998093E+01 0.  1.
</event>
<event>
 5   0  0.7812908E-06  0.2606546E+04  0.7818609E-02  0.8365981E-01
       -2   -1    0    0    0  501  0.00000000000E+00  0.00000000000E+00  0.11530194646E+04  0.11530194646E+04  0.25500000920E-02 0. -1.
        2   -1    0    0  501    0  0.00000000000E+00  0.00000000000E+00 -0.14731061718E+04  0.14731061718E+04  0.25500000920E-02 0.  1.
    10030    2    1    2    0    0  0.00000000000E+00  0.00000000000E+00 -0.32008670720E+03  0.26261256363E+04  0.26065456754E+04 0.  0.
        5    1    3    3  502    0 -0.11477718264E+04  0.57899145788E+03 -0.37586435047E+03  0.13393682741E+04  0.46999998093E+01 0.  1.
       -5    1    3    3    0  502  0.11477718264E+04 -0.57899145788E+03  0.55777643276E+02  0.12867573622E+04  0.46999998093E+01 0. -1.
</event>
<event>
 5   0  0.7838364E-06  0.2717078E+04  0.7818609E-02  0.8329485E-01
       -2   -1    0    0    0  501  0.00000000000E+00  0.00000000000E+00  0.82235078297E+03  0.82235078297E+03  0.25500000920E-02 0.  1.
        2   -1    0    0  501    0  0.00000000000E+00  0.00000000000E+00 -0.22443318287E+04  0.22443318287E+04  0.25500000920E-02 0. -1.
    10030    2    1    2    0    0  0.00000000000E+00  0.00000000000E+00 -0.14219810458E+04  0.30666826117E+04  0.27170778690E+04 0.  0.
        2    1    3    3  502    0  0.46153152458E+03  0.12256332693E+04 -0.11186258086E+04  0.17223565133E+04  0.25500000920E-02 0. -1.
       -2    1    3    3    0  502 -0.46153152458E+03 -0.12256332693E+04 -0.30335523713E+03  0.13443260984E+04  0.25500000920E-02 0.  1.
</event>
<event>
 5   0  0.7729970E-06  0.2769140E+04  0.7818609E-02  0.8312914E-01
       -2   -1    0    0    0  501  0.00000000000E+00  0.00000000000E+00  0.12392169683E+04  0.12392169683E+04  0.25500000920E-02 0. -1.
        2   -1    0    0  501    0  0.00000000000E+00  0.00000000000E+00 -0.15469718273E+04  0.15469718273E+04  0.25500000920E-02 0.  1.
    10030    2    1    2    0    0  0.00000000000E+00  0.00000000000E+00 -0.30775485899E+03  0.27861887955E+04  0.27691397493E+04 0.  0.
        4    1    3    3  502    0 -0.75213121584E+03  0.83845319531E+03  0.65626750591E+03  0.13036079851E+04  0.12699999809E+01 0. -1.
       -4    1    3    3    0  502  0.75213121584E+03 -0.83845319531E+03 -0.96402236490E+03  0.14825808104E+04  0.12699999809E+01 0.  1.
</event>
<event>
 5   0  0.7812908E-06  0.2739851E+04  0.7818609E-02  0.8322189E-01
        2   -1    0    0  501    0  0.00000000000E+00  0.00000000000E+00  0.16052002030E+04  0.16052002030E+04  0.25500000920E-02 0.  1.
       -2   -1    0    0    0  501  0.00000000000E+00  0.00000000000E+00 -0.11691354017E+04  0.11691354017E+04  0.25500000920E-02 0. -1.
    10030    2    1    2    0    0  0.00000000000E+00  0.00000000000E+00  0.43606480128E+03  0.27743356046E+04  0.27398513712E+04 0.  0.
        5    1    3    3  502    0  0.27968429423E+03 -0.12982816914E+04  0.55829094544E+03  0.14406489942E+04  0.46999998093E+01 0.  1.
       -5    1    3    3    0  502 -0.27968429423E+03  0.12982816914E+04 -0.12222614416E+03  0.13336866105E+04  0.46999998093E+01 0. -1.
</event>
<event>
 5   0  0.7812908E-06  0.2683507E+04  0.7818609E-02  0.8340376E-01
       -2   -1    0    0    0  501  0.00000000000E+00  0.00000000000E+00  0.12079343662E+04  0.12079343662E+04  0.25500000920E-02 0.  1.
        2   -1    0    0  501    0  0.00000000000E+00  0.00000000000E+00 -0.14903973724E+04  0.14903973724E+04  0.25500000920E-02 0. -1.
    10030    2    1    2    0    0  0.00000000000E+00  0.00000000000E+00 -0.28246300621E+03  0.26983317385E+04  0.26835068141E+04 0.  0.
        5    1    3    3  502    0  0.32982179447E+03  0.46967078169E+03  0.10782781853E+04  0.12215068540E+04  0.46999998093E+01 0.  1.
       -5    1    3    3    0  502 -0.32982179447E+03 -0.46967078169E+03 -0.13607411916E+04  0.14768248846E+04  0.46999998093E+01 0. -1.
</event>
<event>
 5   0  0.7729970E-06  0.2694117E+04  0.7818609E-02  0.8336916E-01
        2   -1    0    0  501    0  0.00000000000E+00  0.00000000000E+00  0.19232620168E+04  0.19232620168E+04  0.25500000920E-02 0.  1.
       -2   -1    0    0    0  501  0.00000000000E+00  0.00000000000E+00 -0.94348348672E+03  0.94348348672E+03  0.25500000920E-02 0. -1.
    10030    2    1    2    0    0  0.00000000000E+00  0.00000000000E+00  0.97977853006E+03  0.28667455035E+04  0.26941165182E+04 0.  0.
        4    1    3    3  502    0 -0.68966275404E+03 -0.15505708866E+03 -0.73027125542E+03  0.10163538431E+04  0.12699999809E+01 0. -1.
       -4    1    3    3    0  502  0.68966275404E+03  0.15505708866E+03  0.17100497855E+04  0.18503916604E+04  0.12699999809E+01 0.  1.
</event>
<event>
 5   0  0.2654625E-06  0.2710158E+04  0.7818609E-02  0.8331717E-01
        3   -1    0    0  501    0  0.00000000000E+00  0.00000000000E+00  0.95444005355E+03  0.95444005889E+03  0.10100000352E+00 0. -1.
       -3   -1    0    0    0  501  0.00000000000E+00  0.00000000000E+00 -0.19238909054E+04  0.19238909080E+04  0.10100000352E+00 0.  1.
    10030    2    1    2    0    0  0.00000000000E+00  0.00000000000E+00 -0.96945085180E+03  0.28783309669E+04  0.27101575971E+04 0.  0.
        5    1    3    3  502    0  0.21591261743E+02  0.37069295424E+03  0.89934478385E+03  0.97299670048E+03  0.46999998093E+01 0. -1.
       -5    1    3    3    0  502 -0.21591261743E+02 -0.37069295424E+03 -0.18687956357E+04  0.19053342664E+04  0.46999998093E+01 0.  1.
</event>
<event>
 5   0  0.8407622E-06  0.2718197E+04  0.7818609E-02  0.8329125E-01
        2   -1    0    0  501    0  0.00000000000E+00  0.00000000000E+00  0.12505001921E+04  0.12505001921E+04  0.25500000920E-02 0. -1.
       -2   -1    0    0    0  501  0.00000000000E+00  0.00000000000E+00 -0.14771278438E+04  0.14771278438E+04  0.25500000920E-02 0.  1.
    10030    2    1    2    0    0  0.00000000000E+00  0.00000000000E+00 -0.22662765168E+03  0.27276280359E+04  0.27181969409E+04 0.  0.
        1    1    3    3  502    0 -0.37458384265E+03 -0.10458957361E+04  0.67230592955E+03  0.12985400297E+04  0.50400001928E-02 0. -1.
       -1    1    3    3    0  502  0.37458384265E+03  0.10458957361E+04 -0.89893358123E+03  0.14290880062E+04  0.50400001928E-02 0.  1.
</event>
<event>
 5   0  0.3046300E-06  0.2704657E+04  0.7818609E-02  0.8333495E-01
        1   -1    0    0  501    0  0.00000000000E+00  0.00000000000E+00  0.14050318884E+04  0.14050318884E+04  0.50400001928E-02 0.  1.
       -1   -1    0    0    0  501  0.00000000000E+00  0.00000000000E+00 -0.13016022817E+04  0.13016022818E+04  0.50400001928E-02 0. -1.
    10030    2    1    2    0    0  0.00000000000E+00  0.00000000000E+00  0.10342960669E+03  0.27066341702E+04  0.27046572514E+04 0.  0.
        2    1    3    3  502    0 -0.46408881189E+03  0.39645043034E+03  0.12593451051E+04  0.13994647058E+04  0.25500000920E-02 0.  1.
       -2    1    3    3    0  502  0.46408881189E+03 -0.39645043034E+03 -0.11559154984E+04  0.13071694644E+04  0.25500000920E-02 0. -1.
</event>
<event>
 5   0  0.8213334E-06  0.2712310E+04  0.7818609E-02  0.8331022E-01
        2   -1    0    0  501    0  0.00000000000E+00  0.00000000000E+00  0.19896725053E+04  0.19896725053E+04  0.25500000920E-02 0. -1.
       -2   -1    0    0    0  501  0.00000000000E+00  0.00000000000E+00 -0.92435151006E+03  0.92435151006E+03  0.25500000920E-02 0.  1.
    10030    2    1    2    0    0  0.00000000000E+00  0.00000000000E+00  0.10653209952E+04  0.29140240153E+04  0.27123102955E+04 0.  0.
        3    1    3    3  502    0 -0.15879460802E+03 -0.11709438993E+04 -0.18228506273E+03  0.11956392421E+04  0.10100000352E+00 0.  1.
       -3    1    3    3    0  502  0.15879460802E+03  0.11709438993E+04  0.12476060580E+04  0.17183847733E+04  0.10100000352E+00 0. -1.
</event>
<event>
 5   0  0.3013407E-06  0.2703675E+04  0.7818609E-02  0.8333814E-01
       -1   -1    0    0    0  501  0.00000000000E+00  0.00000000000E+00  0.81581068826E+03  0.81581068828E+03  0.50400001928E-02 0. -1.
        1   -1    0    0  501    0  0.00000000000E+00  0.00000000000E+00 -0.22400597050E+04  0.22400597050E+04  0.50400001928E-02 0.  1.
    10030    2    1    2    0    0  0.00000000000E+00  0.00000000000E+00 -0.14242490167E+04  0.30558703932E+04  0.27036750172E+04 0.  0.
        4    1    3    3  502    0 -0.11668813592E+04  0.68218563622E+03 -0.68752498882E+03  0.15164701026E+04  0.12699999809E+01 0.  1.
       -4    1    3    3    0  502  0.11668813592E+04 -0.68218563622E+03 -0.73672402788E+03  0.15394002907E+04  0.12699999809E+01 0. -1.
</event>
<event>
 5   0  0.3199840E-06  0.2682365E+04  0.7818609E-02  0.8340750E-01
       -1   -1    0    0    0  501  0.00000000000E+00  0.00000000000E+00  0.15874956850E+04  0.15874956850E+04  0.50400001928E-02 0.  1.
        1   -1    0    0  501    0  0.00000000000E+00  0.00000000000E+00 -0.11330864510E+04  0.11330864510E+04  0.50400001928E-02 0. -1.
    10030    2    1    2    0    0  0.00000000000E+00  0.00000000000E+00  0.45440923400E+03  0.27205821360E+04  0.26823645178E+04 0.  0.
        1    1    3    3  502    0  0.17659949213E+03 -0.36126047889E+03  0.15249159999E+04  0.15770432210E+04  0.50400001928E-02 0.  1.
       -1    1    3    3    0  502 -0.17659949213E+03  0.36126047889E+03 -0.10705067659E+04  0.11435389150E+04  0.50400001928E-02 0. -1.
</event>
<event>
 5   0  0.3089218E-06  0.2691618E+04  0.7818609E-02  0.8337730E-01
       -1   -1    0    0    0  501  0.00000000000E+00  0.00000000000E+00  0.87010581979E+03  0.87010581981E+03  0.50400001928E-02 0.  1.
        1   -1    0    0  501    0  0.00000000000E+00  0.00000000000E+00 -0.20815885047E+04  0.20815885047E+04  0.50400001928E-02 0. -1.
    10030    2    1    2    0    0  0.00000000000E+00  0.00000000000E+00 -0.12114826849E+04  0.29516943245E+04  0.26916183031E+04 0.  0.
        5    1    3    3  502    0  0.11909180431E+04 -0.43953255956E+03 -0.10958055095E+04  0.16769873169E+04  0.46999998093E+01 0. -1.
       -5    1    3    3    0  502 -0.11909180431E+04  0.43953255956E+03 -0.11567717536E+03  0.12747070076E+04  0.46999998093E+01 0.  1.
</event>
<event>
 5   0  0.7729970E-06  0.2706168E+04  0.7818609E-02  0.8333006E-01
        2   -1    0    0  501    0  0.00000000000E+00  0.00000000000E+00  0.16957957608E+04  0.16957957608E+04  0.25500000920E-02 0.  1.
       -2   -1    0    0    0  501  0.00000000000E+00  0.00000000000E+00 -0.10796324684E+04  0.10796324684E+04  0.25500000920E-02 0. -1.
    10030    2    1    2    0    0  0.00000000000E+00  0.00000000000E+00  0.61616329239E+03  0.27754282291E+04  0.27061678906E+04 0.  0.
        4    1    3    3  502    0 -0.11906851851E+04  0.60790252052E+03  0.52212835757E+03  0.14352338901E+04  0.12699999809E+01 0.  1.
       -4    1    3    3    0  502  0.11906851851E+04 -0.60790252052E+03  0.94034934814E+02  0.13401943391E+04  0.12699999809E+01 0. -1.
</event>
<event>
 5   0  0.3046300E-06  0.2680941E+04  0.7818609E-02  0.8341215E-01
        1   -1    0    0  501    0  0.00000000000E+00  0.00000000000E+00  0.11991696139E+04  0.11991696139E+04  0.50400001928E-02 0.  1.
       -1   -1    0    0    0  501  0.00000000000E+00  0.00000000000E+00 -0.14984215017E+04  0.14984215017E+04  0.50400001928E-02 0. -1.
    10030    2    1    2    0    0  0.00000000000E+00  0.00000000000E+00 -0.29925188781E+03  0.26975911157E+04  0.26809412778E+04 0.  0.
        2    1    3    3  502    0  0.61955747378E+03 -0.11777282762E+04  0.12515051434E+02  0.13308087700E+04  0.25500000920E-02 0. -1.
       -2    1    3    3    0  502 -0.61955747378E+03  0.11777282762E+04 -0.31176693924E+03  0.13667823456E+04  0.25500000920E-02 0.  1.
</event>
<event>
 5   0  0.7838364E-06  0.2490612E+04  0.7818609E-02  0.8406338E-01
       -2   -1    0    0    0  501  0.00000000000E+00  0.00000000000E+00  0.21120106685E+04  0.21120106685E+04  0.25500000920E-02 0. -1.
        2   -1    0    0  501    0  0.00000000000E+00  0.00000000000E+00 -0.73427073941E+03  0.73427073942E+03  0.25500000920E-02 0.  1.
    10030    2    1    2    0    0  0.00000000000E+00  0.00000000000E+00  0.13777399291E+04  0.28462814079E+04  0.24906124831E+04 0.  0.
        2    1    3    3  502    0  0.16075507827E+03 -0.11925935146E+04  0.32269781358E+03  0.12458954070E+04  0.25500000920E-02 0.  1.
       -2    1    3    3    0  502 -0.16075507827E+03  0.11925935146E+04  0.10550421155E+04  0.16003860009E+04  0.25500000920E-02 0. -1.
</event>
<event>
 5   0  0.8407622E-06  0.2710389E+04  0.7818609E-02  0.8331642E-01
        2   -1    0    0  501    0  0.00000000000E+00  0.00000000000E+00  0.15812789794E+04  0.15812789794E+04  0.25500000920E-02 0.  1.
       -2   -1    0    0    0  501  0.00000000000E+00  0.00000000000E+00 -0.11614346578E+04  0.11614346578E+04  0.25500000920E-02 0. -1.
    10030    2    1    2    0    0  0.00000000000E+00  0.00000000000E+00  0.41984432164E+03  0.27427136372E+04  0.27103890571E+04 0.  0.
        1    1    3    3  502    0  0.15484552978E+03  0.28208310197E+03  0.15420583841E+04  0.15752752377E+04  0.50400001928E-02 0.  1.
       -1    1    3    3    0  502 -0.15484552978E+03 -0.28208310197E+03 -0.11222140625E+04  0.11674383995E+04  0.50400001928E-02 0. -1.
</event>
<event>
 5   0  0.7812908E-06  0.2690343E+04  0.7818609E-02  0.8338145E-01
       -2   -1    0    0    0  501  0.00000000000E+00  0.00000000000E+00  0.15996471294E+04  0.15996471294E+04  0.25500000920E-02 0.  1.
        2   -1    0    0  501    0  0.00000000000E+00  0.00000000000E+00 -0.11311787461E+04  0.11311787461E+04  0.25500000920E-02 0. -1.
    10030    2    1    2    0    0  0.00000000000E+00  0.00000000000E+00  0.46846838329E+03  0.27308258754E+04  0.26903433491E+04 0.  0.
        5    1    3    3  502    0 -0.86325018733E+03 -0.10311965469E+04  0.20382442351E+03  0.13601961954E+04  0.46999998093E+01 0.  1.
       -5    1    3    3    0  502  0.86325018733E+03  0.10311965469E+04  0.26464395978E+03  0.13706296800E+04  0.46999998093E+01 0. -1.
</event>
<event>
 5   0  0.3046300E-06  0.2692153E+04  0.7818609E-02  0.8337556E-01
       -1   -1    0    0    0  501  0.00000000000E+00  0.00000000000E+00  0.11244014394E+04  0.11244014394E+04  0.50400001928E-02 0. -1.
        1   -1    0    0  501    0  0.00000000000E+00  0.00000000000E+00 -0.16114541267E+04  0.16114541267E+04  0.50400001928E-02 0.  1.
    10030    2    1    2    0    0  0.00000000000E+00  0.00000000000E+00 -0.48705268732E+03  0.27358555662E+04  0.26921525512E+04 0.  0.
        2    1    3    3  502    0 -0.55040051759E+03 -0.11275406135E+04 -0.73891569842E+03  0.14561198351E+04  0.25500000920E-02 0.  1.
       -2    1    3    3    0  502  0.55040051759E+03  0.11275406135E+04  0.25186301110E+03  0.12797357310E+04  0.25500000920E-02 0. -1.
</event>
<event>
 5   0  0.3013407E-06  0.2700435E+04  0.7818609E-02  0.8334864E-01
       -1   -1    0    0    0  501  0.00000000000E+00  0.00000000000E+00  0.13254472140E+04  0.13254472140E+04  0.50400001928E-02 0. -1.
        1   -1    0    0  501    0  0.00000000000E+00  0.00000000000E+00 -0.13754511756E+04  0.13754511756E+04  0.50400001928E-02 0.  1.
    10030    2    1    2    0    0  0.00000000000E+00  0.00000000000E+00 -0.50003961571E+02  0.27008983896E+04  0.27004354676E+04 0.  0.
        4    1    3    3  502    0 -0.83661431859E+03  0.29568846069E+03 -0.10428852072E+04  0.13692941073E+04  0.12699999809E+01 0.  1.
       -4    1    3    3    0  502  0.83661431859E+03 -0.29568846069E+03  0.99288124567E+03  0.13316042823E+04  0.12699999809E+01 0. -1.
</event>
<event>
 5   0  0.7729970E-06  0.2713978E+04  0.7818609E-02  0.8330484E-01
       -2   -1    0    0    0  501  0.00000000000E+00  0.00000000000E+00  0.95873928156E+03  0.95873928156E+03  0.25500000920E-02 0.  1.
        2   -1    0    0  501    0  0.00000000000E+00  0.00000000000E+00 -0.19206669879E+04  0.19206669879E+04  0.25500000920E-02 0. -1.
    10030    2    1    2    0    0  0.00000000000E+00  0.00000000000E+00 -0.96192770633E+03  0.28794062695E+04  0.27139778098E+04 0.  0.
        4    1    3    3  502    0 -0.49482647359E+03  0.73520622452E+03 -0.15712386755E+04  0.18039329311E+04  0.12699999809E+01 0. -1.
       -4    1    3    3    0  502  0.49482647359E+03 -0.73520622452E+03  0.60931096915E+03  0.10754733384E+04  0.12699999809E+01 0.  1.
</event>
<event>
 5   0  0.8213334E-06  0.2694347E+04  0.7818609E-02  0.8336842E-01
       -2   -1    0    0    0  501  0.00000000000E+00  0.00000000000E+00  0.77305899144E+03  0.77305899145E+03  0.25500000920E-02 0. -1.
        2   -1    0    0  501    0  0.00000000000E+00  0.00000000000E+00 -0.23476557163E+04  0.23476557163E+04  0.25500000920E-02 0.  1.
    10030    2    1    2    0    0  0.00000000000E+00  0.00000000000E+00 -0.15745967249E+04  0.31207147077E+04  0.26943469415E+04 0.  0.
        3    1    3    3  502    0 -0.53679154994E+03  0.93855036027E+03 -0.17181229844E+04  0.20300168833E+04  0.10100000352E+00 0.  1.
       -3    1    3    3    0  502  0.53679154994E+03 -0.93855036027E+03  0.14352625953E+03  0.10906978244E+04  0.10100000352E+00 0. -1.
</event>
<event>
 5   0  0.3199840E-06  0.2696608E+04  0.7818609E-02  0.8336106E-01
       -1   -1    0    0    0  501  0.00000000000E+00  0.00000000000E+00  0.79003875258E+03  0.79003875259E+03  0.50400001928E-02 0. -1.
        1   -1    0    0  501    0  0.00000000000E+00  0.00000000000E+00 -0.23010569796E+04  0.23010569796E+04  0.50400001928E-02 0.  1.
    10030    2    1    2    0    0  0.00000000000E+00  0.00000000000E+00 -0.15110182271E+04  0.30910957322E+04  0.26966083778E+04 0.  0.
        1    1    3    3  502    0  0.43339880373E+03 -0.21306805477E+03  0.68749298653E+03  0.84016612975E+03  0.50400001928E-02 0. -1.
       -1    1    3    3    0  502 -0.43339880373E+03  0.21306805477E+03 -0.21985112136E+04  0.22509296025E+04  0.50400001928E-02 0.  1.
</event>
<event>
 5   0  0.3028601E-06  0.2647518E+04  0.7818609E-02  0.8352237E-01
       -1   -1    0    0    0  501  0.00000000000E+00  0.00000000000E+00  0.17386626386E+04  0.17386626386E+04  0.50400001928E-02 0.  1.
        1   -1    0    0  501    0  0.00000000000E+00  0.00000000000E+00 -0.10078657525E+04  0.10078657525E+04  0.50400001928E-02 0. -1.
    10030    2    1    2    0    0  0.00000000000E+00  0.00000000000E+00  0.73079688613E+03  0.27465283911E+04  0.26475184824E+04 0.  0.
        3    1    3    3  502    0  0.75286510175E+03  0.88519455638E+03  0.10231142341E+04  0.15482693598E+04  0.10100000352E+00 0.  1.
       -3    1    3    3    0  502 -0.75286510175E+03 -0.88519455638E+03 -0.29231734802E+03  0.11982590314E+04  0.10100000352E+00 0. -1.
</event>
<event>
 5   0  0.3046300E-06  0.2666185E+04  0.7818609E-02  0.8346061E-01
        1   -1    0    0  501    0  0.00000000000E+00  0.00000000000E+00  0.14610379790E+04  0.14610379790E+04  0.50400001928E-02 0. -1.
       -1   -1    0    0    0  501  0.00000000000E+00  0.00000000000E+00 -0.12163514112E+04  0.12163514113E+04  0.50400001928E-02 0.  1.
    10030    2    1    2    0    0  0.00000000000E+00  0.00000000000E+00  0.24468656774E+03  0.26773893903E+04  0.26661849956E+04 0.  0.
        2    1    3    3  502    0  0.15801443899E+03  0.99314978070E+03 -0.75644603208E+03  0.12583821555E+04  0.25500000920E-02 0.  1.
       -2    1    3    3    0  502 -0.15801443899E+03 -0.99314978070E+03  0.10011325998E+04  0.14190072347E+04  0.25500000920E-02 0. -1.
</event>
<event>
 5   0  0.3046300E-06  0.2719725E+04  0.7818609E-02  0.8328633E-01
        1   -1    0    0  501    0  0.00000000000E+00  0.00000000000E+00  0.68491800709E+03  0.68491800711E+03  0.50400001928E-02 0.  1.
       -1   -1    0    0    0  501  0.00000000000E+00  0.00000000000E+00 -0.26999233600E+04  0.26999233600E+04  0.50400001928E-02 0. -1.
    10030    2    1    2    0    0  0.00000000000E+00  0.00000000000E+00 -0.20150053529E+04  0.33848413671E+04  0.27197250795E+04 0.  0.
        2    1    3    3  502    0 -0.13390160528E+04 -0.20728591569E+03 -0.86400252345E+03  0.16069946487E+04  0.25500000920E-02 0.  1.
       -2    1    3    3    0  502  0.13390160528E+04  0.20728591569E+03 -0.11510028294E+04  0.17778467183E+04  0.25500000920E-02 0. -1.
</event>
<event>
 5   0  0.7812908E-06  0.2632742E+04  0.7818609E-02  0.8357164E-01
       -2   -1    0    0    0  501  0.00000000000E+00  0.00000000000E+00  0.70804514288E+03  0.70804514288E+03  0.25500000920E-02 0.  1.
        2   -1    0    0  501    0  0.00000000000E+00  0.00000000000E+00 -0.24473479684E+04  0.24473479684E+04  0.25500000920E-02 0. -1.
    10030    2    1    2    0    0  0.00000000000E+00  0.00000000000E+00 -0.17393028255E+04  0.31553931113E+04  0.26327421765E+04 0.  0.
        5    1    3    3  502    0  0.66450011872E+03  0.52462395499E+03 -0.20777330451E+04  0.22436103491E+04  0.46999998093E+01 0. -1.
       -5    1    3    3    0  502 -0.66450011872E+03 -0.52462395499E+03  0.33843021955E+03  0.91178276220E+03  0.46999998093E+01 0.  1.
</event>
<event>
 5   0  0.3089218E-06  0.2713082E+04  0.7818609E-02  0.8330773E-01
        1   -1    0    0  501    0  0.00000000000E+00  0.00000000000E+00  0.11887287238E+04  0.11887287238E+04  0.50400001928E-02 0. -1.
       -1   -1    0    0    0  501  0.00000000000E+00  0.00000000000E+00 -0.15480436097E+04  0.15480436097E+04  0.50400001928E-02 0.  1.
    10030    2    1    2    0    0  0.00000000000E+00  0.00000000000E+00 -0.35931488590E+03  0.27367723335E+04  0.27130823095E+04 0.  0.
        5    1    3    3  502    0  0.33122249670E+03 -0.15715969899E+01 -0.15066175428E+04  0.15426047201E+04  0.46999998093E+01 0.  1.
       -5    1    3    3    0  502 -0.33122249670E+03  0.15715969899E+01  0.11473026569E+04  0.11941676134E+04  0.46999998093E+01 0. -1.
</event>
<event>
 5   0  0.3028601E-06  0.2679360E+04  0.7818609E-02  0.8341733E-01
        1   -1    0    0  501    0  0.00000000000E+00  0.00000000000E+00  0.14761147454E+04  0.14761147454E+04  0.50400001928E-02 0.  1.
       -1   -1    0    0    0  501  0.00000000000E+00  0.00000000000E+00 -0.12158559044E+04  0.12158559044E+04  0.50400001928E-02 0. -1.
    10030    2    1    2    0    0  0.00000000000E+00  0.00000000000E+00  0.26025884096E+03  0.26919706498E+04  0.26793602437E+04 0.  0.
        3    1    3    3  502    0 -0.12650408095E+04  0.29768372651E+03 -0.19666898359E+03  0.13143905622E+04  0.10100000352E+00 0. -1.
       -3    1    3    3    0  502  0.12650408095E+04 -0.29768372651E+03  0.45692782454E+03  0.13775800876E+04  0.10100000352E+00 0.  1.
</event>
<event>
 5   0  0.3089218E-06  0.2706307E+04  0.7818609E-02  0.8332961E-01
        1   -1    0    0  501    0  0.00000000000E+00  0.00000000000E+00  0.17023797804E+04  0.17023797804E+04  0.50400001928E-02 0. -1.
       -1   -1    0    0    0  501  0.00000000000E+00  0.00000000000E+00 -0.10755677308E+04  0.10755677308E+04  0.50400001928E-02 0.  1.
    10030    2    1    2    0    0  0.00000000000E+00  0.00000000000E+00  0.62681204963E+03  0.27779475112E+04  0.27063072681E+04 0.  0.
        5    1    3    3  502    0  0.21157795247E+03  0.99682575552E+03  0.12272401028E+04  0.15951699523E+04  0.46999998093E+01 0. -1.
       -5    1    3    3    0  502 -0.21157795247E+03 -0.99682575552E+03 -0.60042805317E+03  0.11827775589E+04  0.46999998093E+01 0.  1.
</event>
<event>
 5   0  0.3199840E-06  0.2693606E+04  0.7818609E-02  0.8337083E-01
        1   -1    0    0  501    0  0.00000000000E+00  0.00000000000E+00  0.74302319720E+03  0.74302319722E+03  0.50400001928E-02 0. -1.
       -1   -1    0    0    0  501  0.00000000000E+00  0.00000000000E+00 -0.24412127496E+04  0.24412127496E+04  0.50400001928E-02 0.  1.
    10030    2    1    2    0    0  0.00000000000E+00  0.00000000000E+00 -0.16981895524E+04  0.31842359468E+04  0.26936055407E+04 0.  0.
        1    1    3    3  502    0 -0.10522828189E+04 -0.14900515856E+03 -0.18270492559E+04  0.21136723142E+04  0.50400001928E-02 0.  1.
       -1    1    3    3    0  502  0.10522828189E+04  0.14900515856E+03  0.12885970355E+03  0.10705636326E+04  0.50400001928E-02 0. -1.
</event>
<event>
 5   0  0.7838364E-06  0.2708467E+04  0.7818609E-02  0.8332263E-01
        2   -1    0    0  501    0  0.00000000000E+00  0.00000000000E+00  0.18581919837E+04  0.18581919837E+04  0.25500000920E-02 0. -1.
       -2   -1    0    0    0  501  0.00000000000E+00  0.00000000000E+00 -0.98695309213E+03  0.98695309213E+03  0.25500000920E-02 0.  1.
    10030    2    1    2    0    0  0.00000000000E+00  0.00000000000E+00  0.87123889159E+03  0.28451450759E+04  0.27084669643E+04 0.  0.
        2    1    3    3  502    0 -0.32187704444E+03  0.96403093854E+03  0.13757622699E+04  0.17104625998E+04  0.25500000920E-02 0. -1.
       -2    1    3    3    0  502  0.32187704444E+03 -0.96403093854E+03 -0.50452337827E+03  0.11346824760E+04  0.25500000920E-02 0.  1.
</event>
<event>
 5   0  0.8407622E-06  0.2698327E+04  0.7818609E-02  0.8335548E-01
       -2   -1    0    0    0  501  0.00000000000E+00  0.00000000000E+00  0.11046276225E+04  0.11046276225E+04  0.25500000920E-02 0. -1.
        2   -1    0    0  501    0  0.00000000000E+00  0.00000000000E+00 -0.16478327284E+04  0.16478327284E+04  0.25500000920E-02 0.  1.
    10030    2    1    2    0    0  0.00000000000E+00  0.00000000000E+00 -0.54320510594E+03  0.27524603509E+04  0.26983265547E+04 0.  0.
        1    1    3    3  502    0 -0.85381040890E+03  0.97741606786E+01  0.79393693552E+03  0.11659432260E+04  0.50400001928E-02 0. -1.
       -1    1    3    3    0  502  0.85381040890E+03 -0.97741606786E+01 -0.13371420415E+04  0.15865171249E+04  0.50400001928E-02 0.  1.
</event>
<event>
 5   0  0.3089218E-06  0.2678338E+04  0.7818609E-02  0.8342068E-01
        1   -1    0    0  501    0  0.00000000000E+00  0.00000000000E+00  0.83998183952E+03  0.83998183953E+03  0.50400001928E-02 0. -1.
       -1   -1    0    0    0  501  0.00000000000E+00  0.00000000000E+00 -0.21350140880E+04  0.21350140880E+04  0.50400001928E-02 0.  1.
    10030    2    1    2    0    0  0.00000000000E+00  0.00000000000E+00 -0.12950322485E+04  0.29749959275E+04  0.26783375897E+04 0.  0.
        5    1    3    3  502    0 -0.18196426962E+03 -0.74814340014E+03  0.56952714024E+03  0.95771227206E+03  0.46999998093E+01 0. -1.
       -5    1    3    3    0  502  0.18196426962E+03  0.74814340014E+03 -0.18645593887E+04  0.20172836555E+04  0.46999998093E+01 0.  1.
</event>
<event>
 5   0  0.3046300E-06  0.2714655E+04  0.7818609E-02  0.8330266E-01
       -1   -1    0    0    0  501  0.00000000000E+00  0.00000000000E+00  0.14378496258E+04  0.14378496258E+04  0.50400001928E-02 0.  1.
        1   -1    0    0  501    0  0.00000000000E+00  0.00000000000E+00 -0.12813144242E+04  0.12813144242E+04  0.50400001928E-02 0. -1.
    10030    2    1    2    0    0  0.00000000000E+00  0.00000000000E+00  0.15653520153E+03  0.27191640500E+04  0.27146546487E+04 0.  0.
        2    1    3    3  502    0  0.18845402894E+02 -0.82969165123E+03  0.11541067192E+04  0.14215152847E+04  0.25500000920E-02 0.  1.
       -2    1    3    3    0  502 -0.18845402894E+02  0.82969165123E+03 -0.99757151764E+03  0.12976487653E+04  0.25500000920E-02 0. -1.
</event>
<event>
 5   0  0.3028601E-06  0.2670900E+04  0.7818609E-02  0.8344509E-01
       -1   -1    0    0    0  501  0.00000000000E+00  0.00000000000E+00  0.81451591414E+03  0.81451591416E+03  0.50400001928E-02 0. -1.
        1   -1    0    0  501    0  0.00000000000E+00  0.00000000000E+00 -0.21895544265E+04  0.21895544265E+04  0.50400001928E-02 0.  1.
    10030    2    1    2    0    0  0.00000000000E+00  0.00000000000E+00 -0.13750385123E+04  0.30040703406E+04  0.26709001668E+04 0.  0.
        3    1    3    3  502    0  0.55536198593E+03 -0.10557920643E+04 -0.12390759482E+02  0.11930118858E+04  0.10100000352E+00 0. -1.
       -3    1    3    3    0  502 -0.55536198593E+03  0.10557920643E+04 -0.13626477528E+04  0.18110584549E+04  0.10100000352E+00 0.  1.
</event>
<event>
 5   0  0.7838364E-06  0.2693303E+04  0.7818609E-02  0.8337181E-01
        2   -1    0    0  501    0  0.00000000000E+00  0.00000000000E+00  0.26397395294E+04  0.26397395294E+04  0.25500000920E-02 0.  1.
       -2   -1    0    0    0  501  0.00000000000E+00  0.00000000000E+00 -0.68698838164E+03  0.68698838165E+03  0.25500000920E-02 0. -1.
    10030    2    1    2    0    0  0.00000000000E+00  0.00000000000E+00  0.19527511478E+04  0.33267279111E+04  0.26933030927E+04 0.  0.
        2    1    3    3  502    0  0.11188777089E+04 -0.57745400965E+03  0.38641473765E+03  0.13170637077E+04  0.25500000920E-02 0. -1.
       -2    1    3    3    0  502 -0.11188777089E+04  0.57745400965E+03  0.15663364101E+04  0.20096642034E+04  0.25500000920E-02 0.  1.
</event>
<event>
 5   0  0.8407622E-06  0.2702350E+04  0.7818609E-02  0.8334243E-01
        2   -1    0    0  501    0  0.00000000000E+00  0.00000000000E+00  0.18151644437E+04  0.18151644437E+04  0.25500000920E-02 0. -1.
       -2   -1    0    0    0  501  0.00000000000E+00  0.00000000000E+00 -0.10057899564E+04  0.10057899564E+04  0.25500000920E-02 0.  1.
    10030    2    1    2    0    0  0.00000000000E+00  0.00000000000E+00  0.80937448730E+03  0.28209544001E+04  0.27023502118E+04 0.  0.
        1    1    3    3  502    0  0.14789556999E+03  0.97441164591E+03  0.13695498763E+04  0.16873108839E+04  0.50400001928E-02 0. -1.
       -1    1    3    3    0  502 -0.14789556999E+03 -0.97441164591E+03 -0.56017538903E+03  0.11336435162E+04  0.50400001928E-02 0.  1.
</event>
<event>
 5   0  0.3199840E-06  0.2667212E+04  0.7818609E-02  0.8345722E-01
        1   -1    0    0  501    0  0.00000000000E+00  0.00000000000E+00  0.11776247708E+04  0.11776247709E+04  0.50400001928E-02 0. -1.
       -1   -1    0    0    0  501  0.00000000000E+00  0.00000000000E+00 -0.15102478642E+04  0.15102478642E+04  0.50400001928E-02 0.  1.
    10030    2    1    2    0    0  0.00000000000E+00  0.00000000000E+00 -0.33262309337E+03  0.26878726351E+04  0.26672122488E+04 0.  0.
        1    1    3    3  502    0  0.33553151076E+03 -0.57780932459E+03 -0.13294008159E+04  0.14878681191E+04  0.50400001928E-02 0.  1.
       -1    1    3    3    0  502 -0.33553151076E+03  0.57780932459E+03  0.99677772255E+03  0.12000045160E+04  0.50400001928E-02 0. -1.
</event>
<event>
 5   0  0.7838364E-06  0.2625658E+04  0.7818609E-02  0.8359538E-01
        2   -1    0    0  501    0  0.00000000000E+00  0.00000000000E+00  0.97038258584E+03  0.97038258584E+03  0.25500000920E-02 0.  1.
       -2   -1    0    0    0  501  0.00000000000E+00  0.00000000000E+00 -0.17761236254E+04  0.17761236254E+04  0.25500000920E-02 0. -1.
    10030    2    1    2    0    0  0.00000000000E+00  0.00000000000E+00 -0.80574103956E+03  0.27465062112E+04  0.26256575834E+04 0.  0.
        2    1    3    3  502    0 -0.56258833861E+03  0.10553372249E+04 -0.96934663490E+03  0.15394398967E+04  0.25500000920E-02 0. -1.
       -2    1    3    3    0  502  0.56258833861E+03 -0.10553372249E+04  0.16360559534E+03  0.12070663146E+04  0.25500000920E-02 0.  1.
</event>
<event>
 5   0  0.3013407E-06  0.2720015E+04  0.7818609E-02  0.8328540E-01
        1   -1    0    0  501    0  0.00000000000E+00  0.00000000000E+00  0.14449911856E+04  0.14449911856E+04  0.50400001928E-02 0. -1.
       -1   -1    0    0    0  501  0.00000000000E+00  0.00000000000E+00 -0.12800223613E+04  0.12800223613E+04  0.50400001928E-02 0.  1.
    10030    2    1    2    0    0  0.00000000000E+00  0.00000000000E+00  0.16496882431E+03  0.27250135470E+04  0.27200154628E+04 0.  0.
        4    1    3    3  502    0  0.96279313499E+03 -0.11742328188E+03 -0.87260916299E+03  0.13046866337E+04  0.12699999809E+01 0.  1.
       -4    1    3    3    0  502 -0.96279313499E+03  0.11742328188E+03  0.10375779873E+04  0.14203269133E+04  0.12699999809E+01 0. -1.
</event>
<event>
 5   0  0.3028601E-06  0.2594910E+04  0.7818609E-02  0.8369932E-01
        1   -1    0    0  501    0  0.00000000000E+00  0.00000000000E+00  0.15888533294E+04  0.15888533295E+04  0.50400001928E-02 0.  1.
       -1   -1    0    0    0  501  0.00000000000E+00  0.00000000000E+00 -0.10594994141E+04  0.10594994141E+04  0.50400001928E-02 0. -1.
    10030    2    1    2    0    0  0.00000000000E+00  0.00000000000E+00  0.52935391538E+03  0.26483527435E+04  0.25949097646E+04 0.  0.
        3    1    3    3  502    0 -0.99928483745E+02 -0.52738244643E+03  0.14702204607E+04  0.15651409393E+04  0.10100000352E+00 0.  1.
       -3    1    3    3    0  502  0.99928483745E+02  0.52738244643E+03 -0.94086654527E+03  0.10832118043E+04  0.10100000352E+00 0. -1.
</event>
<event>
 5   0  0.7812908E-06  0.2680492E+04  0.7818609E-02  0.8341362E-01
        2   -1    0    0  501    0  0.00000000000E+00  0.00000000000E+00  0.15603098958E+04  0.15603098958E+04  0.25500000920E-02 0. -1.
       -2   -1    0    0    0  501  0.00000000000E+00  0.00000000000E+00 -0.11512200020E+04  0.11512200020E+04  0.25500000920E-02 0.  1.
    10030    2    1    2    0    0  0.00000000000E+00  0.00000000000E+00  0.40908989385E+03  0.27115298978E+04  0.26804924632E+04 0.  0.
        5    1    3    3  502    0  0.62750689690E+03 -0.41267842382E+03 -0.91833940933E+03  0.11863548153E+04  0.46999998093E+01 0.  1.
       -5    1    3    3    0  502 -0.62750689690E+03  0.41267842382E+03  0.13274293032E+04  0.15251750824E+04  0.46999998093E+01 0. -1.
</event>
<event>
 5   0  0.7838364E-06  0.2864721E+04  0.7818609E-02  0.8283452E-01
        2   -1    0    0  501    0  0.00000000000E+00  0.00000000000E+00  0.22578246557E+04  0.22578246557E+04  0.25500000920E-02 0.  1.
       -2   -1    0    0    0  501  0.00000000000E+00  0.00000000000E+00 -0.90868758195E+03  0.90868758195E+03  0.25500000920E-02 0. -1.
    10030    2    1    2    0    0  0.00000000000E+00  0.00000000000E+00  0.13491370738E+04  0.31665122377E+04  0.28647214363E+04 0.  0.
        2    1    3    3  502    0  0.63502266598E+03 -0.96241777216E+03  0.16138897412E+04  0.19834671289E+04  0.25500000920E-02 0.  1.
       -2    1    3    3    0  502 -0.63502266598E+03  0.96241777216E+03 -0.26475266747E+03  0.11830451088E+04  0.25500000920E-02 0. -1.
</event>
<event>
 5   0  0.2654625E-06  0.2749446E+04  0.7818609E-02  0.8319137E-01
       -3   -1    0    0    0  501  0.00000000000E+00  0.00000000000E+00  0.16753042187E+04  0.16753042218E+04  0.10100000352E+00 0.  1.
        3   -1    0    0  501    0  0.00000000000E+00  0.00000000000E+00 -0.11280719332E+04  0.11280719377E+04  0.10100000352E+00 0. -1.
    10030    2    1    2    0    0  0.00000000000E+00  0.00000000000E+00  0.54723228557E+03  0.28033761594E+04  0.27494462564E+04 0.  0.
        3    1    3    3  502    0 -0.99467040724E+03 -0.94022857588E+03  0.14278452147E+03  0.13761491284E+04  0.10100000352E+00 0.  1.
       -3    1    3    3    0  502  0.99467040724E+03  0.94022857588E+03  0.40444776410E+03  0.14272270310E+04  0.10100000352E+00 0. -1.
</event>
<event>
 5   0  0.3089218E-06  0.2692324E+04  0.7818609E-02  0.8337500E-01
       -1   -1    0    0    0  501  0.00000000000E+00  0.00000000000E+00  0.88891741237E+03  0.88891741238E+03  0.50400001928E-02 0. -1.
        1   -1    0    0  501    0  0.00000000000E+00  0.00000000000E+00 -0.20386062365E+04  0.20386062365E+04  0.50400001928E-02 0.  1.
    10030    2    1    2    0    0  0.00000000000E+00  0.00000000000E+00 -0.11496888241E+04  0.29275236489E+04  0.26923243346E+04 0.  0.
        5    1    3    3  502    0 -0.72620043874E+03  0.78037311275E+03  0.31902915360E+03  0.11127223208E+04  0.46999998093E+01 0. -1.
       -5    1    3    3    0  502  0.72620043874E+03 -0.78037311275E+03 -0.14687179777E+04  0.18148013281E+04  0.46999998093E+01 0.  1.
</event>
<event>
 5   0  0.3046300E-06  0.2702524E+04  0.7818609E-02  0.8334186E-01
       -1   -1    0    0    0  501  0.00000000000E+00  0.00000000000E+00  0.10748086638E+04  0.10748086638E+04  0.50400001928E-02 0.  1.
        1   -1    0    0  501    0  0.00000000000E+00  0.00000000000E+00 -0.16988224682E+04  0.16988224682E+04  0.50400001928E-02 0. -1.
    10030    2    1    2    0    0  0.00000000000E+00  0.00000000000E+00 -0.62401380440E+03  0.27736311320E+04  0.27025240847E+04 0.  0.
        2    1    3    3  502    0  0.19503568116E+02  0.82938171708E+03 -0.14066797856E+04  0.16330959681E+04  0.25500000920E-02 0. -1.
       -2    1    3    3    0  502 -0.19503568116E+02 -0.82938171708E+03  0.78266598124E+03  0.11405351639E+04  0.25500000920E-02 0.  1.
</event>
<event>
 5   0  0.3199840E-06  0.2721102E+04  0.7818609E-02  0.8328190E-01
        1   -1    0    0  501    0  0.00000000000E+00  0.00000000000E+00  0.12171626418E+04  0.12171626418E+04  0.50400001928E-02 0.  1.
       -1   -1    0    0    0  501  0.00000000000E+00  0.00000000000E+00 -0.15208311349E+04  0.15208311349E+04  0.50400001928E-02 0. -1.
    10030    2    1    2    0    0  0.00000000000E+00  0.00000000000E+00 -0.30366849303E+03  0.27379937767E+04  0.27211018665E+04 0.  0.
        1    1    3    3  502    0 -0.35195667654E+03 -0.11613481803E+04 -0.77087345438E+03  0.14376539850E+04  0.50400001928E-02 0. -1.
       -1    1    3    3    0  502  0.35195667654E+03  0.11613481803E+04  0.46720496135E+03  0.13003397917E+04  0.50400001928E-02 0.  1.
</event>
<event>
 5   0  0.7838364E-06  0.2704312E+04  0.7818609E-02  0.8333607E-01
        2   -1    0    0  501    0  0.00000000000E+00  0.00000000000E+00  0.11851064930E+04  0.11851064930E+04  0.25500000920E-02 0.  1.
       -2   -1    0    0    0  501  0.00000000000E+00  0.00000000000E+00 -0.15427521724E+04  0.15427521724E+04  0.25500000920E-02 0. -1.
    10030    2    1    2    0    0  0.00000000000E+00  0.00000000000E+00 -0.35764567947E+03  0.27278586654E+04  0.27043118286E+04 0.  0.
        2    1    3    3  502    0 -0.74865046008E+03 -0.71080992953E+03 -0.10596947132E+04  0.14794191943E+04  0.25500000920E-02 0. -1.
       -2    1    3    3    0  502  0.74865046008E+03  0.71080992953E+03  0.70204903372E+03  0.12484394711E+04  0.25500000920E-02 0.  1.
</event>
<event>
 5   0  0.3199840E-06  0.2697607E+04  0.7818609E-02  0.8335782E-01
        1   -1    0    0  501    0  0.00000000000E+00  0.00000000000E+00  0.17093926496E+04  0.17093926496E+04  0.50400001928E-02 0.  1.
       -1   -1    0    0    0  501  0.00000000000E+00  0.00000000000E+00 -0.10642788262E+04  0.10642788262E+04  0.50400001928E-02 0. -1.
    10030    2    1    2    0    0  0.00000000000E+00  0.00000000000E+00  0.64511382339E+03  0.27736714757E+04  0.26976066448E+04 0.  0.
        1    1    3    3  502    0 -0.35756857042E+03  0.68566188966E+03 -0.81372092164E+03  0.11225547861E+04  0.50400001928E-02 0. -1.
       -1    1    3    3    0  502  0.35756857042E+03 -0.68566188966E+03  0.14588347450E+04  0.16511166896E+04  0.50400001928E-02 0.  1.
</event>
<event>
 5   0  0.7812908E-06  0.2674277E+04  0.7818609E-02  0.8343400E-01
       -2   -1    0    0    0  501  0.00000000000E+00  0.00000000000E+00  0.96397111673E+03  0.96397111673E+03  0.25500000920E-02 0.  1.
        2   -1    0    0  501    0  0.00000000000E+00  0.00000000000E+00 -0.18547641943E+04  0.18547641943E+04  0.25500000920E-02 0. -1.
    10030    2    1    2    0    0  0.00000000000E+00  0.00000000000E+00 -0.89079307755E+03  0.28187353110E+04  0.26742768081E+04 0.  0.
        5    1    3    3  502    0 -0.21854406370E+03  0.20259489906E+03  0.92851506281E+03  0.97517614449E+03  0.46999998093E+01 0.  1.
       -5    1    3    3    0  502  0.21854406370E+03 -0.20259489906E+03 -0.18193081404E+04  0.18435591665E+04  0.46999998093E+01 0. -1.
</event>
<event>
 5   0  0.3028601E-06  0.2708676E+04  0.7818609E-02  0.8332195E-01
       -1   -1    0    0    0  501  0.00000000000E+00  0.00000000000E+00  0.87757460880E+03  0.87757460882E+03  0.50400001928E-02 0.  1.
        1   -1    0    0  501    0  0.00000000000E+00  0.00000000000E+00 -0.20901144264E+04  0.20901144264E+04  0.50400001928E-02 0. -1.
    10030    2    1    2    0    0  0.00000000000E+00  0.00000000000E+00 -0.12125398176E+04  0.29676890352E+04  0.27086759497E+04 0.  0.
        3    1    3    3  502    0 -0.72622593776E+03 -0.10241275077E+04 -0.49772892688E+02  0.12564706983E+04  0.10100000352E+00 0.  1.
       -3    1    3    3    0  502  0.72622593776E+03  0.10241275077E+04 -0.11627669249E+04  0.17112183369E+04  0.10100000352E+00 0. -1.
</event>
<event>
 5   0  0.2654625E-06  0.2700709E+04  0.7818609E-02  0.8334775E-01
       -3   -1    0    0    0  501  0.00000000000E+00  0.00000000000E+00  0.96381847982E+03  0.96381848511E+03  0.10100000352E+00 0. -1.
        3   -1    0    0  501    0  0.00000000000E+00  0.00000000000E+00 -0.18919089791E+04  0.18919089818E+04  0.10100000352E+00 0.  1.
    10030    2    1    2    0    0  0.00000000000E+00  0.00000000000E+00 -0.92809049926E+03  0.28557274669E+04  0.27007086830E+04 0.  0.
        1    1    3    3  502    0 -0.92608810307E+03 -0.96862950691E+03 -0.63963260778E+03  0.14849283381E+04  0.50400001928E-02 0.  1.
       -1    1    3    3    0  502  0.92608810307E+03  0.96862950691E+03 -0.28845789148E+03  0.13707991288E+04  0.50400001928E-02 0. -1.
</event>
<event>
 5   0  0.3089218E-06  0.2696235E+04  0.7818609E-02  0.8336228E-01
       -1   -1    0    0    0  501  0.00000000000E+00  0.00000000000E+00  0.86701875920E+03  0.86701875921E+03  0.50400001928E-02 0.  1.
        1   -1    0    0  501    0  0.00000000000E+00  0.00000000000E+00 -0.20961716366E+04  0.20961716366E+04  0.50400001928E-02 0. -1.
    10030    2    1    2    0    0  0.00000000000E+00  0.00000000000E+00 -0.12291528774E+04  0.29631903958E+04  0.26962345087E+04 0.  0.
        5    1    3    3  502    0 -0.97786587354E+03 -0.63222597549E+03  0.13199620767E+03  0.11719114470E+04  0.46999998093E+01 0.  1.
       -5    1    3    3    0  502  0.97786587354E+03  0.63222597549E+03 -0.13611490850E+04  0.17912789488E+04  0.46999998093E+01 0. -1.
</event>
<event>
 5   0  0.7838364E-06  0.2702781E+04  0.7818609E-02  0.8334103E-01
       -2   -1    0    0    0  501  0.00000000000E+00  0.00000000000E+00  0.19435368048E+04  0.19435368048E+04  0.25500000920E-02 0.  1.
        2   -1    0    0  501    0  0.00000000000E+00  0.00000000000E+00 -0.93965592458E+03  0.93965592458E+03  0.25500000920E-02 0. -1.
    10030    2    1    2    0    0  0.00000000000E+00  0.00000000000E+00  0.10038808803E+04  0.28831927294E+04  0.27027806965E+04 0.  0.
        2    1    3    3  502    0 -0.72396259870E+03  0.97849308496E+03  0.11282286761E+04  0.16596597565E+04  0.25500000920E-02 0.  1.
       -2    1    3    3    0  502  0.72396259870E+03 -0.97849308496E+03 -0.12434779583E+03  0.12235329730E+04  0.25500000920E-02 0. -1.
</event>
<event>
 5   0  0.2654625E-06  0.2771959E+04  0.7818609E-02  0.8312027E-01
       -3   -1    0    0    0  501  0.00000000000E+00  0.00000000000E+00  0.13944607306E+04  0.13944607342E+04  0.10100000352E+00 0. -1.
        3   -1    0    0  501    0  0.00000000000E+00  0.00000000000E+00 -0.13775494454E+04  0.13775494491E+04  0.10100000352E+00 0.  1.
    10030    2    1    2    0    0  0.00000000000E+00  0.00000000000E+00  0.16911285141E+02  0.27720101833E+04  0.27719585973E+04 0.  0.
        1    1    3    3  502    0 -0.46276091147E+03 -0.11542817645E+04 -0.60345815806E+03  0.13822719709E+04  0.50400001928E-02 0.  1.
       -1    1    3    3    0  502  0.46276091147E+03  0.11542817645E+04  0.62036944321E+03  0.13897382124E+04  0.50400001928E-02 0. -1.
</event>
<event>
 5   0  0.3199840E-06  0.2704781E+04  0.7818609E-02  0.8333455E-01
        1   -1    0    0  501    0  0.00000000000E+00  0.00000000000E+00  0.10683510782E+04  0.10683510782E+04  0.50400001928E-02 0. -1.
       -1   -1    0    0    0  501  0.00000000000E+00  0.00000000000E+00 -0.17119467023E+04  0.17119467023E+04  0.50400001928E-02 0.  1.
    10030    2    1    2    0    0  0.00000000000E+00  0.00000000000E+00 -0.64359562412E+03  0.27802977805E+04  0.27047810301E+04 0.  0.
        1    1    3    3  502    0  0.11919007760E+03 -0.62796451891E+03 -0.15468842536E+04  0.16737373168E+04  0.50400001928E-02 0.  1.
       -1    1    3    3    0  502 -0.11919007760E+03  0.62796451891E+03  0.90328862948E+03  0.11065604637E+04  0.50400001928E-02 0. -1.
</event>
<event>
 5   0  0.7838364E-06  0.2705252E+04  0.7818609E-02  0.8333303E-01
       -2   -1    0    0    0  501  0.00000000000E+00  0.00000000000E+00  0.12502702635E+04  0.12502702635E+04  0.25500000920E-02 0.  1.
        2   -1    0    0  501    0  0.00000000000E+00  0.00000000000E+00 -0.14633616722E+04  0.14633616722E+04  0.25500000920E-02 0. -1.
    10030    2    1    2    0    0  0.00000000000E+00  0.00000000000E+00 -0.21309140864E+03  0.27136319357E+04  0.27052523605E+04 0.  0.
        2    1    3    3  502    0 -0.96480904693E+02  0.12797052297E+04 -0.53523764529E+03  0.13904795493E+04  0.25500000920E-02 0. -1.
       -2    1    3    3    0  502  0.96480904693E+02 -0.12797052297E+04  0.32214623665E+03  0.13231523864E+04  0.25500000920E-02 0.  1.
</event>
<event>
 5   0  0.3046300E-06  0.2832587E+04  0.7818609E-02  0.8293222E-01
        1   -1    0    0  501    0  0.00000000000E+00  0.00000000000E+00  0.11579268951E+04  0.11579268951E+04  0.50400001928E-02 0. -1.
       -1   -1    0    0    0  501  0.00000000000E+00  0.00000000000E+00 -0.17323094227E+04  0.17323094228E+04  0.50400001928E-02 0.  1.
    10030    2    1    2    0    0  0.00000000000E+00  0.00000000000E+00 -0.57438252765E+03  0.28902363179E+04  0.28325872776E+04 0.  0.
        2    1    3    3  502    0 -0.92614811691E+03 -0.11585693087E+03  0.79971816848E+03  0.12291144421E+04  0.25500000920E-02 0. -1.
       -2    1    3    3    0  502  0.92614811691E+03  0.11585693087E+03 -0.13741006961E+04  0.16611218757E+04  0.25500000920E-02 0.  1.
</event>
<event>
 5   0  0.3046300E-06  0.2702266E+04  0.7818609E-02  0.8334270E-01
        1   -1    0    0  501    0  0.00000000000E+00  0.00000000000E+00  0.17703290745E+04  0.17703290745E+04  0.50400001928E-02 0. -1.
       -1   -1    0    0    0  501  0.00000000000E+00  0.00000000000E+00 -0.10311984613E+04  0.10311984613E+04  0.50400001928E-02 0.  1.
    10030    2    1    2    0    0  0.00000000000E+00  0.00000000000E+00  0.73913061317E+03  0.28015275358E+04  0.27022661732E+04 0.  0.
        2    1    3    3  502    0  0.95929978113E+02 -0.10949658416E+04  0.11841811429E+04  0.16156849118E+04  0.25500000920E-02 0. -1.
       -2    1    3    3    0  502 -0.95929978113E+02  0.10949658416E+04 -0.44505052977E+03  0.11858426240E+04  0.25500000920E-02 0.  1.
</event>
<event>
 5   0  0.3013407E-06  0.2681613E+04  0.7818609E-02  0.8340996E-01
       -1   -1    0    0    0  501  0.00000000000E+00  0.00000000000E+00  0.66058382364E+03  0.66058382366E+03  0.50400001928E-02 0.  1.
        1   -1    0    0  501    0  0.00000000000E+00  0.00000000000E+00 -0.27214750024E+04  0.27214750024E+04  0.50400001928E-02 0. -1.
    10030    2    1    2    0    0  0.00000000000E+00  0.00000000000E+00 -0.20608911787E+04  0.33820588260E+04  0.26816132182E+04 0.  0.
        4    1    3    3  502    0  0.12141760409E+03  0.12152011410E+04 -0.17284559224E+04  0.21163689508E+04  0.12699999809E+01 0.  1.
       -4    1    3    3    0  502 -0.12141760409E+03 -0.12152011410E+04 -0.33243525636E+03  0.12656898752E+04  0.12699999809E+01 0. -1.
</event>
<event>
 5   0  0.3013407E-06  0.2714316E+04  0.7818609E-02  0.8330375E-01
       -1   -1    0    0    0  501  0.00000000000E+00  0.00000000000E+00  0.15739134501E+04  0.15739134501E+04  0.50400001928E-02 0.  1.
        1   -1    0    0  501    0  0.00000000000E+00  0.00000000000E+00 -0.11702532121E+04  0.11702532121E+04  0.50400001928E-02 0. -1.
    10030    2    1    2    0    0  0.00000000000E+00  0.00000000000E+00  0.40366023799E+03  0.27441666622E+04  0.27143155826E+04 0.  0.
        4    1    3    3  502    0 -0.70339910420E+03  0.11153817629E+04 -0.12268103968E+03  0.13243485293E+04  0.12699999809E+01 0. -1.
       -4    1    3    3    0  502  0.70339910420E+03 -0.11153817629E+04  0.52634127767E+03  0.14198181328E+04  0.12699999809E+01 0.  1.
</event>
<event>
 5   0  0.3089218E-06  0.2671044E+04  0.7818609E-02  0.8344462E-01
       -1   -1    0    0    0  501  0.00000000000E+00  0.00000000000E+00  0.11662341084E+04  0.11662341084E+04  0.50400001928E-02 0. -1.
        1   -1    0    0  501    0  0.00000000000E+00  0.00000000000E+00 -0.15293830062E+04  0.15293830062E+04  0.50400001928E-02 0.  1.
    10030    2    1    2    0    0  0.00000000000E+00  0.00000000000E+00 -0.36314889778E+03  0.26956171146E+04  0.26710437111E+04 0.  0.
        5    1    3    3  502    0  0.63675923477E+03  0.52940116889E+03  0.87585741996E+03  0.12053531561E+04  0.46999998093E+01 0. -1.
       -5    1    3    3    0  502 -0.63675923477E+03 -0.52940116889E+03 -0.12390063177E+04  0.14902639585E+04  0.46999998093E+01 0.  1.
</event>
<event>
 5   0  0.3028601E-06  0.2701899E+04  0.7818609E-02  0.8334389E-01
       -1   -1    0    0    0  501  0.00000000000E+00  0.00000000000E+00  0.10341894998E+04  0.10341894998E+04  0.50400001928E-02 0. -1.
        1   -1    0    0  501    0  0.00000000000E+00  0.00000000000E+00 -0.17647297676E+04  0.17647297676E+04  0.50400001928E-02 0.  1.
    10030    2    1    2    0    0  0.00000000000E+00  0.00000000000E+00 -0.73054026782E+03  0.27989192674E+04  0.27018993287E+04 0.  0.
        3    1    3    3  502    0  0.39912586666E+03  0.16217651507E+03 -0.16916622332E+04  0.17456585580E+04  0.10100000352E+00 0.  1.
       -3    1    3    3    0  502 -0.39912586666E+03 -0.16217651507E+03  0.96112196541E+03  0.10532607094E+04  0.10100000352E+00 0. -1.
</event>
<event>
 5   0  0.7812908E-06  0.2819620E+04  0.7818609E-02  0.8297203E-01
        2   -1    0    0  501    0  0.00000000000E+00  0.00000000000E+00  0.13431290927E+04  0.13431290927E+04  0.25500000920E-02 0. -1.
       -2   -1    0    0    0  501  0.00000000000E+00  0.00000000000E+00 -0.14798015664E+04  0.14798015664E+04  0.25500000920E-02 0.  1.
    10030    2    1    2    0    0  0.00000000000E+00  0.00000000000E+00 -0.13667247373E+03  0.28229306591E+04  0.28196202122E+04 0.  0.
        5    1    3    3  502    0  0.31322814986E+03 -0.42189593709E+03  0.12414177305E+04  0.13480534586E+04  0.46999998093E+01 0. -1.
       -5    1    3    3    0  502 -0.31322814986E+03  0.42189593709E+03 -0.13780902042E+04  0.14748772005E+04  0.46999998093E+01 0.  1.
</event>
<event>
 5   0  0.3089218E-06  0.2686137E+04  0.7818609E-02  0.8339517E-01
       -1   -1    0    0    0  501  0.00000000000E+00  0.00000000000E+00  0.11449505069E+04  0.11449505069E+04  0.50400001928E-02 0.  1.
        1   -1    0    0  501    0  0.00000000000E+00  0.00000000000E+00 -0.15754678141E+04  0.15754678141E+04  0.50400001928E-02 0. -1.
    10030    2    1    2    0    0  0.00000000000E+00  0.00000000000E+00 -0.43051730719E+03  0.27204183210E+04  0.26861367592E+04 0.  0.
        5    1    3    3  502    0  0.15608771168E+03  0.28322469601E+03  0.11049232629E+04  0.11512849817E+04  0.46999998093E+01 0.  1.
       -5    1    3    3    0  502 -0.15608771168E+03 -0.28322469601E+03 -0.15354405701E+04  0.15691333393E+04  0.46999998093E+01 0. -1.
</event>
<event>
 5   0  0.8407622E-06  0.2664272E+04  0.7818609E-02  0.8346691E-01
        2   -1    0    0  501    0  0.00000000000E+00  0.00000000000E+00  0.10279286448E+04  0.10279286448E+04  0.25500000920E-02 0. -1.
       -2   -1    0    0    0  501  0.00000000000E+00  0.00000000000E+00 -0.17263716974E+04  0.17263716974E+04  0.25500000920E-02 0.  1.
    10030    2    1    2    0    0  0.00000000000E+00  0.00000000000E+00 -0.69844305256E+03  0.27543003422E+04  0.26642724480E+04 0.  0.
        1    1    3    3  502    0 -0.52327745818E+02  0.93749153127E+03 -0.13261173771E+04  0.16248741065E+04  0.50400001928E-02 0.  1.
       -1    1    3    3    0  502  0.52327745818E+02 -0.93749153127E+03  0.62767432449E+03  0.11294262357E+04  0.50400001928E-02 0. -1.
</event>
<event>
 5   0  0.3028601E-06  0.2709793E+04  0.7818609E-02  0.8331835E-01
        1   -1    0    0  501    0  0.00000000000E+00  0.00000000000E+00  0.22165020415E+04  0.22165020415E+04  0.50400001928E-02 0. -1.
       -1   -1    0    0    0  501  0.00000000000E+00  0.00000000000E+00 -0.82821674032E+03  0.82821674034E+03  0.50400001928E-02 0.  1.
    10030    2    1    2    0    0  0.00000000000E+00  0.00000000000E+00  0.13882853012E+04  0.30447187819E+04  0.27097926827E+04 0.  0.
        3    1    3    3  502    0 -0.97816403487E+03  0.92242464796E+03  0.50588717925E+03  0.14365214786E+04  0.10100000352E+00 0. -1.
       -3    1    3    3    0  502  0.97816403487E+03 -0.92242464796E+03  0.88239812196E+03  0.16081973032E+04  0.10100000352E+00 0.  1.
</event>
<event>
 5   0  0.3013407E-06  0.2697552E+04  0.7818609E-02  0.8335800E-01
        1   -1    0    0  501    0  0.00000000000E+00  0.00000000000E+00  0.98179911435E+03  0.98179911436E+03  0.50400001928E-02 0. -1.
       -1   -1    0    0    0  501  0.00000000000E+00  0.00000000000E+00 -0.18529221809E+04  0.18529221809E+04  0.50400001928E-02 0.  1.
    10030    2    1    2    0    0  0.00000000000E+00  0.00000000000E+00 -0.87112306658E+03  0.28347212953E+04  0.26975524879E+04 0.  0.
        4    1    3    3  502    0 -0.12479168084E+04 -0.47166514132E+03 -0.22689085194E+03  0.13532351747E+04  0.12699999809E+01 0.  1.
       -4    1    3    3    0  502  0.12479168084E+04  0.47166514132E+03 -0.64423221464E+03  0.14814861206E+04  0.12699999809E+01 0. -1.
</event>
<event>
 5   0  0.8407622E-06  0.2680222E+04  0.7818609E-02  0.8341451E-01
        2   -1    0    0  501    0  0.00000000000E+00  0.00000000000E+00  0.24038727047E+04  0.24038727047E+04  0.25500000920E-02 0. -1.
       -2   -1    0    0    0  501  0.00000000000E+00  0.00000000000E+00 -0.74708504390E+03  0.74708504390E+03  0.25500000920E-02 0.  1.
    10030    2    1    2    0    0  0.00000000000E+00  0.00000000000E+00  0.16567876608E+04  0.31509577486E+04  0.26802218902E+04 0.  0.
        1    1    3    3  502    0  0.12549005281E+04  0.46251566251E+03  0.72862923894E+03  0.15230222064E+04  0.50400001928E-02 0.  1.
       -1    1    3    3    0  502 -0.12549005281E+04 -0.46251566251E+03  0.92815842189E+03  0.16279355422E+04  0.50400001928E-02 0. -1.
</event>
<event>
 5   0  0.8213334E-06  0.2699809E+04  0.7818609E-02  0.8335067E-01
        2   -1    0    0  501    0  0.00000000000E+00  0.00000000000E+00  0.14033267733E+04  0.14033267733E+04  0.25500000920E-02 0. -1.
       -2   -1    0    0    0  501  0.00000000000E+00  0.00000000000E+00 -0.12985154665E+04  0.12985154665E+04  0.25500000920E-02 0.  1.
    10030    2    1    2    0    0  0.00000000000E+00  0.00000000000E+00  0.10481130685E+03  0.27018422398E+04  0.26998085263E+04 0.  0.
        3    1    3    3  502    0  0.13241984389E+04  0.26217731255E+03  0.50654809204E+02  0.13508532002E+04  0.10100000352E+00 0.  1.
       -3    1    3    3    0  502 -0.13241984389E+04 -0.26217731255E+03  0.54156497642E+02  0.13509890396E+04  0.10100000352E+00 0. -1.
</event>
<event>
 5   0  0.8407622E-06  0.2718859E+04  0.7818609E-02  0.8328912E-01
       -2   -1    0    0    0  501  0.00000000000E+00  0.00000000000E+00  0.10933849601E+04  0.10933849601E+04  0.25500000920E-02 0. -1.
        2   -1    0    0  501    0  0.00000000000E+00  0.00000000000E+00 -0.16902085424E+04  0.16902085424E+04  0.25500000920E-02 0.  1.
    10030    2    1    2    0    0  0.00000000000E+00  0.00000000000E+00 -0.59682358234E+03  0.27835935025E+04  0.27188590251E+04 0.  0.
        1    1    3    3  502    0 -0.66154443059E+03  0.49716083077E+02 -0.15132279563E+04  0.16522625610E+04  0.50400001928E-02 0.  1.
       -1    1    3    3    0  502  0.66154443059E+03 -0.49716083077E+02  0.91640437397E+03  0.11313309415E+04  0.50400001928E-02 0. -1.
</event>
<event>
 5   0  0.8213334E-06  0.2714341E+04  0.7818609E-02  0.8330367E-01
        2   -1    0    0  501    0  0.00000000000E+00  0.00000000000E+00  0.15880622019E+04  0.15880622019E+04  0.25500000920E-02 0. -1.
       -2   -1    0    0    0  501  0.00000000000E+00  0.00000000000E+00 -0.11598483245E+04  0.11598483246E+04  0.25500000920E-02 0.  1.
    10030    2    1    2    0    0  0.00000000000E+00  0.00000000000E+00  0.42821387732E+03  0.27479105264E+04  0.27143406449E+04 0.  0.
        3    1    3    3  502    0 -0.43306569843E+03 -0.81154482478E+03  0.12243262291E+04  0.15313803013E+04  0.10100000352E+00 0. -1.
       -3    1    3    3    0  502  0.43306569843E+03  0.81154482478E+03 -0.79611235178E+03  0.12165302251E+04  0.10100000352E+00 0.  1.
</event>
<event>
 5   0  0.7838364E-06  0.2704600E+04  0.7818609E-02  0.8333514E-01
        2   -1    0    0  501    0  0.00000000000E+00  0.00000000000E+00  0.13089132649E+04  0.13089132649E+04  0.25500000920E-02 0. -1.
       -2   -1    0    0    0  501  0.00000000000E+00  0.00000000000E+00 -0.13971247903E+04  0.13971247903E+04  0.25500000920E-02 0.  1.
    10030    2    1    2    0    0  0.00000000000E+00  0.00000000000E+00 -0.88211525341E+02  0.27060380552E+04  0.27045999118E+04 0.  0.
        2    1    3    3  502    0 -0.10551766413E+04  0.57926653659E+03  0.57247487972E+03  0.13329197098E+04  0.25500000920E-02 0. -1.
       -2    1    3    3    0  502  0.10551766413E+04 -0.57926653659E+03 -0.66068640506E+03  0.13731183454E+04  0.25500000920E-02 0.  1.
</event>
<event>
 5   0  0.8407622E-06  0.2713744E+04  0.7818609E-02  0.8330559E-01
       -2   -1    0    0    0  501  0.00000000000E+00  0.00000000000E+00  0.70605747108E+03  0.70605747108E+03  0.25500000920E-02 0.  1.
        2   -1    0    0  501    0  0.00000000000E+00  0.00000000000E+00 -0.26075797009E+04  0.26075797009E+04  0.25500000920E-02 0. -1.
    10030    2    1    2    0    0  0.00000000000E+00  0.00000000000E+00 -0.19015222298E+04  0.33136371719E+04  0.27137436351E+04 0.  0.
        1    1    3    3  502    0 -0.49882339658E+03 -0.12366554744E+04 -0.64437641987E+03  0.14810005111E+04  0.50400001928E-02 0. -1.
       -1    1    3    3    0  502  0.49882339658E+03  0.12366554744E+04 -0.12571458099E+04  0.18326366609E+04  0.50400001928E-02 0.  1.
</event>
<event>
 5   0  0.3089218E-06  0.2637988E+04  0.7818609E-02  0.8355411E-01
        1   -1    0    0  501    0  0.00000000000E+00  0.00000000000E+00  0.24038237948E+04  0.24038237948E+04  0.50400001928E-02 0.  1.
       -1   -1    0    0    0  501  0.00000000000E+00  0.00000000000E+00 -0.72374074657E+03  0.72374074658E+03  0.50400001928E-02 0. -1.
    10030    2    1    2    0    0  0.00000000000E+00  0.00000000000E+00  0.16800830482E+04  0.31275645413E+04  0.26379880423E+04 0.  0.
        5    1    3    3  502    0  0.63761698546E+03  0.10622131694E+04  0.30341319443E+03  0.12755131885E+04  0.46999998093E+01 0. -1.
       -5    1    3    3    0  502 -0.63761698546E+03 -0.10622131694E+04  0.13766698538E+04  0.18520513529E+04  0.46999998093E+01 0.  1.
</event>
<event>
 5   0  0.3089218E-06  0.2693939E+04  0.7818609E-02  0.8336974E-01
       -1   -1    0    0    0  501  0.00000000000E+00  0.00000000000E+00  0.90111336431E+03  0.90111336432E+03  0.50400001928E-02 0. -1.
        1   -1    0    0  501    0  0.00000000000E+00  0.00000000000E+00 -0.20134281176E+04  0.20134281176E+04  0.50400001928E-02 0.  1.
    10030    2    1    2    0    0  0.00000000000E+00  0.00000000000E+00 -0.11123147533E+04  0.29145414819E+04  0.26939391120E+04 0.  0.
        5    1    3    3  502    0  0.36155315287E+03 -0.12557852095E+04 -0.90936986626E+03  0.15920718634E+04  0.46999998093E+01 0.  1.
       -5    1    3    3    0  502 -0.36155315287E+03  0.12557852095E+04 -0.20294488701E+03  0.13224696185E+04  0.46999998093E+01 0. -1.
</event>
<event>
 5   0  0.7838364E-06  0.2689992E+04  0.7818609E-02  0.8338259E-01
       -2   -1    0    0    0  501  0.00000000000E+00  0.00000000000E+00  0.24667151300E+04  0.24667151300E+04  0.25500000920E-02 0. -1.
        2   -1    0    0  501    0  0.00000000000E+00  0.00000000000E+00 -0.73336987995E+03  0.73336987996E+03  0.25500000920E-02 0.  1.
    10030    2    1    2    0    0  0.00000000000E+00  0.00000000000E+00  0.17333452500E+04  0.32000850099E+04  0.26899922519E+04 0.  0.
        2    1    3    3  502    0  0.30703651827E+03  0.16862722498E+03  0.24114963777E+04  0.24368055614E+04  0.25500000920E-02 0. -1.
       -2    1    3    3    0  502 -0.30703651827E+03 -0.16862722498E+03 -0.67815112767E+03  0.76327944851E+03  0.25500000920E-02 0.  1.
</event>
<event>
 5   0  0.3028601E-06  0.2690283E+04  0.7818609E-02  0.8338165E-01
       -1   -1    0    0    0  501  0.00000000000E+00  0.00000000000E+00  0.97919352202E+03  0.97919352203E+03  0.50400001928E-02 0. -1.
        1   -1    0    0  501    0  0.00000000000E+00  0.00000000000E+00 -0.18478524764E+04  0.18478524764E+04  0.50400001928E-02 0.  1.
    10030    2    1    2    0    0  0.00000000000E+00  0.00000000000E+00 -0.86865895435E+03  0.28270459984E+04  0.26902826428E+04 0.  0.
        3    1    3    3  502    0 -0.80533468321E+03 -0.10737279192E+04 -0.34063656712E+03  0.13847342263E+04  0.10100000352E+00 0. -1.
       -3    1    3    3    0  502  0.80533468321E+03  0.10737279192E+04 -0.52802238723E+03  0.14423117721E+04  0.10100000352E+00 0.  1.
</event>
<event>
 5   0  0.3089218E-06  0.2683286E+04  0.7818609E-02  0.8340449E-01
       -1   -1    0    0    0  501  0.00000000000E+00  0.00000000000E+00  0.75731983126E+03  0.75731983127E+03  0.50400001928E-02 0.  1.
        1   -1    0    0  501    0  0.00000000000E+00  0.00000000000E+00 -0.23768105755E+04  0.23768105756E+04  0.50400001928E-02 0. -1.
    10030    2    1    2    0    0  0.00000000000E+00  0.00000000000E+00 -0.16194907443E+04  0.31341304068E+04  0.26832858842E+04 0.  0.
        5    1    3    3  502    0  0.78093612701E+03  0.27676262551E+03  0.42279196749E+03  0.93017951123E+03  0.46999998093E+01 0.  1.
       -5    1    3    3    0  502 -0.78093612701E+03 -0.27676262551E+03 -0.20422827118E+04  0.22039508956E+04  0.46999998093E+01 0. -1.
</event>
<event>
 5   0  0.2654625E-06  0.2709110E+04  0.7818609E-02  0.8332055E-01
        4   -1    0    0  501    0  0.00000000000E+00  0.00000000000E+00  0.11524803238E+04  0.11524810236E+04  0.12699999809E+01 0.  1.
       -4   -1    0    0    0  501  0.00000000000E+00  0.00000000000E+00 -0.15920598256E+04  0.15920603321E+04  0.12699999809E+01 0. -1.
    10030    2    1    2    0    0  0.00000000000E+00  0.00000000000E+00 -0.43957950178E+03  0.27445413557E+04  0.27091100226E+04 0.  0.
        3    1    3    3  502    0 -0.10617907468E+04 -0.29361041411E+03  0.57868882013E+03  0.12443823472E+04  0.10100000352E+00 0.  1.
       -3    1    3    3    0  502  0.10617907468E+04  0.29361041411E+03 -0.10182683219E+04  0.15001590085E+04  0.10100000352E+00 0. -1.
</event>
<event>
 5   0  0.8213334E-06  0.2709599E+04  0.7818609E-02  0.8331897E-01
       -2   -1    0    0    0  501  0.00000000000E+00  0.00000000000E+00  0.68798346998E+03  0.68798346998E+03  0.25500000920E-02 0. -1.
        2   -1    0    0  501    0  0.00000000000E+00  0.00000000000E+00 -0.26679155170E+04  0.26679155170E+04  0.25500000920E-02 0.  1.
    10030    2    1    2    0    0  0.00000000000E+00  0.00000000000E+00 -0.19799320470E+04  0.33558989870E+04  0.27095990663E+04 0.  0.
        3    1    3    3  502    0 -0.65407465351E+03  0.43864937000E+03  0.37536364096E+03  0.87242466455E+03  0.10100000352E+00 0. -1.
       -3    1    3    3    0  502  0.65407465351E+03 -0.43864937000E+03 -0.23552956880E+04  0.24834743224E+04  0.10100000352E+00 0.  1.
</event>
<event>
 5   0  0.3089218E-06  0.2702977E+04  0.7818609E-02  0.8334040E-01
        1   -1    0    0  501    0  0.00000000000E+00  0.00000000000E+00  0.21502978733E+04  0.21502978733E+04  0.50400001928E-02 0. -1.
       -1   -1    0    0    0  501  0.00000000000E+00  0.00000000000E+00 -0.84942675692E+03  0.84942675694E+03  0.50400001928E-02 0.  1.
    10030    2    1    2    0    0  0.00000000000E+00  0.00000000000E+00  0.13008711163E+04  0.29997246302E+04  0.27029765437E+04 0.  0.
        5    1    3    3  502    0 -0.46889247078E+03 -0.10181099607E+04  0.14883718157E+04  0.18632446949E+04  0.46999998093E+01 0. -1.
       -5    1    3    3    0  502  0.46889247078E+03  0.10181099607E+04 -0.18750069936E+03  0.11364799353E+04  0.46999998093E+01 0.  1.
</event>
<event>
 5   0  0.7838364E-06  0.2723021E+04  0.7818609E-02  0.8327574E-01
        2   -1    0    0  501    0  0.00000000000E+00  0.00000000000E+00  0.14063908722E+04  0.14063908722E+04  0.25500000920E-02 0. -1.
       -2   -1    0    0    0  501  0.00000000000E+00  0.00000000000E+00 -0.13180621960E+04  0.13180621960E+04  0.25500000920E-02 0.  1.
    10030    2    1    2    0    0  0.00000000000E+00  0.00000000000E+00  0.88328676210E+02  0.27244530683E+04  0.27230208531E+04 0.  0.
        2    1    3    3  502    0 -0.33033194549E+03  0.11203857629E+04 -0.65572284094E+03  0.13395357017E+04  0.25500000920E-02 0.  1.
       -2    1    3    3    0  502  0.33033194549E+03 -0.11203857629E+04  0.74405151715E+03  0.13849173666E+04  0.25500000920E-02 0. -1.
</event>
<event>
 5   0  0.3199840E-06  0.2643860E+04  0.7818609E-02  0.8353454E-01
       -1   -1    0    0    0  501  0.00000000000E+00  0.00000000000E+00  0.73470437668E+03  0.73470437670E+03  0.50400001928E-02 0. -1.
        1   -1    0    0  501    0  0.00000000000E+00  0.00000000000E+00 -0.23785067073E+04  0.23785067073E+04  0.50400001928E-02 0.  1.
    10030    2    1    2    0    0  0.00000000000E+00  0.00000000000E+00 -0.16438023306E+04  0.31132110840E+04  0.26438602745E+04 0.  0.
        1    1    3    3  502    0  0.21491745545E+03  0.20268831181E+03 -0.23391395942E+04  0.23577205317E+04  0.50400001928E-02 0.  1.
       -1    1    3    3    0  502 -0.21491745545E+03 -0.20268831181E+03  0.69533726361E+03  0.75549055228E+03  0.50400001928E-02 0. -1.
</event>
<event>
 5   0  0.8213334E-06  0.2703651E+04  0.7818609E-02  0.8333821E-01
       -2   -1    0    0    0  501  0.00000000000E+00  0.00000000000E+00  0.14224797845E+04  0.14224797845E+04  0.25500000920E-02 0.  1.
        2   -1    0    0  501    0  0.00000000000E+00  0.00000000000E+00 -0.12846806164E+04  0.12846806164E+04  0.25500000920E-02 0. -1.
    10030    2    1    2    0    0  0.00000000000E+00  0.00000000000E+00  0.13779916810E+03  0.27071604010E+04  0.27036510178E+04 0.  0.
        3    1    3    3  502    0 -0.10368445354E+04  0.31718770734E+03  0.87727492882E+03  0.13947279101E+04  0.10100000352E+00 0.  1.
       -3    1    3    3    0  502  0.10368445354E+04 -0.31718770734E+03 -0.73947576072E+03  0.13124324909E+04  0.10100000352E+00 0. -1.
</event>
<event>
 5   0  0.3046300E-06  0.2656619E+04  0.7818609E-02  0.8349219E-01
        1   -1    0    0  501    0  0.00000000000E+00  0.00000000000E+00  0.18218113332E+04  0.18218113332E+04  0.50400001928E-02 0.  1.
       -1   -1    0    0    0  501  0.00000000000E+00  0.00000000000E+00 -0.96848999428E+03  0.96848999430E+03  0.50400001928E-02 0. -1.
    10030    2    1    2    0    0  0.00000000000E+00  0.00000000000E+00  0.85332133891E+03  0.27903013275E+04  0.26566189397E+04 0.  0.
        2    1    3    3  502    0 -0.92744329169E+03 -0.93600735754E+03  0.60286806278E+03  0.14490378649E+04  0.25500000920E-02 0.  1.
       -2    1    3    3    0  502  0.92744329169E+03  0.93600735754E+03  0.25045327613E+03  0.13412634626E+04  0.25500000920E-02 0. -1.
</event>
<event>
 5   0  0.3028601E-06  0.2698181E+04  0.7818609E-02  0.8335595E-01
       -1   -1    0    0    0  501  0.00000000000E+00  0.00000000000E+00  0.14482471617E+04  0.14482471617E+04  0.50400001928E-02 0. -1.
        1   -1    0    0  501    0  0.00000000000E+00  0.00000000000E+00 -0.12567225431E+04  0.12567225431E+04  0.50400001928E-02 0.  1.
    10030    2    1    2    0    0  0.00000000000E+00  0.00000000000E+00  0.19152461853E+03  0.27049697048E+04  0.26981807620E+04 0.  0.
        3    1    3    3  502    0 -0.12333918882E+04  0.12295868117E+03  0.62970963969E+03  0.13902908428E+04  0.10100000352E+00 0. -1.
       -3    1    3    3    0  502  0.12333918882E+04 -0.12295868117E+03 -0.43818502117E+03  0.13146788620E+04  0.10100000352E+00 0.  1.
</event>
<event>
 5   0  0.3089218E-06  0.2704831E+04  0.7818609E-02  0.8333439E-01
       -1   -1    0    0    0  501  0.00000000000E+00  0.00000000000E+00  0.16868549983E+04  0.16868549983E+04  0.50400001928E-02 0. -1.
        1   -1    0    0  501    0  0.00000000000E+00  0.00000000000E+00 -0.10842830704E+04  0.10842830704E+04  0.50400001928E-02 0.  1.
    10030    2    1    2    0    0  0.00000000000E+00  0.00000000000E+00  0.60257192792E+03  0.27711380687E+04  0.27048314675E+04 0.  0.
        5    1    3    3  502    0  0.28583424447E+02  0.13384272489E+04  0.10474549950E+03  0.13428321647E+04  0.46999998093E+01 0.  1.
       -5    1    3    3    0  502 -0.28583424447E+02 -0.13384272489E+04  0.49782642841E+03  0.14283059041E+04  0.46999998093E+01 0. -1.
</event>
<event>
 5   0  0.3046300E-06  0.2703627E+04  0.7818609E-02  0.8333829E-01
       -1   -1    0    0    0  501  0.00000000000E+00  0.00000000000E+00  0.12864043810E+04  0.12864043810E+04  0.50400001928E-02 0. -1.
        1   -1    0    0  501    0  0.00000000000E+00  0.00000000000E+00 -0.14205487863E+04  0.14205487863E+04  0.50400001928E-02 0.  1.
    10030    2    1    2    0    0  0.00000000000E+00  0.00000000000E+00 -0.13414440529E+03  0.27069531673E+04  0.27036273279E+04 0.  0.
        2    1    3    3  502    0  0.61188875143E+03 -0.31339413020E+03  0.10983082656E+04  0.12957255772E+04  0.25500000920E-02 0. -1.
       -2    1    3    3    0  502 -0.61188875143E+03  0.31339413020E+03 -0.12324526709E+04  0.14112275901E+04  0.25500000920E-02 0.  1.
</event>
<event>
 5   0  0.7729970E-06  0.2691211E+04  0.7818609E-02  0.8337862E-01
       -2   -1    0    0    0  501  0.00000000000E+00  0.00000000000E+00  0.84655127936E+03  0.84655127937E+03  0.25500000920E-02 0. -1.
        2   -1    0    0  501    0  0.00000000000E+00  0.00000000000E+00 -0.21388597348E+04  0.21388597348E+04  0.25500000920E-02 0.  1.
    10030    2    1    2    0    0  0.00000000000E+00  0.00000000000E+00 -0.12923084554E+04  0.29854110141E+04  0.26912112105E+04 0.  0.
        4    1    3    3  502    0 -0.13140040473E+04 -0.22479247957E+03 -0.44307151440E+03  0.14047961685E+04  0.12699999809E+01 0. -1.
       -4    1    3    3    0  502  0.13140040473E+04  0.22479247957E+03 -0.84923694101E+03  0.15806148456E+04  0.12699999809E+01 0.  1.
</event>
<event>
 5   0  0.3013407E-06  0.2629713E+04  0.7818609E-02  0.8358178E-01
        1   -1    0    0  501    0  0.00000000000E+00  0.00000000000E+00  0.80340207345E+03  0.80340207347E+03  0.50400001928E-02 0. -1.
       -1   -1    0    0    0  501  0.00000000000E+00  0.00000000000E+00 -0.21519081531E+04  0.21519081531E+04  0.50400001928E-02 0.  1.
    10030    2    1    2    0    0  0.00000000000E+00  0.00000000000E+00 -0.13485060797E+04  0.29553102266E+04  0.26297128909E+04 0.  0.
        4    1    3    3  502    0  0.10342312895E+04  0.40072317271E+03 -0.14678226081E+04  0.18397603765E+04  0.12699999809E+01 0.  1.
       -4    1    3    3    0  502 -0.10342312895E+04 -0.40072317271E+03  0.11931652840E+03  0.11155498501E+04  0.12699999809E+01 0. -1.
</event>
<event>
 5   0  0.3089218E-06  0.2695685E+04  0.7818609E-02  0.8336406E-01
        1   -1    0    0  501    0  0.00000000000E+00  0.00000000000E+00  0.90254251599E+03  0.90254251600E+03  0.50400001928E-02 0. -1.
       -1   -1    0    0    0  501  0.00000000000E+00  0.00000000000E+00 -0.20128466507E+04  0.20128466507E+04  0.50400001928E-02 0.  1.
    10030    2    1    2    0    0  0.00000000000E+00  0.00000000000E+00 -0.11103041347E+04  0.29153891667E+04  0.26956852045E+04 0.  0.
        5    1    3    3  502    0 -0.87226945435E+03 -0.74928624430E+03 -0.13155747203E+04  0.17472958569E+04  0.46999998093E+01 0.  1.
       -5    1    3    3    0  502  0.87226945435E+03  0.74928624430E+03  0.20527058567E+03  0.11680933097E+04  0.46999998093E+01 0. -1.
</event>
<event>
 5   0  0.3046300E-06  0.2688040E+04  0.7818609E-02  0.8338896E-01
        1   -1    0    0  501    0  0.00000000000E+00  0.00000000000E+00  0.92199556255E+03  0.92199556256E+03  0.50400001928E-02 0. -1.
       -1   -1    0    0    0  501  0.00000000000E+00  0.00000000000E+00 -0.19592173515E+04  0.19592173515E+04  0.50400001928E-02 0.  1.
    10030    2    1    2    0    0  0.00000000000E+00  0.00000000000E+00 -0.10372217889E+04  0.28812129140E+04  0.26880399582E+04 0.  0.
        2    1    3    3  502    0 -0.33117148771E+03 -0.52319596751E+03  0.76000236197E+03  0.98031227928E+03  0.25500000920E-02 0. -1.
       -2    1    3    3    0  502  0.33117148771E+03  0.52319596751E+03 -0.17972241509E+04  0.19009006348E+04  0.25500000920E-02 0.  1.
</event>
<event>
 5   0  0.8407622E-06  0.2675549E+04  0.7818609E-02  0.8342982E-01
       -2   -1    0    0    0  501  0.00000000000E+00  0.00000000000E+00  0.11302136818E+04  0.11302136818E+04  0.25500000920E-02 0.  1.
        2   -1    0    0  501    0  0.00000000000E+00  0.00000000000E+00 -0.15834534053E+04  0.15834534053E+04  0.25500000920E-02 0. -1.
    10030    2    1    2    0    0  0.00000000000E+00  0.00000000000E+00 -0.45323972352E+03  0.27136670871E+04  0.26755490675E+04 0.  0.
        1    1    3    3  502    0 -0.11072407759E+03  0.83726797540E+02  0.11228890430E+04  0.11314370512E+04  0.50400001928E-02 0.  1.
       -1    1    3    3    0  502  0.11072407759E+03 -0.83726797540E+02 -0.15761287665E+04  0.15822300359E+04  0.50400001928E-02 0. -1.
</event>
<event>
 5   0  0.8213334E-06  0.2702629E+04  0.7818609E-02  0.8334152E-01
        2   -1    0    0  501    0  0.00000000000E+00  0.00000000000E+00  0.13776724590E+04  0.13776724590E+04  0.25500000920E-02 0.  1.
       -2   -1    0    0    0  501  0.00000000000E+00  0.00000000000E+00 -0.13254609335E+04  0.13254609335E+04  0.25500000920E-02 0. -1.
    10030    2    1    2    0    0  0.00000000000E+00  0.00000000000E+00  0.52211525518E+02  0.27031333925E+04  0.27026291078E+04 0.  0.
        3    1    3    3  502    0  0.44539928388E+03  0.44051639368E+03 -0.11714546099E+04  0.13284355944E+04  0.10100000352E+00 0. -1.
       -3    1    3    3    0  502 -0.44539928388E+03 -0.44051639368E+03  0.12236661354E+04  0.13746977982E+04  0.10100000352E+00 0.  1.
</event>
<event>
 5   0  0.8213334E-06  0.2718702E+04  0.7818609E-02  0.8328962E-01
        2   -1    0    0  501    0  0.00000000000E+00  0.00000000000E+00  0.21973437994E+04  0.21973437994E+04  0.25500000920E-02 0.  1.
       -2   -1    0    0    0  501  0.00000000000E+00  0.00000000000E+00 -0.84094048698E+03  0.84094048698E+03  0.25500000920E-02 0. -1.
    10030    2    1    2    0    0  0.00000000000E+00  0.00000000000E+00  0.13564033124E+04  0.30382842864E+04  0.27187021644E+04 0.  0.
        3    1    3    3  502    0 -0.72724437318E+03 -0.50665402507E+03 -0.47360793680E+03  0.10049314243E+04  0.10100000352E+00 0. -1.
       -3    1    3    3    0  502  0.72724437318E+03  0.50665402507E+03  0.18300112492E+04  0.20333528621E+04  0.10100000352E+00 0.  1.
</event>
<event>
 5   0  0.3013407E-06  0.2699301E+04  0.7818609E-02  0.8335232E-01
        1   -1    0    0  501    0  0.00000000000E+00  0.00000000000E+00  0.14826737248E+04  0.14826737249E+04  0.50400001928E-02 0.  1.
       -1   -1    0    0    0  501  0.00000000000E+00  0.00000000000E+00 -0.12285621664E+04  0.12285621665E+04  0.50400001928E-02 0. -1.
    10030    2    1    2    0    0  0.00000000000E+00  0.00000000000E+00  0.25411155840E+03  0.27112358913E+04  0.26993012752E+04 0.  0.
        4    1    3    3  502    0 -0.14368153753E+02  0.35911903288E+03  0.14337235623E+04  0.14780858533E+04  0.12699999809E+01 0.  1.
       -4    1    3    3    0  502  0.14368153753E+02 -0.35911903288E+03 -0.11796120039E+04  0.12331500380E+04  0.12699999809E+01 0. -1.
</event>
<event>
 5   0  0.8407622E-06  0.2660874E+04  0.7818609E-02  0.8347813E-01
       -2   -1    0    0    0  501  0.00000000000E+00  0.00000000000E+00  0.11330004762E+04  0.11330004762E+04  0.25500000920E-02 0. -1.
        2   -1    0    0  501    0  0.00000000000E+00  0.00000000000E+00 -0.15622788505E+04  0.15622788505E+04  0.25500000920E-02 0.  1.
    10030    2    1    2    0    0  0.00000000000E+00  0.00000000000E+00 -0.42927837424E+03  0.26952793267E+04  0.26608740531E+04 0.  0.
        1    1    3    3  502    0  0.74888438675E+03  0.53144741847E+03  0.76051237832E+03  0.11923268264E+04  0.50400001928E-02 0. -1.
       -1    1    3    3    0  502 -0.74888438675E+03 -0.53144741847E+03 -0.11897907526E+04  0.15029525003E+04  0.50400001928E-02 0.  1.
</event>
<event>
 5   0  0.3046300E-06  0.2705369E+04  0.7818609E-02  0.8333265E-01
       -1   -1    0    0    0  501  0.00000000000E+00  0.00000000000E+00  0.97583079543E+03  0.97583079545E+03  0.50400001928E-02 0. -1.
        1   -1    0    0  501    0  0.00000000000E+00  0.00000000000E+00 -0.18750740138E+04  0.18750740138E+04  0.50400001928E-02 0.  1.
    10030    2    1    2    0    0  0.00000000000E+00  0.00000000000E+00 -0.89924321840E+03  0.28509048093E+04  0.27053687116E+04 0.  0.
        2    1    3    3  502    0  0.75611260352E+03  0.80453641040E+03 -0.12731812452E+04  0.16852227117E+04  0.25500000920E-02 0.  1.
       -2    1    3    3    0  502 -0.75611260352E+03 -0.80453641040E+03  0.37393802676E+03  0.11656820976E+04  0.25500000920E-02 0. -1.
</event>
<event>
 5   0  0.3028601E-06  0.2702024E+04  0.7818609E-02  0.8334348E-01
        1   -1    0    0  501    0  0.00000000000E+00  0.00000000000E+00  0.89937557392E+03  0.89937557394E+03  0.50400001928E-02 0.  1.
       -1   -1    0    0    0  501  0.00000000000E+00  0.00000000000E+00 -0.20294455122E+04  0.20294455122E+04  0.50400001928E-02 0. -1.
    10030    2    1    2    0    0  0.00000000000E+00  0.00000000000E+00 -0.11300699383E+04  0.29288210862E+04  0.27020242207E+04 0.  0.
        3    1    3    3  502    0 -0.99561312406E+03 -0.84227577349E+03 -0.18248122869E+03  0.13168042301E+04  0.10100000352E+00 0.  1.
       -3    1    3    3    0  502  0.99561312406E+03  0.84227577349E+03 -0.94758870961E+03  0.16120168561E+04  0.10100000352E+00 0. -1.
</event>
<event>
 5   0  0.3089218E-06  0.2709706E+04  0.7818609E-02  0.8331863E-01
       -1   -1    0    0    0  501  0.00000000000E+00  0.00000000000E+00  0.17376273210E+04  0.17376273210E+04  0.50400001928E-02 0.  1.
        1   -1    0    0  501    0  0.00000000000E+00  0.00000000000E+00 -0.10563980346E+04  0.10563980346E+04  0.50400001928E-02 0. -1.
    10030    2    1    2    0    0  0.00000000000E+00  0.00000000000E+00  0.68122928642E+03  0.27940253556E+04  0.27097055831E+04 0.  0.
        5    1    3    3  502    0 -0.77722237819E+03  0.29311369007E+03  0.14442544157E+04  0.16660981867E+04  0.46999998093E+01 0.  1.
       -5    1    3    3    0  502  0.77722237819E+03 -0.29311369007E+03 -0.76302512925E+03  0.11279271689E+04  0.46999998093E+01 0. -1.
</event>
<event>
 5   0  0.7838364E-06  0.2760256E+04  0.7818609E-02  0.8315715E-01
       -2   -1    0    0    0  501  0.00000000000E+00  0.00000000000E+00  0.17368251564E+04  0.17368251564E+04  0.25500000920E-02 0.  1.
        2   -1    0    0  501    0  0.00000000000E+00  0.00000000000E+00 -0.10966866057E+04  0.10966866057E+04  0.25500000920E-02 0. -1.
    10030    2    1    2    0    0  0.00000000000E+00  0.00000000000E+00  0.64013855066E+03  0.28335117621E+04  0.27602557023E+04 0.  0.
        2    1    3    3  502    0 -0.54807796702E+03 -0.69629354961E+03 -0.76609437202E+03  0.11713730200E+04  0.25500000920E-02 0. -1.
       -2    1    3    3    0  502  0.54807796702E+03  0.69629354961E+03  0.14062329227E+04  0.16621387421E+04  0.25500000920E-02 0.  1.
</event>
<event>
 5   0  0.8407622E-06  0.2734855E+04  0.7818609E-02  0.8323784E-01
       -2   -1    0    0    0  501  0.00000000000E+00  0.00000000000E+00  0.74579400775E+03  0.74579400775E+03  0.25500000920E-02 0. -1.
        2   -1    0    0  501    0  0.00000000000E+00  0.00000000000E+00 -0.25072040591E+04  0.25072040591E+04  0.25500000920E-02 0.  1.
    10030    2    1    2    0    0  0.00000000000E+00  0.00000000000E+00 -0.17614100513E+04  0.32529980668E+04  0.27348548506E+04 0.  0.
        1    1    3    3  502    0 -0.12616176754E+04 -0.91376313995E+02 -0.14985703384E+04  0.19610563094E+04  0.50400001928E-02 0.  1.
       -1    1    3    3    0  502  0.12616176754E+04  0.91376313995E+02 -0.26283971294E+03  0.12919417574E+04  0.50400001928E-02 0. -1.
</event>
<event>
 5   0  0.7812908E-06  0.2704721E+04  0.7818609E-02  0.8333475E-01
        2   -1    0    0  501    0  0.00000000000E+00  0.00000000000E+00  0.19744651170E+04  0.19744651170E+04  0.25500000920E-02 0.  1.
       -2   -1    0    0    0  501  0.00000000000E+00  0.00000000000E+00 -0.92626520440E+03  0.92626520440E+03  0.25500000920E-02 0. -1.
    10030    2    1    2    0    0  0.00000000000E+00  0.00000000000E+00  0.10481999126E+04  0.29007303214E+04  0.27047205661E+04 0.  0.
        5    1    3    3  502    0  0.71465797540E+03 -0.93554217177E+03 -0.18962109961E+03  0.11924568874E+04  0.46999998093E+01 0. -1.
       -5    1    3    3    0  502 -0.71465797540E+03  0.93554217177E+03  0.12378210123E+04  0.17082734340E+04  0.46999998093E+01 0.  1.
</event>
<event>
 5   0  0.2654625E-06  0.2681369E+04  0.7818609E-02  0.8341076E-01
        3   -1    0    0  501    0  0.00000000000E+00  0.00000000000E+00  0.20761646081E+04  0.20761646106E+04  0.10100000352E+00 0.  1.
       -3   -1    0    0    0  501  0.00000000000E+00  0.00000000000E+00 -0.86574761921E+03  0.86574762510E+03  0.10100000352E+00 0. -1.
    10030    2    1    2    0    0  0.00000000000E+00  0.00000000000E+00  0.12104169889E+04  0.29419122357E+04  0.26813687392E+04 0.  0.
        5    1    3    3  502    0  0.94033419699E+03  0.88092780261E+03  0.19888536826E+03  0.13037789978E+04  0.46999998093E+01 0. -1.
       -5    1    3    3    0  502 -0.94033419699E+03 -0.88092780261E+03  0.10115316206E+04  0.16381332379E+04  0.46999998093E+01 0.  1.
</event>
<event>
 5   0  0.3046300E-06  0.2614222E+04  0.7818609E-02  0.8363386E-01
       -1   -1    0    0    0  501  0.00000000000E+00  0.00000000000E+00  0.21514159550E+04  0.21514159550E+04  0.50400001928E-02 0.  1.
        1   -1    0    0  501    0  0.00000000000E+00  0.00000000000E+00 -0.79414644688E+03  0.79414644689E+03  0.50400001928E-02 0. -1.
    10030    2    1    2    0    0  0.00000000000E+00  0.00000000000E+00  0.13572695081E+04  0.29455624019E+04  0.26142221301E+04 0.  0.
        2    1    3    3  502    0  0.93421402729E+03 -0.87388657025E+03  0.37607532629E+03  0.13333665053E+04  0.25500000920E-02 0. -1.
       -2    1    3    3    0  502 -0.93421402729E+03  0.87388657025E+03  0.98119418181E+03  0.16121958966E+04  0.25500000920E-02 0.  1.
</event>
<event>
 5   0  0.7729970E-06  0.2712408E+04  0.7818609E-02  0.8330990E-01
        2   -1    0    0  501    0  0.00000000000E+00  0.00000000000E+00  0.14239096102E+04  0.14239096102E+04  0.25500000920E-02 0. -1.
       -2   -1    0    0    0  501  0.00000000000E+00  0.00000000000E+00 -0.12917178929E+04  0.12917178929E+04  0.25500000920E-02 0.  1.
    10030    2    1    2    0    0  0.00000000000E+00  0.00000000000E+00  0.13219171735E+03  0.27156275031E+04  0.27124081709E+04 0.  0.
        4    1    3    3  502    0 -0.11527673888E+04  0.43247481393E+03  0.63543660194E+03  0.13855282045E+04  0.12699999809E+01 0. -1.
       -4    1    3    3    0  502  0.11527673888E+04 -0.43247481393E+03 -0.50324488459E+03  0.13300992986E+04  0.12699999809E+01 0.  1.
</event>
<event>
 5   0  0.8407622E-06  0.2699015E+04  0.7818609E-02  0.8335325E-01
       -2   -1    0    0    0  501  0.00000000000E+00  0.00000000000E+00  0.11388375177E+04  0.11388375177E+04  0.25500000920E-02 0.  1.
        2   -1    0    0  501    0  0.00000000000E+00  0.00000000000E+00 -0.15991489122E+04  0.15991489122E+04  0.25500000920E-02 0. -1.
    10030    2    1    2    0    0  0.00000000000E+00  0.00000000000E+00 -0.46031139452E+03  0.27379864300E+04  0.26990152113E+04 0.  0.
        1    1    3    3  502    0 -0.15584643600E+03  0.13210039287E+04 -0.46110781729E+03  0.14078209795E+04  0.50400001928E-02 0. -1.
       -1    1    3    3    0  502  0.15584643600E+03 -0.13210039287E+04  0.79642277402E+00  0.13301654504E+04  0.50400001928E-02 0.  1.
</event>
<event>
 5   0  0.3199840E-06  0.2700397E+04  0.7818609E-02  0.8334876E-01
       -1   -1    0    0    0  501  0.00000000000E+00  0.00000000000E+00  0.95970906979E+03  0.95970906981E+03  0.50400001928E-02 0. -1.
        1   -1    0    0  501    0  0.00000000000E+00  0.00000000000E+00 -0.18995712671E+04  0.18995712671E+04  0.50400001928E-02 0.  1.
    10030    2    1    2    0    0  0.00000000000E+00  0.00000000000E+00 -0.93986219731E+03  0.28592803369E+04  0.27003968403E+04 0.  0.
        1    1    3    3  502    0 -0.71254345307E+03  0.28960799940E+03  0.70506553537E+03  0.10434118914E+04  0.50400001928E-02 0. -1.
       -1    1    3    3    0  502  0.71254345307E+03 -0.28960799940E+03 -0.16449277327E+04  0.18158684456E+04  0.50400001928E-02 0.  1.
</event>
<event>
 5   0  0.3089218E-06  0.2690488E+04  0.7818609E-02  0.8338098E-01
        1   -1    0    0  501    0  0.00000000000E+00  0.00000000000E+00  0.20679329088E+04  0.20679329088E+04  0.50400001928E-02 0.  1.
       -1   -1    0    0    0  501  0.00000000000E+00  0.00000000000E+00 -0.87511580147E+03  0.87511580149E+03  0.50400001928E-02 0. -1.
    10030    2    1    2    0    0  0.00000000000E+00  0.00000000000E+00  0.11928171073E+04  0.29430487103E+04  0.26904875134E+04 0.  0.
        5    1    3    3  502    0  0.41916082213E+03  0.10684557841E+04 -0.17114751151E+03  0.11604340214E+04  0.46999998093E+01 0. -1.
       -5    1    3    3    0  502 -0.41916082213E+03 -0.10684557841E+04  0.13639646188E+04  0.17826146888E+04  0.46999998093E+01 0.  1.
</event>
<event>
 5   0  0.7812908E-06  0.2706544E+04  0.7818609E-02  0.8332885E-01
       -2   -1    0    0    0  501  0.00000000000E+00  0.00000000000E+00  0.78199301701E+03  0.78199301701E+03  0.25500000920E-02 0. -1.
        2   -1    0    0  501    0  0.00000000000E+00  0.00000000000E+00 -0.23418947850E+04  0.23418947850E+04  0.25500000920E-02 0.  1.
    10030    2    1    2    0    0  0.00000000000E+00  0.00000000000E+00 -0.15599017680E+04  0.31238878020E+04  0.27065441939E+04 0.  0.
        5    1    3    3  502    0  0.91907012596E+03  0.94753615209E+03 -0.11239108294E+04  0.17336990218E+04  0.46999998093E+01 0. -1.
       -5    1    3    3    0  502 -0.91907012596E+03 -0.94753615209E+03 -0.43599093862E+03  0.13901887802E+04  0.46999998093E+01 0.  1.
</event>
<event>
 5   0  0.7812908E-06  0.2693768E+04  0.7818609E-02  0.8337030E-01
        2   -1    0    0  501    0  0.00000000000E+00  0.00000000000E+00  0.14586522797E+04  0.14586522797E+04  0.25500000920E-02 0.  1.
       -2   -1    0    0    0  501  0.00000000000E+00  0.00000000000E+00 -0.12436795638E+04  0.12436795638E+04  0.25500000920E-02 0. -1.
    10030    2    1    2    0    0  0.00000000000E+00  0.00000000000E+00  0.21497271585E+03  0.27023318435E+04  0.26937676447E+04 0.  0.
        5    1    3    3  502    0  0.97048558619E+03  0.93245272364E+03  0.16022331254E+03  0.13553611898E+04  0.46999998093E+01 0. -1.
       -5    1    3    3    0  502 -0.97048558619E+03 -0.93245272364E+03  0.54749403308E+02  0.13469706537E+04  0.46999998093E+01 0.  1.
</event>
<event>
 5   0  0.7812908E-06  0.2709905E+04  0.7818609E-02  0.8331798E-01
       -2   -1    0    0    0  501  0.00000000000E+00  0.00000000000E+00  0.79993784234E+03  0.79993784235E+03  0.25500000920E-02 0. -1.
        2   -1    0    0  501    0  0.00000000000E+00  0.00000000000E+00 -0.22950482326E+04  0.22950482326E+04  0.25500000920E-02 0.  1.
    10030    2    1    2    0    0  0.00000000000E+00  0.00000000000E+00 -0.14951103903E+04  0.30949860750E+04  0.27099047447E+04 0.  0.
        5    1    3    3  502    0  0.54056374926E+02  0.13007314690E+04 -0.31862137713E+03  0.13402858344E+04  0.46999998093E+01 0.  1.
       -5    1    3    3    0  502 -0.54056374926E+02 -0.13007314690E+04 -0.11764890131E+04  0.17547002405E+04  0.46999998093E+01 0. -1.
</event>
<event>
 5   0  0.7729970E-06  0.2746153E+04  0.7818609E-02  0.8320184E-01
       -2   -1    0    0    0  501  0.00000000000E+00  0.00000000000E+00  0.68592997616E+03  0.68592997616E+03  0.25500000920E-02 0. -1.
        2   -1    0    0  501    0  0.00000000000E+00  0.00000000000E+00 -0.27485873644E+04  0.27485873644E+04  0.25500000920E-02 0.  1.
    10030    2    1    2    0    0  0.00000000000E+00  0.00000000000E+00 -0.20626573883E+04  0.34345173406E+04  0.27461525561E+04 0.  0.
        4    1    3    3  502    0  0.59174571817E+03  0.33401925879E+03  0.46090143622E+03  0.82107466593E+03  0.12699999809E+01 0. -1.
       -4    1    3    3    0  502 -0.59174571817E+03 -0.33401925879E+03 -0.25235588245E+04  0.26134426747E+04  0.12699999809E+01 0.  1.
</event>
<event>
 5   0  0.7729970E-06  0.2718778E+04  0.7818609E-02  0.8328938E-01
        2   -1    0    0  501    0  0.00000000000E+00  0.00000000000E+00  0.14536375188E+04  0.14536375188E+04  0.25500000920E-02 0. -1.
       -2   -1    0    0    0  501  0.00000000000E+00  0.00000000000E+00 -0.12712510482E+04  0.12712510482E+04  0.25500000920E-02 0.  1.
    10030    2    1    2    0    0  0.00000000000E+00  0.00000000000E+00  0.18238647066E+03  0.27248885670E+04  0.27187778280E+04 0.  0.
        4    1    3    3  502    0  0.37282432787E+03  0.10040961595E+04  0.93017058671E+03  0.14186000177E+04  0.12699999809E+01 0. -1.
       -4    1    3    3    0  502 -0.37282432787E+03 -0.10040961595E+04 -0.74778411604E+03  0.13062885493E+04  0.12699999809E+01 0.  1.
</event>
<event>
 5   0  0.3089218E-06  0.2761847E+04  0.7818609E-02  0.8315212E-01
       -1   -1    0    0    0  501  0.00000000000E+00  0.00000000000E+00  0.15798811448E+04  0.15798811448E+04  0.50400001928E-02 0.  1.
        1   -1    0    0  501    0  0.00000000000E+00  0.00000000000E+00 -0.12070208726E+04  0.12070208726E+04  0.50400001928E-02 0. -1.
    10030    2    1    2    0    0  0.00000000000E+00  0.00000000000E+00  0.37286027218E+03  0.27869020175E+04  0.27618468590E+04 0.  0.
        5    1    3    3  502    0  0.53844705798E+03  0.12442345450E+04 -0.78405756240E+02  0.13580185528E+04  0.46999998093E+01 0. -1.
       -5    1    3    3    0  502 -0.53844705798E+03 -0.12442345450E+04  0.45126602842E+03  0.14288834647E+04  0.46999998093E+01 0.  1.
</event>
<event>
 5   0  0.8213334E-06  0.2710396E+04  0.7818609E-02  0.8331640E-01
       -2   -1    0    0    0  501  0.00000000000E+00  0.00000000000E+00  0.11941195389E+04  0.11941195389E+04  0.25500000920E-02 0. -1.
        2   -1    0    0  501    0  0.00000000000E+00  0.00000000000E+00 -0.15380049242E+04  0.15380049242E+04  0.25500000920E-02 0.  1.
    10030    2    1    2    0    0  0.00000000000E+00  0.00000000000E+00 -0.34388538537E+03  0.27321244631E+04  0.27103960824E+04 0.  0.
        3    1    3    3  502    0  0.54702095236E+02  0.96703685108E+03  0.78350033914E+03  0.12458031073E+04  0.10100000352E+00 0. -1.
       -3    1    3    3    0  502 -0.54702095236E+02 -0.96703685108E+03 -0.11273857245E+04  0.14863213558E+04  0.10100000352E+00 0.  1.
</event>
<event>
 5   0  0.7838364E-06  0.2701129E+04  0.7818609E-02  0.8334639E-01
       -2   -1    0    0    0  501  0.00000000000E+00  0.00000000000E+00  0.77593848608E+03  0.77593848609E+03  0.25500000920E-02 0. -1.
        2   -1    0    0  501    0  0.00000000000E+00  0.00000000000E+00 -0.23507341089E+04  0.23507341089E+04  0.25500000920E-02 0.  1.
    10030    2    1    2    0    0  0.00000000000E+00  0.00000000000E+00 -0.15747956228E+04  0.31266725950E+04  0.27011294420E+04 0.  0.
        2    1    3    3  502    0  0.98200151424E+03  0.55360388073E+03  0.73568729812E+02  0.11296975652E+04  0.25500000920E-02 0. -1.
       -2    1    3    3    0  502 -0.98200151424E+03 -0.55360388073E+03 -0.16483643526E+04  0.19969750298E+04  0.25500000920E-02 0.  1.
</event>
<event>
 5   0  0.3028601E-06  0.2711752E+04  0.7818609E-02  0.8331202E-01
       -1   -1    0    0    0  501  0.00000000000E+00  0.00000000000E+00  0.12937989915E+04  0.12937989915E+04  0.50400001928E-02 0.  1.
        1   -1    0    0  501    0  0.00000000000E+00  0.00000000000E+00 -0.14209317405E+04  0.14209317405E+04  0.50400001928E-02 0. -1.
    10030    2    1    2    0    0  0.00000000000E+00  0.00000000000E+00 -0.12713274896E+03  0.27147307320E+04  0.27117522401E+04 0.  0.
        3    1    3    3  502    0  0.82154617491E+03 -0.10602841434E+04 -0.26192400671E+03  0.13666545934E+04  0.10100000352E+00 0. -1.
       -3    1    3    3    0  502 -0.82154617491E+03  0.10602841434E+04  0.13479125775E+03  0.13480761386E+04  0.10100000352E+00 0.  1.
</event>
<event>
 5   0  0.7812908E-06  0.2700409E+04  0.7818609E-02  0.8334872E-01
       -2   -1    0    0    0  501  0.00000000000E+00  0.00000000000E+00  0.10247876119E+04  0.10247876119E+04  0.25500000920E-02 0. -1.
        2   -1    0    0  501    0  0.00000000000E+00  0.00000000000E+00 -0.17789561390E+04  0.17789561390E+04  0.25500000920E-02 0.  1.
    10030    2    1    2    0    0  0.00000000000E+00  0.00000000000E+00 -0.75416852712E+03  0.28037437510E+04  0.27004090160E+04 0.  0.
        5    1    3    3  502    0  0.99705029357E+03  0.16079027605E+03  0.55334796796E+03  0.11515983955E+04  0.46999998093E+01 0. -1.
       -5    1    3    3    0  502 -0.99705029357E+03 -0.16079027605E+03 -0.13075164951E+04  0.16521453555E+04  0.46999998093E+01 0.  1.
</event>
<event>
 5   0  0.7838364E-06  0.2699829E+04  0.7818609E-02  0.8335060E-01
       -2   -1    0    0    0  501  0.00000000000E+00  0.00000000000E+00  0.20627850955E+04  0.20627850955E+04  0.25500000920E-02 0.  1.
        2   -1    0    0  501    0  0.00000000000E+00  0.00000000000E+00 -0.88340255885E+03  0.88340255886E+03  0.25500000920E-02 0. -1.
    10030    2    1    2    0    0  0.00000000000E+00  0.00000000000E+00  0.11793825366E+04  0.29461876543E+04  0.26998293514E+04 0.  0.
        2    1    3    3  502    0  0.91510709383E+03  0.62047764941E+03  0.14348682094E+04  0.18114249322E+04  0.25500000920E-02 0.  1.
       -2    1    3    3    0  502 -0.91510709383E+03 -0.62047764941E+03 -0.25548567278E+03  0.11347627222E+04  0.25500000920E-02 0. -1.
</event>
<event>
 5   0  0.3199840E-06  0.2701365E+04  0.7818609E-02  0.8334562E-01
       -1   -1    0    0    0  501  0.00000000000E+00  0.00000000000E+00  0.10997400320E+04  0.10997400320E+04  0.50400001928E-02 0. -1.
        1   -1    0    0  501    0  0.00000000000E+00  0.00000000000E+00 -0.16588854877E+04  0.16588854877E+04  0.50400001928E-02 0.  1.
    10030    2    1    2    0    0  0.00000000000E+00  0.00000000000E+00 -0.55914545569E+03  0.27586255197E+04  0.27013646769E+04 0.  0.
        1    1    3    3  502    0 -0.11303075589E+04 -0.15223810134E+03  0.45934722148E+03  0.12295411693E+04  0.50400001928E-02 0. -1.
       -1    1    3    3    0  502  0.11303075589E+04  0.15223810134E+03 -0.10184926772E+04  0.15290843504E+04  0.50400001928E-02 0.  1.
</event>
<event>
 5   0  0.7812908E-06  0.2708804E+04  0.7818609E-02  0.8332154E-01
       -2   -1    0    0    0  501  0.00000000000E+00  0.00000000000E+00  0.99250677013E+03  0.99250677013E+03  0.25500000920E-02 0. -1.
        2   -1    0    0  501    0  0.00000000000E+00  0.00000000000E+00 -0.18482543531E+04  0.18482543531E+04  0.25500000920E-02 0.  1.
    10030    2    1    2    0    0  0.00000000000E+00  0.00000000000E+00 -0.85574758297E+03  0.28407611232E+04  0.27088041335E+04 0.  0.
        5    1    3    3  502    0  0.80624305543E+03 -0.26873797073E+03 -0.15338246971E+04  0.17535359285E+04  0.46999998093E+01 0.  1.
       -5    1    3    3    0  502 -0.80624305543E+03  0.26873797073E+03  0.67807711409E+03  0.10872251947E+04  0.46999998093E+01 0. -1.
</event>
<event>
 5   0  0.2654625E-06  0.2707018E+04  0.7818609E-02  0.8332731E-01
        4   -1    0    0  501    0  0.00000000000E+00  0.00000000000E+00  0.19174383838E+04  0.19174388043E+04  0.12699999809E+01 0.  1.
       -4   -1    0    0    0  501  0.00000000000E+00  0.00000000000E+00 -0.95543376491E+03  0.95543460898E+03  0.12699999809E+01 0. -1.
    10030    2    1    2    0    0  0.00000000000E+00  0.00000000000E+00  0.96200461885E+03  0.28728734133E+04  0.27070184267E+04 0.  0.
        3    1    3    3  502    0 -0.97180375993E+03 -0.70226483404E+03 -0.18549521522E+03  0.12132546847E+04  0.10100000352E+00 0. -1.
       -3    1    3    3    0  502  0.97180375993E+03  0.70226483404E+03  0.11474998341E+04  0.16596187286E+04  0.10100000352E+00 0.  1.
</event>
<event>
 5   0  0.8213334E-06  0.2630408E+04  0.7818609E-02  0.8357945E-01
       -2   -1    0    0    0  501  0.00000000000E+00  0.00000000000E+00  0.10560664768E+04  0.10560664768E+04  0.25500000920E-02 0.  1.
        2   -1    0    0  501    0  0.00000000000E+00  0.00000000000E+00 -0.16379284916E+04  0.16379284916E+04  0.25500000920E-02 0. -1.
    10030    2    1    2    0    0  0.00000000000E+00  0.00000000000E+00 -0.58186201478E+03  0.26939949684E+04  0.26304078554E+04 0.  0.
        3    1    3    3  502    0  0.54778201100E+03  0.74497655685E+03  0.66693504062E+03  0.11401129595E+04  0.10100000352E+00 0.  1.
       -3    1    3    3    0  502 -0.54778201100E+03 -0.74497655685E+03 -0.12487970554E+04  0.15538820089E+04  0.10100000352E+00 0. -1.
</event>
<event>
 5   0  0.3046300E-06  0.2686058E+04  0.7818609E-02  0.8339543E-01
       -1   -1    0    0    0  501  0.00000000000E+00  0.00000000000E+00  0.10461529061E+04  0.10461529061E+04  0.50400001928E-02 0.  1.
        1   -1    0    0  501    0  0.00000000000E+00  0.00000000000E+00 -0.17241516531E+04  0.17241516531E+04  0.50400001928E-02 0. -1.
    10030    2    1    2    0    0  0.00000000000E+00  0.00000000000E+00 -0.67799874695E+03  0.27703045592E+04  0.26860575291E+04 0.  0.
        2    1    3    3  502    0  0.88253554604E+03  0.54349644343E+03 -0.12198770291E+04  0.16007364993E+04  0.25500000920E-02 0. -1.
       -2    1    3    3    0  502 -0.88253554604E+03 -0.54349644343E+03  0.54187828216E+03  0.11695680599E+04  0.25500000920E-02 0.  1.
</event>
<event>
 5   0  0.3089218E-06  0.2678206E+04  0.7818609E-02  0.8342111E-01
       -1   -1    0    0    0  501  0.00000000000E+00  0.00000000000E+00  0.16179354055E+04  0.16179354055E+04  0.50400001928E-02 0. -1.
        1   -1    0    0  501    0  0.00000000000E+00  0.00000000000E+00 -0.11083237273E+04  0.11083237273E+04  0.50400001928E-02 0.  1.
    10030    2    1    2    0    0  0.00000000000E+00  0.00000000000E+00  0.50961167820E+03  0.27262591328E+04  0.26782055180E+04 0.  0.
        5    1    3    3  502    0 -0.37087024756E+02 -0.10469974790E+04  0.11037936211E+04  0.15218283794E+04  0.46999998093E+01 0. -1.
       -5    1    3    3    0  502  0.37087024756E+02  0.10469974790E+04 -0.59418194293E+03  0.12044307534E+04  0.46999998093E+01 0.  1.
</event>
<event>
 5   0  0.7838364E-06  0.2731349E+04  0.7818609E-02  0.8324904E-01
        2   -1    0    0  501    0  0.00000000000E+00  0.00000000000E+00  0.12210995168E+04  0.12210995168E+04  0.25500000920E-02 0.  1.
       -2   -1    0    0    0  501  0.00000000000E+00  0.00000000000E+00 -0.15273669200E+04  0.15273669200E+04  0.25500000920E-02 0. -1.
    10030    2    1    2    0    0  0.00000000000E+00  0.00000000000E+00 -0.30626740324E+03  0.27484664368E+04  0.27313491230E+04 0.  0.
        2    1    3    3  502    0  0.75012696392E+03  0.36166950305E+03 -0.12423086949E+04  0.14956022817E+04  0.25500000920E-02 0. -1.
       -2    1    3    3    0  502 -0.75012696392E+03 -0.36166950305E+03  0.93604129168E+03  0.12528641551E+04  0.25500000920E-02 0.  1.
</event>
<event>
 5   0  0.8407622E-06  0.2685820E+04  0.7818609E-02  0.8339621E-01
        2   -1    0    0  501    0  0.00000000000E+00  0.00000000000E+00  0.13766131044E+04  0.13766131044E+04  0.25500000920E-02 0. -1.
       -2   -1    0    0    0  501  0.00000000000E+00  0.00000000000E+00 -0.13100317908E+04  0.13100317908E+04  0.25500000920E-02 0.  1.
    10030    2    1    2    0    0  0.00000000000E+00  0.00000000000E+00  0.66581313586E+02  0.26866448952E+04  0.26858197485E+04 0.  0.
        1    1    3    3  502    0 -0.93299664629E+03  0.31819678247E+03  0.94553300097E+03  0.13659299361E+04  0.50400001928E-02 0. -1.
       -1    1    3    3    0  502  0.93299664629E+03 -0.31819678247E+03 -0.87895168738E+03  0.13207149591E+04  0.50400001928E-02 0.  1.
</event>
<event>
 5   0  0.3013407E-06  0.2709665E+04  0.7818609E-02  0.8331876E-01
        1   -1    0    0  501    0  0.00000000000E+00  0.00000000000E+00  0.12402520739E+04  0.12402520739E+04  0.50400001928E-02 0.  1.
       -1   -1    0    0    0  501  0.00000000000E+00  0.00000000000E+00 -0.14799982046E+04  0.14799982046E+04  0.50400001928E-02 0. -1.
    10030    2    1    2    0    0  0.00000000000E+00  0.00000000000E+00 -0.23974613064E+03  0.27202502785E+04  0.27096648078E+04 0.  0.
        4    1    3    3  502    0  0.21166431341E+03 -0.42278965639E+03 -0.13944850989E+04  0.14724616053E+04  0.12699999809E+01 0. -1.
       -4    1    3    3    0  502 -0.21166431341E+03  0.42278965639E+03  0.11547389683E+04  0.12477886732E+04  0.12699999809E+01 0.  1.
</event>
<event>
 5   0  0.3028601E-06  0.2704548E+04  0.7818609E-02  0.8333531E-01
       -1   -1    0    0    0  501  0.00000000000E+00  0.00000000000E+00  0.11635103310E+04  0.11635103310E+04  0.50400001928E-02 0.  1.
        1   -1    0    0  501    0  0.00000000000E+00  0.00000000000E+00 -0.15716624214E+04  0.15716624214E+04  0.50400001928E-02 0. -1.
    10030    2    1    2    0    0  0.00000000000E+00  0.00000000000E+00 -0.40815209039E+03  0.27351727524E+04  0.27045483646E+04 0.  0.
        3    1    3    3  502    0  0.78304540767E+03  0.87977705209E+03 -0.87603753765E+03  0.14678588316E+04  0.10100000352E+00 0. -1.
       -3    1    3    3    0  502 -0.78304540767E+03 -0.87977705209E+03  0.46788544725E+03  0.12673139208E+04  0.10100000352E+00 0.  1.
</event>
<event>
 5   0  0.7838364E-06  0.2810491E+04  0.7818609E-02  0.8300019E-01
       -2   -1    0    0    0  501  0.00000000000E+00  0.00000000000E+00  0.86213798264E+03  0.86213798265E+03  0.25500000920E-02 0.  1.
        2   -1    0    0  501    0  0.00000000000E+00  0.00000000000E+00 -0.22904854875E+04  0.22904854875E+04  0.25500000920E-02 0. -1.
    10030    2    1    2    0    0  0.00000000000E+00  0.00000000000E+00 -0.14283475049E+04  0.31526234702E+04  0.28104907312E+04 0.  0.
        2    1    3    3  502    0 -0.29640432547E+02  0.12550911959E+03  0.85548607933E+03  0.86515173598E+03  0.25500000920E-02 0.  1.
       -2    1    3    3    0  502  0.29640432547E+02 -0.12550911959E+03 -0.22838335842E+04  0.22874717342E+04  0.25500000920E-02 0. -1.
</event>
<event>
 5   0  0.3028601E-06  0.2742610E+04  0.7818609E-02  0.8321310E-01
        1   -1    0    0  501    0  0.00000000000E+00  0.00000000000E+00  0.17365141503E+04  0.17365141503E+04  0.50400001928E-02 0. -1.
       -1   -1    0    0    0  501  0.00000000000E+00  0.00000000000E+00 -0.10829035417E+04  0.10829035417E+04  0.50400001928E-02 0.  1.
    10030    2    1    2    0    0  0.00000000000E+00  0.00000000000E+00  0.65361060860E+03  0.28194176919E+04  0.27426099420E+04 0.  0.
        3    1    3    3  502    0  0.11560122889E+04 -0.37528796506E+03 -0.32601600984E+03  0.12583687527E+04  0.10100000352E+00 0.  1.
       -3    1    3    3    0  502 -0.11560122889E+04  0.37528796506E+03  0.97962661845E+03  0.15610489392E+04  0.10100000352E+00 0. -1.
</event>
<event>
 5   0  0.3199840E-06  0.2745097E+04  0.7818609E-02  0.8320519E-01
        1   -1    0    0  501    0  0.00000000000E+00  0.00000000000E+00  0.20774116699E+04  0.20774116699E+04  0.50400001928E-02 0.  1.
       -1   -1    0    0    0  501  0.00000000000E+00  0.00000000000E+00 -0.90684482883E+03  0.90684482884E+03  0.50400001928E-02 0. -1.
    10030    2    1    2    0    0  0.00000000000E+00  0.00000000000E+00  0.11705668411E+04  0.29842564987E+04  0.27450974702E+04 0.  0.
        1    1    3    3  502    0  0.24482735217E+03 -0.22992659174E+03 -0.86148120074E+03  0.92463859384E+03  0.50400001928E-02 0. -1.
       -1    1    3    3    0  502 -0.24482735217E+03  0.22992659174E+03  0.20320480418E+04  0.20596179049E+04  0.50400001928E-02 0.  1.
</event>
<event>
 5   0  0.3046300E-06  0.2656587E+04  0.7818609E-02  0.8349230E-01
        1   -1    0    0  501    0  0.00000000000E+00  0.00000000000E+00  0.32394736911E+04  0.32394736911E+04  0.50400001928E-02 0.  1.
       -1   -1    0    0    0  501  0.00000000000E+00  0.00000000000E+00 -0.54464529030E+03  0.54464529032E+03  0.50400001928E-02 0. -1.
    10030    2    1    2    0    0  0.00000000000E+00  0.00000000000E+00  0.26948284008E+04  0.37841189814E+04  0.26565873514E+04 0.  0.
        2    1    3    3  502    0  0.42055308751E+03 -0.37107763428E+03  0.30625354079E+04  0.31134685858E+04  0.25500000920E-02 0.  1.
       -2    1    3    3    0  502 -0.42055308751E+03  0.37107763428E+03 -0.36770700710E+03  0.67065039563E+03  0.25500000920E-02 0. -1.
</event>
<event>
 5   0  0.7729970E-06  0.2699680E+04  0.7818609E-02  0.8335109E-01
        2   -1    0    0  501    0  0.00000000000E+00  0.00000000000E+00  0.16691036887E+04  0.16691036887E+04  0.25500000920E-02 0. -1.
       -2   -1    0    0    0  501  0.00000000000E+00  0.00000000000E+00 -0.10916445812E+04  0.10916445812E+04  0.25500000920E-02 0.  1.
    10030    2    1    2    0    0  0.00000000000E+00  0.00000000000E+00  0.57745910741E+03  0.27607482699E+04  0.26996799790E+04 0.  0.
        4    1    3    3  502    0  0.78930433602E+03 -0.17787888228E+03 -0.81618542210E+03  0.11492617142E+04  0.12699999809E+01 0.  1.
       -4    1    3    3    0  502 -0.78930433602E+03  0.17787888228E+03  0.13936445295E+04  0.16114865557E+04  0.12699999809E+01 0. -1.
</event>
<event>
 5   0  0.2654625E-06  0.2740274E+04  0.7818609E-02  0.8322054E-01
        4   -1    0    0  501    0  0.00000000000E+00  0.00000000000E+00  0.13174420882E+04  0.13174427003E+04  0.12699999809E+01 0. -1.
       -4   -1    0    0    0  501  0.00000000000E+00  0.00000000000E+00 -0.14249387428E+04  0.14249393088E+04  0.12699999809E+01 0.  1.
    10030    2    1    2    0    0  0.00000000000E+00  0.00000000000E+00 -0.10749665465E+03  0.27423820091E+04  0.27402743573E+04 0.  0.
        5    1    3    3  502    0  0.46297562669E+03 -0.12564719459E+04 -0.34411906833E+03  0.13825730378E+04  0.46999998093E+01 0.  1.
       -5    1    3    3    0  502 -0.46297562669E+03  0.12564719459E+04  0.23662241368E+03  0.13598089713E+04  0.46999998093E+01 0. -1.
</event>
<event>
 5   0  0.7729970E-06  0.2698580E+04  0.7818609E-02  0.8335466E-01
        2   -1    0    0  501    0  0.00000000000E+00  0.00000000000E+00  0.22125272763E+04  0.22125272764E+04  0.25500000920E-02 0. -1.
       -2   -1    0    0    0  501  0.00000000000E+00  0.00000000000E+00 -0.82285224102E+03  0.82285224103E+03  0.25500000920E-02 0.  1.
    10030    2    1    2    0    0  0.00000000000E+00  0.00000000000E+00  0.13896750353E+04  0.30353795174E+04  0.26985796469E+04 0.  0.
        4    1    3    3  502    0  0.61482623957E+03 -0.11004218926E+04  0.12361975563E+04  0.17655383478E+04  0.12699999809E+01 0. -1.
       -4    1    3    3    0  502 -0.61482623957E+03  0.11004218926E+04  0.15347747904E+03  0.12698411696E+04  0.12699999809E+01 0.  1.
</event>
<event>
 5   0  0.8407622E-06  0.2694656E+04  0.7818609E-02  0.8336741E-01
        2   -1    0    0  501    0  0.00000000000E+00  0.00000000000E+00  0.25019605391E+04  0.25019605391E+04  0.25500000920E-02 0. -1.
       -2   -1    0    0    0  501  0.00000000000E+00  0.00000000000E+00 -0.72554826311E+03  0.72554826311E+03  0.25500000920E-02 0.  1.
    10030    2    1    2    0    0  0.00000000000E+00  0.00000000000E+00  0.17764122760E+04  0.32275088022E+04  0.26946562850E+04 0.  0.
        1    1    3    3  502    0  0.10437918292E+03  0.25865847774E+03  0.24670009947E+04  0.24827188987E+04  0.50400001928E-02 0. -1.
       -1    1    3    3    0  502 -0.10437918292E+03 -0.25865847774E+03 -0.69058871873E+03  0.74478990353E+03  0.50400001928E-02 0.  1.
</event>
<event>
 5   0  0.2654625E-06  0.2700307E+04  0.7818609E-02  0.8334905E-01
       -4   -1    0    0    0  501  0.00000000000E+00  0.00000000000E+00  0.11377890245E+04  0.11377897333E+04  0.12699999809E+01 0.  1.
        4   -1    0    0  501    0  0.00000000000E+00  0.00000000000E+00 -0.16021540368E+04  0.16021545402E+04  0.12699999809E+01 0. -1.
    10030    2    1    2    0    0  0.00000000000E+00  0.00000000000E+00 -0.46436501232E+03  0.27399442735E+04  0.27003073449E+04 0.  0.
        4    1    3    3  502    0  0.77182705647E+03 -0.43633048691E+03 -0.12653685843E+04  0.15450762330E+04  0.12699999809E+01 0. -1.
       -4    1    3    3    0  502 -0.77182705647E+03  0.43633048691E+03  0.80100357196E+03  0.11948680405E+04  0.12699999809E+01 0.  1.
</event>
<event>
 5   0  0.8213334E-06  0.2733834E+04  0.7818609E-02  0.8324110E-01
       -2   -1    0    0    0  501  0.00000000000E+00  0.00000000000E+00  0.10577927168E+04  0.10577927168E+04  0.25500000920E-02 0.  1.
        2   -1    0    0  501    0  0.00000000000E+00  0.00000000000E+00 -0.17663782903E+04  0.17663782903E+04  0.25500000920E-02 0. -1.
    10030    2    1    2    0    0  0.00000000000E+00  0.00000000000E+00 -0.70858557350E+03  0.28241710072E+04  0.27338340043E+04 0.  0.
        3    1    3    3  502    0 -0.28737685234E+01  0.42700808874E+03 -0.16957067429E+04  0.17486467724E+04  0.10100000352E+00 0. -1.
       -3    1    3    3    0  502  0.28737685234E+01 -0.42700808874E+03  0.98712116940E+03  0.10755242348E+04  0.10100000352E+00 0.  1.
</event>
<event>
 5   0  0.7729970E-06  0.2687042E+04  0.7818609E-02  0.8339222E-01
        2   -1    0    0  501    0  0.00000000000E+00  0.00000000000E+00  0.14937467063E+04  0.14937467063E+04  0.25500000920E-02 0.  1.
       -2   -1    0    0    0  501  0.00000000000E+00  0.00000000000E+00 -0.12084033603E+04  0.12084033603E+04  0.25500000920E-02 0. -1.
    10030    2    1    2    0    0  0.00000000000E+00  0.00000000000E+00  0.28534334597E+03  0.27021500666E+04  0.26870418972E+04 0.  0.
        4    1    3    3  502    0  0.59788730648E+03 -0.38831628165E+03  0.12878405716E+04  0.14720033005E+04  0.12699999809E+01 0.  1.
       -4    1    3    3    0  502 -0.59788730648E+03  0.38831628165E+03 -0.10024972257E+04  0.12301467661E+04  0.12699999809E+01 0. -1.
</event>
<event>
 5   0  0.3028601E-06  0.2600073E+04  0.7818609E-02  0.8368176E-01
        1   -1    0    0  501    0  0.00000000000E+00  0.00000000000E+00  0.18446464594E+04  0.18446464595E+04  0.50400001928E-02 0.  1.
       -1   -1    0    0    0  501  0.00000000000E+00  0.00000000000E+00 -0.91621628075E+03  0.91621628076E+03  0.50400001928E-02 0. -1.
    10030    2    1    2    0    0  0.00000000000E+00  0.00000000000E+00  0.92843017870E+03  0.27608627402E+04  0.26000731670E+04 0.  0.
        3    1    3    3  502    0 -0.91689731524E+03 -0.48952608128E+03 -0.36494468895E+03  0.11015993406E+04  0.10100000352E+00 0. -1.
       -3    1    3    3    0  502  0.91689731524E+03  0.48952608128E+03  0.12933748676E+04  0.16592633996E+04  0.10100000352E+00 0.  1.
</event>
<event>
 5   0  0.3046300E-06  0.2507255E+04  0.7818609E-02  0.8400406E-01
       -1   -1    0    0    0  501  0.00000000000E+00  0.00000000000E+00  0.87219662683E+03  0.87219662684E+03  0.50400001928E-02 0.  1.
        1   -1    0    0  501    0  0.00000000000E+00  0.00000000000E+00 -0.18018658181E+04  0.18018658181E+04  0.50400001928E-02 0. -1.
    10030    2    1    2    0    0  0.00000000000E+00  0.00000000000E+00 -0.92966919129E+03  0.26740624450E+04  0.25072545053E+04 0.  0.
        2    1    3    3  502    0 -0.22403997031E+03 -0.79986309132E+03  0.53657211020E+03  0.98888042887E+03  0.25500000920E-02 0.  1.
       -2    1    3    3    0  502  0.22403997031E+03  0.79986309132E+03 -0.14662413015E+04  0.16851820161E+04  0.25500000920E-02 0. -1.
</event>
<event>
 5   0  0.3089218E-06  0.2652563E+04  0.7818609E-02  0.8350563E-01
        1   -1    0    0  501    0  0.00000000000E+00  0.00000000000E+00  0.96725173498E+03  0.96725173499E+03  0.50400001928E-02 0. -1.
       -1   -1    0    0    0  501  0.00000000000E+00  0.00000000000E+00 -0.18185783552E+04  0.18185783552E+04  0.50400001928E-02 0.  1.
    10030    2    1    2    0    0  0.00000000000E+00  0.00000000000E+00 -0.85132662022E+03  0.27858300902E+04  0.26525633408E+04 0.  0.
        5    1    3    3  502    0 -0.98214104097E+03  0.62793627390E+03 -0.10899735724E+04  0.15959227635E+04  0.46999998093E+01 0.  1.
       -5    1    3    3    0  502  0.98214104097E+03 -0.62793627390E+03  0.23864695217E+03  0.11899073267E+04  0.46999998093E+01 0. -1.
</event>
<event>
 5   0  0.7729970E-06  0.2684856E+04  0.7818609E-02  0.8339936E-01
        2   -1    0    0  501    0  0.00000000000E+00  0.00000000000E+00  0.23742396323E+04  0.23742396323E+04  0.25500000920E-02 0. -1.
       -2   -1    0    0    0  501  0.00000000000E+00  0.00000000000E+00 -0.75902727072E+03  0.75902727072E+03  0.25500000920E-02 0.  1.
    10030    2    1    2    0    0  0.00000000000E+00  0.00000000000E+00  0.16152123616E+04  0.31332669031E+04  0.26848557713E+04 0.  0.
        4    1    3    3  502    0  0.48598238592E+03  0.18910928144E+03 -0.63599173359E+03  0.82245261131E+03  0.12699999809E+01 0.  1.
       -4    1    3    3    0  502 -0.48598238592E+03 -0.18910928144E+03  0.22512040952E+04  0.23108142918E+04  0.12699999809E+01 0. -1.
</event>
<event>
 5   0  0.3199840E-06  0.2680200E+04  0.7818609E-02  0.8341458E-01
        1   -1    0    0  501    0  0.00000000000E+00  0.00000000000E+00  0.18685480441E+04  0.18685480441E+04  0.50400001928E-02 0. -1.
       -1   -1    0    0    0  501  0.00000000000E+00  0.00000000000E+00 -0.96110314900E+03  0.96110314901E+03  0.50400001928E-02 0.  1.
    10030    2    1    2    0    0  0.00000000000E+00  0.00000000000E+00  0.90744489511E+03  0.28296511931E+04  0.26801995517E+04 0.  0.
        1    1    3    3  502    0  0.84425740575E+03  0.56060245658E+03 -0.47199531718E+03  0.11179558403E+04  0.50400001928E-02 0.  1.
       -1    1    3    3    0  502 -0.84425740575E+03 -0.56060245658E+03  0.13794402123E+04  0.17116953528E+04  0.50400001928E-02 0. -1.
</event>
<event>
 5   0  0.3089218E-06  0.2671389E+04  0.7818609E-02  0.8344348E-01
        1   -1    0    0  501    0  0.00000000000E+00  0.00000000000E+00  0.16921905320E+04  0.16921905320E+04  0.50400001928E-02 0. -1.
       -1   -1    0    0    0  501  0.00000000000E+00  0.00000000000E+00 -0.10543020779E+04  0.10543020779E+04  0.50400001928E-02 0.  1.
    10030    2    1    2    0    0  0.00000000000E+00  0.00000000000E+00  0.63788845405E+03  0.27464926099E+04  0.26713891473E+04 0.  0.
        5    1    3    3  502    0 -0.10241413821E+04 -0.65223988384E+03 -0.25327808525E+03  0.12403444341E+04  0.46999998093E+01 0.  1.
       -5    1    3    3    0  502  0.10241413821E+04  0.65223988384E+03  0.89116653929E+03  0.15061481758E+04  0.46999998093E+01 0. -1.
</event>
<event>
 5   0  0.3199840E-06  0.2694532E+04  0.7818609E-02  0.8336781E-01
       -1   -1    0    0    0  501  0.00000000000E+00  0.00000000000E+00  0.14168916862E+04  0.14168916862E+04  0.50400001928E-02 0.  1.
        1   -1    0    0  501    0  0.00000000000E+00  0.00000000000E+00 -0.12810617859E+04  0.12810617859E+04  0.50400001928E-02 0. -1.
    10030    2    1    2    0    0  0.00000000000E+00  0.00000000000E+00  0.13582990037E+03  0.26979534721E+04  0.26945320885E+04 0.  0.
        1    1    3    3  502    0  0.12741224986E+04 -0.33579045960E+03  0.34930990942E+03  0.13631437147E+04  0.50400001928E-02 0.  1.
       -1    1    3    3    0  502 -0.12741224986E+04  0.33579045960E+03 -0.21348000905E+03  0.13348097574E+04  0.50400001928E-02 0. -1.
</event>
<event>
 5   0  0.3046300E-06  0.2706543E+04  0.7818609E-02  0.8332885E-01
        1   -1    0    0  501    0  0.00000000000E+00  0.00000000000E+00  0.10039947841E+04  0.10039947841E+04  0.50400001928E-02 0.  1.
       -1   -1    0    0    0  501  0.00000000000E+00  0.00000000000E+00 -0.18240575745E+04  0.18240575745E+04  0.50400001928E-02 0. -1.
    10030    2    1    2    0    0  0.00000000000E+00  0.00000000000E+00 -0.82006279038E+03  0.28280523585E+04  0.27065433975E+04 0.  0.
        2    1    3    3  502    0  0.10676482267E+04 -0.68119906323E+03  0.88285133311E+02  0.12695271421E+04  0.25500000920E-02 0.  1.
       -2    1    3    3    0  502 -0.10676482267E+04  0.68119906323E+03 -0.90834792369E+03  0.15585252164E+04  0.25500000920E-02 0. -1.
</event>
<event>
 5   0  0.7812908E-06  0.2698085E+04  0.7818609E-02  0.8335626E-01
       -2   -1    0    0    0  501  0.00000000000E+00  0.00000000000E+00  0.81740109521E+03  0.81740109522E+03  0.25500000920E-02 0.  1.
        2   -1    0    0  501    0  0.00000000000E+00  0.00000000000E+00 -0.22264666216E+04  0.22264666216E+04  0.25500000920E-02 0. -1.
    10030    2    1    2    0    0  0.00000000000E+00  0.00000000000E+00 -0.14090655263E+04  0.30438677168E+04  0.26980854360E+04 0.  0.
        5    1    3    3  502    0  0.11218364693E+04 -0.28812364804E+03  0.75743421775E+02  0.11607288470E+04  0.46999998093E+01 0.  1.
       -5    1    3    3    0  502 -0.11218364693E+04  0.28812364804E+03 -0.14848089481E+04  0.18831388698E+04  0.46999998093E+01 0. -1.
</event>
<event>
 5   0  0.7729970E-06  0.2741849E+04  0.7818609E-02  0.8321553E-01
       -2   -1    0    0    0  501  0.00000000000E+00  0.00000000000E+00  0.12700903349E+04  0.12700903349E+04  0.25500000920E-02 0.  1.
        2   -1    0    0  501    0  0.00000000000E+00  0.00000000000E+00 -0.14797636801E+04  0.14797636801E+04  0.25500000920E-02 0. -1.
    10030    2    1    2    0    0  0.00000000000E+00  0.00000000000E+00 -0.20967334519E+03  0.27498540151E+04  0.27418486815E+04 0.  0.
        4    1    3    3  502    0  0.38037709687E+03  0.21253669494E+03  0.11987943328E+04  0.12755265767E+04  0.12699999809E+01 0.  1.
       -4    1    3    3    0  502 -0.38037709687E+03 -0.21253669494E+03 -0.14084676780E+04  0.14743274384E+04  0.12699999809E+01 0. -1.
</event>
<event>
 5   0  0.3028601E-06  0.2420443E+04  0.7818609E-02  0.8431889E-01
       -1   -1    0    0    0  501  0.00000000000E+00  0.00000000000E+00  0.12888836400E+04  0.12888836400E+04  0.50400001928E-02 0.  1.
        1   -1    0    0  501    0  0.00000000000E+00  0.00000000000E+00 -0.11363603876E+04  0.11363603876E+04  0.50400001928E-02 0. -1.
    10030    2    1    2    0    0  0.00000000000E+00  0.00000000000E+00  0.15252325238E+03  0.24252440276E+04  0.24204431931E+04 0.  0.
        3    1    3    3  502    0  0.84831975395E+03 -0.23469447266E+03 -0.75599309297E+03  0.11602816327E+04  0.10100000352E+00 0. -1.
       -3    1    3    3    0  502 -0.84831975395E+03  0.23469447266E+03  0.90851634535E+03  0.12649623949E+04  0.10100000352E+00 0.  1.
</event>
<event>
 5   0  0.3046300E-06  0.2691774E+04  0.7818609E-02  0.8337679E-01
       -1   -1    0    0    0  501  0.00000000000E+00  0.00000000000E+00  0.15520757053E+04  0.15520757054E+04  0.50400001928E-02 0.  1.
        1   -1    0    0  501    0  0.00000000000E+00  0.00000000000E+00 -0.11670896825E+04  0.11670896825E+04  0.50400001928E-02 0. -1.
    10030    2    1    2    0    0  0.00000000000E+00  0.00000000000E+00  0.38498602287E+03  0.27191653878E+04  0.26917737960E+04 0.  0.
        2    1    3    3  502    0  0.85025659484E+03 -0.39647171086E+03 -0.78235850322E+03  0.12215608549E+04  0.25500000920E-02 0. -1.
       -2    1    3    3    0  502 -0.85025659484E+03  0.39647171086E+03  0.11673445261E+04  0.14976045330E+04  0.25500000920E-02 0.  1.
</event>
<event>
 5   0  0.7729970E-06  0.2712940E+04  0.7818609E-02  0.8330819E-01
        2   -1    0    0  501    0  0.00000000000E+00  0.00000000000E+00  0.18764380635E+04  0.18764380635E+04  0.25500000920E-02 0.  1.
       -2   -1    0    0    0  501  0.00000000000E+00  0.00000000000E+00 -0.98058713989E+03  0.98058713989E+03  0.25500000920E-02 0. -1.
    10030    2    1    2    0    0  0.00000000000E+00  0.00000000000E+00  0.89585092360E+03  0.28570252034E+04  0.27129401275E+04 0.  0.
        4    1    3    3  502    0 -0.10991203452E+04  0.61453550602E+03  0.97897923983E+03  0.15950302148E+04  0.12699999809E+01 0.  1.
       -4    1    3    3    0  502  0.10991203452E+04 -0.61453550602E+03 -0.83128316229E+02  0.12619949886E+04  0.12699999809E+01 0. -1.
</event>
<event>
 5   0  0.3199840E-06  0.2669228E+04  0.7818609E-02  0.8345059E-01
        1   -1    0    0  501    0  0.00000000000E+00  0.00000000000E+00  0.11983935392E+04  0.11983935392E+04  0.50400001928E-02 0.  1.
       -1   -1    0    0    0  501  0.00000000000E+00  0.00000000000E+00 -0.14863189869E+04  0.14863189869E+04  0.50400001928E-02 0. -1.
    10030    2    1    2    0    0  0.00000000000E+00  0.00000000000E+00 -0.28792544773E+03  0.26847125261E+04  0.26692284061E+04 0.  0.
        1    1    3    3  502    0 -0.12295118724E+04 -0.47426844421E+03  0.68366291198E+02  0.13195847647E+04  0.50400001928E-02 0.  1.
       -1    1    3    3    0  502  0.12295118724E+04  0.47426844421E+03 -0.35629173893E+03  0.13651277613E+04  0.50400001928E-02 0. -1.
</event>
<event>
 5   0  0.7729970E-06  0.2703875E+04  0.7818609E-02  0.8333749E-01
       -2   -1    0    0    0  501  0.00000000000E+00  0.00000000000E+00  0.13859013917E+04  0.13859013917E+04  0.25500000920E-02 0. -1.
        2   -1    0    0  501    0  0.00000000000E+00  0.00000000000E+00 -0.13188059447E+04  0.13188059448E+04  0.25500000920E-02 0.  1.
    10030    2    1    2    0    0  0.00000000000E+00  0.00000000000E+00  0.67095446995E+02  0.27047073365E+04  0.27038749929E+04 0.  0.
        4    1    3    3  502    0 -0.11271261130E+04  0.69386049378E+03  0.30909163027E+03  0.13591890627E+04  0.12699999809E+01 0. -1.
       -4    1    3    3    0  502  0.11271261130E+04 -0.69386049378E+03 -0.24199618328E+03  0.13455182738E+04  0.12699999809E+01 0.  1.
</event>
<event>
 5   0  0.3199840E-06  0.2704428E+04  0.7818609E-02  0.8333570E-01
        1   -1    0    0  501    0  0.00000000000E+00  0.00000000000E+00  0.15486538539E+04  0.15486538539E+04  0.50400001928E-02 0.  1.
       -1   -1    0    0    0  501  0.00000000000E+00  0.00000000000E+00 -0.11806915823E+04  0.11806915823E+04  0.50400001928E-02 0. -1.
    10030    2    1    2    0    0  0.00000000000E+00  0.00000000000E+00  0.36796227157E+03  0.27293454362E+04  0.27044279019E+04 0.  0.
        1    1    3    3  502    0 -0.64909580372E+03  0.88831838348E+03  0.97738457568E+03  0.14716370210E+04  0.50400001928E-02 0.  1.
       -1    1    3    3    0  502  0.64909580372E+03 -0.88831838348E+03 -0.60942230411E+03  0.12577084152E+04  0.50400001928E-02 0. -1.
</event>
<event>
 5   0  0.3199840E-06  0.2711505E+04  0.7818609E-02  0.8331282E-01
       -1   -1    0    0    0  501  0.00000000000E+00  0.00000000000E+00  0.14317263420E+04  0.14317263421E+04  0.50400001928E-02 0. -1.
        1   -1    0    0  501    0  0.00000000000E+00  0.00000000000E+00 -0.12838103997E+04  0.12838103997E+04  0.50400001928E-02 0.  1.
    10030    2    1    2    0    0  0.00000000000E+00  0.00000000000E+00  0.14791594232E+03  0.27155367418E+04  0.27115052406E+04 0.  0.
        1    1    3    3  502    0 -0.10323558957E+04  0.87798905715E+03  0.11198398695E+03  0.13598396572E+04  0.50400001928E-02 0. -1.
       -1    1    3    3    0  502  0.10323558957E+04 -0.87798905715E+03  0.35931955367E+02  0.13556970846E+04  0.50400001928E-02 0.  1.
</event>
<event>
 5   0  0.7812908E-06  0.2729035E+04  0.7818609E-02  0.8325645E-01
        2   -1    0    0  501    0  0.00000000000E+00  0.00000000000E+00  0.15161243706E+04  0.15161243706E+04  0.25500000920E-02 0.  1.
       -2   -1    0    0    0  501  0.00000000000E+00  0.00000000000E+00 -0.12280705521E+04  0.12280705521E+04  0.25500000920E-02 0. -1.
    10030    2    1    2    0    0  0.00000000000E+00  0.00000000000E+00  0.28805381857E+03  0.27441949227E+04  0.27290347692E+04 0.  0.
        5    1    3    3  502    0  0.64978179118E+03 -0.75160566125E+03  0.10845076101E+04  0.14708182391E+04  0.46999998093E+01 0.  1.
       -5    1    3    3    0  502 -0.64978179118E+03  0.75160566125E+03 -0.79645379154E+03  0.12733766836E+04  0.46999998093E+01 0. -1.
</event>
<event>
 5   0  0.3089218E-06  0.2688044E+04  0.7818609E-02  0.8338895E-01
       -1   -1    0    0    0  501  0.00000000000E+00  0.00000000000E+00  0.12999644213E+04  0.12999644213E+04  0.50400001928E-02 0.  1.
        1   -1    0    0  501    0  0.00000000000E+00  0.00000000000E+00 -0.13895722803E+04  0.13895722803E+04  0.50400001928E-02 0. -1.
    10030    2    1    2    0    0  0.00000000000E+00  0.00000000000E+00 -0.89607858969E+02  0.26895367017E+04  0.26880435453E+04 0.  0.
        5    1    3    3  502    0 -0.17255430777E+03 -0.11228994377E+04  0.67371355444E+03  0.13208293530E+04  0.46999998093E+01 0.  1.
       -5    1    3    3    0  502  0.17255430777E+03  0.11228994377E+04 -0.76332141341E+03  0.13687073487E+04  0.46999998093E+01 0. -1.
</event>
<event>
 5   0  0.8213334E-06  0.2690687E+04  0.7818609E-02  0.8338033E-01
        2   -1    0    0  501    0  0.00000000000E+00  0.00000000000E+00  0.18742861163E+04  0.18742861163E+04  0.25500000920E-02 0.  1.
       -2   -1    0    0    0  501  0.00000000000E+00  0.00000000000E+00 -0.96567361008E+03  0.96567361009E+03  0.25500000920E-02 0. -1.
    10030    2    1    2    0    0  0.00000000000E+00  0.00000000000E+00  0.90861250618E+03  0.28399597264E+04  0.26906866337E+04 0.  0.
        3    1    3    3  502    0 -0.47063854658E+03 -0.11543800142E+04  0.98818891866E+03  0.15907894920E+04  0.10100000352E+00 0.  1.
       -3    1    3    3    0  502  0.47063854658E+03  0.11543800142E+04 -0.79576412483E+02  0.12491702343E+04  0.10100000352E+00 0. -1.
</event>
<event>
 5   0  0.7729970E-06  0.2701229E+04  0.7818609E-02  0.8334606E-01
       -2   -1    0    0    0  501  0.00000000000E+00  0.00000000000E+00  0.10409207628E+04  0.10409207628E+04  0.25500000920E-02 0. -1.
        2   -1    0    0  501    0  0.00000000000E+00  0.00000000000E+00 -0.17524484545E+04  0.17524484545E+04  0.25500000920E-02 0.  1.
    10030    2    1    2    0    0  0.00000000000E+00  0.00000000000E+00 -0.71152769169E+03  0.27933692173E+04  0.27012293365E+04 0.  0.
        4    1    3    3  502    0 -0.55741635587E+03  0.12299393009E+04 -0.32850779927E+03  0.13897419418E+04  0.12699999809E+01 0. -1.
       -4    1    3    3    0  502  0.55741635587E+03 -0.12299393009E+04 -0.38301989242E+03  0.14036272755E+04  0.12699999809E+01 0.  1.
</event>
<event>
 5   0  0.8213334E-06  0.2699514E+04  0.7818609E-02  0.8335163E-01
       -2   -1    0    0    0  501  0.00000000000E+00  0.00000000000E+00  0.75202810286E+03  0.75202810287E+03  0.25500000920E-02 0.  1.
        2   -1    0    0  501    0  0.00000000000E+00  0.00000000000E+00 -0.24225748293E+04  0.24225748293E+04  0.25500000920E-02 0. -1.
    10030    2    1    2    0    0  0.00000000000E+00  0.00000000000E+00 -0.16705467264E+04  0.31746029321E+04  0.26995142918E+04 0.  0.
        3    1    3    3  502    0  0.45873528085E+03  0.25363040975E+03  0.62744216916E+03  0.81758799434E+03  0.10100000352E+00 0.  1.
       -3    1    3    3    0  502 -0.45873528085E+03 -0.25363040975E+03 -0.22979888956E+04  0.23570149378E+04  0.10100000352E+00 0. -1.
</event>
<event>
 5   0  0.8407622E-06  0.2693107E+04  0.7818609E-02  0.8337245E-01
       -2   -1    0    0    0  501  0.00000000000E+00  0.00000000000E+00  0.15234749634E+04  0.15234749635E+04  0.25500000920E-02 0.  1.
        2   -1    0    0  501    0  0.00000000000E+00  0.00000000000E+00 -0.11901781100E+04  0.11901781100E+04  0.25500000920E-02 0. -1.
    10030    2    1    2    0    0  0.00000000000E+00  0.00000000000E+00  0.33329685346E+03  0.27136530734E+04  0.26931071665E+04 0.  0.
        1    1    3    3  502    0 -0.11322246780E+04 -0.15504879109E+03 -0.55098843835E+03  0.12686847947E+04  0.50400001928E-02 0. -1.
       -1    1    3    3    0  502  0.11322246780E+04  0.15504879109E+03  0.88428529180E+03  0.14449682787E+04  0.50400001928E-02 0.  1.
</event>
<event>
 5   0  0.3046300E-06  0.2708724E+04  0.7818609E-02  0.8332180E-01
       -1   -1    0    0    0  501  0.00000000000E+00  0.00000000000E+00  0.12443622128E+04  0.12443622128E+04  0.50400001928E-02 0.  1.
        1   -1    0    0  501    0  0.00000000000E+00  0.00000000000E+00 -0.14740857064E+04  0.14740857065E+04  0.50400001928E-02 0. -1.
    10030    2    1    2    0    0  0.00000000000E+00  0.00000000000E+00 -0.22972349363E+03  0.27184479193E+04  0.27087240920E+04 0.  0.
        2    1    3    3  502    0 -0.47244738868E+03  0.62207348568E+03 -0.12252306350E+04  0.14530561123E+04  0.25500000920E-02 0. -1.
       -2    1    3    3    0  502  0.47244738868E+03 -0.62207348568E+03  0.99550714135E+03  0.12653918070E+04  0.25500000920E-02 0.  1.
</event>
<event>
 5   0  0.3013407E-06  0.2697550E+04  0.7818609E-02  0.8335800E-01
        1   -1    0    0  501    0  0.00000000000E+00  0.00000000000E+00  0.11120272876E+04  0.11120272876E+04  0.50400001928E-02 0. -1.
       -1   -1    0    0    0  501  0.00000000000E+00  0.00000000000E+00 -0.16359256629E+04  0.16359256629E+04  0.50400001928E-02 0.  1.
    10030    2    1    2    0    0  0.00000000000E+00  0.00000000000E+00 -0.52389837525E+03  0.27479529505E+04  0.26975499830E+04 0.  0.
        4    1    3    3  502    0 -0.63263429804E+03 -0.38471290673E+03 -0.14103833618E+04  0.15929259292E+04  0.12699999809E+01 0.  1.
       -4    1    3    3    0  502  0.63263429804E+03  0.38471290673E+03  0.88648498659E+03  0.11550270213E+04  0.12699999809E+01 0. -1.
</event>
<event>
 5   0  0.7812908E-06  0.2699539E+04  0.7818609E-02  0.8335154E-01
       -2   -1    0    0    0  501  0.00000000000E+00  0.00000000000E+00  0.16821518768E+04  0.16821518768E+04  0.25500000920E-02 0.  1.
        2   -1    0    0  501    0  0.00000000000E+00  0.00000000000E+00 -0.10830641072E+04  0.10830641072E+04  0.25500000920E-02 0. -1.
    10030    2    1    2    0    0  0.00000000000E+00  0.00000000000E+00  0.59908776956E+03  0.27652159840E+04  0.26995394575E+04 0.  0.
        5    1    3    3  502    0 -0.82955433892E+03  0.31192856696E+03  0.13423470159E+04  0.16085326957E+04  0.46999998093E+01 0.  1.
       -5    1    3    3    0  502  0.82955433892E+03 -0.31192856696E+03 -0.74325924635E+03  0.11566832883E+04  0.46999998093E+01 0. -1.
</event>
<event>
 5   0  0.3199840E-06  0.2714608E+04  0.7818609E-02  0.8330281E-01
       -1   -1    0    0    0  501  0.00000000000E+00  0.00000000000E+00  0.11194088612E+04  0.11194088612E+04  0.50400001928E-02 0.  1.
        1   -1    0    0  501    0  0.00000000000E+00  0.00000000000E+00 -0.16457561469E+04  0.16457561469E+04  0.50400001928E-02 0. -1.
    10030    2    1    2    0    0  0.00000000000E+00  0.00000000000E+00 -0.52634728574E+03  0.27651650081E+04  0.27146079011E+04 0.  0.
        1    1    3    3  502    0  0.25361382649E+03  0.11574754079E+04 -0.93747257187E+03  0.15109348483E+04  0.50400001928E-02 0. -1.
       -1    1    3    3    0  502 -0.25361382649E+03 -0.11574754079E+04  0.41112528613E+03  0.12542301598E+04  0.50400001928E-02 0.  1.
</event>
<event>
 5   0  0.3013407E-06  0.2698360E+04  0.7818609E-02  0.8335537E-01
        1   -1    0    0  501    0  0.00000000000E+00  0.00000000000E+00  0.18207757580E+04  0.18207757580E+04  0.50400001928E-02 0.  1.
       -1   -1    0    0    0  501  0.00000000000E+00  0.00000000000E+00 -0.99973135812E+03  0.99973135813E+03  0.50400001928E-02 0. -1.
    10030    2    1    2    0    0  0.00000000000E+00  0.00000000000E+00  0.82104439988E+03  0.28205071161E+04  0.26983599622E+04 0.  0.
        4    1    3    3  502    0  0.45291873264E+03 -0.14738659618E+03  0.17299735357E+04  0.17943433992E+04  0.12699999809E+01 0.  1.
       -4    1    3    3    0  502 -0.45291873264E+03  0.14738659618E+03 -0.90892913582E+03  0.10261637169E+04  0.12699999809E+01 0. -1.
</event>
<event>
 5   0  0.3089218E-06  0.2473029E+04  0.7818609E-02  0.8412658E-01
        1   -1    0    0  501    0  0.00000000000E+00  0.00000000000E+00  0.17275662359E+04  0.17275662359E+04  0.50400001928E-02 0.  1.
       -1   -1    0    0    0  501  0.00000000000E+00  0.00000000000E+00 -0.88504150944E+03  0.88504150946E+03  0.50400001928E-02 0. -1.
    10030    2    1    2    0    0  0.00000000000E+00  0.00000000000E+00  0.84252472643E+03  0.26126077453E+04  0.24730287739E+04 0.  0.
        5    1    3    3  502    0 -0.82145349028E+02  0.83930528287E+03 -0.53408030154E+03  0.99822095486E+03  0.46999998093E+01 0. -1.
       -5    1    3    3    0  502  0.82145349028E+02 -0.83930528287E+03  0.13766050280E+04  0.16143867905E+04  0.46999998093E+01 0.  1.
</event>
<event>
 5   0  0.7729970E-06  0.2723715E+04  0.7818609E-02  0.8327351E-01
       -2   -1    0    0    0  501  0.00000000000E+00  0.00000000000E+00  0.13556147855E+04  0.13556147855E+04  0.25500000920E-02 0. -1.
        2   -1    0    0  501    0  0.00000000000E+00  0.00000000000E+00 -0.13681286686E+04  0.13681286686E+04  0.25500000920E-02 0.  1.
    10030    2    1    2    0    0  0.00000000000E+00  0.00000000000E+00 -0.12513883077E+02  0.27237434542E+04  0.27237147073E+04 0.  0.
        4    1    3    3  502    0  0.12962823692E+04  0.25034505802E+03  0.32786214876E+03  0.13603366606E+04  0.12699999809E+01 0. -1.
       -4    1    3    3    0  502 -0.12962823692E+04 -0.25034505802E+03 -0.34037603184E+03  0.13634067935E+04  0.12699999809E+01 0.  1.
</event>
<event>
 5   0  0.3199840E-06  0.2712672E+04  0.7818609E-02  0.8330905E-01
        1   -1    0    0  501    0  0.00000000000E+00  0.00000000000E+00  0.19877441901E+04  0.19877441901E+04  0.50400001928E-02 0.  1.
       -1   -1    0    0    0  501  0.00000000000E+00  0.00000000000E+00 -0.92549510514E+03  0.92549510515E+03  0.50400001928E-02 0. -1.
    10030    2    1    2    0    0  0.00000000000E+00  0.00000000000E+00  0.10622490850E+04  0.29132392953E+04  0.27126721278E+04 0.  0.
        1    1    3    3  502    0 -0.94265485799E+02  0.80874697942E+03  0.16960814467E+04  0.18813957405E+04  0.50400001928E-02 0.  1.
       -1    1    3    3    0  502  0.94265485799E+02 -0.80874697942E+03 -0.63383236178E+03  0.10318435547E+04  0.50400001928E-02 0. -1.
</event>
<event>
 5   0  0.7838364E-06  0.2734911E+04  0.7818609E-02  0.8323766E-01
       -2   -1    0    0    0  501  0.00000000000E+00  0.00000000000E+00  0.10438178885E+04  0.10438178885E+04  0.25500000920E-02 0. -1.
        2   -1    0    0  501    0  0.00000000000E+00  0.00000000000E+00 -0.17914371633E+04  0.17914371633E+04  0.25500000920E-02 0.  1.
    10030    2    1    2    0    0  0.00000000000E+00  0.00000000000E+00 -0.74761927483E+03  0.28352550518E+04  0.27349107167E+04 0.  0.
        2    1    3    3  502    0  0.47691823927E+03  0.51149657884E+03  0.84440250498E+03  0.10964010888E+04  0.25500000920E-02 0. -1.
       -2    1    3    3    0  502 -0.47691823927E+03 -0.51149657884E+03 -0.15920217798E+04  0.17388539630E+04  0.25500000920E-02 0.  1.
</event>
<event>
 5   0  0.7812908E-06  0.2683278E+04  0.7818609E-02  0.8340451E-01
        2   -1    0    0  501    0  0.00000000000E+00  0.00000000000E+00  0.12259086213E+04  0.12259086213E+04  0.25500000920E-02 0.  1.
       -2   -1    0    0    0  501  0.00000000000E+00  0.00000000000E+00 -0.14682947237E+04  0.14682947237E+04  0.25500000920E-02 0. -1.
    10030    2    1    2    0    0  0.00000000000E+00  0.00000000000E+00 -0.24238610239E+03  0.26942033450E+04  0.26832779658E+04 0.  0.
        5    1    3    3  502    0 -0.13373010502E+04 -0.95821148766E+02 -0.17055906882E+03  0.13515429247E+04  0.46999998093E+01 0.  1.
       -5    1    3    3    0  502  0.13373010502E+04  0.95821148766E+02 -0.71827033566E+02  0.13426604203E+04  0.46999998093E+01 0. -1.
</event>
<event>
 5   0  0.3028601E-06  0.2712801E+04  0.7818609E-02  0.8330863E-01
        1   -1    0    0  501    0  0.00000000000E+00  0.00000000000E+00  0.19449583847E+04  0.19449583847E+04  0.50400001928E-02 0. -1.
       -1   -1    0    0    0  501  0.00000000000E+00  0.00000000000E+00 -0.94594415751E+03  0.94594415752E+03  0.50400001928E-02 0.  1.
    10030    2    1    2    0    0  0.00000000000E+00  0.00000000000E+00  0.99901422719E+03  0.28909025422E+04  0.27128007819E+04 0.  0.
        3    1    3    3  502    0 -0.10419840668E+04 -0.76129669371E+03  0.94468784475E+03  0.15992931518E+04  0.10100000352E+00 0. -1.
       -3    1    3    3    0  502  0.10419840668E+04  0.76129669371E+03  0.54326382437E+02  0.12916093904E+04  0.10100000352E+00 0.  1.
</event>
<event>
 5   0  0.3089218E-06  0.2798832E+04  0.7818609E-02  0.8303631E-01
       -1   -1    0    0    0  501  0.00000000000E+00  0.00000000000E+00  0.74335737145E+03  0.74335737146E+03  0.50400001928E-02 0.  1.
        1   -1    0    0  501    0  0.00000000000E+00  0.00000000000E+00 -0.26344870563E+04  0.26344870563E+04  0.50400001928E-02 0. -1.
    10030    2    1    2    0    0  0.00000000000E+00  0.00000000000E+00 -0.18911296849E+04  0.33778444278E+04  0.27988321660E+04 0.  0.
        5    1    3    3  502    0  0.57224316943E+03  0.18494925975E+01  0.59568651935E+03  0.82603279893E+03  0.46999998093E+01 0.  1.
       -5    1    3    3    0  502 -0.57224316943E+03 -0.18494925975E+01 -0.24868162042E+04  0.25518116289E+04  0.46999998093E+01 0. -1.
</event>
<event>
 5   0  0.7838364E-06  0.2770136E+04  0.7818609E-02  0.8312600E-01
        2   -1    0    0  501    0  0.00000000000E+00  0.00000000000E+00  0.21861832140E+04  0.21861832140E+04  0.25500000920E-02 0.  1.
       -2   -1    0    0    0  501  0.00000000000E+00  0.00000000000E+00 -0.87751693314E+03  0.87751693315E+03  0.25500000920E-02 0. -1.
    10030    2    1    2    0    0  0.00000000000E+00  0.00000000000E+00  0.13086662809E+04  0.30637001471E+04  0.27701355846E+04 0.  0.
        2    1    3    3  502    0 -0.18503453144E+03  0.10557542496E+04  0.16245434900E+04  0.19462775661E+04  0.25500000920E-02 0.  1.
       -2    1    3    3    0  502  0.18503453144E+03 -0.10557542496E+04 -0.31587720913E+03  0.11174225811E+04  0.25500000920E-02 0. -1.
</event>
<event>
 5   0  0.3013407E-06  0.2698722E+04  0.7818609E-02  0.8335420E-01
       -1   -1    0    0    0  501  0.00000000000E+00  0.00000000000E+00  0.23111992996E+04  0.23111992996E+04  0.50400001928E-02 0. -1.
        1   -1    0    0  501    0  0.00000000000E+00  0.00000000000E+00 -0.78780527239E+03  0.78780527241E+03  0.50400001928E-02 0.  1.
    10030    2    1    2    0    0  0.00000000000E+00  0.00000000000E+00  0.15233940273E+04  0.30990045721E+04  0.26987219152E+04 0.  0.
        4    1    3    3  502    0  0.59533181422E+03  0.18955075846E+03 -0.61170115337E+03  0.87437370329E+03  0.12699999809E+01 0.  1.
       -4    1    3    3    0  502 -0.59533181422E+03 -0.18955075846E+03  0.21350951806E+04  0.22246308688E+04  0.12699999809E+01 0. -1.
</event>
<event>
 5   0  0.8213334E-06  0.2713495E+04  0.7818609E-02  0.8330639E-01
        2   -1    0    0  501    0  0.00000000000E+00  0.00000000000E+00  0.22437362696E+04  0.22437362696E+04  0.25500000920E-02 0.  1.
       -2   -1    0    0    0  501  0.00000000000E+00  0.00000000000E+00 -0.82040135250E+03  0.82040135250E+03  0.25500000920E-02 0. -1.
    10030    2    1    2    0    0  0.00000000000E+00  0.00000000000E+00  0.14233349171E+04  0.30641376221E+04  0.27134953622E+04 0.  0.
        3    1    3    3  502    0  0.93450568120E+03 -0.33127554396E+03 -0.33414046561E+03  0.10462763570E+04  0.10100000352E+00 0. -1.
       -3    1    3    3    0  502 -0.93450568120E+03  0.33127554396E+03  0.17574753827E+04  0.20178612651E+04  0.10100000352E+00 0.  1.
</event>
<event>
 5   0  0.7812908E-06  0.2697579E+04  0.7818609E-02  0.8335791E-01
        2   -1    0    0  501    0  0.00000000000E+00  0.00000000000E+00  0.11085652342E+04  0.11085652342E+04  0.25500000920E-02 0. -1.
       -2   -1    0    0    0  501  0.00000000000E+00  0.00000000000E+00 -0.16410694813E+04  0.16410694813E+04  0.25500000920E-02 0.  1.
    10030    2    1    2    0    0  0.00000000000E+00  0.00000000000E+00 -0.53250424718E+03  0.27496347155E+04  0.26975785986E+04 0.  0.
        5    1    3    3  502    0 -0.60355204371E+03  0.10470215026E+04  0.34420521006E+03  0.12565939730E+04  0.46999998093E+01 0. -1.
       -5    1    3    3    0  502  0.60355204371E+03 -0.10470215026E+04 -0.87670945725E+03  0.14930407425E+04  0.46999998093E+01 0.  1.
</event>
<event>
 5   0  0.7729970E-06  0.2693566E+04  0.7818609E-02  0.8337096E-01
       -2   -1    0    0    0  501  0.00000000000E+00  0.00000000000E+00  0.10642552679E+04  0.10642552679E+04  0.25500000920E-02 0.  1.
        2   -1    0    0  501    0  0.00000000000E+00  0.00000000000E+00 -0.17043133701E+04  0.17043133701E+04  0.25500000920E-02 0. -1.
    10030    2    1    2    0    0  0.00000000000E+00  0.00000000000E+00 -0.64005810219E+03  0.27685686380E+04  0.26935660247E+04 0.  0.
        4    1    3    3  502    0 -0.71467223045E+03 -0.48328314684E+03 -0.13829937705E+04  0.16300283369E+04  0.12699999809E+01 0. -1.
       -4    1    3    3    0  502  0.71467223045E+03  0.48328314684E+03  0.74293566833E+03  0.11385403011E+04  0.12699999809E+01 0.  1.
</event>
<event>
 5   0  0.3013407E-06  0.2707965E+04  0.7818609E-02  0.8332425E-01
        1   -1    0    0  501    0  0.00000000000E+00  0.00000000000E+00  0.17926670323E+04  0.17926670323E+04  0.50400001928E-02 0. -1.
       -1   -1    0    0    0  501  0.00000000000E+00  0.00000000000E+00 -0.10226488053E+04  0.10226488053E+04  0.50400001928E-02 0.  1.
    10030    2    1    2    0    0  0.00000000000E+00  0.00000000000E+00  0.77001822698E+03  0.28153158376E+04  0.27079651392E+04 0.  0.
        4    1    3    3  502    0  0.60341855240E+03 -0.11198898825E+03  0.16397554945E+04  0.17508441328E+04  0.12699999809E+01 0. -1.
       -4    1    3    3    0  502 -0.60341855240E+03  0.11198898825E+03 -0.86973726749E+03  0.10644717048E+04  0.12699999809E+01 0.  1.
</event>
<event>
 5   0  0.8407622E-06  0.2805308E+04  0.7818609E-02  0.8301622E-01
        2   -1    0    0  501    0  0.00000000000E+00  0.00000000000E+00  0.14244890664E+04  0.14244890664E+04  0.25500000920E-02 0. -1.
       -2   -1    0    0    0  501  0.00000000000E+00  0.00000000000E+00 -0.13811532004E+04  0.13811532004E+04  0.25500000920E-02 0.  1.
    10030    2    1    2    0    0  0.00000000000E+00  0.00000000000E+00  0.43335865938E+02  0.28056422668E+04  0.28053075646E+04 0.  0.
        1    1    3    3  502    0 -0.11767211414E+04  0.64368907007E+03  0.43211837150E+03  0.14091609385E+04  0.50400001928E-02 0.  1.
       -1    1    3    3    0  502  0.11767211414E+04 -0.64368907007E+03 -0.38878250556E+03  0.13964813283E+04  0.50400001928E-02 0. -1.
</event>
<event>
 5   0  0.3199840E-06  0.2679872E+04  0.7818609E-02  0.8341566E-01
       -1   -1    0    0    0  501  0.00000000000E+00  0.00000000000E+00  0.11571919380E+04  0.11571919380E+04  0.50400001928E-02 0.  1.
        1   -1    0    0  501    0  0.00000000000E+00  0.00000000000E+00 -0.15515388088E+04  0.15515388088E+04  0.50400001928E-02 0. -1.
    10030    2    1    2    0    0  0.00000000000E+00  0.00000000000E+00 -0.39434687073E+03  0.27087307468E+04  0.26798717888E+04 0.  0.
        1    1    3    3  502    0  0.77299057807E+03 -0.25942217064E+03 -0.12719272165E+04  0.15108319365E+04  0.50400001928E-02 0. -1.
       -1    1    3    3    0  502 -0.77299057807E+03  0.25942217064E+03  0.87758034574E+03  0.11978988103E+04  0.50400001928E-02 0.  1.
</event>
<event>
 5   0  0.7729970E-06  0.2601608E+04  0.7818609E-02  0.8367655E-01
        2   -1    0    0  501    0  0.00000000000E+00  0.00000000000E+00  0.10431948205E+04  0.10431948205E+04  0.25500000920E-02 0.  1.
       -2   -1    0    0    0  501  0.00000000000E+00  0.00000000000E+00 -0.16220274193E+04  0.16220274194E+04  0.25500000920E-02 0. -1.
    10030    2    1    2    0    0  0.00000000000E+00  0.00000000000E+00 -0.57883259882E+03  0.26652222399E+04  0.26016076588E+04 0.  0.
        4    1    3    3  502    0  0.10340396076E+03 -0.45440041526E+03  0.95474130445E+03  0.10624051430E+04  0.12699999809E+01 0.  1.
       -4    1    3    3    0  502 -0.10340396076E+03  0.45440041526E+03 -0.15335739033E+04  0.16028170969E+04  0.12699999809E+01 0. -1.
</event>
<event>
 5   0  0.3199840E-06  0.2716720E+04  0.7818609E-02  0.8329600E-01
        1   -1    0    0  501    0  0.00000000000E+00  0.00000000000E+00  0.17578359188E+04  0.17578359188E+04  0.50400001928E-02 0.  1.
       -1   -1    0    0    0  501  0.00000000000E+00  0.00000000000E+00 -0.10496667984E+04  0.10496667984E+04  0.50400001928E-02 0. -1.
    10030    2    1    2    0    0  0.00000000000E+00  0.00000000000E+00  0.70816912045E+03  0.28075027172E+04  0.27167200820E+04 0.  0.
        1    1    3    3  502    0 -0.13532487007E+04  0.11101518358E+03  0.39458055632E+03  0.14139661355E+04  0.50400001928E-02 0.  1.
       -1    1    3    3    0  502  0.13532487007E+04 -0.11101518358E+03  0.31358856413E+03  0.13935365817E+04  0.50400001928E-02 0. -1.
</event>
<event>
 5   0  0.7812908E-06  0.2709264E+04  0.7818609E-02  0.8332005E-01
       -2   -1    0    0    0  501  0.00000000000E+00  0.00000000000E+00  0.15955072269E+04  0.15955072269E+04  0.25500000920E-02 0.  1.
        2   -1    0    0  501    0  0.00000000000E+00  0.00000000000E+00 -0.11501221560E+04  0.11501221560E+04  0.25500000920E-02 0. -1.
    10030    2    1    2    0    0  0.00000000000E+00  0.00000000000E+00  0.44538507087E+03  0.27456293828E+04  0.27092642630E+04 0.  0.
        5    1    3    3  502    0 -0.88632507394E+03  0.21056641577E+03  0.12386938456E+04  0.15376263803E+04  0.46999998093E+01 0.  1.
       -5    1    3    3    0  502  0.88632507394E+03 -0.21056641577E+03 -0.79330877475E+03  0.12080030026E+04  0.46999998093E+01 0. -1.
</event>
<event>
 5   0  0.7812908E-06  0.2692913E+04  0.7818609E-02  0.8337308E-01
       -2   -1    0    0    0  501  0.00000000000E+00  0.00000000000E+00  0.20729090983E+04  0.20729090984E+04  0.25500000920E-02 0. -1.
        2   -1    0    0  501    0  0.00000000000E+00  0.00000000000E+00 -0.87458961289E+03  0.87458961289E+03  0.25500000920E-02 0.  1.
    10030    2    1    2    0    0  0.00000000000E+00  0.00000000000E+00  0.11983194855E+04  0.29474987112E+04  0.26929127471E+04 0.  0.
        5    1    3    3  502    0  0.64577128244E+03  0.86937262990E+03  0.14748550085E+04  0.18297673910E+04  0.46999998093E+01 0. -1.
       -5    1    3    3    0  502 -0.64577128244E+03 -0.86937262990E+03 -0.27653552306E+03  0.11177313203E+04  0.46999998093E+01 0.  1.
</event>
<event>
 5   0  0.7838364E-06  0.2695255E+04  0.7818609E-02  0.8336546E-01
        2   -1    0    0  501    0  0.00000000000E+00  0.00000000000E+00  0.16272886104E+04  0.16272886104E+04  0.25500000920E-02 0.  1.
       -2   -1    0    0    0  501  0.00000000000E+00  0.00000000000E+00 -0.11160278075E+04  0.11160278075E+04  0.25500000920E-02 0. -1.
    10030    2    1    2    0    0  0.00000000000E+00  0.00000000000E+00  0.51126080288E+03  0.27433164179E+04  0.26952546003E+04 0.  0.
        2    1    3    3  502    0 -0.43474907082E+03 -0.82462958499E+03  0.12461638055E+04  0.15562599196E+04  0.25500000920E-02 0.  1.
       -2    1    3    3    0  502  0.43474907082E+03  0.82462958499E+03 -0.73490300265E+03  0.11870564984E+04  0.25500000920E-02 0. -1.
</event>
<event>
 5   0  0.7838364E-06  0.2700816E+04  0.7818609E-02  0.8334740E-01
       -2   -1    0    0    0  501  0.00000000000E+00  0.00000000000E+00  0.11906018744E+04  0.11906018744E+04  0.25500000920E-02 0. -1.
        2   -1    0    0  501    0  0.00000000000E+00  0.00000000000E+00 -0.15316642462E+04  0.15316642462E+04  0.25500000920E-02 0.  1.
    10030    2    1    2    0    0  0.00000000000E+00  0.00000000000E+00 -0.34106237182E+03  0.27222661206E+04  0.27008164118E+04 0.  0.
        2    1    3    3  502    0 -0.75245961935E+03 -0.26973818246E+03  0.92652837278E+03  0.12236866394E+04  0.25500000920E-02 0. -1.
       -2    1    3    3    0  502  0.75245961935E+03  0.26973818246E+03 -0.12675907446E+04  0.14985794813E+04  0.25500000920E-02 0.  1.
</event>
<event>
 5   0  0.8407622E-06  0.2714290E+04  0.7818609E-02  0.8330383E-01
        2   -1    0    0  501    0  0.00000000000E+00  0.00000000000E+00  0.24539861246E+04  0.24539861246E+04  0.25500000920E-02 0. -1.
       -2   -1    0    0    0  501  0.00000000000E+00  0.00000000000E+00 -0.75055154018E+03  0.75055154019E+03  0.25500000920E-02 0.  1.
    10030    2    1    2    0    0  0.00000000000E+00  0.00000000000E+00  0.17034345844E+04  0.32045376648E+04  0.27142903790E+04 0.  0.
        1    1    3    3  502    0  0.16134673678E+03  0.10917606902E+04  0.17842321033E+04  0.20979652934E+04  0.50400001928E-02 0.  1.
       -1    1    3    3    0  502 -0.16134673678E+03 -0.10917606902E+04 -0.80797518841E+02  0.11065723714E+04  0.50400001928E-02 0. -1.
</event>
<event>
 5   0  0.3089218E-06  0.2701852E+04  0.7818609E-02  0.8334404E-01
       -1   -1    0    0    0  501  0.00000000000E+00  0.00000000000E+00  0.11096682953E+04  0.11096682953E+04  0.50400001928E-02 0.  1.
        1   -1    0    0  501    0  0.00000000000E+00  0.00000000000E+00 -0.16446371702E+04  0.16446371703E+04  0.50400001928E-02 0. -1.
    10030    2    1    2    0    0  0.00000000000E+00  0.00000000000E+00 -0.53496887491E+03  0.27543054656E+04  0.27018524943E+04 0.  0.
        5    1    3    3  502    0 -0.10474791055E+04 -0.12261058445E+03  0.59314093790E+03  0.12099934273E+04  0.46999998093E+01 0.  1.
       -5    1    3    3    0  502  0.10474791055E+04  0.12261058445E+03 -0.11281098128E+04  0.15443120383E+04  0.46999998093E+01 0. -1.
</event>
<event>
 5   0  0.3028601E-06  0.2704325E+04  0.7818609E-02  0.8333603E-01
        1   -1    0    0  501    0  0.00000000000E+00  0.00000000000E+00  0.21198485136E+04  0.21198485136E+04  0.50400001928E-02 0.  1.
       -1   -1    0    0    0  501  0.00000000000E+00  0.00000000000E+00 -0.86248775915E+03  0.86248775917E+03  0.50400001928E-02 0. -1.
    10030    2    1    2    0    0  0.00000000000E+00  0.00000000000E+00  0.12573607545E+04  0.29823362728E+04  0.27043249762E+04 0.  0.
        3    1    3    3  502    0 -0.32940116964E+03 -0.58015969466E+03  0.19257059505E+04  0.20379975025E+04  0.10100000352E+00 0.  1.
       -3    1    3    3    0  502  0.32940116964E+03  0.58015969466E+03 -0.66834519607E+03  0.94433877034E+03  0.10100000352E+00 0. -1.
</event>
<event>
 5   0  0.8213334E-06  0.2706192E+04  0.7818609E-02  0.8332999E-01
        2   -1    0    0  501    0  0.00000000000E+00  0.00000000000E+00  0.89054909798E+03  0.89054909798E+03  0.25500000920E-02 0. -1.
       -2   -1    0    0    0  501  0.00000000000E+00  0.00000000000E+00 -0.20558878877E+04  0.20558878877E+04  0.25500000920E-02 0.  1.
    10030    2    1    2    0    0  0.00000000000E+00  0.00000000000E+00 -0.11653387897E+04  0.29464369856E+04  0.27061922355E+04 0.  0.
        3    1    3    3  502    0  0.70880350435E+03  0.11308795302E+04 -0.82509795284E+03  0.15691008768E+04  0.10100000352E+00 0. -1.
       -3    1    3    3    0  502 -0.70880350435E+03 -0.11308795302E+04 -0.34024083684E+03  0.13773361089E+04  0.10100000352E+00 0.  1.
</event>
<event>
 5   0  0.3199840E-06  0.2694434E+04  0.7818609E-02  0.8336813E-01
       -1   -1    0    0    0  501  0.00000000000E+00  0.00000000000E+00  0.11636990807E+04  0.11636990807E+04  0.50400001928E-02 0.  1.
        1   -1    0    0  501    0  0.00000000000E+00  0.00000000000E+00 -0.15596762329E+04  0.15596762329E+04  0.50400001928E-02 0. -1.
    10030    2    1    2    0    0  0.00000000000E+00  0.00000000000E+00 -0.39597715216E+03  0.27233753136E+04  0.26944341138E+04 0.  0.
        1    1    3    3  502    0 -0.34591180778E+03 -0.58412235888E+02 -0.15127008479E+04  0.15528460398E+04  0.50400001928E-02 0. -1.
       -1    1    3    3    0  502  0.34591180778E+03  0.58412235888E+02  0.11167236958E+04  0.11705292738E+04  0.50400001928E-02 0.  1.
</event>
<event>
 5   0  0.7838364E-06  0.2707276E+04  0.7818609E-02  0.8332648E-01
        2   -1    0    0  501    0  0.00000000000E+00  0.00000000000E+00  0.11470655856E+04  0.11470655857E+04  0.25500000920E-02 0.  1.
       -2   -1    0    0    0  501  0.00000000000E+00  0.00000000000E+00 -0.15974120707E+04  0.15974120707E+04  0.25500000920E-02 0. -1.
    10030    2    1    2    0    0  0.00000000000E+00  0.00000000000E+00 -0.45034648502E+03  0.27444776563E+04  0.27072764265E+04 0.  0.
        2    1    3    3  502    0  0.41528914289E+02  0.83364853550E+03 -0.13054817542E+04  0.15495086776E+04  0.25500000920E-02 0. -1.
       -2    1    3    3    0  502 -0.41528914289E+02 -0.83364853550E+03  0.85513526918E+03  0.11949689787E+04  0.25500000920E-02 0.  1.
</event>
<event>
 5   0  0.3013407E-06  0.2793684E+04  0.7818609E-02  0.8305232E-01
        1   -1    0    0  501    0  0.00000000000E+00  0.00000000000E+00  0.18168310160E+04  0.18168310160E+04  0.50400001928E-02 0.  1.
       -1   -1    0    0    0  501  0.00000000000E+00  0.00000000000E+00 -0.10739398441E+04  0.10739398441E+04  0.50400001928E-02 0. -1.
    10030    2    1    2    0    0  0.00000000000E+00  0.00000000000E+00  0.74289117194E+03  0.28907708601E+04  0.27936837459E+04 0.  0.
        4    1    3    3  502    0 -0.64243160314E+03  0.74182144773E+03  0.14000478237E+04  0.17097230614E+04  0.12699999809E+01 0.  1.
       -4    1    3    3    0  502  0.64243160314E+03 -0.74182144773E+03 -0.65715665177E+03  0.11810477987E+04  0.12699999809E+01 0. -1.
</event>
<event>
 5   0  0.3199840E-06  0.2702735E+04  0.7818609E-02  0.8334118E-01
       -1   -1    0    0    0  501  0.00000000000E+00  0.00000000000E+00  0.12438508887E+04  0.12438508887E+04  0.50400001928E-02 0. -1.
        1   -1    0    0  501    0  0.00000000000E+00  0.00000000000E+00 -0.14681778054E+04  0.14681778054E+04  0.50400001928E-02 0.  1.
    10030    2    1    2    0    0  0.00000000000E+00  0.00000000000E+00 -0.22432691671E+03  0.27120286941E+04  0.27027351095E+04 0.  0.
        1    1    3    3  502    0 -0.22552296888E+03 -0.10976385934E+04  0.64576365391E+03  0.12933219970E+04  0.50400001928E-02 0. -1.
       -1    1    3    3    0  502  0.22552296888E+03  0.10976385934E+04 -0.87009057062E+03  0.14187066971E+04  0.50400001928E-02 0.  1.
</event>
<event>
 5   0  0.3046300E-06  0.2714076E+04  0.7818609E-02  0.8330452E-01
       -1   -1    0    0    0  501  0.00000000000E+00  0.00000000000E+00  0.15121621306E+04  0.15121621306E+04  0.50400001928E-02 0. -1.
        1   -1    0    0  501    0  0.00000000000E+00  0.00000000000E+00 -0.12178275635E+04  0.12178275635E+04  0.50400001928E-02 0.  1.
    10030    2    1    2    0    0  0.00000000000E+00  0.00000000000E+00  0.29433456713E+03  0.27299896941E+04  0.27140764346E+04 0.  0.
        2    1    3    3  502    0 -0.13486532835E+03 -0.17179792594E+03 -0.12000323003E+04  0.12197461646E+04  0.25500000920E-02 0.  1.
       -2    1    3    3    0  502  0.13486532835E+03  0.17179792594E+03  0.14943668674E+04  0.15102435296E+04  0.25500000920E-02 0. -1.
</event>
<event>
 5   0  0.3028601E-06  0.2701258E+04  0.7818609E-02  0.8334597E-01
        1   -1    0    0  501    0  0.00000000000E+00  0.00000000000E+00  0.18024896722E+04  0.18024896722E+04  0.50400001928E-02 0.  1.
       -1   -1    0    0    0  501  0.00000000000E+00  0.00000000000E+00 -0.10120436929E+04  0.10120436929E+04  0.50400001928E-02 0. -1.
    10030    2    1    2    0    0  0.00000000000E+00  0.00000000000E+00  0.79044597927E+03  0.28145333652E+04  0.27012577103E+04 0.  0.
        3    1    3    3  502    0  0.93585743120E+03 -0.75827088799E+03  0.10319075165E+04  0.15860759767E+04  0.10100000352E+00 0. -1.
       -3    1    3    3    0  502 -0.93585743120E+03  0.75827088799E+03 -0.24146153720E+03  0.12284573885E+04  0.10100000352E+00 0.  1.
</event>
<event>
 5   0  0.7729970E-06  0.2694914E+04  0.7818609E-02  0.8336657E-01
        2   -1    0    0  501    0  0.00000000000E+00  0.00000000000E+00  0.18067324338E+04  0.18067324338E+04  0.25500000920E-02 0. -1.
       -2   -1    0    0    0  501  0.00000000000E+00  0.00000000000E+00 -0.10049300618E+04  0.10049300618E+04  0.25500000920E-02 0.  1.
    10030    2    1    2    0    0  0.00000000000E+00  0.00000000000E+00  0.80180237199E+03  0.28116624956E+04  0.26949135321E+04 0.  0.
        4    1    3    3  502    0 -0.46259005968E+03  0.61955546177E+03 -0.75044589578E+03  0.10775013638E+04  0.12699999809E+01 0.  1.
       -4    1    3    3    0  502  0.46259005968E+03 -0.61955546177E+03  0.15522482678E+04  0.17341611318E+04  0.12699999809E+01 0. -1.
</event>
<event>
 5   0  0.7729970E-06  0.2997761E+04  0.7818609E-02  0.8244370E-01
        2   -1    0    0  501    0  0.00000000000E+00  0.00000000000E+00  0.12146719503E+04  0.12146719503E+04  0.25500000920E-02 0.  1.
       -2   -1    0    0    0  501  0.00000000000E+00  0.00000000000E+00 -0.18495884433E+04  0.18495884433E+04  0.25500000920E-02 0. -1.
    10030    2    1    2    0    0  0.00000000000E+00  0.00000000000E+00 -0.63491649300E+03  0.30642603935E+04  0.29977612991E+04 0.  0.
        4    1    3    3  502    0  0.45780791410E+03 -0.13122938018E+04 -0.89110096182E+03  0.16509892930E+04  0.12699999809E+01 0.  1.
       -4    1    3    3    0  502 -0.45780791410E+03  0.13122938018E+04  0.25618446882E+03  0.14132711005E+04  0.12699999809E+01 0. -1.
</event>
<event>
 5   0  0.3046300E-06  0.2609185E+04  0.7818609E-02  0.8365088E-01
        1   -1    0    0  501    0  0.00000000000E+00  0.00000000000E+00  0.98886174670E+03  0.98886174672E+03  0.50400001928E-02 0. -1.
       -1   -1    0    0    0  501  0.00000000000E+00  0.00000000000E+00 -0.17211314253E+04  0.17211314253E+04  0.50400001928E-02 0.  1.
    10030    2    1    2    0    0  0.00000000000E+00  0.00000000000E+00 -0.73226967860E+03  0.27099931720E+04  0.26091845681E+04 0.  0.
        2    1    3    3  502    0  0.90032566109E+02  0.72751246323E+03  0.75471698924E+03  0.10521302110E+04  0.25500000920E-02 0. -1.
       -2    1    3    3    0  502 -0.90032566109E+02 -0.72751246323E+03 -0.14869866678E+04  0.16578629610E+04  0.25500000920E-02 0.  1.
</event>
<event>
 5   0  0.7729970E-06  0.2789038E+04  0.7818609E-02  0.8306680E-01
        2   -1    0    0  501    0  0.00000000000E+00  0.00000000000E+00  0.15727221027E+04  0.15727221027E+04  0.25500000920E-02 0.  1.
       -2   -1    0    0    0  501  0.00000000000E+00  0.00000000000E+00 -0.12365076930E+04  0.12365076930E+04  0.25500000920E-02 0. -1.
    10030    2    1    2    0    0  0.00000000000E+00  0.00000000000E+00  0.33621440972E+03  0.28092297956E+04  0.27890378118E+04 0.  0.
        4    1    3    3  502    0  0.40942517306E+02  0.18740552460E+03  0.15593690496E+04  0.15711239818E+04  0.12699999809E+01 0.  1.
       -4    1    3    3    0  502 -0.40942517306E+02 -0.18740552460E+03 -0.12231546399E+04  0.12381058139E+04  0.12699999809E+01 0. -1.
</event>
<event>
 5   0  0.8407622E-06  0.2774086E+04  0.7818609E-02  0.8311359E-01
        2   -1    0    0  501    0  0.00000000000E+00  0.00000000000E+00  0.12341288384E+04  0.12341288384E+04  0.25500000920E-02 0. -1.
       -2   -1    0    0    0  501  0.00000000000E+00  0.00000000000E+00 -0.15589044420E+04  0.15589044420E+04  0.25500000920E-02 0.  1.
    10030    2    1    2    0    0  0.00000000000E+00  0.00000000000E+00 -0.32477560351E+03  0.27930332804E+04  0.27740864646E+04 0.  0.
        1    1    3    3  502    0  0.61141879206E+03  0.10791825912E+04  0.46267515384E+03  0.13238339407E+04  0.50400001928E-02 0. -1.
       -1    1    3    3    0  502 -0.61141879206E+03 -0.10791825912E+04 -0.78745075735E+03  0.14691993397E+04  0.50400001928E-02 0.  1.
</event>
<event>
 5   0  0.7729970E-06  0.2702488E+04  0.7818609E-02  0.8334198E-01
        2   -1    0    0  501    0  0.00000000000E+00  0.00000000000E+00  0.24530588974E+04  0.24530588974E+04  0.25500000920E-02 0. -1.
       -2   -1    0    0    0  501  0.00000000000E+00  0.00000000000E+00 -0.74431995214E+03  0.74431995215E+03  0.25500000920E-02 0.  1.
    10030    2    1    2    0    0  0.00000000000E+00  0.00000000000E+00  0.17087389452E+04  0.31973788495E+04  0.27024882468E+04 0.  0.
        4    1    3    3  502    0  0.19383159736E+03 -0.80112764570E+03 -0.41244807368E+03  0.92167847931E+03  0.12699999809E+01 0.  1.
       -4    1    3    3    0  502 -0.19383159736E+03  0.80112764570E+03  0.21211870189E+04  0.22757003702E+04  0.12699999809E+01 0. -1.
</event>
<event>
 5   0  0.3089218E-06  0.2697016E+04  0.7818609E-02  0.8335974E-01
       -1   -1    0    0    0  501  0.00000000000E+00  0.00000000000E+00  0.15498905830E+04  0.15498905830E+04  0.50400001928E-02 0. -1.
        1   -1    0    0  501    0  0.00000000000E+00  0.00000000000E+00 -0.11732915185E+04  0.11732915185E+04  0.50400001928E-02 0.  1.
    10030    2    1    2    0    0  0.00000000000E+00  0.00000000000E+00  0.37659906452E+03  0.27231821015E+04  0.26970157401E+04 0.  0.
        5    1    3    3  502    0 -0.89610497150E+03  0.75786189976E+02  0.12028886056E+04  0.15019023783E+04  0.46999998093E+01 0. -1.
       -5    1    3    3    0  502  0.89610497150E+03 -0.75786189976E+02 -0.82628954106E+03  0.12212797232E+04  0.46999998093E+01 0.  1.
</event>
<event>
 5   0  0.7812908E-06  0.2712199E+04  0.7818609E-02  0.8331058E-01
        2   -1    0    0  501    0  0.00000000000E+00  0.00000000000E+00  0.18742731740E+04  0.18742731740E+04  0.25500000920E-02 0. -1.
       -2   -1    0    0    0  501  0.00000000000E+00  0.00000000000E+00 -0.98118381387E+03  0.98118381388E+03  0.25500000920E-02 0.  1.
    10030    2    1    2    0    0  0.00000000000E+00  0.00000000000E+00  0.89308936015E+03  0.28554569879E+04  0.27121994773E+04 0.  0.
        5    1    3    3  502    0  0.90188171263E+02  0.19875502500E+03 -0.96256191805E+03  0.98700810649E+03  0.46999998093E+01 0.  1.
       -5    1    3    3    0  502 -0.90188171263E+02 -0.19875502500E+03  0.18556512782E+04  0.18684488814E+04  0.46999998093E+01 0. -1.
</event>
<event>
 5   0  0.3089218E-06  0.2680180E+04  0.7818609E-02  0.8341465E-01
        1   -1    0    0  501    0  0.00000000000E+00  0.00000000000E+00  0.15514397325E+04  0.15514397325E+04  0.50400001928E-02 0.  1.
       -1   -1    0    0    0  501  0.00000000000E+00  0.00000000000E+00 -0.11575321185E+04  0.11575321185E+04  0.50400001928E-02 0. -1.
    10030    2    1    2    0    0  0.00000000000E+00  0.00000000000E+00  0.39390761398E+03  0.27089718510E+04  0.26801800837E+04 0.  0.
        5    1    3    3  502    0  0.67983702514E+03 -0.11143828060E+04 -0.10927249259E+03  0.13099580095E+04  0.46999998093E+01 0. -1.
       -5    1    3    3    0  502 -0.67983702514E+03  0.11143828060E+04  0.50318010657E+03  0.13990138415E+04  0.46999998093E+01 0.  1.
</event>
<event>
 5   0  0.3028601E-06  0.2673046E+04  0.7818609E-02  0.8343804E-01
        1   -1    0    0  501    0  0.00000000000E+00  0.00000000000E+00  0.25283323679E+04  0.25283323679E+04  0.50400001928E-02 0. -1.
       -1   -1    0    0    0  501  0.00000000000E+00  0.00000000000E+00 -0.70651069564E+03  0.70651069566E+03  0.50400001928E-02 0.  1.
    10030    2    1    2    0    0  0.00000000000E+00  0.00000000000E+00  0.18218216722E+04  0.32348430635E+04  0.26730460977E+04 0.  0.
        3    1    3    3  502    0 -0.43619312135E+03  0.60792097248E+03 -0.42930186012E+03  0.86263111769E+03  0.10100000352E+00 0.  1.
       -3    1    3    3    0  502  0.43619312135E+03 -0.60792097248E+03  0.22511235324E+04  0.23722119458E+04  0.10100000352E+00 0. -1.
</event>
<event>
 5   0  0.7812908E-06  0.2705548E+04  0.7818609E-02  0.8333207E-01
        2   -1    0    0  501    0  0.00000000000E+00  0.00000000000E+00  0.19388921033E+04  0.19388921033E+04  0.25500000920E-02 0. -1.
       -2   -1    0    0    0  501  0.00000000000E+00  0.00000000000E+00 -0.94383697655E+03  0.94383697656E+03  0.25500000920E-02 0.  1.
    10030    2    1    2    0    0  0.00000000000E+00  0.00000000000E+00  0.99505512674E+03  0.28827290798E+04  0.27055484181E+04 0.  0.
        5    1    3    3  502    0 -0.13341887575E+04 -0.21989290599E+03  0.45539779136E+03  0.14268222626E+04  0.46999998093E+01 0. -1.
       -5    1    3    3    0  502  0.13341887575E+04  0.21989290599E+03  0.53965733538E+03  0.14559068172E+04  0.46999998093E+01 0.  1.
</event>
<event>
 5   0  0.3199840E-06  0.2646291E+04  0.7818609E-02  0.8352645E-01
        1   -1    0    0  501    0  0.00000000000E+00  0.00000000000E+00  0.15861052487E+04  0.15861052487E+04  0.50400001928E-02 0.  1.
       -1   -1    0    0    0  501  0.00000000000E+00  0.00000000000E+00 -0.11037817613E+04  0.11037817613E+04  0.50400001928E-02 0. -1.
    10030    2    1    2    0    0  0.00000000000E+00  0.00000000000E+00  0.48232348745E+03  0.26898870101E+04  0.26462910234E+04 0.  0.
        1    1    3    3  502    0  0.10099055349E+04 -0.51211246006E+03  0.93694248694E+03  0.14697039107E+04  0.50400001928E-02 0.  1.
       -1    1    3    3    0  502 -0.10099055349E+04  0.51211246006E+03 -0.45461899949E+03  0.12201830994E+04  0.50400001928E-02 0. -1.
</event>
<event>
 5   0  0.3013407E-06  0.2699765E+04  0.7818609E-02  0.8335081E-01
        1   -1    0    0  501    0  0.00000000000E+00  0.00000000000E+00  0.17197995822E+04  0.17197995822E+04  0.50400001928E-02 0. -1.
       -1   -1    0    0    0  501  0.00000000000E+00  0.00000000000E+00 -0.10595324287E+04  0.10595324287E+04  0.50400001928E-02 0.  1.
    10030    2    1    2    0    0  0.00000000000E+00  0.00000000000E+00  0.66026715355E+03  0.27793320109E+04  0.26997654922E+04 0.  0.
        4    1    3    3  502    0  0.11541508028E+04  0.68874364287E+03  0.45933097218E+03  0.14203585590E+04  0.12699999809E+01 0. -1.
       -4    1    3    3    0  502 -0.11541508028E+04 -0.68874364287E+03  0.20093618137E+03  0.13589734519E+04  0.12699999809E+01 0.  1.
</event>
<event>
 5   0  0.3089218E-06  0.2699565E+04  0.7818609E-02  0.8335146E-01
        1   -1    0    0  501    0  0.00000000000E+00  0.00000000000E+00  0.14716316031E+04  0.14716316031E+04  0.50400001928E-02 0.  1.
       -1   -1    0    0    0  501  0.00000000000E+00  0.00000000000E+00 -0.12380219361E+04  0.12380219361E+04  0.50400001928E-02 0. -1.
    10030    2    1    2    0    0  0.00000000000E+00  0.00000000000E+00  0.23360966702E+03  0.27096535391E+04  0.26995645622E+04 0.  0.
        5    1    3    3  502    0 -0.93860747498E+03  0.26559712726E+03 -0.81961494605E+03  0.12740944140E+04  0.46999998093E+01 0. -1.
       -5    1    3    3    0  502  0.93860747498E+03 -0.26559712726E+03  0.10532246131E+04  0.14355591251E+04  0.46999998093E+01 0.  1.
</event>
<event>
 5   0  0.3199840E-06  0.2680822E+04  0.7818609E-02  0.8341255E-01
        1   -1    0    0  501    0  0.00000000000E+00  0.00000000000E+00  0.17001704446E+04  0.17001704446E+04  0.50400001928E-02 0.  1.
       -1   -1    0    0    0  501  0.00000000000E+00  0.00000000000E+00 -0.10567771782E+04  0.10567771782E+04  0.50400001928E-02 0. -1.
    10030    2    1    2    0    0  0.00000000000E+00  0.00000000000E+00  0.64339326638E+03  0.27569476228E+04  0.26808217582E+04 0.  0.
        1    1    3    3  502    0 -0.10867497018E+04 -0.64341203863E+01  0.11286013075E+04  0.15667824429E+04  0.50400001928E-02 0.  1.
       -1    1    3    3    0  502  0.10867497018E+04  0.64341203863E+01 -0.48520804109E+03  0.11901651799E+04  0.50400001928E-02 0. -1.
</event>
<event>
 5   0  0.3199840E-06  0.2697721E+04  0.7818609E-02  0.8335745E-01
       -1   -1    0    0    0  501  0.00000000000E+00  0.00000000000E+00  0.15009474126E+04  0.15009474126E+04  0.50400001928E-02 0. -1.
        1   -1    0    0  501    0  0.00000000000E+00  0.00000000000E+00 -0.12121837076E+04  0.12121837077E+04  0.50400001928E-02 0.  1.
    10030    2    1    2    0    0  0.00000000000E+00  0.00000000000E+00  0.28876370492E+03  0.27131311202E+04  0.26977205189E+04 0.  0.
        1    1    3    3  502    0  0.61526939725E+03  0.86743523643E+03 -0.69007085399E+03  0.12677531716E+04  0.50400001928E-02 0.  1.
       -1    1    3    3    0  502 -0.61526939725E+03 -0.86743523643E+03  0.97883455891E+03  0.14453779486E+04  0.50400001928E-02 0. -1.
</event>
<event>
 5   0  0.7729970E-06  0.2688837E+04  0.7818609E-02  0.8338636E-01
        2   -1    0    0  501    0  0.00000000000E+00  0.00000000000E+00  0.18796644666E+04  0.18796644666E+04  0.25500000920E-02 0. -1.
       -2   -1    0    0    0  501  0.00000000000E+00  0.00000000000E+00 -0.96158684345E+03  0.96158684345E+03  0.25500000920E-02 0.  1.
    10030    2    1    2    0    0  0.00000000000E+00  0.00000000000E+00  0.91807762314E+03  0.28412513100E+04  0.26888366415E+04 0.  0.
        4    1    3    3  502    0  0.12915376661E+04  0.35771318913E+03  0.57201382430E+03  0.14571306382E+04  0.12699999809E+01 0. -1.
       -4    1    3    3    0  502 -0.12915376661E+04 -0.35771318913E+03  0.34606379884E+03  0.13841206719E+04  0.12699999809E+01 0.  1.
</event>
<event>
 5   0  0.3013407E-06  0.2615139E+04  0.7818609E-02  0.8363077E-01
        1   -1    0    0  501    0  0.00000000000E+00  0.00000000000E+00  0.97808295290E+03  0.97808295291E+03  0.50400001928E-02 0.  1.
       -1   -1    0    0    0  501  0.00000000000E+00  0.00000000000E+00 -0.17480503338E+04  0.17480503338E+04  0.50400001928E-02 0. -1.
    10030    2    1    2    0    0  0.00000000000E+00  0.00000000000E+00 -0.76996738088E+03  0.27261332867E+04  0.26151391797E+04 0.  0.
        4    1    3    3  502    0  0.40283449673E+03 -0.93820880695E+03  0.46652386501E+03  0.11225673818E+04  0.12699999809E+01 0.  1.
       -4    1    3    3    0  502 -0.40283449673E+03  0.93820880695E+03 -0.12364912459E+04  0.16035659049E+04  0.12699999809E+01 0. -1.
</event>
<event>
 5   0  0.3199840E-06  0.2650182E+04  0.7818609E-02  0.8351353E-01
       -1   -1    0    0    0  501  0.00000000000E+00  0.00000000000E+00  0.91841623961E+03  0.91841623962E+03  0.50400001928E-02 0. -1.
        1   -1    0    0  501    0  0.00000000000E+00  0.00000000000E+00 -0.19118406643E+04  0.19118406643E+04  0.50400001928E-02 0.  1.
    10030    2    1    2    0    0  0.00000000000E+00  0.00000000000E+00 -0.99342442465E+03  0.28302569039E+04  0.26501815135E+04 0.  0.
        1    1    3    3  502    0 -0.62689164207E+03 -0.54286998019E+03 -0.16004586682E+04  0.18025451159E+04  0.50400001928E-02 0.  1.
       -1    1    3    3    0  502  0.62689164207E+03  0.54286998019E+03  0.60703424354E+03  0.10277117880E+04  0.50400001928E-02 0. -1.
</event>
<event>
 5   0  0.3028601E-06  0.2475016E+04  0.7818609E-02  0.8411941E-01
       -1   -1    0    0    0  501  0.00000000000E+00  0.00000000000E+00  0.68624068451E+03  0.68624068453E+03  0.50400001928E-02 0.  1.
        1   -1    0    0  501    0  0.00000000000E+00  0.00000000000E+00 -0.22316164250E+04  0.22316164250E+04  0.50400001928E-02 0. -1.
    10030    2    1    2    0    0  0.00000000000E+00  0.00000000000E+00 -0.15453757404E+04  0.29178571095E+04  0.24750159459E+04 0.  0.
        3    1    3    3  502    0 -0.64391813966E+03 -0.79549968551E+03  0.47470602872E+02  0.10245505300E+04  0.10100000352E+00 0.  1.
       -3    1    3    3    0  502  0.64391813966E+03  0.79549968551E+03 -0.15928463433E+04  0.18933065795E+04  0.10100000352E+00 0. -1.
</event>
<event>
 5   0  0.3028601E-06  0.2692725E+04  0.7818609E-02  0.8337369E-01
       -1   -1    0    0    0  501  0.00000000000E+00  0.00000000000E+00  0.22066991089E+04  0.22066991089E+04  0.50400001928E-02 0.  1.
        1   -1    0    0  501    0  0.00000000000E+00  0.00000000000E+00 -0.82144960486E+03  0.82144960488E+03  0.50400001928E-02 0. -1.
    10030    2    1    2    0    0  0.00000000000E+00  0.00000000000E+00  0.13852495041E+04  0.30281487138E+04  0.26927250963E+04 0.  0.
        3    1    3    3  502    0 -0.30905678404E+03 -0.11665610587E+04  0.21350513618E+02  0.12069948857E+04  0.10100000352E+00 0.  1.
       -3    1    3    3    0  502  0.30905678404E+03  0.11665610587E+04  0.13638989904E+04  0.18211538281E+04  0.10100000352E+00 0. -1.
</event>
<event>
 5   0  0.7729970E-06  0.2695892E+04  0.7818609E-02  0.8336339E-01
        2   -1    0    0  501    0  0.00000000000E+00  0.00000000000E+00  0.14424883692E+04  0.14424883692E+04  0.25500000920E-02 0.  1.
       -2   -1    0    0    0  501  0.00000000000E+00  0.00000000000E+00 -0.12595999348E+04  0.12595999348E+04  0.25500000920E-02 0. -1.
    10030    2    1    2    0    0  0.00000000000E+00  0.00000000000E+00  0.18288843434E+03  0.27020883040E+04  0.26958918790E+04 0.  0.
        4    1    3    3  502    0  0.12422154587E+04 -0.51609007748E+03  0.45938600110E+01  0.13451657631E+04  0.12699999809E+01 0.  1.
       -4    1    3    3    0  502 -0.12422154587E+04  0.51609007748E+03  0.17829457432E+03  0.13569225409E+04  0.12699999809E+01 0. -1.
</event>
<event>
 5   0  0.3046300E-06  0.2691684E+04  0.7818609E-02  0.8337708E-01
       -1   -1    0    0    0  501  0.00000000000E+00  0.00000000000E+00  0.21384643886E+04  0.21384643886E+04  0.50400001928E-02 0.  1.
        1   -1    0    0  501    0  0.00000000000E+00  0.00000000000E+00 -0.84700532922E+03  0.84700532924E+03  0.50400001928E-02 0. -1.
    10030    2    1    2    0    0  0.00000000000E+00  0.00000000000E+00  0.12914590594E+04  0.29854697178E+04  0.26916840331E+04 0.  0.
        2    1    3    3  502    0 -0.26551745728E+03  0.63851923578E+02  0.21074110721E+04  0.21250312974E+04  0.25500000920E-02 0.  1.
       -2    1    3    3    0  502  0.26551745728E+03 -0.63851923578E+02 -0.81595201271E+03  0.86043842041E+03  0.25500000920E-02 0. -1.
</event>
<event>
 5   0  0.3013407E-06  0.2805230E+04  0.7818609E-02  0.8301647E-01
       -1   -1    0    0    0  501  0.00000000000E+00  0.00000000000E+00  0.66927939504E+03  0.66927939506E+03  0.50400001928E-02 0.  1.
        1   -1    0    0  501    0  0.00000000000E+00  0.00000000000E+00 -0.29394724295E+04  0.29394724295E+04  0.50400001928E-02 0. -1.
    10030    2    1    2    0    0  0.00000000000E+00  0.00000000000E+00 -0.22701930345E+04  0.36087518246E+04  0.28052296372E+04 0.  0.
        4    1    3    3  502    0 -0.39776585856E+03  0.13158832453E+04 -0.77682820148E+03  0.15789965361E+04  0.12699999809E+01 0. -1.
       -4    1    3    3    0  502  0.39776585856E+03 -0.13158832453E+04 -0.14933648330E+04  0.20297552885E+04  0.12699999809E+01 0.  1.
</event>
<event>
 5   0  0.7729970E-06  0.2674322E+04  0.7818609E-02  0.8343385E-01
       -2   -1    0    0    0  501  0.00000000000E+00  0.00000000000E+00  0.68009324596E+03  0.68009324596E+03  0.25500000920E-02 0.  1.
        2   -1    0    0  501    0  0.00000000000E+00  0.00000000000E+00 -0.26290507543E+04  0.26290507543E+04  0.25500000920E-02 0. -1.
    10030    2    1    2    0    0  0.00000000000E+00  0.00000000000E+00 -0.19489575084E+04  0.33091440003E+04  0.26743220908E+04 0.  0.
        4    1    3    3  502    0 -0.85415758568E+03  0.10124229443E+03  0.29234541097E+03  0.90846168635E+03  0.12699999809E+01 0.  1.
       -4    1    3    3    0  502  0.85415758568E+03 -0.10124229443E+03 -0.22413029194E+04  0.24006823140E+04  0.12699999809E+01 0. -1.
</event>
<event>
 5   0  0.7812908E-06  0.2671784E+04  0.7818609E-02  0.8344218E-01
        2   -1    0    0  501    0  0.00000000000E+00  0.00000000000E+00  0.21018104095E+04  0.21018104095E+04  0.25500000920E-02 0. -1.
       -2   -1    0    0    0  501  0.00000000000E+00  0.00000000000E+00 -0.84908138253E+03  0.84908138254E+03  0.25500000920E-02 0.  1.
    10030    2    1    2    0    0  0.00000000000E+00  0.00000000000E+00  0.12527290269E+04  0.29508917920E+04  0.26717844885E+04 0.  0.
        5    1    3    3  502    0 -0.75565102442E+03 -0.85529080590E+03  0.13931965183E+04  0.18009856917E+04  0.46999998093E+01 0. -1.
       -5    1    3    3    0  502  0.75565102442E+03  0.85529080590E+03 -0.14046749131E+03  0.11499061003E+04  0.46999998093E+01 0.  1.
</event>
<event>
 5   0  0.3013407E-06  0.2706747E+04  0.7818609E-02  0.8332819E-01
       -1   -1    0    0    0  501  0.00000000000E+00  0.00000000000E+00  0.81071528332E+03  0.81071528334E+03  0.50400001928E-02 0.  1.
        1   -1    0    0  501    0  0.00000000000E+00  0.00000000000E+00 -0.22592641750E+04  0.22592641750E+04  0.50400001928E-02 0. -1.
    10030    2    1    2    0    0  0.00000000000E+00  0.00000000000E+00 -0.14485488917E+04  0.30699794583E+04  0.27067471221E+04 0.  0.
        4    1    3    3  502    0  0.52666539719E+03 -0.11284473204E+03  0.68391368205E+03  0.87054575500E+03  0.12699999809E+01 0.  1.
       -4    1    3    3    0  502 -0.52666539719E+03  0.11284473204E+03 -0.21324625737E+04  0.21994337033E+04  0.12699999809E+01 0. -1.
</event>
<event>
 5   0  0.7729970E-06  0.2661555E+04  0.7818609E-02  0.8347588E-01
       -2   -1    0    0    0  501  0.00000000000E+00  0.00000000000E+00  0.89707919330E+03  0.89707919330E+03  0.25500000920E-02 0.  1.
        2   -1    0    0  501    0  0.00000000000E+00  0.00000000000E+00 -0.19741497847E+04  0.19741497847E+04  0.25500000920E-02 0. -1.
    10030    2    1    2    0    0  0.00000000000E+00  0.00000000000E+00 -0.10770705914E+04  0.28712289780E+04  0.26615549562E+04 0.  0.
        4    1    3    3  502    0 -0.38511791616E+03 -0.11797831989E+04 -0.20313871459E+02  0.12412165290E+04  0.12699999809E+01 0.  1.
       -4    1    3    3    0  502  0.38511791616E+03  0.11797831989E+04 -0.10567567199E+04  0.16300124489E+04  0.12699999809E+01 0. -1.
</event>
<event>
 5   0  0.8213334E-06  0.2728450E+04  0.7818609E-02  0.8325833E-01
        2   -1    0    0  501    0  0.00000000000E+00  0.00000000000E+00  0.18628540757E+04  0.18628540757E+04  0.25500000920E-02 0.  1.
       -2   -1    0    0    0  501  0.00000000000E+00  0.00000000000E+00 -0.99906359888E+03  0.99906359888E+03  0.25500000920E-02 0. -1.
    10030    2    1    2    0    0  0.00000000000E+00  0.00000000000E+00  0.86379047683E+03  0.28619176746E+04  0.27284498874E+04 0.  0.
        3    1    3    3  502    0  0.49576633254E+03 -0.58974965114E+03  0.16128104014E+04  0.17873853274E+04  0.10100000352E+00 0.  1.
       -3    1    3    3    0  502 -0.49576633254E+03  0.58974965114E+03 -0.74901992459E+03  0.10745323472E+04  0.10100000352E+00 0. -1.
</event>
<event>
 5   0  0.3089218E-06  0.2704339E+04  0.7818609E-02  0.8333598E-01
       -1   -1    0    0    0  501  0.00000000000E+00  0.00000000000E+00  0.73367673273E+03  0.73367673274E+03  0.50400001928E-02 0. -1.
        1   -1    0    0  501    0  0.00000000000E+00  0.00000000000E+00 -0.24920548206E+04  0.24920548206E+04  0.50400001928E-02 0.  1.
    10030    2    1    2    0    0  0.00000000000E+00  0.00000000000E+00 -0.17583780879E+04  0.32257315534E+04  0.27043392085E+04 0.  0.
        5    1    3    3  502    0  0.93650233084E+03 -0.94218043260E+03 -0.11800012795E+04  0.17768414935E+04  0.46999998093E+01 0. -1.
       -5    1    3    3    0  502 -0.93650233084E+03  0.94218043260E+03 -0.57837680838E+03  0.14488900599E+04  0.46999998093E+01 0.  1.
</event>
<event>
 5   0  0.7838364E-06  0.2697283E+04  0.7818609E-02  0.8335887E-01
        2   -1    0    0  501    0  0.00000000000E+00  0.00000000000E+00  0.19589604471E+04  0.19589604471E+04  0.25500000920E-02 0.  1.
       -2   -1    0    0    0  501  0.00000000000E+00  0.00000000000E+00 -0.92846891542E+03  0.92846891542E+03  0.25500000920E-02 0. -1.
    10030    2    1    2    0    0  0.00000000000E+00  0.00000000000E+00  0.10304915316E+04  0.28874293625E+04  0.26972829897E+04 0.  0.
        2    1    3    3  502    0  0.12993733625E+04 -0.36074166165E+03  0.49585235918E+03  0.14367933894E+04  0.25500000920E-02 0.  1.
       -2    1    3    3    0  502 -0.12993733625E+04  0.36074166165E+03  0.53463917247E+03  0.14506359731E+04  0.25500000920E-02 0. -1.
</event>
<event>
 5   0  0.2654625E-06  0.2673825E+04  0.7818609E-02  0.8343548E-01
       -3   -1    0    0    0  501  0.00000000000E+00  0.00000000000E+00  0.12406042891E+04  0.12406042932E+04  0.10100000352E+00 0.  1.
        3   -1    0    0  501    0  0.00000000000E+00  0.00000000000E+00 -0.14406970943E+04  0.14406970979E+04  0.10100000352E+00 0. -1.
    10030    2    1    2    0    0  0.00000000000E+00  0.00000000000E+00 -0.20009280525E+03  0.26813013911E+04  0.26738249791E+04 0.  0.
        4    1    3    3  502    0  0.21034635655E+03  0.10191293234E+03 -0.14200482532E+04  0.14391561728E+04  0.12699999809E+01 0. -1.
       -4    1    3    3    0  502 -0.21034635655E+03 -0.10191293234E+03  0.12199554479E+04  0.12421452183E+04  0.12699999809E+01 0.  1.
</event>
<event>
 5   0  0.7838364E-06  0.2698095E+04  0.7818609E-02  0.8335623E-01
       -2   -1    0    0    0  501  0.00000000000E+00  0.00000000000E+00  0.16727883119E+04  0.16727883119E+04  0.25500000920E-02 0.  1.
        2   -1    0    0  501    0  0.00000000000E+00  0.00000000000E+00 -0.10879611629E+04  0.10879611629E+04  0.25500000920E-02 0. -1.
    10030    2    1    2    0    0  0.00000000000E+00  0.00000000000E+00  0.58482714898E+03  0.27607494748E+04  0.26980946737E+04 0.  0.
        2    1    3    3  502    0 -0.91779994609E+03  0.46679237169E+03  0.11842480605E+04  0.15692977181E+04  0.25500000920E-02 0.  1.
       -2    1    3    3    0  502  0.91779994609E+03 -0.46679237169E+03 -0.59942091150E+03  0.11914517567E+04  0.25500000920E-02 0. -1.
</event>
<event>
 5   0  0.3028601E-06  0.2692289E+04  0.7818609E-02  0.8337511E-01
       -1   -1    0    0    0  501  0.00000000000E+00  0.00000000000E+00  0.97284824184E+03  0.97284824185E+03  0.50400001928E-02 0. -1.
        1   -1    0    0  501    0  0.00000000000E+00  0.00000000000E+00 -0.18626796577E+04  0.18626796577E+04  0.50400001928E-02 0.  1.
    10030    2    1    2    0    0  0.00000000000E+00  0.00000000000E+00 -0.88983141585E+03  0.28355278995E+04  0.26922887142E+04 0.  0.
        3    1    3    3  502    0 -0.12640870145E+04  0.18011507743E+03  0.40841017074E+01  0.12768610384E+04  0.10100000352E+00 0. -1.
       -3    1    3    3    0  502  0.12640870145E+04 -0.18011507743E+03 -0.89391551756E+03  0.15586668611E+04  0.10100000352E+00 0.  1.
</event>
<event>
 5   0  0.8213334E-06  0.2686033E+04  0.7818609E-02  0.8339551E-01
        2   -1    0    0  501    0  0.00000000000E+00  0.00000000000E+00  0.17016627526E+04  0.17016627526E+04  0.25500000920E-02 0.  1.
       -2   -1    0    0    0  501  0.00000000000E+00  0.00000000000E+00 -0.10599593717E+04  0.10599593717E+04  0.25500000920E-02 0. -1.
    10030    2    1    2    0    0  0.00000000000E+00  0.00000000000E+00  0.64170338095E+03  0.27616221243E+04  0.26860330467E+04 0.  0.
        3    1    3    3  502    0 -0.56796122205E+03 -0.67985107142E+03 -0.71696841649E+03  0.11396583477E+04  0.10100000352E+00 0. -1.
       -3    1    3    3    0  502  0.56796122205E+03  0.67985107142E+03  0.13586717974E+04  0.16219637765E+04  0.10100000352E+00 0.  1.
</event>
<event>
 5   0  0.3013407E-06  0.2739924E+04  0.7818609E-02  0.8322166E-01
       -1   -1    0    0    0  501  0.00000000000E+00  0.00000000000E+00  0.14953923152E+04  0.14953923152E+04  0.50400001928E-02 0.  1.
        1   -1    0    0  501    0  0.00000000000E+00  0.00000000000E+00 -0.12550525087E+04  0.12550525087E+04  0.50400001928E-02 0. -1.
    10030    2    1    2    0    0  0.00000000000E+00  0.00000000000E+00  0.24033980643E+03  0.27504448239E+04  0.27399239965E+04 0.  0.
        4    1    3    3  502    0  0.12460327802E+04 -0.20632283505E+03  0.65289348499E+03  0.14217729486E+04  0.12699999809E+01 0.  1.
       -4    1    3    3    0  502 -0.12460327802E+04  0.20632283505E+03 -0.41255367856E+03  0.13286718753E+04  0.12699999809E+01 0. -1.
</event>
<event>
 5   0  0.3199840E-06  0.2705339E+04  0.7818609E-02  0.8333275E-01
       -1   -1    0    0    0  501  0.00000000000E+00  0.00000000000E+00  0.19934069783E+04  0.19934069783E+04  0.50400001928E-02 0.  1.
        1   -1    0    0  501    0  0.00000000000E+00  0.00000000000E+00 -0.91788290769E+03  0.91788290770E+03  0.50400001928E-02 0. -1.
    10030    2    1    2    0    0  0.00000000000E+00  0.00000000000E+00  0.10755240706E+04  0.29112898860E+04  0.27053385692E+04 0.  0.
        1    1    3    3  502    0  0.13895202435E+03  0.98324152996E+03 -0.45066151379E+03  0.10904895100E+04  0.50400001928E-02 0. -1.
       -1    1    3    3    0  502 -0.13895202435E+03 -0.98324152996E+03  0.15261855844E+04  0.18208003760E+04  0.50400001928E-02 0.  1.
</event>
<event>
 5   0  0.7838364E-06  0.2694045E+04  0.7818609E-02  0.8336940E-01
        2   -1    0    0  501    0  0.00000000000E+00  0.00000000000E+00  0.13413955865E+04  0.13413955865E+04  0.25500000920E-02 0. -1.
       -2   -1    0    0    0  501  0.00000000000E+00  0.00000000000E+00 -0.13526728762E+04  0.13526728762E+04  0.25500000920E-02 0.  1.
    10030    2    1    2    0    0  0.00000000000E+00  0.00000000000E+00 -0.11277289648E+02  0.26940684627E+04  0.26940448594E+04 0.  0.
        2    1    3    3  502    0  0.52851947155E+03 -0.15981219567E+03  0.12230285634E+04  0.13418910673E+04  0.25500000920E-02 0. -1.
       -2    1    3    3    0  502 -0.52851947155E+03  0.15981219567E+03 -0.12343058530E+04  0.13521773953E+04  0.25500000920E-02 0.  1.
</event>
<event>
 5   0  0.3028601E-06  0.2704996E+04  0.7818609E-02  0.8333386E-01
        1   -1    0    0  501    0  0.00000000000E+00  0.00000000000E+00  0.11264003211E+04  0.11264003211E+04  0.50400001928E-02 0. -1.
       -1   -1    0    0    0  501  0.00000000000E+00  0.00000000000E+00 -0.16239795447E+04  0.16239795447E+04  0.50400001928E-02 0.  1.
    10030    2    1    2    0    0  0.00000000000E+00  0.00000000000E+00 -0.49757922356E+03  0.27503798658E+04  0.27049961779E+04 0.  0.
        3    1    3    3  502    0  0.11704275117E+03  0.13029868421E+04 -0.59773456464E+03  0.14383185795E+04  0.10100000352E+00 0.  1.
       -3    1    3    3    0  502 -0.11704275117E+03 -0.13029868421E+04  0.10015534108E+03  0.13120612862E+04  0.10100000352E+00 0. -1.
</event>
<event>
 5   0  0.7729970E-06  0.2678708E+04  0.7818609E-02  0.8341947E-01
        2   -1    0    0  501    0  0.00000000000E+00  0.00000000000E+00  0.13524105921E+04  0.13524105921E+04  0.25500000920E-02 0.  1.
       -2   -1    0    0    0  501  0.00000000000E+00  0.00000000000E+00 -0.13264235026E+04  0.13264235026E+04  0.25500000920E-02 0. -1.
    10030    2    1    2    0    0  0.00000000000E+00  0.00000000000E+00  0.25987089534E+02  0.26788340948E+04  0.26787080428E+04 0.  0.
        4    1    3    3  502    0  0.74524680288E+03  0.38014484367E+03 -0.10329833394E+04  0.13292701350E+04  0.12699999809E+01 0. -1.
       -4    1    3    3    0  502 -0.74524680288E+03 -0.38014484367E+03  0.10589704289E+04  0.13495639598E+04  0.12699999809E+01 0.  1.
</event>
<event>
 5   0  0.8213334E-06  0.2689955E+04  0.7818609E-02  0.8338272E-01
        2   -1    0    0  501    0  0.00000000000E+00  0.00000000000E+00  0.23066865729E+04  0.23066865729E+04  0.25500000920E-02 0.  1.
       -2   -1    0    0    0  501  0.00000000000E+00  0.00000000000E+00 -0.78422613561E+03  0.78422613561E+03  0.25500000920E-02 0. -1.
    10030    2    1    2    0    0  0.00000000000E+00  0.00000000000E+00  0.15224604373E+04  0.30909127085E+04  0.26899545700E+04 0.  0.
        3    1    3    3  502    0 -0.12078952029E+04  0.18573470496E+03  0.11585694814E+03  0.12275711973E+04  0.10100000352E+00 0. -1.
       -3    1    3    3    0  502  0.12078952029E+04 -0.18573470496E+03  0.14066034892E+04  0.18633415113E+04  0.10100000352E+00 0.  1.
</event>
<event>
 5   0  0.7812908E-06  0.2692356E+04  0.7818609E-02  0.8337490E-01
       -2   -1    0    0    0  501  0.00000000000E+00  0.00000000000E+00  0.99709885351E+03  0.99709885352E+03  0.25500000920E-02 0. -1.
        2   -1    0    0  501    0  0.00000000000E+00  0.00000000000E+00 -0.18174675485E+04  0.18174675485E+04  0.25500000920E-02 0.  1.
    10030    2    1    2    0    0  0.00000000000E+00  0.00000000000E+00 -0.82036869496E+03  0.28145664020E+04  0.26923557038E+04 0.  0.
        5    1    3    3  502    0  0.27710309144E+03 -0.37018965955E+03  0.91145965784E+03  0.10220603237E+04  0.46999998093E+01 0. -1.
       -5    1    3    3    0  502 -0.27710309144E+03  0.37018965955E+03 -0.17318283528E+04  0.17925060783E+04  0.46999998093E+01 0.  1.
</event>
<event>
 5   0  0.3013407E-06  0.2714976E+04  0.7818609E-02  0.8330162E-01
        1   -1    0    0  501    0  0.00000000000E+00  0.00000000000E+00  0.11897035646E+04  0.11897035647E+04  0.50400001928E-02 0. -1.
       -1   -1    0    0    0  501  0.00000000000E+00  0.00000000000E+00 -0.15489346462E+04  0.15489346462E+04  0.50400001928E-02 0.  1.
    10030    2    1    2    0    0  0.00000000000E+00  0.00000000000E+00 -0.35923108151E+03  0.27386382108E+04  0.27149755579E+04 0.  0.
        4    1    3    3  502    0  0.74024127164E+03  0.82918670369E+03 -0.96567864057E+03  0.14724281237E+04  0.12699999809E+01 0. -1.
       -4    1    3    3    0  502 -0.74024127164E+03 -0.82918670369E+03  0.60644755906E+03  0.12662100871E+04  0.12699999809E+01 0.  1.
</event>
<event>
 5   0  0.3028601E-06  0.2692831E+04  0.7818609E-02  0.8337335E-01
        1   -1    0    0  501    0  0.00000000000E+00  0.00000000000E+00  0.21036725303E+04  0.21036725303E+04  0.50400001928E-02 0.  1.
       -1   -1    0    0    0  501  0.00000000000E+00  0.00000000000E+00 -0.86174767217E+03  0.86174767218E+03  0.50400001928E-02 0. -1.
    10030    2    1    2    0    0  0.00000000000E+00  0.00000000000E+00  0.12419248582E+04  0.29654202025E+04  0.26928311540E+04 0.  0.
        3    1    3    3  502    0 -0.68100820206E+03  0.85246983689E+02 -0.65465461347E+03  0.94847872545E+03  0.10100000352E+00 0. -1.
       -3    1    3    3    0  502  0.68100820206E+03 -0.85246983689E+02  0.18965794716E+04  0.20169414771E+04  0.10100000352E+00 0.  1.
</event>
<event>
 5   0  0.3089218E-06  0.2617192E+04  0.7818609E-02  0.8362385E-01
        1   -1    0    0  501    0  0.00000000000E+00  0.00000000000E+00  0.25116007846E+04  0.25116007846E+04  0.50400001928E-02 0.  1.
       -1   -1    0    0    0  501  0.00000000000E+00  0.00000000000E+00 -0.68180571898E+03  0.68180571900E+03  0.50400001928E-02 0. -1.
    10030    2    1    2    0    0  0.00000000000E+00  0.00000000000E+00  0.18297950657E+04  0.31934065036E+04  0.26171922198E+04 0.  0.
        5    1    3    3  502    0  0.11342481216E+04 -0.35627575769E+03  0.24775564974E+03  0.12144365644E+04  0.46999998093E+01 0. -1.
       -5    1    3    3    0  502 -0.11342481216E+04  0.35627575769E+03  0.15820394159E+04  0.19789699393E+04  0.46999998093E+01 0.  1.
</event>
<event>
 5   0  0.7729970E-06  0.2699500E+04  0.7818609E-02  0.8335167E-01
        2   -1    0    0  501    0  0.00000000000E+00  0.00000000000E+00  0.20995867268E+04  0.20995867268E+04  0.25500000920E-02 0.  1.
       -2   -1    0    0    0  501  0.00000000000E+00  0.00000000000E+00 -0.86770641034E+03  0.86770641035E+03  0.25500000920E-02 0. -1.
    10030    2    1    2    0    0  0.00000000000E+00  0.00000000000E+00  0.12318803165E+04  0.29672931372E+04  0.26994998514E+04 0.  0.
        4    1    3    3  502    0  0.22872971284E+03 -0.12811184299E+04  0.22230715825E+03  0.13202286917E+04  0.12699999809E+01 0. -1.
       -4    1    3    3    0  502 -0.22872971284E+03  0.12811184299E+04  0.10095731582E+04  0.16470644455E+04  0.12699999809E+01 0.  1.
</event>
<event>
 5   0  0.7729970E-06  0.2667137E+04  0.7818609E-02  0.8345747E-01
       -2   -1    0    0    0  501  0.00000000000E+00  0.00000000000E+00  0.11716487404E+04  0.11716487404E+04  0.25500000920E-02 0.  1.
        2   -1    0    0  501    0  0.00000000000E+00  0.00000000000E+00 -0.15178655014E+04  0.15178655014E+04  0.25500000920E-02 0. -1.
    10030    2    1    2    0    0  0.00000000000E+00  0.00000000000E+00 -0.34621676096E+03  0.26895142418E+04  0.26671371939E+04 0.  0.
        4    1    3    3  502    0  0.21881873607E+03 -0.11809201328E+04 -0.75758285704E+03  0.14199955625E+04  0.12699999809E+01 0. -1.
       -4    1    3    3    0  502 -0.21881873607E+03  0.11809201328E+04  0.41136609608E+03  0.12695186793E+04  0.12699999809E+01 0.  1.
</event>
<event>
 5   0  0.7812908E-06  0.2691485E+04  0.7818609E-02  0.8337773E-01
        2   -1    0    0  501    0  0.00000000000E+00  0.00000000000E+00  0.19524725792E+04  0.19524725792E+04  0.25500000920E-02 0.  1.
       -2   -1    0    0    0  501  0.00000000000E+00  0.00000000000E+00 -0.92755329320E+03  0.92755329320E+03  0.25500000920E-02 0. -1.
    10030    2    1    2    0    0  0.00000000000E+00  0.00000000000E+00  0.10249192860E+04  0.28800258724E+04  0.26914846243E+04 0.  0.
        5    1    3    3  502    0 -0.11061040551E+04 -0.62536726988E+03  0.98673479017E+03  0.16087939704E+04  0.46999998093E+01 0.  1.
       -5    1    3    3    0  502  0.11061040551E+04  0.62536726988E+03  0.38184495790E+02  0.12712319020E+04  0.46999998093E+01 0. -1.
</event>
<event>
 5   0  0.7729970E-06  0.2695700E+04  0.7818609E-02  0.8336401E-01
        2   -1    0    0  501    0  0.00000000000E+00  0.00000000000E+00  0.16468461466E+04  0.16468461466E+04  0.25500000920E-02 0. -1.
       -2   -1    0    0    0  501  0.00000000000E+00  0.00000000000E+00 -0.11031386879E+04  0.11031386879E+04  0.25500000920E-02 0.  1.
    10030    2    1    2    0    0  0.00000000000E+00  0.00000000000E+00  0.54370745870E+03  0.27499848346E+04  0.26957000556E+04 0.  0.
        4    1    3    3  502    0 -0.85104399750E+03 -0.15863275165E+03  0.13257391825E+04  0.15833591596E+04  0.12699999809E+01 0. -1.
       -4    1    3    3    0  502  0.85104399750E+03  0.15863275165E+03 -0.78203172376E+03  0.11666256749E+04  0.12699999809E+01 0.  1.
</event>
<event>
 5   0  0.7838364E-06  0.2704408E+04  0.7818609E-02  0.8333576E-01
       -2   -1    0    0    0  501  0.00000000000E+00  0.00000000000E+00  0.11918350082E+04  0.11918350082E+04  0.25500000920E-02 0. -1.
        2   -1    0    0  501    0  0.00000000000E+00  0.00000000000E+00 -0.15341511296E+04  0.15341511296E+04  0.25500000920E-02 0.  1.
    10030    2    1    2    0    0  0.00000000000E+00  0.00000000000E+00 -0.34231612140E+03  0.27259861378E+04  0.27044075315E+04 0.  0.
        2    1    3    3  502    0  0.29921310390E+03 -0.11293642577E+04  0.51505503388E+03  0.12768217558E+04  0.25500000920E-02 0. -1.
       -2    1    3    3    0  502 -0.29921310390E+03  0.11293642577E+04 -0.85737115528E+03  0.14491643820E+04  0.25500000920E-02 0.  1.
</event>
<event>
 5   0  0.7812908E-06  0.2656377E+04  0.7818609E-02  0.8349300E-01
        2   -1    0    0  501    0  0.00000000000E+00  0.00000000000E+00  0.29690707812E+04  0.29690707812E+04  0.25500000920E-02 0.  1.
       -2   -1    0    0    0  501  0.00000000000E+00  0.00000000000E+00 -0.59415366162E+03  0.59415366162E+03  0.25500000920E-02 0. -1.
    10030    2    1    2    0    0  0.00000000000E+00  0.00000000000E+00  0.23749171196E+04  0.35632244429E+04  0.26563766874E+04 0.  0.
        5    1    3    3  502    0  0.10070138795E+04 -0.86576582591E+03  0.11594892342E+04  0.17629704459E+04  0.46999998093E+01 0.  1.
       -5    1    3    3    0  502 -0.10070138795E+04  0.86576582591E+03  0.12154278854E+04  0.18002539970E+04  0.46999998093E+01 0. -1.
</event>
<event>
 5   0  0.7812908E-06  0.2697872E+04  0.7818609E-02  0.8335696E-01
       -2   -1    0    0    0  501  0.00000000000E+00  0.00000000000E+00  0.10857020752E+04  0.10857020752E+04  0.25500000920E-02 0. -1.
        2   -1    0    0  501    0  0.00000000000E+00  0.00000000000E+00 -0.16759922539E+04  0.16759922539E+04  0.25500000920E-02 0.  1.
    10030    2    1    2    0    0  0.00000000000E+00  0.00000000000E+00 -0.59029017867E+03  0.27616943290E+04  0.26978719525E+04 0.  0.
        5    1    3    3  502    0 -0.12927561227E+04 -0.22618819403E+03 -0.61433342831E+03  0.14490711311E+04  0.46999998093E+01 0.  1.
       -5    1    3    3    0  502  0.12927561227E+04  0.22618819403E+03  0.24043249633E+02  0.13126231979E+04  0.46999998093E+01 0. -1.
</event>
<event>
 5   0  0.3046300E-06  0.2707633E+04  0.7818609E-02  0.8332533E-01
       -1   -1    0    0    0  501  0.00000000000E+00  0.00000000000E+00  0.13285047373E+04  0.13285047373E+04  0.50400001928E-02 0.  1.
        1   -1    0    0  501    0  0.00000000000E+00  0.00000000000E+00 -0.13796101518E+04  0.13796101518E+04  0.50400001928E-02 0. -1.
    10030    2    1    2    0    0  0.00000000000E+00  0.00000000000E+00 -0.51105414507E+02  0.27081148892E+04  0.27076326357E+04 0.  0.
        2    1    3    3  502    0 -0.12987171210E+04  0.31032823492E+03  0.19775561596E+03  0.13498433455E+04  0.25500000920E-02 0.  1.
       -2    1    3    3    0  502  0.12987171210E+04 -0.31032823492E+03 -0.24886103047E+03  0.13582715437E+04  0.25500000920E-02 0. -1.
</event>
<event>
 5   0  0.3046300E-06  0.2681442E+04  0.7818609E-02  0.8341052E-01
        1   -1    0    0  501    0  0.00000000000E+00  0.00000000000E+00  0.13092847231E+04  0.13092847231E+04  0.50400001928E-02 0.  1.
       -1   -1    0    0    0  501  0.00000000000E+00  0.00000000000E+00 -0.13729121118E+04  0.13729121118E+04  0.50400001928E-02 0. -1.
    10030    2    1    2    0    0  0.00000000000E+00  0.00000000000E+00 -0.63627388692E+02  0.26821968349E+04  0.26814420405E+04 0.  0.
        2    1    3    3  502    0  0.10763479346E+04 -0.64121857368E+03  0.44565359145E+03  0.13297718824E+04  0.25500000920E-02 0.  1.
       -2    1    3    3    0  502 -0.10763479346E+04  0.64121857368E+03 -0.50928098015E+03  0.13524249525E+04  0.25500000920E-02 0. -1.
</event>
<event>
 5   0  0.3046300E-06  0.2707259E+04  0.7818609E-02  0.8332654E-01
       -1   -1    0    0    0  501  0.00000000000E+00  0.00000000000E+00  0.13985413478E+04  0.13985413478E+04  0.50400001928E-02 0.  1.
        1   -1    0    0  501    0  0.00000000000E+00  0.00000000000E+00 -0.13101599001E+04  0.13101599001E+04  0.50400001928E-02 0. -1.
    10030    2    1    2    0    0  0.00000000000E+00  0.00000000000E+00  0.88381447694E+02  0.27087012480E+04  0.27072589773E+04 0.  0.
        2    1    3    3  502    0 -0.20732943285E+03 -0.80999985756E+03 -0.10209079979E+04  0.13195978187E+04  0.25500000920E-02 0. -1.
       -2    1    3    3    0  502  0.20732943285E+03  0.80999985756E+03  0.11092894456E+04  0.13891034292E+04  0.25500000920E-02 0.  1.
</event>
<event>
 5   0  0.3089218E-06  0.2696102E+04  0.7818609E-02  0.8336271E-01
        1   -1    0    0  501    0  0.00000000000E+00  0.00000000000E+00  0.13285215337E+04  0.13285215337E+04  0.50400001928E-02 0. -1.
       -1   -1    0    0    0  501  0.00000000000E+00  0.00000000000E+00 -0.13678674254E+04  0.13678674254E+04  0.50400001928E-02 0.  1.
    10030    2    1    2    0    0  0.00000000000E+00  0.00000000000E+00 -0.39345891711E+02  0.26963889591E+04  0.26961018748E+04 0.  0.
        5    1    3    3  502    0 -0.11943039945E+04 -0.19201107119E+03  0.57536011841E+03  0.13395117164E+04  0.46999998093E+01 0. -1.
       -5    1    3    3    0  502  0.11943039945E+04  0.19201107119E+03 -0.61470601012E+03  0.13568772426E+04  0.46999998093E+01 0.  1.
</event>
<event>
 5   0  0.8213334E-06  0.2690266E+04  0.7818609E-02  0.8338170E-01
        2   -1    0    0  501    0  0.00000000000E+00  0.00000000000E+00  0.19223466758E+04  0.19223466758E+04  0.25500000920E-02 0.  1.
       -2   -1    0    0    0  501  0.00000000000E+00  0.00000000000E+00 -0.94123618223E+03  0.94123618223E+03  0.25500000920E-02 0. -1.
    10030    2    1    2    0    0  0.00000000000E+00  0.00000000000E+00  0.98111049358E+03  0.28635828580E+04  0.26902655974E+04 0.  0.
        3    1    3    3  502    0 -0.28136329460E+03 -0.11708504726E+04 -0.14750102176E+03  0.12131828776E+04  0.10100000352E+00 0. -1.
       -3    1    3    3    0  502  0.28136329460E+03  0.11708504726E+04  0.11286115153E+04  0.16503999805E+04  0.10100000352E+00 0.  1.
</event>
<event>
 5   0  0.3028601E-06  0.2709775E+04  0.7818609E-02  0.8331840E-01
       -1   -1    0    0    0  501  0.00000000000E+00  0.00000000000E+00  0.15440171993E+04  0.15440171993E+04  0.50400001928E-02 0.  1.
        1   -1    0    0  501    0  0.00000000000E+00  0.00000000000E+00 -0.11889250130E+04  0.11889250130E+04  0.50400001928E-02 0. -1.
    10030    2    1    2    0    0  0.00000000000E+00  0.00000000000E+00  0.35509218625E+03  0.27329422123E+04  0.27097753920E+04 0.  0.
        3    1    3    3  502    0 -0.11312834777E+04 -0.30529314214E+03 -0.50850061494E+03  0.12773328052E+04  0.10100000352E+00 0. -1.
       -3    1    3    3    0  502  0.11312834777E+04  0.30529314214E+03  0.86359280119E+03  0.14556094071E+04  0.10100000352E+00 0.  1.
</event>
<event>
 5   0  0.3046300E-06  0.2717210E+04  0.7818609E-02  0.8329442E-01
        1   -1    0    0  501    0  0.00000000000E+00  0.00000000000E+00  0.13034462769E+04  0.13034462769E+04  0.50400001928E-02 0. -1.
       -1   -1    0    0    0  501  0.00000000000E+00  0.00000000000E+00 -0.14160979902E+04  0.14160979902E+04  0.50400001928E-02 0.  1.
    10030    2    1    2    0    0  0.00000000000E+00  0.00000000000E+00 -0.11265171327E+03  0.27195442671E+04  0.27172100788E+04 0.  0.
        2    1    3    3  502    0 -0.19646774018E+02  0.12922092643E+04 -0.47575252191E+03  0.13771460491E+04  0.25500000920E-02 0.  1.
       -2    1    3    3    0  502  0.19646774018E+02 -0.12922092643E+04  0.36310080864E+03  0.13423982180E+04  0.25500000920E-02 0. -1.
</event>
<event>
 5   0  0.3089218E-06  0.2704133E+04  0.7818609E-02  0.8333665E-01
       -1   -1    0    0    0  501  0.00000000000E+00  0.00000000000E+00  0.87423237663E+03  0.87423237665E+03  0.50400001928E-02 0. -1.
        1   -1    0    0  501    0  0.00000000000E+00  0.00000000000E+00 -0.20910732238E+04  0.20910732238E+04  0.50400001928E-02 0.  1.
    10030    2    1    2    0    0  0.00000000000E+00  0.00000000000E+00 -0.12168408472E+04  0.29653056005E+04  0.27041330694E+04 0.  0.
        5    1    3    3  502    0  0.65925218331E+03  0.87444051717E+03 -0.14779781387E+04  0.18394839297E+04  0.46999998093E+01 0.  1.
       -5    1    3    3    0  502 -0.65925218331E+03 -0.87444051717E+03  0.26113729152E+03  0.11258216707E+04  0.46999998093E+01 0. -1.
</event>
<event>
 5   0  0.7838364E-06  0.2701010E+04  0.7818609E-02  0.8334677E-01
       -2   -1    0    0    0  501  0.00000000000E+00  0.00000000000E+00  0.83648318390E+03  0.83648318391E+03  0.25500000920E-02 0. -1.
        2   -1    0    0  501    0  0.00000000000E+00  0.00000000000E+00 -0.21803953989E+04  0.21803953989E+04  0.25500000920E-02 0.  1.
    10030    2    1    2    0    0  0.00000000000E+00  0.00000000000E+00 -0.13439122150E+04  0.30168785828E+04  0.27010102447E+04 0.  0.
        2    1    3    3  502    0  0.76989870830E+03  0.61835126258E+03  0.35706553284E+03  0.10500467131E+04  0.25500000920E-02 0. -1.
       -2    1    3    3    0  502 -0.76989870830E+03 -0.61835126258E+03 -0.17009777478E+04  0.19668318697E+04  0.25500000920E-02 0.  1.
</event>
<event>
 5   0  0.7729970E-06  0.2717843E+04  0.7818609E-02  0.8329239E-01
       -2   -1    0    0    0  501  0.00000000000E+00  0.00000000000E+00  0.11238935992E+04  0.11238935992E+04  0.25500000920E-02 0. -1.
        2   -1    0    0  501    0  0.00000000000E+00  0.00000000000E+00 -0.16430979346E+04  0.16430979346E+04  0.25500000920E-02 0.  1.
    10030    2    1    2    0    0  0.00000000000E+00  0.00000000000E+00 -0.51920433539E+03  0.27669915338E+04  0.27178427118E+04 0.  0.
        4    1    3    3  502    0 -0.78584651720E+03 -0.61548340281E+03  0.67918537942E+03  0.12073396209E+04  0.12699999809E+01 0. -1.
       -4    1    3    3    0  502  0.78584651720E+03  0.61548340281E+03 -0.11983897148E+04  0.15596519128E+04  0.12699999809E+01 0.  1.
</event>
<event>
 5   0  0.3028601E-06  0.2670354E+04  0.7818609E-02  0.8344689E-01
        1   -1    0    0  501    0  0.00000000000E+00  0.00000000000E+00  0.12718729727E+04  0.12718729727E+04  0.50400001928E-02 0. -1.
       -1   -1    0    0    0  501  0.00000000000E+00  0.00000000000E+00 -0.14016317350E+04  0.14016317350E+04  0.50400001928E-02 0.  1.
    10030    2    1    2    0    0  0.00000000000E+00  0.00000000000E+00 -0.12975876229E+03  0.26735047077E+04  0.26703539252E+04 0.  0.
        3    1    3    3  502    0  0.21703970948E+03 -0.63996337650E+03  0.10880166311E+04  0.12807964548E+04  0.10100000352E+00 0. -1.
       -3    1    3    3    0  502 -0.21703970948E+03  0.63996337650E+03 -0.12177753934E+04  0.13927082529E+04  0.10100000352E+00 0.  1.
</event>
<event>
 5   0  0.7838364E-06  0.2734496E+04  0.7818609E-02  0.8323898E-01
        2   -1    0    0  501    0  0.00000000000E+00  0.00000000000E+00  0.14774032432E+04  0.14774032433E+04  0.25500000920E-02 0. -1.
       -2   -1    0    0    0  501  0.00000000000E+00  0.00000000000E+00 -0.12653063612E+04  0.12653063612E+04  0.25500000920E-02 0.  1.
    10030    2    1    2    0    0  0.00000000000E+00  0.00000000000E+00  0.21209688208E+03  0.27427096044E+04  0.27344964595E+04 0.  0.
        2    1    3    3  502    0 -0.13710814926E+03  0.24228682634E+03  0.14486750410E+04  0.14751816584E+04  0.25500000920E-02 0. -1.
       -2    1    3    3    0  502  0.13710814926E+03 -0.24228682634E+03 -0.12365781589E+04  0.12675279460E+04  0.25500000920E-02 0.  1.
</event>
<event>
 5   0  0.3089218E-06  0.2692073E+04  0.7818609E-02  0.8337582E-01
       -1   -1    0    0    0  501  0.00000000000E+00  0.00000000000E+00  0.79654521988E+03  0.79654521989E+03  0.50400001928E-02 0.  1.
        1   -1    0    0  501    0  0.00000000000E+00  0.00000000000E+00 -0.22745908846E+04  0.22745908846E+04  0.50400001928E-02 0. -1.
    10030    2    1    2    0    0  0.00000000000E+00  0.00000000000E+00 -0.14780456647E+04  0.30711361045E+04  0.26920731761E+04 0.  0.
        5    1    3    3  502    0  0.91402624010E+01 -0.10923304850E+04  0.15817893503E+03  0.11037717601E+04  0.46999998093E+01 0.  1.
       -5    1    3    3    0  502 -0.91402624010E+01  0.10923304850E+04 -0.16362245997E+04  0.19673643444E+04  0.46999998093E+01 0. -1.
</event>
<event>
 5   0  0.3013407E-06  0.2698210E+04  0.7818609E-02  0.8335586E-01
        1   -1    0    0  501    0  0.00000000000E+00  0.00000000000E+00  0.21437634704E+04  0.21437634704E+04  0.50400001928E-02 0. -1.
       -1   -1    0    0    0  501  0.00000000000E+00  0.00000000000E+00 -0.84901330077E+03  0.84901330079E+03  0.50400001928E-02 0.  1.
    10030    2    1    2    0    0  0.00000000000E+00  0.00000000000E+00  0.12947501696E+04  0.29927767712E+04  0.26982095546E+04 0.  0.
        4    1    3    3  502    0 -0.72908565275E+03 -0.57862256356E+01  0.19064105028E+04  0.20410786334E+04  0.12699999809E+01 0. -1.
       -4    1    3    3    0  502  0.72908565275E+03  0.57862256356E+01 -0.61166033319E+03  0.95169813783E+03  0.12699999809E+01 0.  1.
</event>
<event>
 5   0  0.3046300E-06  0.2694542E+04  0.7818609E-02  0.8336778E-01
        1   -1    0    0  501    0  0.00000000000E+00  0.00000000000E+00  0.24524055615E+04  0.24524055615E+04  0.50400001928E-02 0. -1.
       -1   -1    0    0    0  501  0.00000000000E+00  0.00000000000E+00 -0.74014651429E+03  0.74014651431E+03  0.50400001928E-02 0.  1.
    10030    2    1    2    0    0  0.00000000000E+00  0.00000000000E+00  0.17122590472E+04  0.31925520758E+04  0.26945422082E+04 0.  0.
        2    1    3    3  502    0  0.17824638521E+03  0.12415109506E+04  0.27325238115E+03  0.12836619797E+04  0.25500000920E-02 0.  1.
       -2    1    3    3    0  502 -0.17824638521E+03 -0.12415109506E+04  0.14390066660E+04  0.19088900961E+04  0.25500000920E-02 0. -1.
</event>
<event>
 5   0  0.3089218E-06  0.2567490E+04  0.7818609E-02  0.8379329E-01
        1   -1    0    0  501    0  0.00000000000E+00  0.00000000000E+00  0.12199397319E+04  0.12199397319E+04  0.50400001928E-02 0.  1.
       -1   -1    0    0    0  501  0.00000000000E+00  0.00000000000E+00 -0.13508873491E+04  0.13508873491E+04  0.50400001928E-02 0. -1.
    10030    2    1    2    0    0  0.00000000000E+00  0.00000000000E+00 -0.13094761718E+03  0.25708270810E+04  0.25674899420E+04 0.  0.
        5    1    3    3  502    0  0.40084867098E+03  0.58945959295E+02  0.11542329338E+04  0.12232865726E+04  0.46999998093E+01 0.  1.
       -5    1    3    3    0  502 -0.40084867098E+03 -0.58945959295E+02 -0.12851805510E+04  0.13475405084E+04  0.46999998093E+01 0. -1.
</event>
<event>
 5   0  0.3199840E-06  0.2718256E+04  0.7818609E-02  0.8329106E-01
        1   -1    0    0  501    0  0.00000000000E+00  0.00000000000E+00  0.13014699458E+04  0.13014699458E+04  0.50400001928E-02 0. -1.
       -1   -1    0    0    0  501  0.00000000000E+00  0.00000000000E+00 -0.14193399368E+04  0.14193399368E+04  0.50400001928E-02 0.  1.
    10030    2    1    2    0    0  0.00000000000E+00  0.00000000000E+00 -0.11786999100E+03  0.27208098826E+04  0.27182555219E+04 0.  0.
        1    1    3    3  502    0  0.11826901008E+04 -0.12345688628E+03 -0.71775621166E+03  0.13889461677E+04  0.50400001928E-02 0.  1.
       -1    1    3    3    0  502 -0.11826901008E+04  0.12345688628E+03  0.59988622066E+03  0.13318637149E+04  0.50400001928E-02 0. -1.
</event>
<event>
 5   0  0.8213334E-06  0.2680622E+04  0.7818609E-02  0.8341320E-01
        2   -1    0    0  501    0  0.00000000000E+00  0.00000000000E+00  0.20057801332E+04  0.20057801332E+04  0.25500000920E-02 0. -1.
       -2   -1    0    0    0  501  0.00000000000E+00  0.00000000000E+00 -0.89562855279E+03  0.89562855280E+03  0.25500000920E-02 0.  1.
    10030    2    1    2    0    0  0.00000000000E+00  0.00000000000E+00  0.11101515804E+04  0.29014086860E+04  0.26806222844E+04 0.  0.
        3    1    3    3  502    0  0.12558613724E+04  0.24768356373E+03  0.98516940138E+03  0.16152689231E+04  0.10100000352E+00 0. -1.
       -3    1    3    3    0  502 -0.12558613724E+04 -0.24768356373E+03  0.12498217905E+03  0.12861397629E+04  0.10100000352E+00 0.  1.
</event>
<event>
 5   0  0.8213334E-06  0.2706463E+04  0.7818609E-02  0.8332911E-01
       -2   -1    0    0    0  501  0.00000000000E+00  0.00000000000E+00  0.13091121840E+04  0.13091121840E+04  0.25500000920E-02 0. -1.
        2   -1    0    0  501    0  0.00000000000E+00  0.00000000000E+00 -0.13988380317E+04  0.13988380317E+04  0.25500000920E-02 0.  1.
    10030    2    1    2    0    0  0.00000000000E+00  0.00000000000E+00 -0.89725847670E+02  0.27079502156E+04  0.27064633089E+04 0.  0.
        3    1    3    3  502    0 -0.13614593341E+03 -0.60837294141E+03  0.11568725166E+04  0.13141565283E+04  0.10100000352E+00 0. -1.
       -3    1    3    3    0  502  0.13614593341E+03  0.60837294141E+03 -0.12465983642E+04  0.13937936874E+04  0.10100000352E+00 0.  1.
</event>
<event>
 5   0  0.3089218E-06  0.2418316E+04  0.7818609E-02  0.8432678E-01
       -1   -1    0    0    0  501  0.00000000000E+00  0.00000000000E+00  0.76701249726E+03  0.76701249728E+03  0.50400001928E-02 0.  1.
        1   -1    0    0  501    0  0.00000000000E+00  0.00000000000E+00 -0.19061785605E+04  0.19061785605E+04  0.50400001928E-02 0. -1.
    10030    2    1    2    0    0  0.00000000000E+00  0.00000000000E+00 -0.11391660633E+04  0.26731910578E+04  0.24183157593E+04 0.  0.
        5    1    3    3  502    0 -0.15348054614E+03 -0.13199435722E+03 -0.18873041053E+04  0.18981353125E+04  0.46999998093E+01 0. -1.
       -5    1    3    3    0  502  0.15348054614E+03  0.13199435722E+03  0.74813804208E+03  0.77505574534E+03  0.46999998093E+01 0.  1.
</event>
<event>
 5   0  0.3028601E-06  0.2713770E+04  0.7818609E-02  0.8330551E-01
       -1   -1    0    0    0  501  0.00000000000E+00  0.00000000000E+00  0.11383341126E+04  0.11383341127E+04  0.50400001928E-02 0.  1.
        1   -1    0    0  501    0  0.00000000000E+00  0.00000000000E+00 -0.16173960469E+04  0.16173960469E+04  0.50400001928E-02 0. -1.
    10030    2    1    2    0    0  0.00000000000E+00  0.00000000000E+00 -0.47906193427E+03  0.27557301596E+04  0.27137701405E+04 0.  0.
        3    1    3    3  502    0  0.28521839207E+03  0.47129155397E+03 -0.14987331210E+04  0.15967674340E+04  0.10100000352E+00 0. -1.
       -3    1    3    3    0  502 -0.28521839207E+03 -0.47129155397E+03  0.10196711868E+04  0.11589627256E+04  0.10100000352E+00 0.  1.
</event>
<event>
 5   0  0.3028601E-06  0.2700391E+04  0.7818609E-02  0.8334878E-01
       -1   -1    0    0    0  501  0.00000000000E+00  0.00000000000E+00  0.15475663456E+04  0.15475663456E+04  0.50400001928E-02 0. -1.
        1   -1    0    0  501    0  0.00000000000E+00  0.00000000000E+00 -0.11779962504E+04  0.11779962504E+04  0.50400001928E-02 0.  1.
    10030    2    1    2    0    0  0.00000000000E+00  0.00000000000E+00  0.36957009517E+03  0.27255625960E+04  0.27003906031E+04 0.  0.
        3    1    3    3  502    0 -0.74423715978E+03  0.14273024492E+03 -0.94311388856E+03  0.12098449032E+04  0.10100000352E+00 0.  1.
       -3    1    3    3    0  502  0.74423715978E+03 -0.14273024492E+03  0.13126839837E+04  0.15157176928E+04  0.10100000352E+00 0. -1.
</event>
<event>
 5   0  0.7838364E-06  0.2711216E+04  0.7818609E-02  0.8331375E-01
       -2   -1    0    0    0  501  0.00000000000E+00  0.00000000000E+00  0.14806875501E+04  0.14806875501E+04  0.25500000920E-02 0.  1.
        2   -1    0    0  501    0  0.00000000000E+00  0.00000000000E+00 -0.12410948020E+04  0.12410948020E+04  0.25500000920E-02 0. -1.
    10030    2    1    2    0    0  0.00000000000E+00  0.00000000000E+00  0.23959274808E+03  0.27217823522E+04  0.27112164221E+04 0.  0.
        2    1    3    3  502    0  0.13163897591E+04 -0.26723177139E+03 -0.63614295575E+02  0.13447459225E+04  0.25500000920E-02 0.  1.
       -2    1    3    3    0  502 -0.13163897591E+04  0.26723177139E+03  0.30320704365E+03  0.13770364297E+04  0.25500000920E-02 0. -1.
</event>
<event>
 5   0  0.7838364E-06  0.2704982E+04  0.7818609E-02  0.8333390E-01
        2   -1    0    0  501    0  0.00000000000E+00  0.00000000000E+00  0.21945003515E+04  0.21945003515E+04  0.25500000920E-02 0. -1.
       -2   -1    0    0    0  501  0.00000000000E+00  0.00000000000E+00 -0.83355287798E+03  0.83355287798E+03  0.25500000920E-02 0.  1.
    10030    2    1    2    0    0  0.00000000000E+00  0.00000000000E+00  0.13609474735E+04  0.30280532295E+04  0.27049821321E+04 0.  0.
        2    1    3    3  502    0 -0.45020572251E+03 -0.11159718589E+04 -0.10639443208E+02  0.12034083181E+04  0.25500000920E-02 0. -1.
       -2    1    3    3    0  502  0.45020572251E+03  0.11159718589E+04  0.13715869167E+04  0.18246449113E+04  0.25500000920E-02 0.  1.
</event>
<event>
 5   0  0.3013407E-06  0.2721483E+04  0.7818609E-02  0.8328068E-01
        1   -1    0    0  501    0  0.00000000000E+00  0.00000000000E+00  0.15947842541E+04  0.15947842541E+04  0.50400001928E-02 0.  1.
       -1   -1    0    0    0  501  0.00000000000E+00  0.00000000000E+00 -0.11610459558E+04  0.11610459558E+04  0.50400001928E-02 0. -1.
    10030    2    1    2    0    0  0.00000000000E+00  0.00000000000E+00  0.43373829832E+03  0.27558302100E+04  0.27214832784E+04 0.  0.
        4    1    3    3  502    0  0.12816436790E+04  0.32047757998E+03  0.54702044256E+03  0.14298773992E+04  0.12699999809E+01 0.  1.
       -4    1    3    3    0  502 -0.12816436790E+04 -0.32047757998E+03 -0.11328214424E+03  0.13259528108E+04  0.12699999809E+01 0. -1.
</event>
<event>
 5   0  0.8407622E-06  0.2875288E+04  0.7818609E-02  0.8280268E-01
        2   -1    0    0  501    0  0.00000000000E+00  0.00000000000E+00  0.15353295177E+04  0.15353295177E+04  0.25500000920E-02 0. -1.
       -2   -1    0    0    0  501  0.00000000000E+00  0.00000000000E+00 -0.13461732687E+04  0.13461732687E+04  0.25500000920E-02 0.  1.
    10030    2    1    2    0    0  0.00000000000E+00  0.00000000000E+00  0.18915624901E+03  0.28815027864E+04  0.28752875024E+04 0.  0.
        1    1    3    3  502    0 -0.11433175949E+04 -0.87157100443E+03  0.91670679643E+02  0.14405605340E+04  0.50400001928E-02 0.  1.
       -1    1    3    3    0  502  0.11433175949E+04  0.87157100443E+03  0.97485569362E+02  0.14409422524E+04  0.50400001928E-02 0. -1.
</event>
<event>
 5   0  0.7812908E-06  0.2701198E+04  0.7818609E-02  0.8334617E-01
       -2   -1    0    0    0  501  0.00000000000E+00  0.00000000000E+00  0.14036674873E+04  0.14036674873E+04  0.25500000920E-02 0.  1.
        2   -1    0    0  501    0  0.00000000000E+00  0.00000000000E+00 -0.12995364393E+04  0.12995364393E+04  0.25500000920E-02 0. -1.
    10030    2    1    2    0    0  0.00000000000E+00  0.00000000000E+00  0.10413104799E+03  0.27032039267E+04  0.27011975481E+04 0.  0.
        5    1    3    3  502    0  0.10546287771E+04  0.30080676396E+03 -0.73678921973E+03  0.13212142185E+04  0.46999998093E+01 0. -1.
       -5    1    3    3    0  502 -0.10546287771E+04 -0.30080676396E+03  0.84092026772E+03  0.13819897082E+04  0.46999998093E+01 0.  1.
</event>
<event>
 5   0  0.7812908E-06  0.2677361E+04  0.7818609E-02  0.8342388E-01
        2   -1    0    0  501    0  0.00000000000E+00  0.00000000000E+00  0.14367271533E+04  0.14367271533E+04  0.25500000920E-02 0.  1.
       -2   -1    0    0    0  501  0.00000000000E+00  0.00000000000E+00 -0.12473248372E+04  0.12473248372E+04  0.25500000920E-02 0. -1.
    10030    2    1    2    0    0  0.00000000000E+00  0.00000000000E+00  0.18940231614E+03  0.26840519905E+04  0.26773609862E+04 0.  0.
        5    1    3    3  502    0 -0.21354494776E+03  0.73066366912E+02 -0.12281051411E+04  0.12486810907E+04  0.46999998093E+01 0. -1.
       -5    1    3    3    0  502  0.21354494776E+03 -0.73066366912E+02  0.14175074572E+04  0.14353708998E+04  0.46999998093E+01 0.  1.
</event>
<event>
 5   0  0.7838364E-06  0.2409355E+04  0.7818609E-02  0.8436009E-01
       -2   -1    0    0    0  501  0.00000000000E+00  0.00000000000E+00  0.93280150271E+03  0.93280150272E+03  0.25500000920E-02 0. -1.
        2   -1    0    0  501    0  0.00000000000E+00  0.00000000000E+00 -0.15557953645E+04  0.15557953645E+04  0.25500000920E-02 0.  1.
    10030    2    1    2    0    0  0.00000000000E+00  0.00000000000E+00 -0.62299386183E+03  0.24885968673E+04  0.24093553113E+04 0.  0.
        2    1    3    3  502    0  0.11755261615E+04  0.18718776758E+03 -0.50292234895E+03  0.12922197591E+04  0.25500000920E-02 0.  1.
       -2    1    3    3    0  502 -0.11755261615E+04 -0.18718776758E+03 -0.12007151288E+03  0.11963771082E+04  0.25500000920E-02 0. -1.
</event>
<event>
 5   0  0.3089218E-06  0.2684656E+04  0.7818609E-02  0.8340001E-01
       -1   -1    0    0    0  501  0.00000000000E+00  0.00000000000E+00  0.17774330608E+04  0.17774330609E+04  0.50400001928E-02 0.  1.
        1   -1    0    0  501    0  0.00000000000E+00  0.00000000000E+00 -0.10137338378E+04  0.10137338379E+04  0.50400001928E-02 0. -1.
    10030    2    1    2    0    0  0.00000000000E+00  0.00000000000E+00  0.76369922300E+03  0.27911668987E+04  0.26846556862E+04 0.  0.
        5    1    3    3  502    0  0.55773780946E+03 -0.11297031323E+04 -0.99690466897E+02  0.12638278801E+04  0.46999998093E+01 0. -1.
       -5    1    3    3    0  502 -0.55773780946E+03  0.11297031323E+04  0.86338968990E+03  0.15273390186E+04  0.46999998093E+01 0.  1.
</event>
<event>
 5   0  0.8213334E-06  0.2601871E+04  0.7818609E-02  0.8367566E-01
        2   -1    0    0  501    0  0.00000000000E+00  0.00000000000E+00  0.23558191533E+04  0.23558191533E+04  0.25500000920E-02 0. -1.
       -2   -1    0    0    0  501  0.00000000000E+00  0.00000000000E+00 -0.71840519031E+03  0.71840519032E+03  0.25500000920E-02 0.  1.
    10030    2    1    2    0    0  0.00000000000E+00  0.00000000000E+00  0.16374139630E+04  0.30742243436E+04  0.26018706403E+04 0.  0.
        3    1    3    3  502    0 -0.95308031771E+03  0.76522622648E+03  0.13451234723E+04  0.18174956494E+04  0.10100000352E+00 0.  1.
       -3    1    3    3    0  502  0.95308031771E+03 -0.76522622648E+03  0.29229049070E+03  0.12567286942E+04  0.10100000352E+00 0. -1.
</event>
<event>
 5   0  0.3028601E-06  0.2743116E+04  0.7818609E-02  0.8321149E-01
       -1   -1    0    0    0  501  0.00000000000E+00  0.00000000000E+00  0.86730924084E+03  0.86730924085E+03  0.50400001928E-02 0. -1.
        1   -1    0    0  501    0  0.00000000000E+00  0.00000000000E+00 -0.21689744932E+04  0.21689744932E+04  0.50400001928E-02 0.  1.
    10030    2    1    2    0    0  0.00000000000E+00  0.00000000000E+00 -0.13016652523E+04  0.30362837340E+04  0.27431161996E+04 0.  0.
        3    1    3    3  502    0  0.91074160070E+03  0.97737090352E+03 -0.99461893752E+03  0.16655242380E+04  0.10100000352E+00 0.  1.
       -3    1    3    3    0  502 -0.91074160070E+03 -0.97737090352E+03 -0.30704631481E+03  0.13707594960E+04  0.10100000352E+00 0. -1.
</event>
<event>
 5   0  0.7729970E-06  0.2707095E+04  0.7818609E-02  0.8332706E-01
        2   -1    0    0  501    0  0.00000000000E+00  0.00000000000E+00  0.95232496339E+03  0.95232496339E+03  0.25500000920E-02 0. -1.
       -2   -1    0    0    0  501  0.00000000000E+00  0.00000000000E+00 -0.19238088593E+04  0.19238088593E+04  0.25500000920E-02 0.  1.
    10030    2    1    2    0    0  0.00000000000E+00  0.00000000000E+00 -0.97148389590E+03  0.28761338227E+04  0.27070952709E+04 0.  0.
        4    1    3    3  502    0 -0.32910713808E+03 -0.70629462376E+03 -0.16616150957E+04  0.18352465619E+04  0.12699999809E+01 0.  1.
       -4    1    3    3    0  502  0.32910713808E+03  0.70629462376E+03  0.69013119976E+03  0.10408872608E+04  0.12699999809E+01 0. -1.
</event>
<event>
 5   0  0.3046300E-06  0.2665690E+04  0.7818609E-02  0.8346224E-01
       -1   -1    0    0    0  501  0.00000000000E+00  0.00000000000E+00  0.17826084775E+04  0.17826084775E+04  0.50400001928E-02 0.  1.
        1   -1    0    0  501    0  0.00000000000E+00  0.00000000000E+00 -0.99655997577E+03  0.99655997579E+03  0.50400001928E-02 0. -1.
    10030    2    1    2    0    0  0.00000000000E+00  0.00000000000E+00  0.78604850170E+03  0.27791684533E+04  0.26656903505E+04 0.  0.
        2    1    3    3  502    0 -0.54502327403E+03  0.13642733750E+03  0.16531171215E+04  0.17459836784E+04  0.25500000920E-02 0.  1.
       -2    1    3    3    0  502  0.54502327403E+03 -0.13642733750E+03 -0.86706861980E+03  0.10331847749E+04  0.25500000920E-02 0. -1.
</event>
<event>
 5   0  0.3199840E-06  0.2704444E+04  0.7818609E-02  0.8333564E-01
        1   -1    0    0  501    0  0.00000000000E+00  0.00000000000E+00  0.12158370436E+04  0.12158370436E+04  0.50400001928E-02 0. -1.
       -1   -1    0    0    0  501  0.00000000000E+00  0.00000000000E+00 -0.15039058477E+04  0.15039058477E+04  0.50400001928E-02 0.  1.
    10030    2    1    2    0    0  0.00000000000E+00  0.00000000000E+00 -0.28806880410E+03  0.27197428913E+04  0.27044440758E+04 0.  0.
        1    1    3    3  502    0 -0.85319426309E+03  0.79581090214E+03  0.54338855873E+03  0.12870612139E+04  0.50400001928E-02 0. -1.
       -1    1    3    3    0  502  0.85319426309E+03 -0.79581090214E+03 -0.83145736284E+03  0.14326816774E+04  0.50400001928E-02 0.  1.
</event>
<event>
 5   0  0.7812908E-06  0.2391018E+04  0.7818609E-02  0.8442874E-01
        2   -1    0    0  501    0  0.00000000000E+00  0.00000000000E+00  0.23271952542E+04  0.23271952542E+04  0.25500000920E-02 0.  1.
       -2   -1    0    0    0  501  0.00000000000E+00  0.00000000000E+00 -0.61414774786E+03  0.61414774787E+03  0.25500000920E-02 0. -1.
    10030    2    1    2    0    0  0.00000000000E+00  0.00000000000E+00  0.17130475064E+04  0.29413430021E+04  0.23910179625E+04 0.  0.
        5    1    3    3  502    0  0.44140998067E+03 -0.10833084642E+04  0.11599022091E+04  0.16473600773E+04  0.46999998093E+01 0.  1.
       -5    1    3    3    0  502 -0.44140998067E+03  0.10833084642E+04  0.55314529728E+03  0.12939829248E+04  0.46999998093E+01 0. -1.
</event>
<event>
 5   0  0.3089218E-06  0.2699964E+04  0.7818609E-02  0.8335017E-01
        1   -1    0    0  501    0  0.00000000000E+00  0.00000000000E+00  0.19185152143E+04  0.19185152143E+04  0.50400001928E-02 0.  1.
       -1   -1    0    0    0  501  0.00000000000E+00  0.00000000000E+00 -0.94992801465E+03  0.94992801467E+03  0.50400001928E-02 0. -1.
    10030    2    1    2    0    0  0.00000000000E+00  0.00000000000E+00  0.96858719963E+03  0.28684432290E+04  0.26999639617E+04 0.  0.
        5    1    3    3  502    0  0.76292730163E+03  0.64626209097E+03 -0.47934324169E+03  0.11088303708E+04  0.46999998093E+01 0. -1.
       -5    1    3    3    0  502 -0.76292730163E+03 -0.64626209097E+03  0.14479304413E+04  0.17596128582E+04  0.46999998093E+01 0.  1.
</event>
<event>
 5   0  0.8213334E-06  0.2699857E+04  0.7818609E-02  0.8335051E-01
        2   -1    0    0  501    0  0.00000000000E+00  0.00000000000E+00  0.12140848416E+04  0.12140848416E+04  0.25500000920E-02 0.  1.
       -2   -1    0    0    0  501  0.00000000000E+00  0.00000000000E+00 -0.15009712664E+04  0.15009712664E+04  0.25500000920E-02 0. -1.
    10030    2    1    2    0    0  0.00000000000E+00  0.00000000000E+00 -0.28688642477E+03  0.27150561080E+04  0.26998566349E+04 0.  0.
        3    1    3    3  502    0 -0.91272679162E+03 -0.99096467419E+03 -0.22892333896E+03  0.13665603122E+04  0.10100000352E+00 0. -1.
       -3    1    3    3    0  502  0.91272679162E+03  0.99096467419E+03 -0.57963085816E+02  0.13484957957E+04  0.10100000352E+00 0.  1.
</event>
<event>
 5   0  0.8407622E-06  0.2683028E+04  0.7818609E-02  0.8340533E-01
       -2   -1    0    0    0  501  0.00000000000E+00  0.00000000000E+00  0.16717432417E+04  0.16717432417E+04  0.25500000920E-02 0. -1.
        2   -1    0    0  501    0  0.00000000000E+00  0.00000000000E+00 -0.10765166382E+04  0.10765166382E+04  0.25500000920E-02 0.  1.
    10030    2    1    2    0    0  0.00000000000E+00  0.00000000000E+00  0.59522660344E+03  0.27482598799E+04  0.26830277036E+04 0.  0.
        1    1    3    3  502    0  0.45830725917E+03 -0.53402740790E+03 -0.87227068597E+03  0.11207528567E+04  0.50400001928E-02 0.  1.
       -1    1    3    3    0  502 -0.45830725917E+03  0.53402740790E+03  0.14674972894E+04  0.16275070232E+04  0.50400001928E-02 0. -1.
</event>
<event>
 5   0  0.3046300E-06  0.2706331E+04  0.7818609E-02  0.8332954E-01
       -1   -1    0    0    0  501  0.00000000000E+00  0.00000000000E+00  0.11604400190E+04  0.11604400190E+04  0.50400001928E-02 0. -1.
        1   -1    0    0  501    0  0.00000000000E+00  0.00000000000E+00 -0.15778988571E+04  0.15778988571E+04  0.50400001928E-02 0.  1.
    10030    2    1    2    0    0  0.00000000000E+00  0.00000000000E+00 -0.41745883811E+03  0.27383388761E+04  0.27063310808E+04 0.  0.
        2    1    3    3  502    0  0.10574279035E+03 -0.11545551577E+03 -0.15687037615E+04  0.15764970679E+04  0.25500000920E-02 0.  1.
       -2    1    3    3    0  502 -0.10574279035E+03  0.11545551577E+03  0.11512449234E+04  0.11618418083E+04  0.25500000920E-02 0. -1.
</event>
<event>
 5   0  0.3046300E-06  0.2532201E+04  0.7818609E-02  0.8391603E-01
       -1   -1    0    0    0  501  0.00000000000E+00  0.00000000000E+00  0.56015393200E+03  0.56015393202E+03  0.50400001928E-02 0.  1.
        1   -1    0    0  501    0  0.00000000000E+00  0.00000000000E+00 -0.28617311798E+04  0.28617311798E+04  0.50400001928E-02 0. -1.
    10030    2    1    2    0    0  0.00000000000E+00  0.00000000000E+00 -0.23015772478E+04  0.34218851119E+04  0.25322006024E+04 0.  0.
        2    1    3    3  502    0  0.11108842568E+03 -0.12121068948E+04 -0.67981665805E+03  0.13941644276E+04  0.25500000920E-02 0.  1.
       -2    1    3    3    0  502 -0.11108842568E+03  0.12121068948E+04 -0.16217605898E+04  0.20277206842E+04  0.25500000920E-02 0. -1.
</event>
<event>
 5   0  0.8213334E-06  0.2698196E+04  0.7818609E-02  0.8335591E-01
       -2   -1    0    0    0  501  0.00000000000E+00  0.00000000000E+00  0.11657038841E+04  0.11657038841E+04  0.25500000920E-02 0.  1.
        2   -1    0    0  501    0  0.00000000000E+00  0.00000000000E+00 -0.15613440312E+04  0.15613440312E+04  0.25500000920E-02 0. -1.
    10030    2    1    2    0    0  0.00000000000E+00  0.00000000000E+00 -0.39564014705E+03  0.27270479154E+04  0.26981955464E+04 0.  0.
        3    1    3    3  502    0  0.55921542952E+03  0.11396867745E+04  0.26363299491E+03  0.12965763405E+04  0.10100000352E+00 0.  1.
       -3    1    3    3    0  502 -0.55921542952E+03 -0.11396867745E+04 -0.65927314196E+03  0.14304715748E+04  0.10100000352E+00 0. -1.
</event>
<event>
 5   0  0.7812908E-06  0.2644057E+04  0.7818609E-02  0.8353388E-01
        2   -1    0    0  501    0  0.00000000000E+00  0.00000000000E+00  0.16730957814E+04  0.16730957814E+04  0.25500000920E-02 0.  1.
       -2   -1    0    0    0  501  0.00000000000E+00  0.00000000000E+00 -0.10446258200E+04  0.10446258200E+04  0.25500000920E-02 0. -1.
    10030    2    1    2    0    0  0.00000000000E+00  0.00000000000E+00  0.62846996136E+03  0.27177216014E+04  0.26440567714E+04 0.  0.
        5    1    3    3  502    0  0.82725979030E+03  0.15856150775E+03  0.13615620452E+04  0.16010539670E+04  0.46999998093E+01 0.  1.
       -5    1    3    3    0  502 -0.82725979030E+03 -0.15856150775E+03 -0.73309208381E+03  0.11166676344E+04  0.46999998093E+01 0. -1.
</event>
<event>
 5   0  0.3013407E-06  0.2677592E+04  0.7818609E-02  0.8342312E-01
       -1   -1    0    0    0  501  0.00000000000E+00  0.00000000000E+00  0.80108927102E+03  0.80108927104E+03  0.50400001928E-02 0.  1.
        1   -1    0    0  501    0  0.00000000000E+00  0.00000000000E+00 -0.22374215212E+04  0.22374215212E+04  0.50400001928E-02 0. -1.
    10030    2    1    2    0    0  0.00000000000E+00  0.00000000000E+00 -0.14363322502E+04  0.30385107923E+04  0.26775917355E+04 0.  0.
        4    1    3    3  502    0 -0.10102114781E+04 -0.86899009400E+03 -0.57151094873E+03  0.14499301332E+04  0.12699999809E+01 0.  1.
       -4    1    3    3    0  502  0.10102114781E+04  0.86899009400E+03 -0.86482130148E+03  0.15885806590E+04  0.12699999809E+01 0. -1.
</event>
<event>
 5   0  0.3013407E-06  0.2701201E+04  0.7818609E-02  0.8334615E-01
       -1   -1    0    0    0  501  0.00000000000E+00  0.00000000000E+00  0.86414011146E+03  0.86414011147E+03  0.50400001928E-02 0.  1.
        1   -1    0    0  501    0  0.00000000000E+00  0.00000000000E+00 -0.21109102419E+04  0.21109102419E+04  0.50400001928E-02 0. -1.
    10030    2    1    2    0    0  0.00000000000E+00  0.00000000000E+00 -0.12467701305E+04  0.29750503534E+04  0.27012013711E+04 0.  0.
        4    1    3    3  502    0  0.58011313808E+03  0.17266104617E+03 -0.19531748178E+04  0.20448072212E+04  0.12699999809E+01 0. -1.
       -4    1    3    3    0  502 -0.58011313808E+03 -0.17266104617E+03  0.70640468737E+03  0.93024313223E+03  0.12699999809E+01 0.  1.
</event>
<event>
 5   0  0.3199840E-06  0.2707740E+04  0.7818609E-02  0.8332498E-01
        1   -1    0    0  501    0  0.00000000000E+00  0.00000000000E+00  0.17491711303E+04  0.17491711303E+04  0.50400001928E-02 0. -1.
       -1   -1    0    0    0  501  0.00000000000E+00  0.00000000000E+00 -0.10479039504E+04  0.10479039504E+04  0.50400001928E-02 0.  1.
    10030    2    1    2    0    0  0.00000000000E+00  0.00000000000E+00  0.70126717991E+03  0.27970750808E+04  0.27077395277E+04 0.  0.
        1    1    3    3  502    0  0.10747404416E+04  0.54147578012E+03  0.99133916336E+03  0.15591716949E+04  0.50400001928E-02 0. -1.
       -1    1    3    3    0  502 -0.10747404416E+04 -0.54147578012E+03 -0.29007198345E+03  0.12379033859E+04  0.50400001928E-02 0.  1.
</event>
<event>
 5   0  0.3199840E-06  0.2704611E+04  0.7818609E-02  0.8333510E-01
       -1   -1    0    0    0  501  0.00000000000E+00  0.00000000000E+00  0.73045495959E+03  0.73045495961E+03  0.50400001928E-02 0. -1.
        1   -1    0    0  501    0  0.00000000000E+00  0.00000000000E+00 -0.25035493685E+04  0.25035493685E+04  0.50400001928E-02 0.  1.
    10030    2    1    2    0    0  0.00000000000E+00  0.00000000000E+00 -0.17730944089E+04  0.32340043282E+04  0.27046109168E+04 0.  0.
        1    1    3    3  502    0 -0.11516140959E+04  0.51277103475E+03 -0.30126962231E+03  0.12961144029E+04  0.50400001928E-02 0. -1.
       -1    1    3    3    0  502  0.11516140959E+04 -0.51277103475E+03 -0.14718247866E+04  0.19378899253E+04  0.50400001928E-02 0.  1.
</event>
<event>
 5   0  0.3046300E-06  0.2687229E+04  0.7818609E-02  0.8339161E-01
        1   -1    0    0  501    0  0.00000000000E+00  0.00000000000E+00  0.16235536005E+04  0.16235536006E+04  0.50400001928E-02 0. -1.
       -1   -1    0    0    0  501  0.00000000000E+00  0.00000000000E+00 -0.11119436513E+04  0.11119436513E+04  0.50400001928E-02 0.  1.
    10030    2    1    2    0    0  0.00000000000E+00  0.00000000000E+00  0.51160994928E+03  0.27354972518E+04  0.26872291444E+04 0.  0.
        2    1    3    3  502    0 -0.57416416772E+02  0.85437327305E+03  0.13098012075E+04  0.15648736491E+04  0.25500000920E-02 0. -1.
       -2    1    3    3    0  502  0.57416416772E+02 -0.85437327305E+03 -0.79819125818E+03  0.11706236027E+04  0.25500000920E-02 0.  1.
</event>
<event>
 5   0  0.3089218E-06  0.2726492E+04  0.7818609E-02  0.8326460E-01
       -1   -1    0    0    0  501  0.00000000000E+00  0.00000000000E+00  0.96163274375E+03  0.96163274376E+03  0.50400001928E-02 0.  1.
        1   -1    0    0  501    0  0.00000000000E+00  0.00000000000E+00 -0.19325879248E+04  0.19325879248E+04  0.50400001928E-02 0. -1.
    10030    2    1    2    0    0  0.00000000000E+00  0.00000000000E+00 -0.97095518107E+03  0.28942206686E+04  0.27264921263E+04 0.  0.
        5    1    3    3  502    0 -0.21055314771E+03 -0.25889194310E+03 -0.18885539654E+04  0.19178153812E+04  0.46999998093E+01 0. -1.
       -5    1    3    3    0  502  0.21055314771E+03  0.25889194310E+03  0.91759878432E+03  0.97640528737E+03  0.46999998093E+01 0.  1.
</event>
<event>
 5   0  0.3046300E-06  0.2720943E+04  0.7818609E-02  0.8328242E-01
       -1   -1    0    0    0  501  0.00000000000E+00  0.00000000000E+00  0.63696874982E+03  0.63696874984E+03  0.50400001928E-02 0.  1.
        1   -1    0    0  501    0  0.00000000000E+00  0.00000000000E+00 -0.29057660140E+04  0.29057660140E+04  0.50400001928E-02 0. -1.
    10030    2    1    2    0    0  0.00000000000E+00  0.00000000000E+00 -0.22687972642E+04  0.35427347638E+04  0.27209425905E+04 0.  0.
        2    1    3    3  502    0  0.65673012231E+03  0.51928283593E+03  0.26182676735E+03  0.87721284381E+03  0.25500000920E-02 0.  1.
       -2    1    3    3    0  502 -0.65673012231E+03 -0.51928283593E+03 -0.25306240315E+04  0.26655219200E+04  0.25500000920E-02 0. -1.
</event>
<event>
 5   0  0.8407622E-06  0.2710347E+04  0.7818609E-02  0.8331655E-01
       -2   -1    0    0    0  501  0.00000000000E+00  0.00000000000E+00  0.92977861499E+03  0.92977861499E+03  0.25500000920E-02 0.  1.
        2   -1    0    0  501    0  0.00000000000E+00  0.00000000000E+00 -0.19751967493E+04  0.19751967493E+04  0.25500000920E-02 0. -1.
    10030    2    1    2    0    0  0.00000000000E+00  0.00000000000E+00 -0.10454181343E+04  0.29049753643E+04  0.27103473563E+04 0.  0.
        1    1    3    3  502    0  0.47262083359E+03 -0.10583282695E+04  0.22990140547E+03  0.11816445467E+04  0.50400001928E-02 0.  1.
       -1    1    3    3    0  502 -0.47262083359E+03  0.10583282695E+04 -0.12753195398E+04  0.17233308176E+04  0.50400001928E-02 0. -1.
</event>
<event>
 5   0  0.8407622E-06  0.2712544E+04  0.7818609E-02  0.8330946E-01
        2   -1    0    0  501    0  0.00000000000E+00  0.00000000000E+00  0.15341453331E+04  0.15341453331E+04  0.25500000920E-02 0. -1.
       -2   -1    0    0    0  501  0.00000000000E+00  0.00000000000E+00 -0.11990219397E+04  0.11990219397E+04  0.25500000920E-02 0.  1.
    10030    2    1    2    0    0  0.00000000000E+00  0.00000000000E+00  0.33512339336E+03  0.27331672728E+04  0.27125441291E+04 0.  0.
        1    1    3    3  502    0  0.30399605644E+03  0.12769909919E+04  0.51126258221E+03  0.14087260286E+04  0.50400001928E-02 0.  1.
       -1    1    3    3    0  502 -0.30399605644E+03 -0.12769909919E+04 -0.17613918885E+03  0.13244412443E+04  0.50400001928E-02 0. -1.
</event>
<event>
 5   0  0.7838364E-06  0.2697713E+04  0.7818609E-02  0.8335747E-01
        2   -1    0    0  501    0  0.00000000000E+00  0.00000000000E+00  0.18784227025E+04  0.18784227025E+04  0.25500000920E-02 0.  1.
       -2   -1    0    0    0  501  0.00000000000E+00  0.00000000000E+00 -0.96858619086E+03  0.96858619086E+03  0.25500000920E-02 0. -1.
    10030    2    1    2    0    0  0.00000000000E+00  0.00000000000E+00  0.90983651163E+03  0.28470088934E+04  0.26977133207E+04 0.  0.
        2    1    3    3  502    0 -0.37178031615E+03  0.11968725078E+04  0.98120458595E+03  0.15916930743E+04  0.25500000920E-02 0.  1.
       -2    1    3    3    0  502  0.37178031615E+03 -0.11968725078E+04 -0.71368074318E+02  0.12553158190E+04  0.25500000920E-02 0. -1.
</event>
<event>
 5   0  0.3013407E-06  0.2740833E+04  0.7818609E-02  0.8321876E-01
        1   -1    0    0  501    0  0.00000000000E+00  0.00000000000E+00  0.18517128188E+04  0.18517128188E+04  0.50400001928E-02 0.  1.
       -1   -1    0    0    0  501  0.00000000000E+00  0.00000000000E+00 -0.10142183330E+04  0.10142183330E+04  0.50400001928E-02 0. -1.
    10030    2    1    2    0    0  0.00000000000E+00  0.00000000000E+00  0.83749448580E+03  0.28659311518E+04  0.27408327846E+04 0.  0.
        4    1    3    3  502    0  0.19352589813E+03  0.52746840300E+03  0.17257435608E+04  0.18149015511E+04  0.12699999809E+01 0.  1.
       -4    1    3    3    0  502 -0.19352589813E+03 -0.52746840300E+03 -0.88824907502E+03  0.10510296007E+04  0.12699999809E+01 0. -1.
</event>
<event>
 5   0  0.3013407E-06  0.2694349E+04  0.7818609E-02  0.8336841E-01
       -1   -1    0    0    0  501  0.00000000000E+00  0.00000000000E+00  0.10479987412E+04  0.10479987412E+04  0.50400001928E-02 0. -1.
        1   -1    0    0  501    0  0.00000000000E+00  0.00000000000E+00 -0.17317570194E+04  0.17317570194E+04  0.50400001928E-02 0.  1.
    10030    2    1    2    0    0  0.00000000000E+00  0.00000000000E+00 -0.68375827826E+03  0.27797557606E+04  0.26943490319E+04 0.  0.
        4    1    3    3  502    0 -0.10420114738E+04  0.68590862056E+03 -0.86654524853E+03  0.15189341092E+04  0.12699999809E+01 0. -1.
       -4    1    3    3    0  502  0.10420114738E+04 -0.68590862056E+03  0.18278697027E+03  0.12608216514E+04  0.12699999809E+01 0.  1.
</event>
<event>
 5   0  0.3199840E-06  0.2702005E+04  0.7818609E-02  0.8334355E-01
        1   -1    0    0  501    0  0.00000000000E+00  0.00000000000E+00  0.15175558685E+04  0.15175558685E+04  0.50400001928E-02 0. -1.
       -1   -1    0    0    0  501  0.00000000000E+00  0.00000000000E+00 -0.12027288907E+04  0.12027288907E+04  0.50400001928E-02 0.  1.
    10030    2    1    2    0    0  0.00000000000E+00  0.00000000000E+00  0.31482697777E+03  0.27202847592E+04  0.27020053933E+04 0.  0.
        1    1    3    3  502    0 -0.13275824900E+04 -0.73507008682E+02 -0.83642616705E+02  0.13322442101E+04  0.50400001928E-02 0.  1.
       -1    1    3    3    0  502  0.13275824900E+04  0.73507008682E+02  0.39846959448E+03  0.13880405491E+04  0.50400001928E-02 0. -1.
</event>
<event>
 5   0  0.3046300E-06  0.2702355E+04  0.7818609E-02  0.8334241E-01
        1   -1    0    0  501    0  0.00000000000E+00  0.00000000000E+00  0.19028478832E+04  0.19028478832E+04  0.50400001928E-02 0. -1.
       -1   -1    0    0    0  501  0.00000000000E+00  0.00000000000E+00 -0.95944610017E+03  0.95944610018E+03  0.50400001928E-02 0.  1.
    10030    2    1    2    0    0  0.00000000000E+00  0.00000000000E+00  0.94340178302E+03  0.28622939834E+04  0.27023545147E+04 0.  0.
        2    1    3    3  502    0 -0.81439509175E+03  0.10466013069E+04  0.74599984639E+03  0.15215549388E+04  0.25500000920E-02 0. -1.
       -2    1    3    3    0  502  0.81439509175E+03 -0.10466013069E+04  0.19740193663E+03  0.13407390446E+04  0.25500000920E-02 0.  1.
</event>
<event>
 5   0  0.3046300E-06  0.2673329E+04  0.7818609E-02  0.8343711E-01
        1   -1    0    0  501    0  0.00000000000E+00  0.00000000000E+00  0.14595250438E+04  0.14595250438E+04  0.50400001928E-02 0.  1.
       -1   -1    0    0    0  501  0.00000000000E+00  0.00000000000E+00 -0.12241460052E+04  0.12241460052E+04  0.50400001928E-02 0. -1.
    10030    2    1    2    0    0  0.00000000000E+00  0.00000000000E+00  0.23537903865E+03  0.26836710490E+04  0.26733288252E+04 0.  0.
        2    1    3    3  502    0 -0.73414334172E+03  0.70120963234E+02  0.12368065059E+04  0.14399908780E+04  0.25500000920E-02 0.  1.
       -2    1    3    3    0  502  0.73414334172E+03 -0.70120963234E+02 -0.10014274672E+04  0.12436801710E+04  0.25500000920E-02 0. -1.
</event>
<event>
 5   0  0.8213334E-06  0.2703712E+04  0.7818609E-02  0.8333802E-01
       -2   -1    0    0    0  501  0.00000000000E+00  0.00000000000E+00  0.29286034427E+04  0.29286034427E+04  0.25500000920E-02 0.  1.
        2   -1    0    0  501    0  0.00000000000E+00  0.00000000000E+00 -0.62402263178E+03  0.62402263178E+03  0.25500000920E-02 0. -1.
    10030    2    1    2    0    0  0.00000000000E+00  0.00000000000E+00  0.23045808109E+04  0.35526260745E+04  0.27037121354E+04 0.  0.
        3    1    3    3  502    0  0.75182725902E+03  0.88565774635E+03  0.20606313819E+04  0.23655518539E+04  0.10100000352E+00 0.  1.
       -3    1    3    3    0  502 -0.75182725902E+03 -0.88565774635E+03  0.24394942899E+03  0.11870742206E+04  0.10100000352E+00 0. -1.
</event>
<event>
 5   0  0.8407622E-06  0.2720620E+04  0.7818609E-02  0.8328346E-01
        2   -1    0    0  501    0  0.00000000000E+00  0.00000000000E+00  0.21484146658E+04  0.21484146658E+04  0.25500000920E-02 0. -1.
       -2   -1    0    0    0  501  0.00000000000E+00  0.00000000000E+00 -0.86130610713E+03  0.86130610714E+03  0.25500000920E-02 0.  1.
    10030    2    1    2    0    0  0.00000000000E+00  0.00000000000E+00  0.12871085587E+04  0.30097207730E+04  0.27206195415E+04 0.  0.
        1    1    3    3  502    0  0.50277022772E+03 -0.32056112982E+03  0.19961413701E+04  0.20832949165E+04  0.50400001928E-02 0. -1.
       -1    1    3    3    0  502 -0.50277022772E+03  0.32056112982E+03 -0.70903281138E+03  0.92642585644E+03  0.50400001928E-02 0.  1.
</event>
<event>
 5   0  0.8213334E-06  0.2710593E+04  0.7818609E-02  0.8331576E-01
        2   -1    0    0  501    0  0.00000000000E+00  0.00000000000E+00  0.20493427609E+04  0.20493427609E+04  0.25500000920E-02 0. -1.
       -2   -1    0    0    0  501  0.00000000000E+00  0.00000000000E+00 -0.89630142111E+03  0.89630142111E+03  0.25500000920E-02 0.  1.
    10030    2    1    2    0    0  0.00000000000E+00  0.00000000000E+00  0.11530413398E+04  0.29456441820E+04  0.27105931668E+04 0.  0.
        3    1    3    3  502    0 -0.35924292451E+03 -0.70278349173E+03  0.17738174190E+04  0.19414912725E+04  0.10100000352E+00 0. -1.
       -3    1    3    3    0  502  0.35924292451E+03  0.70278349173E+03 -0.62077607918E+03  0.10041529095E+04  0.10100000352E+00 0.  1.
</event>
<event>
 5   0  0.3199840E-06  0.2708706E+04  0.7818609E-02  0.8332186E-01
       -1   -1    0    0    0  501  0.00000000000E+00  0.00000000000E+00  0.11570964368E+04  0.11570964368E+04  0.50400001928E-02 0. -1.
        1   -1    0    0  501    0  0.00000000000E+00  0.00000000000E+00 -0.15852374583E+04  0.15852374583E+04  0.50400001928E-02 0.  1.
    10030    2    1    2    0    0  0.00000000000E+00  0.00000000000E+00 -0.42814102145E+03  0.27423338951E+04  0.27087064178E+04 0.  0.
        1    1    3    3  502    0  0.97038076669E+03 -0.35180321566E+03 -0.11018076039E+04  0.15097630049E+04  0.50400001928E-02 0.  1.
       -1    1    3    3    0  502 -0.97038076669E+03  0.35180321566E+03  0.67366658250E+03  0.12325708902E+04  0.50400001928E-02 0. -1.
</event>
<event>
 5   0  0.7838364E-06  0.2693878E+04  0.7818609E-02  0.8336994E-01
        2   -1    0    0  501    0  0.00000000000E+00  0.00000000000E+00  0.21474862985E+04  0.21474862985E+04  0.25500000920E-02 0.  1.
       -2   -1    0    0    0  501  0.00000000000E+00  0.00000000000E+00 -0.84482258520E+03  0.84482258521E+03  0.25500000920E-02 0. -1.
    10030    2    1    2    0    0  0.00000000000E+00  0.00000000000E+00  0.13026637133E+04  0.29923088837E+04  0.26938781905E+04 0.  0.
        2    1    3    3  502    0  0.53390908403E+03 -0.98055257145E+03  0.14882614729E+04  0.18605011333E+04  0.25500000920E-02 0.  1.
       -2    1    3    3    0  502 -0.53390908403E+03  0.98055257145E+03 -0.18559775962E+03  0.11318077504E+04  0.25500000920E-02 0. -1.
</event>
<event>
 5   0  0.7838364E-06  0.2702272E+04  0.7818609E-02  0.8334268E-01
       -2   -1    0    0    0  501  0.00000000000E+00  0.00000000000E+00  0.86807874078E+03  0.86807874078E+03  0.25500000920E-02 0. -1.
        2   -1    0    0  501    0  0.00000000000E+00  0.00000000000E+00 -0.21029980214E+04  0.21029980214E+04  0.25500000920E-02 0.  1.
    10030    2    1    2    0    0  0.00000000000E+00  0.00000000000E+00 -0.12349192806E+04  0.29710767621E+04  0.27022715439E+04 0.  0.
        2    1    3    3  502    0 -0.44681015659E+03 -0.82462945117E+03  0.45186826659E+03  0.10410753950E+04  0.25500000920E-02 0. -1.
       -2    1    3    3    0  502  0.44681015659E+03  0.82462945117E+03 -0.16867875472E+04  0.19300013671E+04  0.25500000920E-02 0.  1.
</event>
<event>
 5   0  0.3199840E-06  0.2690526E+04  0.7818609E-02  0.8338085E-01
        1   -1    0    0  501    0  0.00000000000E+00  0.00000000000E+00  0.10189209342E+04  0.10189209342E+04  0.50400001928E-02 0. -1.
       -1   -1    0    0    0  501  0.00000000000E+00  0.00000000000E+00 -0.17761271135E+04  0.17761271136E+04  0.50400001928E-02 0.  1.
    10030    2    1    2    0    0  0.00000000000E+00  0.00000000000E+00 -0.75720617935E+03  0.27950480478E+04  0.26905264153E+04 0.  0.
        1    1    3    3  502    0 -0.13128398282E+04 -0.12362712593E+03 -0.10198648281E+03  0.13225858473E+04  0.50400001928E-02 0. -1.
       -1    1    3    3    0  502  0.13128398282E+04  0.12362712593E+03 -0.65521969654E+03  0.14724622004E+04  0.50400001928E-02 0.  1.
</event>
<event>
 5   0  0.3013407E-06  0.2771569E+04  0.7818609E-02  0.8312150E-01
        1   -1    0    0  501    0  0.00000000000E+00  0.00000000000E+00  0.11118587967E+04  0.11118587968E+04  0.50400001928E-02 0.  1.
       -1   -1    0    0    0  501  0.00000000000E+00  0.00000000000E+00 -0.17271969402E+04  0.17271969402E+04  0.50400001928E-02 0. -1.
    10030    2    1    2    0    0  0.00000000000E+00  0.00000000000E+00 -0.61533814347E+03  0.28390557370E+04  0.27715693112E+04 0.  0.
        4    1    3    3  502    0  0.85908679056E+03 -0.91061851515E+03  0.30105774382E+03  0.12875921605E+04  0.12699999809E+01 0.  1.
       -4    1    3    3    0  502 -0.85908679056E+03  0.91061851515E+03 -0.91639588728E+03  0.15514635764E+04  0.12699999809E+01 0. -1.
</event>
<event>
 5   0  0.3089218E-06  0.2697755E+04  0.7818609E-02  0.8335734E-01
       -1   -1    0    0    0  501  0.00000000000E+00  0.00000000000E+00  0.30883905826E+04  0.30883905826E+04  0.50400001928E-02 0. -1.
        1   -1    0    0  501    0  0.00000000000E+00  0.00000000000E+00 -0.58913209460E+03  0.58913209462E+03  0.50400001928E-02 0.  1.
    10030    2    1    2    0    0  0.00000000000E+00  0.00000000000E+00  0.24992584880E+04  0.36775226773E+04  0.26977546315E+04 0.  0.
        5    1    3    3  502    0  0.72631848560E+03  0.51163884225E+03 -0.13393713530E+03  0.89848433133E+03  0.46999998093E+01 0.  1.
       -5    1    3    3    0  502 -0.72631848560E+03 -0.51163884225E+03  0.26331956233E+04  0.27790383459E+04  0.46999998093E+01 0. -1.
</event>
<event>
 5   0  0.7729970E-06  0.2708905E+04  0.7818609E-02  0.8332121E-01
       -2   -1    0    0    0  501  0.00000000000E+00  0.00000000000E+00  0.88838750089E+03  0.88838750089E+03  0.25500000920E-02 0. -1.
        2   -1    0    0  501    0  0.00000000000E+00  0.00000000000E+00 -0.20650246527E+04  0.20650246527E+04  0.25500000920E-02 0.  1.
    10030    2    1    2    0    0  0.00000000000E+00  0.00000000000E+00 -0.11766371518E+04  0.29534121536E+04  0.27089053808E+04 0.  0.
        4    1    3    3  502    0  0.53890407313E+03  0.11253514917E+04 -0.11628629220E+04  0.17056041066E+04  0.12699999809E+01 0.  1.
       -4    1    3    3    0  502 -0.53890407313E+03 -0.11253514917E+04 -0.13774229812E+02  0.12478080471E+04  0.12699999809E+01 0. -1.
</event>
<event>
 5   0  0.3089218E-06  0.2821844E+04  0.7818609E-02  0.8296519E-01
       -1   -1    0    0    0  501  0.00000000000E+00  0.00000000000E+00  0.16053672538E+04  0.16053672538E+04  0.50400001928E-02 0. -1.
        1   -1    0    0  501    0  0.00000000000E+00  0.00000000000E+00 -0.12400284518E+04  0.12400284518E+04  0.50400001928E-02 0.  1.
    10030    2    1    2    0    0  0.00000000000E+00  0.00000000000E+00  0.36533880201E+03  0.28453957057E+04  0.28218441278E+04 0.  0.
        5    1    3    3  502    0 -0.73886442487E+03 -0.71762394748E+03  0.11549651778E+04  0.15475372112E+04  0.46999998093E+01 0. -1.
       -5    1    3    3    0  502  0.73886442487E+03  0.71762394748E+03 -0.78962637575E+03  0.12978584945E+04  0.46999998093E+01 0.  1.
</event>
<event>
 5   0  0.8407622E-06  0.2685789E+04  0.7818609E-02  0.8339631E-01
       -2   -1    0    0    0  501  0.00000000000E+00  0.00000000000E+00  0.16166641019E+04  0.16166641019E+04  0.25500000920E-02 0.  1.
        2   -1    0    0  501    0  0.00000000000E+00  0.00000000000E+00 -0.11154857424E+04  0.11154857424E+04  0.25500000920E-02 0. -1.
    10030    2    1    2    0    0  0.00000000000E+00  0.00000000000E+00  0.50117835953E+03  0.27321498444E+04  0.26857890878E+04 0.  0.
        1    1    3    3  502    0  0.83817971941E+03  0.77782653070E+03 -0.46570046819E+03  0.12346806389E+04  0.50400001928E-02 0. -1.
       -1    1    3    3    0  502 -0.83817971941E+03 -0.77782653070E+03  0.96687882772E+03  0.14974692055E+04  0.50400001928E-02 0.  1.
</event>
<event>
 5   0  0.3089218E-06  0.2699364E+04  0.7818609E-02  0.8335211E-01
       -1   -1    0    0    0  501  0.00000000000E+00  0.00000000000E+00  0.12901310083E+04  0.12901310083E+04  0.50400001928E-02 0. -1.
        1   -1    0    0  501    0  0.00000000000E+00  0.00000000000E+00 -0.14119822150E+04  0.14119822150E+04  0.50400001928E-02 0.  1.
    10030    2    1    2    0    0  0.00000000000E+00  0.00000000000E+00 -0.12185120669E+03  0.27021132234E+04  0.26993643984E+04 0.  0.
        5    1    3    3  502    0  0.12671306253E+04 -0.46358849244E+03 -0.27943044668E+02  0.13495692704E+04  0.46999998093E+01 0.  1.
       -5    1    3    3    0  502 -0.12671306253E+04  0.46358849244E+03 -0.93908162027E+02  0.13525439530E+04  0.46999998093E+01 0. -1.
</event>
<event>
 5   0  0.3028601E-06  0.2707554E+04  0.7818609E-02  0.8332558E-01
        1   -1    0    0  501    0  0.00000000000E+00  0.00000000000E+00  0.19897176725E+04  0.19897176725E+04  0.50400001928E-02 0. -1.
       -1   -1    0    0    0  501  0.00000000000E+00  0.00000000000E+00 -0.92109132445E+03  0.92109132446E+03  0.50400001928E-02 0.  1.
    10030    2    1    2    0    0  0.00000000000E+00  0.00000000000E+00  0.10686263481E+04  0.29108089970E+04  0.27075536459E+04 0.  0.
        3    1    3    3  502    0  0.22640601411E+03  0.11494645791E+04  0.12636061085E+04  0.17231450634E+04  0.10100000352E+00 0. -1.
       -3    1    3    3    0  502 -0.22640601411E+03 -0.11494645791E+04 -0.19497976044E+03  0.11876639336E+04  0.10100000352E+00 0.  1.
</event>
<event>
 5   0  0.3028601E-06  0.2682336E+04  0.7818609E-02  0.8340759E-01
        1   -1    0    0  501    0  0.00000000000E+00  0.00000000000E+00  0.12875818504E+04  0.12875818504E+04  0.50400001928E-02 0.  1.
       -1   -1    0    0    0  501  0.00000000000E+00  0.00000000000E+00 -0.13969842942E+04  0.13969842942E+04  0.50400001928E-02 0. -1.
    10030    2    1    2    0    0  0.00000000000E+00  0.00000000000E+00 -0.10940244387E+03  0.26845661446E+04  0.26823360136E+04 0.  0.
        3    1    3    3  502    0  0.77422199302E+03 -0.12375599049E+03 -0.11437218704E+04  0.13866632492E+04  0.10100000352E+00 0. -1.
       -3    1    3    3    0  502 -0.77422199302E+03  0.12375599049E+03  0.10343194265E+04  0.12979028954E+04  0.10100000352E+00 0.  1.
</event>
<event>
 5   0  0.3089218E-06  0.2699234E+04  0.7818609E-02  0.8335253E-01
       -1   -1    0    0    0  501  0.00000000000E+00  0.00000000000E+00  0.11365399201E+04  0.11365399201E+04  0.50400001928E-02 0. -1.
        1   -1    0    0  501    0  0.00000000000E+00  0.00000000000E+00 -0.16026419287E+04  0.16026419287E+04  0.50400001928E-02 0.  1.
    10030    2    1    2    0    0  0.00000000000E+00  0.00000000000E+00 -0.46610200861E+03  0.27391818489E+04  0.26992343579E+04 0.  0.
        5    1    3    3  502    0 -0.47350971591E+03  0.75621652174E+03 -0.12606424547E+04  0.15444469455E+04  0.46999998093E+01 0.  1.
       -5    1    3    3    0  502  0.47350971591E+03 -0.75621652174E+03  0.79454044612E+03  0.11947349034E+04  0.46999998093E+01 0. -1.
</event>
<event>
 5   0  0.7729970E-06  0.2623614E+04  0.7818609E-02  0.8360224E-01
       -2   -1    0    0    0  501  0.00000000000E+00  0.00000000000E+00  0.18178064923E+04  0.18178064923E+04  0.25500000920E-02 0. -1.
        2   -1    0    0  501    0  0.00000000000E+00  0.00000000000E+00 -0.94665591262E+03  0.94665591262E+03  0.25500000920E-02 0.  1.
    10030    2    1    2    0    0  0.00000000000E+00  0.00000000000E+00  0.87115057972E+03  0.27644624050E+04  0.26236137398E+04 0.  0.
        4    1    3    3  502    0 -0.53742008439E+03 -0.85396109234E+02  0.16932721597E+04  0.17785626394E+04  0.12699999809E+01 0. -1.
       -4    1    3    3    0  502  0.53742008439E+03  0.85396109234E+02 -0.82212157997E+03  0.98589976556E+03  0.12699999809E+01 0.  1.
</event>
<event>
 5   0  0.8213334E-06  0.2702312E+04  0.7818609E-02  0.8334255E-01
        2   -1    0    0  501    0  0.00000000000E+00  0.00000000000E+00  0.19151454930E+04  0.19151454930E+04  0.25500000920E-02 0. -1.
       -2   -1    0    0    0  501  0.00000000000E+00  0.00000000000E+00 -0.95325497132E+03  0.95325497132E+03  0.25500000920E-02 0.  1.
    10030    2    1    2    0    0  0.00000000000E+00  0.00000000000E+00  0.96189052165E+03  0.28684004643E+04  0.27023115749E+04 0.  0.
        3    1    3    3  502    0 -0.11102404960E+04 -0.56361547067E+03  0.10379099407E+04  0.16209729834E+04  0.10100000352E+00 0.  1.
       -3    1    3    3    0  502  0.11102404960E+04  0.56361547067E+03 -0.76019419006E+02  0.12474274809E+04  0.10100000352E+00 0. -1.
</event>
<event>
 5   0  0.7838364E-06  0.2737228E+04  0.7818609E-02  0.8323026E-01
        2   -1    0    0  501    0  0.00000000000E+00  0.00000000000E+00  0.16178311508E+04  0.16178311508E+04  0.25500000920E-02 0.  1.
       -2   -1    0    0    0  501  0.00000000000E+00  0.00000000000E+00 -0.11577874168E+04  0.11577874168E+04  0.25500000920E-02 0. -1.
    10030    2    1    2    0    0  0.00000000000E+00  0.00000000000E+00  0.46004373401E+03  0.27756185676E+04  0.27372281957E+04 0.  0.
        2    1    3    3  502    0 -0.12371160888E+04 -0.16555055868E+03  0.79936012000E+03  0.14821740135E+04  0.25500000920E-02 0. -1.
       -2    1    3    3    0  502  0.12371160888E+04  0.16555055868E+03 -0.33931638600E+03  0.12934445541E+04  0.25500000920E-02 0.  1.
</event>
<event>
 5   0  0.8407622E-06  0.2703574E+04  0.7818609E-02  0.8333846E-01
        2   -1    0    0  501    0  0.00000000000E+00  0.00000000000E+00  0.21553780757E+04  0.21553780757E+04  0.25500000920E-02 0.  1.
       -2   -1    0    0    0  501  0.00000000000E+00  0.00000000000E+00 -0.84779926098E+03  0.84779926098E+03  0.25500000920E-02 0. -1.
    10030    2    1    2    0    0  0.00000000000E+00  0.00000000000E+00  0.13075788147E+04  0.30031773367E+04  0.27035738863E+04 0.  0.
        1    1    3    3  502    0  0.25084283010E+03  0.49996119590E+03 -0.71321348310E+03  0.90639770262E+03  0.50400001928E-02 0. -1.
       -1    1    3    3    0  502 -0.25084283010E+03 -0.49996119590E+03  0.20207922978E+04  0.20967796341E+04  0.50400001928E-02 0.  1.
</event>
<event>
 5   0  0.7812908E-06  0.2698139E+04  0.7818609E-02  0.8335609E-01
       -2   -1    0    0    0  501  0.00000000000E+00  0.00000000000E+00  0.11279715380E+04  0.11279715381E+04  0.25500000920E-02 0.  1.
        2   -1    0    0  501    0  0.00000000000E+00  0.00000000000E+00 -0.16135056323E+04  0.16135056323E+04  0.25500000920E-02 0. -1.
    10030    2    1    2    0    0  0.00000000000E+00  0.00000000000E+00 -0.48553409424E+03  0.27414771703E+04  0.26981389362E+04 0.  0.
        5    1    3    3  502    0  0.31972855418E+03 -0.12977198721E+04 -0.42918920831E+03  0.14037552071E+04  0.46999998093E+01 0.  1.
       -5    1    3    3    0  502 -0.31972855418E+03  0.12977198721E+04 -0.56344885925E+02  0.13377219633E+04  0.46999998093E+01 0. -1.
</event>
<event>
 5   0  0.8213334E-06  0.2704871E+04  0.7818609E-02  0.8333426E-01
       -2   -1    0    0    0  501  0.00000000000E+00  0.00000000000E+00  0.12903003689E+04  0.12903003689E+04  0.25500000920E-02 0. -1.
        2   -1    0    0  501    0  0.00000000000E+00  0.00000000000E+00 -0.14175629567E+04  0.14175629567E+04  0.25500000920E-02 0.  1.
    10030    2    1    2    0    0  0.00000000000E+00  0.00000000000E+00 -0.12726258788E+03  0.27078633256E+04  0.27048711658E+04 0.  0.
        3    1    3    3  502    0 -0.92302934589E+03  0.58301561468E+03 -0.86275714923E+03  0.13914885156E+04  0.10100000352E+00 0.  1.
       -3    1    3    3    0  502  0.92302934589E+03 -0.58301561468E+03  0.73549456135E+03  0.13163748100E+04  0.10100000352E+00 0. -1.
</event>
<event>
 5   0  0.3028601E-06  0.2561532E+04  0.7818609E-02  0.8381386E-01
        1   -1    0    0  501    0  0.00000000000E+00  0.00000000000E+00  0.11150440603E+04  0.11150440603E+04  0.50400001928E-02 0. -1.
       -1   -1    0    0    0  501  0.00000000000E+00  0.00000000000E+00 -0.14711183866E+04  0.14711183866E+04  0.50400001928E-02 0.  1.
    10030    2    1    2    0    0  0.00000000000E+00  0.00000000000E+00 -0.35607432632E+03  0.25861624470E+04  0.25615322126E+04 0.  0.
        3    1    3    3  502    0  0.28662894124E+03 -0.11130696775E+04  0.39244607997E+03  0.12145345581E+04  0.10100000352E+00 0. -1.
       -3    1    3    3    0  502 -0.28662894124E+03  0.11130696775E+04 -0.74852040628E+03  0.13716278889E+04  0.10100000352E+00 0.  1.
</event>
<event>
 5   0  0.3028601E-06  0.2686528E+04  0.7818609E-02  0.8339390E-01
        1   -1    0    0  501    0  0.00000000000E+00  0.00000000000E+00  0.20394882766E+04  0.20394882766E+04  0.50400001928E-02 0. -1.
       -1   -1    0    0    0  501  0.00000000000E+00  0.00000000000E+00 -0.88471101021E+03  0.88471101022E+03  0.50400001928E-02 0.  1.
    10030    2    1    2    0    0  0.00000000000E+00  0.00000000000E+00  0.11547772664E+04  0.29241992868E+04  0.26865276723E+04 0.  0.
        3    1    3    3  502    0 -0.89038431760E+03 -0.97473997120E+03  0.84722218615E+03  0.15686579255E+04  0.10100000352E+00 0.  1.
       -3    1    3    3    0  502  0.89038431760E+03  0.97473997120E+03  0.30755508021E+03  0.13555413612E+04  0.10100000352E+00 0. -1.
</event>
<event>
 5   0  0.3089218E-06  0.2690303E+04  0.7818609E-02  0.8338158E-01
        1   -1    0    0  501    0  0.00000000000E+00  0.00000000000E+00  0.50046229405E+03  0.50046229407E+03  0.50400001928E-02 0.  1.
       -1   -1    0    0    0  501  0.00000000000E+00  0.00000000000E+00 -0.36155213666E+04  0.36155213667E+04  0.50400001928E-02 0. -1.
    10030    2    1    2    0    0  0.00000000000E+00  0.00000000000E+00 -0.31150590726E+04  0.41159836607E+04  0.26903026725E+04 0.  0.
        5    1    3    3  502    0 -0.10866614543E+04  0.62905203413E+03 -0.22958241327E+04  0.26167480039E+04  0.46999998093E+01 0. -1.
       -5    1    3    3    0  502  0.10866614543E+04 -0.62905203413E+03 -0.81923493995E+03  0.14992356568E+04  0.46999998093E+01 0.  1.
</event>
<event>
 5   0  0.3028601E-06  0.2701040E+04  0.7818609E-02  0.8334667E-01
        1   -1    0    0  501    0  0.00000000000E+00  0.00000000000E+00  0.20639038919E+04  0.20639038919E+04  0.50400001928E-02 0.  1.
       -1   -1    0    0    0  501  0.00000000000E+00  0.00000000000E+00 -0.88371602299E+03  0.88371602301E+03  0.50400001928E-02 0. -1.
    10030    2    1    2    0    0  0.00000000000E+00  0.00000000000E+00  0.11801878689E+04  0.29476199149E+04  0.27010404952E+04 0.  0.
        3    1    3    3  502    0  0.11296752016E+03  0.31760128836E+03  0.20172552561E+04  0.20452263976E+04  0.10100000352E+00 0.  1.
       -3    1    3    3    0  502 -0.11296752016E+03 -0.31760128836E+03 -0.83706738725E+03  0.90239351725E+03  0.10100000352E+00 0. -1.
</event>
<event>
 5   0  0.7838364E-06  0.2726747E+04  0.7818609E-02  0.8326378E-01
        2   -1    0    0  501    0  0.00000000000E+00  0.00000000000E+00  0.91923686627E+03  0.91923686627E+03  0.25500000920E-02 0. -1.
       -2   -1    0    0    0  501  0.00000000000E+00  0.00000000000E+00 -0.20220983952E+04  0.20220983952E+04  0.25500000920E-02 0.  1.
    10030    2    1    2    0    0  0.00000000000E+00  0.00000000000E+00 -0.11028615290E+04  0.29413352615E+04  0.27267470672E+04 0.  0.
        2    1    3    3  502    0  0.57293865015E+03  0.12338584482E+04 -0.45421608720E+03  0.14342167273E+04  0.25500000920E-02 0. -1.
       -2    1    3    3    0  502 -0.57293865015E+03 -0.12338584482E+04 -0.64864544176E+03  0.15071185342E+04  0.25500000920E-02 0.  1.
</event>
<event>
 5   0  0.8213334E-06  0.2650966E+04  0.7818609E-02  0.8351093E-01
       -2   -1    0    0    0  501  0.00000000000E+00  0.00000000000E+00  0.12362199761E+04  0.12362199761E+04  0.25500000920E-02 0.  1.
        2   -1    0    0  501    0  0.00000000000E+00  0.00000000000E+00 -0.14211908948E+04  0.14211908948E+04  0.25500000920E-02 0. -1.
    10030    2    1    2    0    0  0.00000000000E+00  0.00000000000E+00 -0.18497091871E+03  0.26574108709E+04  0.26509655403E+04 0.  0.
        3    1    3    3  502    0  0.11539782205E+04  0.61083874581E+03 -0.32132728289E+03  0.13446341286E+04  0.10100000352E+00 0. -1.
       -3    1    3    3    0  502 -0.11539782205E+04 -0.61083874581E+03  0.13635636418E+03  0.13127767423E+04  0.10100000352E+00 0.  1.
</event>
<event>
 5   0  0.3028601E-06  0.2706604E+04  0.7818609E-02  0.8332866E-01
       -1   -1    0    0    0  501  0.00000000000E+00  0.00000000000E+00  0.13895690203E+04  0.13895690203E+04  0.50400001928E-02 0. -1.
        1   -1    0    0  501    0  0.00000000000E+00  0.00000000000E+00 -0.13179810707E+04  0.13179810707E+04  0.50400001928E-02 0.  1.
    10030    2    1    2    0    0  0.00000000000E+00  0.00000000000E+00  0.71587949611E+02  0.27075500910E+04  0.27066035286E+04 0.  0.
        3    1    3    3  502    0  0.74740819837E+03  0.95588931431E+03  0.63523826883E+03  0.13696244246E+04  0.10100000352E+00 0. -1.
       -3    1    3    3    0  502 -0.74740819837E+03 -0.95588931431E+03 -0.56365031922E+03  0.13379256664E+04  0.10100000352E+00 0.  1.
</event>
<event>
 5   0  0.3046300E-06  0.2704603E+04  0.7818609E-02  0.8333513E-01
        1   -1    0    0  501    0  0.00000000000E+00  0.00000000000E+00  0.18057718486E+04  0.18057718486E+04  0.50400001928E-02 0. -1.
       -1   -1    0    0    0  501  0.00000000000E+00  0.00000000000E+00 -0.10127080908E+04  0.10127080909E+04  0.50400001928E-02 0.  1.
    10030    2    1    2    0    0  0.00000000000E+00  0.00000000000E+00  0.79306375778E+03  0.28184799395E+04  0.27046033065E+04 0.  0.
        2    1    3    3  502    0  0.12535029338E+04 -0.33223482939E+03  0.79617622878E+03  0.15216918788E+04  0.25500000920E-02 0. -1.
       -2    1    3    3    0  502 -0.12535029338E+04  0.33223482939E+03 -0.31124710003E+01  0.12967880607E+04  0.25500000920E-02 0.  1.
</event>
<event>
 5   0  0.7838364E-06  0.2693817E+04  0.7818609E-02  0.8337014E-01
       -2   -1    0    0    0  501  0.00000000000E+00  0.00000000000E+00  0.92368589396E+03  0.92368589396E+03  0.25500000920E-02 0. -1.
        2   -1    0    0  501    0  0.00000000000E+00  0.00000000000E+00 -0.19640475069E+04  0.19640475069E+04  0.25500000920E-02 0.  1.
    10030    2    1    2    0    0  0.00000000000E+00  0.00000000000E+00 -0.10403616129E+04  0.28877334009E+04  0.26938173488E+04 0.  0.
        2    1    3    3  502    0  0.12967062032E+04  0.24815868177E+03 -0.80608816467E+03  0.15468703365E+04  0.25500000920E-02 0.  1.
       -2    1    3    3    0  502 -0.12967062032E+04 -0.24815868177E+03 -0.23427344828E+03  0.13408630643E+04  0.25500000920E-02 0. -1.
</event>
<event>
 5   0  0.3013407E-06  0.2554521E+04  0.7818609E-02  0.8383816E-01
        1   -1    0    0  501    0  0.00000000000E+00  0.00000000000E+00  0.12933033314E+04  0.12933033314E+04  0.50400001928E-02 0. -1.
       -1   -1    0    0    0  501  0.00000000000E+00  0.00000000000E+00 -0.12614165070E+04  0.12614165070E+04  0.50400001928E-02 0.  1.
    10030    2    1    2    0    0  0.00000000000E+00  0.00000000000E+00  0.31886824397E+02  0.25547198385E+04  0.25545208325E+04 0.  0.
        4    1    3    3  502    0 -0.45279380620E+03  0.75746064018E+03 -0.90750477554E+03  0.12658338686E+04  0.12699999809E+01 0.  1.
       -4    1    3    3    0  502  0.45279380620E+03 -0.75746064018E+03  0.93939159994E+03  0.12888859699E+04  0.12699999809E+01 0. -1.
</event>
<event>
 5   0  0.8407622E-06  0.2701458E+04  0.7818609E-02  0.8334532E-01
       -2   -1    0    0    0  501  0.00000000000E+00  0.00000000000E+00  0.10274340689E+04  0.10274340689E+04  0.25500000920E-02 0.  1.
        2   -1    0    0  501    0  0.00000000000E+00  0.00000000000E+00 -0.17757532238E+04  0.17757532238E+04  0.25500000920E-02 0. -1.
    10030    2    1    2    0    0  0.00000000000E+00  0.00000000000E+00 -0.74831915489E+03  0.28031872926E+04  0.27014583913E+04 0.  0.
        1    1    3    3  502    0 -0.57532330305E+03  0.10081446074E+04 -0.10909071593E+04  0.15929315373E+04  0.50400001928E-02 0. -1.
       -1    1    3    3    0  502  0.57532330305E+03 -0.10081446074E+04  0.34258800441E+03  0.12102557553E+04  0.50400001928E-02 0.  1.
</event>
<event>
 5   0  0.3013407E-06  0.2737582E+04  0.7818609E-02  0.8322913E-01
        1   -1    0    0  501    0  0.00000000000E+00  0.00000000000E+00  0.17982084335E+04  0.17982084335E+04  0.50400001928E-02 0.  1.
       -1   -1    0    0    0  501  0.00000000000E+00  0.00000000000E+00 -0.10419200398E+04  0.10419200398E+04  0.50400001928E-02 0. -1.
    10030    2    1    2    0    0  0.00000000000E+00  0.00000000000E+00  0.75628839371E+03  0.28401284734E+04  0.27375824391E+04 0.  0.
        4    1    3    3  502    0 -0.55571616998E+03 -0.11345003302E+04 -0.16854464409E+03  0.12744882780E+04  0.12699999809E+01 0. -1.
       -4    1    3    3    0  502  0.55571616998E+03  0.11345003302E+04  0.92483303780E+03  0.15656401954E+04  0.12699999809E+01 0.  1.
</event>
<event>
 5   0  0.3028601E-06  0.2703438E+04  0.7818609E-02  0.8333890E-01
       -1   -1    0    0    0  501  0.00000000000E+00  0.00000000000E+00  0.17795891061E+04  0.17795891061E+04  0.50400001928E-02 0. -1.
        1   -1    0    0  501    0  0.00000000000E+00  0.00000000000E+00 -0.10267227153E+04  0.10267227153E+04  0.50400001928E-02 0.  1.
    10030    2    1    2    0    0  0.00000000000E+00  0.00000000000E+00  0.75286639078E+03  0.28063118214E+04  0.27034382250E+04 0.  0.
        3    1    3    3  502    0  0.13060467976E+04 -0.30754297871E+03  0.54638127566E+03  0.14487489189E+04  0.10100000352E+00 0.  1.
       -3    1    3    3    0  502 -0.13060467976E+04  0.30754297871E+03  0.20648511512E+03  0.13575629025E+04  0.10100000352E+00 0. -1.
</event>
<event>
 5   0  0.3046300E-06  0.2652776E+04  0.7818609E-02  0.8350492E-01
       -1   -1    0    0    0  501  0.00000000000E+00  0.00000000000E+00  0.86275102048E+03  0.86275102050E+03  0.50400001928E-02 0.  1.
        1   -1    0    0  501    0  0.00000000000E+00  0.00000000000E+00 -0.20391803169E+04  0.20391803169E+04  0.50400001928E-02 0. -1.
    10030    2    1    2    0    0  0.00000000000E+00  0.00000000000E+00 -0.11764292964E+04  0.29019313374E+04  0.26527758287E+04 0.  0.
        2    1    3    3  502    0  0.85269163581E+03  0.98701906070E+01 -0.16995691533E+04  0.19015035507E+04  0.25500000920E-02 0.  1.
       -2    1    3    3    0  502 -0.85269163581E+03 -0.98701906070E+01  0.52313985692E+03  0.10004277867E+04  0.25500000920E-02 0. -1.
</event>
<event>
 5   0  0.8407622E-06  0.2699175E+04  0.7818609E-02  0.8335273E-01
       -2   -1    0    0    0  501  0.00000000000E+00  0.00000000000E+00  0.15689063468E+04  0.15689063468E+04  0.25500000920E-02 0. -1.
        2   -1    0    0  501    0  0.00000000000E+00  0.00000000000E+00 -0.11609274245E+04  0.11609274245E+04  0.25500000920E-02 0.  1.
    10030    2    1    2    0    0  0.00000000000E+00  0.00000000000E+00  0.40797892236E+03  0.27298337713E+04  0.26991749884E+04 0.  0.
        1    1    3    3  502    0 -0.62265474821E+03 -0.82100316030E+03 -0.67748440245E+03  0.12331789166E+04  0.50400001928E-02 0.  1.
       -1    1    3    3    0  502  0.62265474821E+03  0.82100316030E+03  0.10854633248E+04  0.14966548547E+04  0.50400001928E-02 0. -1.
</event>
<event>
 5   0  0.7812908E-06  0.2711301E+04  0.7818609E-02  0.8331348E-01
        2   -1    0    0  501    0  0.00000000000E+00  0.00000000000E+00  0.16466479044E+04  0.16466479044E+04  0.25500000920E-02 0. -1.
       -2   -1    0    0    0  501  0.00000000000E+00  0.00000000000E+00 -0.11160783093E+04  0.11160783093E+04  0.25500000920E-02 0.  1.
    10030    2    1    2    0    0  0.00000000000E+00  0.00000000000E+00  0.53056959509E+03  0.27627262137E+04  0.27113008016E+04 0.  0.
        5    1    3    3  502    0 -0.21936879393E+03 -0.52302188407E+03  0.15199354951E+04  0.16223133354E+04  0.46999998093E+01 0. -1.
       -5    1    3    3    0  502  0.21936879393E+03  0.52302188407E+03 -0.98936589999E+03  0.11404128783E+04  0.46999998093E+01 0.  1.
</event>
<event>
 5   0  0.3089218E-06  0.2697669E+04  0.7818609E-02  0.8335762E-01
        1   -1    0    0  501    0  0.00000000000E+00  0.00000000000E+00  0.11990333007E+04  0.11990333007E+04  0.50400001928E-02 0. -1.
       -1   -1    0    0    0  501  0.00000000000E+00  0.00000000000E+00 -0.15173510586E+04  0.15173510586E+04  0.50400001928E-02 0.  1.
    10030    2    1    2    0    0  0.00000000000E+00  0.00000000000E+00 -0.31831775794E+03  0.27163843593E+04  0.26976689553E+04 0.  0.
        5    1    3    3  502    0 -0.12552590230E+04 -0.13744252779E+02  0.33768932487E+03  0.12999693417E+04  0.46999998093E+01 0. -1.
       -5    1    3    3    0  502  0.12552590230E+04  0.13744252779E+02 -0.65600708281E+03  0.14164150176E+04  0.46999998093E+01 0.  1.
</event>
<event>
 5   0  0.7729970E-06  0.2701088E+04  0.7818609E-02  0.8334652E-01
        2   -1    0    0  501    0  0.00000000000E+00  0.00000000000E+00  0.23289416859E+04  0.23289416859E+04  0.25500000920E-02 0. -1.
       -2   -1    0    0    0  501  0.00000000000E+00  0.00000000000E+00 -0.78317486373E+03  0.78317486374E+03  0.25500000920E-02 0.  1.
    10030    2    1    2    0    0  0.00000000000E+00  0.00000000000E+00  0.15457668222E+04  0.31121165496E+04  0.27010876235E+04 0.  0.
        4    1    3    3  502    0  0.13799293800E+03 -0.97910250814E+03 -0.28704135624E+03  0.10296009545E+04  0.12699999809E+01 0.  1.
       -4    1    3    3    0  502 -0.13799293800E+03  0.97910250814E+03  0.18328081784E+04  0.20825155952E+04  0.12699999809E+01 0. -1.
</event>
<event>
 5   0  0.3199840E-06  0.2709262E+04  0.7818609E-02  0.8332006E-01
       -1   -1    0    0    0  501  0.00000000000E+00  0.00000000000E+00  0.12804120909E+04  0.12804120909E+04  0.50400001928E-02 0. -1.
        1   -1    0    0  501    0  0.00000000000E+00  0.00000000000E+00 -0.14331523883E+04  0.14331523883E+04  0.50400001928E-02 0.  1.
    10030    2    1    2    0    0  0.00000000000E+00  0.00000000000E+00 -0.15274029734E+03  0.27135644792E+04  0.27092623691E+04 0.  0.
        1    1    3    3  502    0  0.12429623729E+04  0.79425754680E+02 -0.60990893487E+03  0.13868139096E+04  0.50400001928E-02 0.  1.
       -1    1    3    3    0  502 -0.12429623729E+04 -0.79425754680E+02  0.45716863753E+03  0.13267505697E+04  0.50400001928E-02 0. -1.
</event>
<event>
 5   0  0.3089218E-06  0.2705991E+04  0.7818609E-02  0.8333064E-01
       -1   -1    0    0    0  501  0.00000000000E+00  0.00000000000E+00  0.11532605295E+04  0.11532605295E+04  0.50400001928E-02 0.  1.
        1   -1    0    0  501    0  0.00000000000E+00  0.00000000000E+00 -0.15873228120E+04  0.15873228120E+04  0.50400001928E-02 0. -1.
    10030    2    1    2    0    0  0.00000000000E+00  0.00000000000E+00 -0.43406228246E+03  0.27405833415E+04  0.27059909435E+04 0.  0.
        5    1    3    3  502    0  0.13117731726E+04 -0.16471517876E+03 -0.50827417050E+03  0.14164196655E+04  0.46999998093E+01 0.  1.
       -5    1    3    3    0  502 -0.13117731726E+04  0.16471517876E+03  0.74211888034E+02  0.13241636760E+04  0.46999998093E+01 0. -1.
</event>
<event>
 5   0  0.3046300E-06  0.2699593E+04  0.7818609E-02  0.8335137E-01
        1   -1    0    0  501    0  0.00000000000E+00  0.00000000000E+00  0.12923807138E+04  0.12923807138E+04  0.50400001928E-02 0.  1.
       -1   -1    0    0    0  501  0.00000000000E+00  0.00000000000E+00 -0.14097625638E+04  0.14097625638E+04  0.50400001928E-02 0. -1.
    10030    2    1    2    0    0  0.00000000000E+00  0.00000000000E+00 -0.11738184999E+03  0.27021432776E+04  0.26995925237E+04 0.  0.
        2    1    3    3  502    0 -0.13320547170E+04  0.71840789876E+02  0.14746260710E+03  0.13421162724E+04  0.25500000920E-02 0. -1.
       -2    1    3    3    0  502  0.13320547170E+04 -0.71840789876E+02 -0.26484445709E+03  0.13600270051E+04  0.25500000920E-02 0.  1.
</event>
<event>
 5   0  0.3046300E-06  0.2700483E+04  0.7818609E-02  0.8334848E-01
       -1   -1    0    0    0  501  0.00000000000E+00  0.00000000000E+00  0.20768514255E+04  0.20768514255E+04  0.50400001928E-02 0.  1.
        1   -1    0    0  501    0  0.00000000000E+00  0.00000000000E+00 -0.87784400812E+03  0.87784400814E+03  0.50400001928E-02 0. -1.
    10030    2    1    2    0    0  0.00000000000E+00  0.00000000000E+00  0.11990074173E+04  0.29546954336E+04  0.27004826084E+04 0.  0.
        2    1    3    3  502    0 -0.31794576832E+03  0.12171357958E+04  0.11362357500E+04  0.16951521278E+04  0.25500000920E-02 0.  1.
       -2    1    3    3    0  502  0.31794576832E+03 -0.12171357958E+04  0.62771667327E+02  0.12595433058E+04  0.25500000920E-02 0. -1.
</event>
<event>
 5   0  0.3089218E-06  0.2709210E+04  0.7818609E-02  0.8332023E-01
       -1   -1    0    0    0  501  0.00000000000E+00  0.00000000000E+00  0.14987285602E+04  0.14987285603E+04  0.50400001928E-02 0.  1.
        1   -1    0    0  501    0  0.00000000000E+00  0.00000000000E+00 -0.12243411462E+04  0.12243411462E+04  0.50400001928E-02 0. -1.
    10030    2    1    2    0    0  0.00000000000E+00  0.00000000000E+00  0.27438741408E+03  0.27230697064E+04  0.27092102490E+04 0.  0.
        5    1    3    3  502    0  0.12341016952E+04 -0.26875950687E+03 -0.35489669005E+03  0.13119498532E+04  0.46999998093E+01 0. -1.
       -5    1    3    3    0  502 -0.12341016952E+04  0.26875950687E+03  0.62928410414E+03  0.14111198533E+04  0.46999998093E+01 0.  1.
</event>
<event>
 5   0  0.3089218E-06  0.2699937E+04  0.7818609E-02  0.8335025E-01
       -1   -1    0    0    0  501  0.00000000000E+00  0.00000000000E+00  0.13409229096E+04  0.13409229096E+04  0.50400001928E-02 0. -1.
        1   -1    0    0  501    0  0.00000000000E+00  0.00000000000E+00 -0.13590750893E+04  0.13590750893E+04  0.50400001928E-02 0.  1.
    10030    2    1    2    0    0  0.00000000000E+00  0.00000000000E+00 -0.18152179681E+02  0.26999979989E+04  0.26999369794E+04 0.  0.
        5    1    3    3  502    0  0.58973722332E+03  0.73577716337E+03  0.95698653226E+03  0.13435041271E+04  0.46999998093E+01 0. -1.
       -5    1    3    3    0  502 -0.58973722332E+03 -0.73577716337E+03 -0.97513871194E+03  0.13564938718E+04  0.46999998093E+01 0.  1.
</event>
<event>
 5   0  0.3046300E-06  0.2693501E+04  0.7818609E-02  0.8337117E-01
       -1   -1    0    0    0  501  0.00000000000E+00  0.00000000000E+00  0.94508858801E+03  0.94508858802E+03  0.50400001928E-02 0. -1.
        1   -1    0    0  501    0  0.00000000000E+00  0.00000000000E+00 -0.19191179013E+04  0.19191179013E+04  0.50400001928E-02 0.  1.
    10030    2    1    2    0    0  0.00000000000E+00  0.00000000000E+00 -0.97402931330E+03  0.28642064893E+04  0.26935006424E+04 0.  0.
        2    1    3    3  502    0  0.67059808770E+03  0.11595317584E+04 -0.63558608866E+03  0.14826278596E+04  0.25500000920E-02 0. -1.
       -2    1    3    3    0  502 -0.67059808770E+03 -0.11595317584E+04 -0.33844322465E+03  0.13815786298E+04  0.25500000920E-02 0.  1.
</event>
<event>
 5   0  0.3046300E-06  0.2710033E+04  0.7818609E-02  0.8331757E-01
       -1   -1    0    0    0  501  0.00000000000E+00  0.00000000000E+00  0.17789190653E+04  0.17789190654E+04  0.50400001928E-02 0. -1.
        1   -1    0    0  501    0  0.00000000000E+00  0.00000000000E+00 -0.10321264677E+04  0.10321264677E+04  0.50400001928E-02 0.  1.
    10030    2    1    2    0    0  0.00000000000E+00  0.00000000000E+00  0.74679259767E+03  0.28110455330E+04  0.27100328051E+04 0.  0.
        2    1    3    3  502    0  0.46590316599E+02 -0.13298189293E+04  0.63882569776E+03  0.14760377077E+04  0.25500000920E-02 0. -1.
       -2    1    3    3    0  502 -0.46590316599E+02  0.13298189293E+04  0.10796689990E+03  0.13350078254E+04  0.25500000920E-02 0.  1.
</event>
<event>
 5   0  0.3046300E-06  0.2760715E+04  0.7818609E-02  0.8315570E-01
        1   -1    0    0  501    0  0.00000000000E+00  0.00000000000E+00  0.11525141399E+04  0.11525141399E+04  0.50400001928E-02 0. -1.
       -1   -1    0    0    0  501  0.00000000000E+00  0.00000000000E+00 -0.16532436188E+04  0.16532436188E+04  0.50400001928E-02 0.  1.
    10030    2    1    2    0    0  0.00000000000E+00  0.00000000000E+00 -0.50072947888E+03  0.28057577588E+04  0.27607148693E+04 0.  0.
        2    1    3    3  502    0  0.13714186845E+04  0.22181456786E+01 -0.40974338273E+03  0.14313223844E+04  0.25500000920E-02 0.  1.
       -2    1    3    3    0  502 -0.13714186845E+04 -0.22181456786E+01 -0.90986096145E+02  0.13744353743E+04  0.25500000920E-02 0. -1.
</event>
<event>
 5   0  0.8407622E-06  0.2713579E+04  0.7818609E-02  0.8330612E-01
       -2   -1    0    0    0  501  0.00000000000E+00  0.00000000000E+00  0.77038927524E+03  0.77038927524E+03  0.25500000920E-02 0. -1.
        2   -1    0    0  501    0  0.00000000000E+00  0.00000000000E+00 -0.23895423801E+04  0.23895423801E+04  0.25500000920E-02 0.  1.
    10030    2    1    2    0    0  0.00000000000E+00  0.00000000000E+00 -0.16191531049E+04  0.31599316553E+04  0.27135790553E+04 0.  0.
        1    1    3    3  502    0  0.21125910719E+02 -0.13161702222E+04 -0.42666081068E+03  0.13837593018E+04  0.50400001928E-02 0. -1.
       -1    1    3    3    0  502 -0.21125910719E+02  0.13161702222E+04 -0.11924922942E+04  0.17761723536E+04  0.50400001928E-02 0.  1.
</event>
<event>
 5   0  0.3089218E-06  0.2707873E+04  0.7818609E-02  0.8332455E-01
        1   -1    0    0  501    0  0.00000000000E+00  0.00000000000E+00  0.14491376304E+04  0.14491376304E+04  0.50400001928E-02 0.  1.
       -1   -1    0    0    0  501  0.00000000000E+00  0.00000000000E+00 -0.12649899653E+04  0.12649899653E+04  0.50400001928E-02 0. -1.
    10030    2    1    2    0    0  0.00000000000E+00  0.00000000000E+00  0.18414766506E+03  0.27141275957E+04  0.27078733802E+04 0.  0.
        5    1    3    3  502    0 -0.90864564199E+03  0.60360575943E+03  0.89588970529E+03  0.14116009598E+04  0.46999998093E+01 0.  1.
       -5    1    3    3    0  502  0.90864564199E+03 -0.60360575943E+03 -0.71174204023E+03  0.13025266360E+04  0.46999998093E+01 0. -1.
</event>
<event>
 5   0  0.3046300E-06  0.2680896E+04  0.7818609E-02  0.8341230E-01
       -1   -1    0    0    0  501  0.00000000000E+00  0.00000000000E+00  0.10141308161E+04  0.10141308161E+04  0.50400001928E-02 0. -1.
        1   -1    0    0  501    0  0.00000000000E+00  0.00000000000E+00 -0.17717644996E+04  0.17717644996E+04  0.50400001928E-02 0.  1.
    10030    2    1    2    0    0  0.00000000000E+00  0.00000000000E+00 -0.75763368350E+03  0.27858953157E+04  0.26808961024E+04 0.  0.
        2    1    3    3  502    0  0.75919075940E+03 -0.27636026081E+03  0.73268025523E+03  0.10906722511E+04  0.25500000920E-02 0. -1.
       -2    1    3    3    0  502 -0.75919075940E+03  0.27636026081E+03 -0.14903139387E+04  0.16952230646E+04  0.25500000920E-02 0.  1.
</event>
<event>
 5   0  0.3199840E-06  0.2695818E+04  0.7818609E-02  0.8336363E-01
        1   -1    0    0  501    0  0.00000000000E+00  0.00000000000E+00  0.13587705679E+04  0.13587705679E+04  0.50400001928E-02 0. -1.
       -1   -1    0    0    0  501  0.00000000000E+00  0.00000000000E+00 -0.13371340299E+04  0.13371340300E+04  0.50400001928E-02 0.  1.
    10030    2    1    2    0    0  0.00000000000E+00  0.00000000000E+00  0.21636537922E+02  0.26959045978E+04  0.26958177722E+04 0.  0.
        1    1    3    3  502    0 -0.49076515374E+03  0.16792861211E+03 -0.12333310846E+04  0.13379671219E+04  0.50400001928E-02 0.  1.
       -1    1    3    3    0  502  0.49076515374E+03 -0.16792861211E+03  0.12549676226E+04  0.13579374760E+04  0.50400001928E-02 0. -1.
</event>
<event>
 5   0  0.7812908E-06  0.2658759E+04  0.7818609E-02  0.8348512E-01
       -2   -1    0    0    0  501  0.00000000000E+00  0.00000000000E+00  0.11039007223E+04  0.11039007223E+04  0.25500000920E-02 0. -1.
        2   -1    0    0  501    0  0.00000000000E+00  0.00000000000E+00 -0.16009140355E+04  0.16009140355E+04  0.25500000920E-02 0.  1.
    10030    2    1    2    0    0  0.00000000000E+00  0.00000000000E+00 -0.49701331313E+03  0.27048147578E+04  0.26587592295E+04 0.  0.
        5    1    3    3  502    0  0.11669861727E+04  0.67885563664E+02 -0.89253097749E+03  0.14707477054E+04  0.46999998093E+01 0.  1.
       -5    1    3    3    0  502 -0.11669861727E+04 -0.67885563664E+02  0.39551766436E+03  0.12340670524E+04  0.46999998093E+01 0. -1.
</event>
<event>
 5   0  0.7812908E-06  0.2703726E+04  0.7818609E-02  0.8333797E-01
        2   -1    0    0  501    0  0.00000000000E+00  0.00000000000E+00  0.15020129119E+04  0.15020129119E+04  0.25500000920E-02 0.  1.
       -2   -1    0    0    0  501  0.00000000000E+00  0.00000000000E+00 -0.12167229525E+04  0.12167229525E+04  0.25500000920E-02 0. -1.
    10030    2    1    2    0    0  0.00000000000E+00  0.00000000000E+00  0.28528995936E+03  0.27187358644E+04  0.27037260104E+04 0.  0.
        5    1    3    3  502    0 -0.30701137702E+03 -0.33815617542E+03 -0.11367809303E+04  0.12251116513E+04  0.46999998093E+01 0. -1.
       -5    1    3    3    0  502  0.30701137702E+03  0.33815617542E+03  0.14220708897E+04  0.14936242131E+04  0.46999998093E+01 0.  1.
</event>
<event>
 5   0  0.7729970E-06  0.2699048E+04  0.7818609E-02  0.8335314E-01
        2   -1    0    0  501    0  0.00000000000E+00  0.00000000000E+00  0.23372720956E+04  0.23372720956E+04  0.25500000920E-02 0.  1.
       -2   -1    0    0    0  501  0.00000000000E+00  0.00000000000E+00 -0.77920514646E+03  0.77920514647E+03  0.25500000920E-02 0. -1.
    10030    2    1    2    0    0  0.00000000000E+00  0.00000000000E+00  0.15580669491E+04  0.31164772420E+04  0.26990475695E+04 0.  0.
        4    1    3    3  502    0 -0.14462524250E+02 -0.11488241513E+04  0.15964847413E+04  0.19669192249E+04  0.12699999809E+01 0.  1.
       -4    1    3    3    0  502  0.14462524250E+02  0.11488241513E+04 -0.38417792147E+02  0.11495580172E+04  0.12699999809E+01 0. -1.
</event>
<event>
 5   0  0.3089218E-06  0.2715104E+04  0.7818609E-02  0.8330121E-01
       -1   -1    0    0    0  501  0.00000000000E+00  0.00000000000E+00  0.12568926794E+04  0.12568926794E+04  0.50400001928E-02 0.  1.
        1   -1    0    0  501    0  0.00000000000E+00  0.00000000000E+00 -0.14662724698E+04  0.14662724698E+04  0.50400001928E-02 0. -1.
    10030    2    1    2    0    0  0.00000000000E+00  0.00000000000E+00 -0.20937979041E+03  0.27231651491E+04  0.27151037794E+04 0.  0.
        5    1    3    3  502    0  0.89703379749E+03  0.95644826081E+03 -0.45710493589E+03  0.13886792005E+04  0.46999998093E+01 0. -1.
       -5    1    3    3    0  502 -0.89703379749E+03 -0.95644826081E+03  0.24772514548E+03  0.13344859487E+04  0.46999998093E+01 0.  1.
</event>
<event>
 5   0  0.7838364E-06  0.2723389E+04  0.7818609E-02  0.8327456E-01
        2   -1    0    0  501    0  0.00000000000E+00  0.00000000000E+00  0.19906787303E+04  0.19906787303E+04  0.25500000920E-02 0. -1.
       -2   -1    0    0    0  501  0.00000000000E+00  0.00000000000E+00 -0.93144677999E+03  0.93144678000E+03  0.25500000920E-02 0.  1.
    10030    2    1    2    0    0  0.00000000000E+00  0.00000000000E+00  0.10592319503E+04  0.29221255103E+04  0.27233885462E+04 0.  0.
        2    1    3    3  502    0  0.60653706845E+03 -0.57042449285E+03 -0.62648067308E+03  0.10419929708E+04  0.25500000920E-02 0.  1.
       -2    1    3    3    0  502 -0.60653706845E+03  0.57042449285E+03  0.16857126234E+04  0.18801325395E+04  0.25500000920E-02 0. -1.
</event>
<event>
 5   0  0.3046300E-06  0.2449406E+04  0.7818609E-02  0.8421235E-01
       -1   -1    0    0    0  501  0.00000000000E+00  0.00000000000E+00  0.11757912784E+04  0.11757912784E+04  0.50400001928E-02 0.  1.
        1   -1    0    0  501    0  0.00000000000E+00  0.00000000000E+00 -0.12756496416E+04  0.12756496416E+04  0.50400001928E-02 0. -1.
    10030    2    1    2    0    0  0.00000000000E+00  0.00000000000E+00 -0.99858363197E+02  0.24514409201E+04  0.24494062325E+04 0.  0.
        2    1    3    3  502    0  0.50617767248E+03  0.74044721149E+03  0.78468189235E+03  0.11917229465E+04  0.25500000920E-02 0.  1.
       -2    1    3    3    0  502 -0.50617767248E+03 -0.74044721149E+03 -0.88454025555E+03  0.12597179735E+04  0.25500000920E-02 0. -1.
</event>
<event>
 5   0  0.7838364E-06  0.2701216E+04  0.7818609E-02  0.8334611E-01
       -2   -1    0    0    0  501  0.00000000000E+00  0.00000000000E+00  0.12237544334E+04  0.12237544334E+04  0.25500000920E-02 0. -1.
        2   -1    0    0  501    0  0.00000000000E+00  0.00000000000E+00 -0.14906109556E+04  0.14906109556E+04  0.25500000920E-02 0.  1.
    10030    2    1    2    0    0  0.00000000000E+00  0.00000000000E+00 -0.26685652215E+03  0.27143653890E+04  0.27012158488E+04 0.  0.
        2    1    3    3  502    0  0.11578933343E+04  0.11038951694E+02  0.56515590103E+03  0.12885030169E+04  0.25500000920E-02 0. -1.
       -2    1    3    3    0  502 -0.11578933343E+04 -0.11038951694E+02 -0.83201242318E+03  0.14258623721E+04  0.25500000920E-02 0.  1.
</event>
<event>
 5   0  0.3089218E-06  0.2768428E+04  0.7818609E-02  0.8313138E-01
       -1   -1    0    0    0  501  0.00000000000E+00  0.00000000000E+00  0.12449535751E+04  0.12449535751E+04  0.50400001928E-02 0. -1.
        1   -1    0    0  501    0  0.00000000000E+00  0.00000000000E+00 -0.15390521595E+04  0.15390521595E+04  0.50400001928E-02 0.  1.
    10030    2    1    2    0    0  0.00000000000E+00  0.00000000000E+00 -0.29409858438E+03  0.27840057346E+04  0.27684280654E+04 0.  0.
        5    1    3    3  502    0  0.67021644556E+03 -0.29385176848E+03 -0.13286020386E+04  0.15168204946E+04  0.46999998093E+01 0.  1.
       -5    1    3    3    0  502 -0.67021644556E+03  0.29385176848E+03  0.10345034542E+04  0.12671852400E+04  0.46999998093E+01 0. -1.
</event>
<event>
 5   0  0.7729970E-06  0.2739435E+04  0.7818609E-02  0.8322322E-01
        2   -1    0    0  501    0  0.00000000000E+00  0.00000000000E+00  0.27266746082E+04  0.27266746082E+04  0.25500000920E-02 0. -1.
       -2   -1    0    0    0  501  0.00000000000E+00  0.00000000000E+00 -0.68806380534E+03  0.68806380535E+03  0.25500000920E-02 0.  1.
    10030    2    1    2    0    0  0.00000000000E+00  0.00000000000E+00  0.20386108028E+04  0.34147384135E+04  0.27394350562E+04 0.  0.
        4    1    3    3  502    0 -0.13110171104E+02 -0.13377027421E+04  0.65268679357E+03  0.14884966127E+04  0.12699999809E+01 0.  1.
       -4    1    3    3    0  502  0.13110171104E+02  0.13377027421E+04  0.13859240092E+04  0.19262418008E+04  0.12699999809E+01 0. -1.
</event>
<event>
 5   0  0.3199840E-06  0.2692283E+04  0.7818609E-02  0.8337513E-01
        1   -1    0    0  501    0  0.00000000000E+00  0.00000000000E+00  0.12253065140E+04  0.12253065140E+04  0.50400001928E-02 0.  1.
       -1   -1    0    0    0  501  0.00000000000E+00  0.00000000000E+00 -0.14788927799E+04  0.14788927800E+04  0.50400001928E-02 0. -1.
    10030    2    1    2    0    0  0.00000000000E+00  0.00000000000E+00 -0.25358626591E+03  0.27041992940E+04  0.26922830140E+04 0.  0.
        1    1    3    3  502    0 -0.71394289004E+02 -0.74233053154E+02 -0.14749294969E+04  0.14785211231E+04  0.50400001928E-02 0. -1.
       -1    1    3    3    0  502  0.71394289004E+02  0.74233053154E+02  0.12213432310E+04  0.12256781709E+04  0.50400001928E-02 0.  1.
</event>
<event>
 5   0  0.3089218E-06  0.2702419E+04  0.7818609E-02  0.8334221E-01
        1   -1    0    0  501    0  0.00000000000E+00  0.00000000000E+00  0.22533550004E+04  0.22533550004E+04  0.50400001928E-02 0.  1.
       -1   -1    0    0    0  501  0.00000000000E+00  0.00000000000E+00 -0.81024383891E+03  0.81024383892E+03  0.50400001928E-02 0. -1.
    10030    2    1    2    0    0  0.00000000000E+00  0.00000000000E+00  0.14431111615E+04  0.30635988394E+04  0.27024189209E+04 0.  0.
        5    1    3    3  502    0  0.68796845081E+02  0.10110015279E+04  0.17348184388E+04  0.20090978574E+04  0.46999998093E+01 0.  1.
       -5    1    3    3    0  502 -0.68796845081E+02 -0.10110015279E+04 -0.29170727725E+03  0.10545009819E+04  0.46999998093E+01 0. -1.
</event>
<event>
 5   0  0.3199840E-06  0.2695698E+04  0.7818609E-02  0.8336402E-01
       -1   -1    0    0    0  501  0.00000000000E+00  0.00000000000E+00  0.63090219855E+03  0.63090219857E+03  0.50400001928E-02 0.  1.
        1   -1    0    0  501    0  0.00000000000E+00  0.00000000000E+00 -0.28795215831E+04  0.28795215831E+04  0.50400001928E-02 0. -1.
    10030    2    1    2    0    0  0.00000000000E+00  0.00000000000E+00 -0.22486193845E+04  0.35104237816E+04  0.26956976816E+04 0.  0.
        1    1    3    3  502    0  0.49647188371E+03  0.10646890522E+04 -0.26380193248E+03  0.12040093724E+04  0.50400001928E-02 0.  1.
       -1    1    3    3    0  502 -0.49647188371E+03 -0.10646890522E+04 -0.19848174520E+04  0.23064144092E+04  0.50400001928E-02 0. -1.
</event>
<event>
 5   0  0.7838364E-06  0.2695052E+04  0.7818609E-02  0.8336612E-01
        2   -1    0    0  501    0  0.00000000000E+00  0.00000000000E+00  0.14575558144E+04  0.14575558144E+04  0.25500000920E-02 0. -1.
       -2   -1    0    0    0  501  0.00000000000E+00  0.00000000000E+00 -0.12458018965E+04  0.12458018965E+04  0.25500000920E-02 0.  1.
    10030    2    1    2    0    0  0.00000000000E+00  0.00000000000E+00  0.21175391799E+03  0.27033577109E+04  0.26950516120E+04 0.  0.
        2    1    3    3  502    0  0.59045482310E+03 -0.11316977925E+04 -0.32725124602E+03  0.13177519378E+04  0.25500000920E-02 0.  1.
       -2    1    3    3    0  502 -0.59045482310E+03  0.11316977925E+04  0.53900516401E+03  0.13856057731E+04  0.25500000920E-02 0. -1.
</event>
<event>
 5   0  0.8213334E-06  0.2681906E+04  0.7818609E-02  0.8340900E-01
        2   -1    0    0  501    0  0.00000000000E+00  0.00000000000E+00  0.20234998023E+04  0.20234998023E+04  0.25500000920E-02 0.  1.
       -2   -1    0    0    0  501  0.00000000000E+00  0.00000000000E+00 -0.88863628923E+03  0.88863628923E+03  0.25500000920E-02 0. -1.
    10030    2    1    2    0    0  0.00000000000E+00  0.00000000000E+00  0.11348635131E+04  0.29121360915E+04  0.26819063038E+04 0.  0.
        3    1    3    3  502    0  0.42353393401E+03 -0.56852712487E+03  0.18033660031E+04  0.19377133525E+04  0.10100000352E+00 0.  1.
       -3    1    3    3    0  502 -0.42353393401E+03  0.56852712487E+03 -0.66850249005E+03  0.97442273905E+03  0.10100000352E+00 0. -1.
</event>
<event>
 5   0  0.3089218E-06  0.2710128E+04  0.7818609E-02  0.8331726E-01
        1   -1    0    0  501    0  0.00000000000E+00  0.00000000000E+00  0.11937699301E+04  0.11937699302E+04  0.50400001928E-02 0.  1.
       -1   -1    0    0    0  501  0.00000000000E+00  0.00000000000E+00 -0.15381506715E+04  0.15381506715E+04  0.50400001928E-02 0. -1.
    10030    2    1    2    0    0  0.00000000000E+00  0.00000000000E+00 -0.34438074134E+03  0.27319206016E+04  0.27101276868E+04 0.  0.
        5    1    3    3  502    0  0.11511696246E+04 -0.37335459415E+03  0.44229391400E+03  0.12884995747E+04  0.46999998093E+01 0.  1.
       -5    1    3    3    0  502 -0.11511696246E+04  0.37335459415E+03 -0.78667465534E+03  0.14434210269E+04  0.46999998093E+01 0. -1.
</event>
<event>
 5   0  0.7812908E-06  0.2698869E+04  0.7818609E-02  0.8335372E-01
        2   -1    0    0  501    0  0.00000000000E+00  0.00000000000E+00  0.92193104777E+03  0.92193104777E+03  0.25500000920E-02 0. -1.
       -2   -1    0    0    0  501  0.00000000000E+00  0.00000000000E+00 -0.19751738178E+04  0.19751738178E+04  0.25500000920E-02 0.  1.
    10030    2    1    2    0    0  0.00000000000E+00  0.00000000000E+00 -0.10532427701E+04  0.28971048656E+04  0.26988694429E+04 0.  0.
        5    1    3    3  502    0  0.59341551113E+03  0.31480035909E+02  0.77390328306E+03  0.97574655677E+03  0.46999998093E+01 0. -1.
       -5    1    3    3    0  502 -0.59341551113E+03 -0.31480035909E+02 -0.18271460531E+04  0.19213583088E+04  0.46999998093E+01 0.  1.
</event>
<event>
 5   0  0.7812908E-06  0.2706521E+04  0.7818609E-02  0.8332892E-01
       -2   -1    0    0    0  501  0.00000000000E+00  0.00000000000E+00  0.12359699418E+04  0.12359699418E+04  0.25500000920E-02 0.  1.
        2   -1    0    0  501    0  0.00000000000E+00  0.00000000000E+00 -0.14816820614E+04  0.14816820614E+04  0.25500000920E-02 0. -1.
    10030    2    1    2    0    0  0.00000000000E+00  0.00000000000E+00 -0.24571211967E+03  0.27176520032E+04  0.27065213771E+04 0.  0.
        5    1    3    3  502    0  0.10720437061E+04 -0.34189014720E+03 -0.87769615033E+03  0.14270736501E+04  0.46999998093E+01 0. -1.
       -5    1    3    3    0  502 -0.10720437061E+04  0.34189014720E+03  0.63198403067E+03  0.12905783531E+04  0.46999998093E+01 0.  1.
</event>
<event>
 5   0  0.7812908E-06  0.2695358E+04  0.7818609E-02  0.8336513E-01
       -2   -1    0    0    0  501  0.00000000000E+00  0.00000000000E+00  0.10530173077E+04  0.10530173077E+04  0.25500000920E-02 0.  1.
        2   -1    0    0  501    0  0.00000000000E+00  0.00000000000E+00 -0.17247943275E+04  0.17247943275E+04  0.25500000920E-02 0. -1.
    10030    2    1    2    0    0  0.00000000000E+00  0.00000000000E+00 -0.67177701981E+03  0.27778116353E+04  0.26953576974E+04 0.  0.
        5    1    3    3  502    0 -0.10426364258E+04 -0.11121295484E+03 -0.12084025057E+04  0.15999117924E+04  0.46999998093E+01 0. -1.
       -5    1    3    3    0  502  0.10426364258E+04  0.11121295484E+03  0.53662548591E+03  0.11778998429E+04  0.46999998093E+01 0.  1.
</event>
<event>
 5   0  0.3199840E-06  0.2688742E+04  0.7818609E-02  0.8338667E-01
       -1   -1    0    0    0  501  0.00000000000E+00  0.00000000000E+00  0.16860551035E+04  0.16860551035E+04  0.50400001928E-02 0. -1.
        1   -1    0    0  501    0  0.00000000000E+00  0.00000000000E+00 -0.10719301653E+04  0.10719301653E+04  0.50400001928E-02 0.  1.
    10030    2    1    2    0    0  0.00000000000E+00  0.00000000000E+00  0.61412493814E+03  0.27579852688E+04  0.26887419555E+04 0.  0.
        1    1    3    3  502    0  0.20312436327E+03 -0.78700190410E+03  0.14054815521E+04  0.16235793474E+04  0.50400001928E-02 0. -1.
       -1    1    3    3    0  502 -0.20312436327E+03  0.78700190410E+03 -0.79135661397E+03  0.11344059214E+04  0.50400001928E-02 0.  1.
</event>
<event>
 5   0  0.7729970E-06  0.2702098E+04  0.7818609E-02  0.8334325E-01
        2   -1    0    0  501    0  0.00000000000E+00  0.00000000000E+00  0.14529457958E+04  0.14529457958E+04  0.25500000920E-02 0. -1.
       -2   -1    0    0    0  501  0.00000000000E+00  0.00000000000E+00 -0.12562983360E+04  0.12562983360E+04  0.25500000920E-02 0.  1.
    10030    2    1    2    0    0  0.00000000000E+00  0.00000000000E+00  0.19664745982E+03  0.27092441317E+04  0.27020979890E+04 0.  0.
        4    1    3    3  502    0 -0.75044163850E+03  0.10835373161E+04 -0.19930472187E+03  0.13330190371E+04  0.12699999809E+01 0.  1.
       -4    1    3    3    0  502  0.75044163850E+03 -0.10835373161E+04  0.39595218168E+03  0.13762250947E+04  0.12699999809E+01 0. -1.
</event>
<event>
 5   0  0.3199840E-06  0.2689646E+04  0.7818609E-02  0.8338372E-01
        1   -1    0    0  501    0  0.00000000000E+00  0.00000000000E+00  0.12576315903E+04  0.12576315904E+04  0.50400001928E-02 0. -1.
       -1   -1    0    0    0  501  0.00000000000E+00  0.00000000000E+00 -0.14380598142E+04  0.14380598142E+04  0.50400001928E-02 0.  1.
    10030    2    1    2    0    0  0.00000000000E+00  0.00000000000E+00 -0.18042822382E+03  0.26956914045E+04  0.26896464088E+04 0.  0.
        1    1    3    3  502    0 -0.18597626841E+03  0.97211407416E+03 -0.10027308853E+04  0.14089223449E+04  0.50400001928E-02 0.  1.
       -1    1    3    3    0  502  0.18597626841E+03 -0.97211407416E+03  0.82230266151E+03  0.12867690596E+04  0.50400001928E-02 0. -1.
</event>
<event>
 5   0  0.3028601E-06  0.2695955E+04  0.7818609E-02  0.8336319E-01
       -1   -1    0    0    0  501  0.00000000000E+00  0.00000000000E+00  0.89408015678E+03  0.89408015680E+03  0.50400001928E-02 0. -1.
        1   -1    0    0  501    0  0.00000000000E+00  0.00000000000E+00 -0.20323042727E+04  0.20323042727E+04  0.50400001928E-02 0.  1.
    10030    2    1    2    0    0  0.00000000000E+00  0.00000000000E+00 -0.11382241159E+04  0.29263844295E+04  0.26959546901E+04 0.  0.
        3    1    3    3  502    0  0.10499625302E+04  0.23391269080E+03  0.31266739627E+03  0.11202220193E+04  0.10100000352E+00 0. -1.
       -3    1    3    3    0  502 -0.10499625302E+04 -0.23391269080E+03 -0.14508915122E+04  0.18061624102E+04  0.10100000352E+00 0.  1.
</event>
<event>
 5   0  0.3046300E-06  0.2691198E+04  0.7818609E-02  0.8337866E-01
       -1   -1    0    0    0  501  0.00000000000E+00  0.00000000000E+00  0.26503821845E+04  0.26503821845E+04  0.50400001928E-02 0.  1.
        1   -1    0    0  501    0  0.00000000000E+00  0.00000000000E+00 -0.68316082880E+03  0.68316082882E+03  0.50400001928E-02 0. -1.
    10030    2    1    2    0    0  0.00000000000E+00  0.00000000000E+00  0.19672213557E+04  0.33335430133E+04  0.26911984615E+04 0.  0.
        2    1    3    3  502    0  0.11017454202E+04  0.24317259836E+03  0.75341097112E+02  0.11307750282E+04  0.25500000920E-02 0. -1.
       -2    1    3    3    0  502 -0.11017454202E+04 -0.24317259836E+03  0.18918802586E+04  0.22027679851E+04  0.25500000920E-02 0.  1.
</event>
<event>
 5   0  0.7729970E-06  0.2694557E+04  0.7818609E-02  0.8336773E-01
       -2   -1    0    0    0  501  0.00000000000E+00  0.00000000000E+00  0.11440533922E+04  0.11440533922E+04  0.25500000920E-02 0.  1.
        2   -1    0    0  501    0  0.00000000000E+00  0.00000000000E+00 -0.15866041118E+04  0.15866041118E+04  0.25500000920E-02 0. -1.
    10030    2    1    2    0    0  0.00000000000E+00  0.00000000000E+00 -0.44255071964E+03  0.27306575040E+04  0.26945573411E+04 0.  0.
        4    1    3    3  502    0 -0.10555830594E+04  0.57678356824E+03 -0.83621918983E+03  0.14649911352E+04  0.12699999809E+01 0. -1.
       -4    1    3    3    0  502  0.10555830594E+04 -0.57678356824E+03  0.39366847019E+03  0.12656663688E+04  0.12699999809E+01 0.  1.
</event>
<event>
 5   0  0.3013407E-06  0.2756089E+04  0.7818609E-02  0.8317032E-01
       -1   -1    0    0    0  501  0.00000000000E+00  0.00000000000E+00  0.10231331563E+04  0.10231331563E+04  0.50400001928E-02 0.  1.
        1   -1    0    0  501    0  0.00000000000E+00  0.00000000000E+00 -0.18560694191E+04  0.18560694191E+04  0.50400001928E-02 0. -1.
    10030    2    1    2    0    0  0.00000000000E+00  0.00000000000E+00 -0.83293626278E+03  0.28792025754E+04  0.27560886510E+04 0.  0.
        4    1    3    3  502    0 -0.10818250377E+03  0.14595903845E+03 -0.18435027747E+04  0.18524339632E+04  0.12699999809E+01 0. -1.
       -4    1    3    3    0  502  0.10818250377E+03 -0.14595903845E+03  0.10105665119E+04  0.10267686122E+04  0.12699999809E+01 0.  1.
</event>
<event>
 5   0  0.3028601E-06  0.2677200E+04  0.7818609E-02  0.8342441E-01
        1   -1    0    0  501    0  0.00000000000E+00  0.00000000000E+00  0.12616779791E+04  0.12616779791E+04  0.50400001928E-02 0.  1.
       -1   -1    0    0    0  501  0.00000000000E+00  0.00000000000E+00 -0.14202117923E+04  0.14202117923E+04  0.50400001928E-02 0. -1.
    10030    2    1    2    0    0  0.00000000000E+00  0.00000000000E+00 -0.15853381323E+03  0.26818897714E+04  0.26771999880E+04 0.  0.
        3    1    3    3  502    0 -0.90834831115E+03  0.30015109082E+03 -0.10172096972E+04  0.13963892402E+04  0.10100000352E+00 0. -1.
       -3    1    3    3    0  502  0.90834831115E+03 -0.30015109082E+03  0.85867588402E+03  0.12855005312E+04  0.10100000352E+00 0.  1.
</event>
<event>
 5   0  0.8407622E-06  0.2705342E+04  0.7818609E-02  0.8333274E-01
       -2   -1    0    0    0  501  0.00000000000E+00  0.00000000000E+00  0.10381580972E+04  0.10381580972E+04  0.25500000920E-02 0.  1.
        2   -1    0    0  501    0  0.00000000000E+00  0.00000000000E+00 -0.17624659661E+04  0.17624659661E+04  0.25500000920E-02 0. -1.
    10030    2    1    2    0    0  0.00000000000E+00  0.00000000000E+00 -0.72430786894E+03  0.28006240633E+04  0.27053416152E+04 0.  0.
        1    1    3    3  502    0  0.30095777438E+03 -0.27003615238E+03  0.97413167811E+03  0.10547168491E+04  0.50400001928E-02 0.  1.
       -1    1    3    3    0  502 -0.30095777438E+03  0.27003615238E+03 -0.16984395471E+04  0.17459072142E+04  0.50400001928E-02 0. -1.
</event>
<event>
 5   0  0.7812908E-06  0.2676818E+04  0.7818609E-02  0.8342566E-01
        2   -1    0    0  501    0  0.00000000000E+00  0.00000000000E+00  0.31540817877E+04  0.31540817877E+04  0.25500000920E-02 0.  1.
       -2   -1    0    0    0  501  0.00000000000E+00  0.00000000000E+00 -0.56794313095E+03  0.56794313096E+03  0.25500000920E-02 0. -1.
    10030    2    1    2    0    0  0.00000000000E+00  0.00000000000E+00  0.25861386568E+04  0.37220249187E+04  0.26768183247E+04 0.  0.
        5    1    3    3  502    0 -0.69351543899E+02 -0.83951395793E+03  0.27392366604E+04  0.28658389512E+04  0.46999998093E+01 0.  1.
       -5    1    3    3    0  502  0.69351543899E+02  0.83951395793E+03 -0.15309800368E+03  0.85618596750E+03  0.46999998093E+01 0. -1.
</event>
<event>
 5   0  0.3013407E-06  0.2689835E+04  0.7818609E-02  0.8338311E-01
       -1   -1    0    0    0  501  0.00000000000E+00  0.00000000000E+00  0.14063060662E+04  0.14063060662E+04  0.50400001928E-02 0. -1.
        1   -1    0    0  501    0  0.00000000000E+00  0.00000000000E+00 -0.12862088709E+04  0.12862088710E+04  0.50400001928E-02 0.  1.
    10030    2    1    2    0    0  0.00000000000E+00  0.00000000000E+00  0.12009719527E+03  0.26925149372E+04  0.26898351902E+04 0.  0.
        4    1    3    3  502    0 -0.97283876575E+03  0.19892244734E+03  0.96804452158E+03  0.13867578061E+04  0.12699999809E+01 0. -1.
       -4    1    3    3    0  502  0.97283876575E+03 -0.19892244734E+03 -0.84794732631E+03  0.13057571311E+04  0.12699999809E+01 0.  1.
</event>
<event>
 5   0  0.7729970E-06  0.2726726E+04  0.7818609E-02  0.8326385E-01
       -2   -1    0    0    0  501  0.00000000000E+00  0.00000000000E+00  0.19454051984E+04  0.19454051984E+04  0.25500000920E-02 0. -1.
        2   -1    0    0  501    0  0.00000000000E+00  0.00000000000E+00 -0.95546117389E+03  0.95546117390E+03  0.25500000920E-02 0.  1.
    10030    2    1    2    0    0  0.00000000000E+00  0.00000000000E+00  0.98994402449E+03  0.29008663723E+04  0.27267263409E+04 0.  0.
        4    1    3    3  502    0 -0.41716877892E+03 -0.11082508805E+04 -0.22383156860E+03  0.12051356721E+04  0.12699999809E+01 0. -1.
       -4    1    3    3    0  502  0.41716877892E+03  0.11082508805E+04  0.12137755931E+04  0.16957307002E+04  0.12699999809E+01 0.  1.
</event>
<event>
 5   0  0.7838364E-06  0.2712263E+04  0.7818609E-02  0.8331037E-01
        2   -1    0    0  501    0  0.00000000000E+00  0.00000000000E+00  0.20744076843E+04  0.20744076843E+04  0.25500000920E-02 0.  1.
       -2   -1    0    0    0  501  0.00000000000E+00  0.00000000000E+00 -0.88656292512E+03  0.88656292513E+03  0.25500000920E-02 0. -1.
    10030    2    1    2    0    0  0.00000000000E+00  0.00000000000E+00  0.11878447592E+04  0.29609706094E+04  0.27122632206E+04 0.  0.
        2    1    3    3  502    0 -0.26133770481E+03 -0.51165524136E+03 -0.74713550496E+03  0.94249665503E+03  0.25500000920E-02 0. -1.
       -2    1    3    3    0  502  0.26133770481E+03  0.51165524136E+03  0.19349802641E+04  0.20184739544E+04  0.25500000920E-02 0.  1.
</event>
<event>
 5   0  0.3199840E-06  0.2695399E+04  0.7818609E-02  0.8336499E-01
        1   -1    0    0  501    0  0.00000000000E+00  0.00000000000E+00  0.11944652980E+04  0.11944652980E+04  0.50400001928E-02 0. -1.
       -1   -1    0    0    0  501  0.00000000000E+00  0.00000000000E+00 -0.15205914110E+04  0.15205914110E+04  0.50400001928E-02 0.  1.
    10030    2    1    2    0    0  0.00000000000E+00  0.00000000000E+00 -0.32612611304E+03  0.27150567090E+04  0.26953988001E+04 0.  0.
        1    1    3    3  502    0  0.65274786867E+03 -0.75716900931E+03  0.74735887386E+03  0.12481706514E+04  0.50400001928E-02 0. -1.
       -1    1    3    3    0  502 -0.65274786867E+03  0.75716900931E+03 -0.10734849869E+04  0.14668860576E+04  0.50400001928E-02 0.  1.
</event>
<event>
 5   0  0.7838364E-06  0.2719488E+04  0.7818609E-02  0.8328709E-01
       -2   -1    0    0    0  501  0.00000000000E+00  0.00000000000E+00  0.86800301277E+03  0.86800301277E+03  0.25500000920E-02 0.  1.
        2   -1    0    0  501    0  0.00000000000E+00  0.00000000000E+00 -0.21300659337E+04  0.21300659337E+04  0.25500000920E-02 0. -1.
    10030    2    1    2    0    0  0.00000000000E+00  0.00000000000E+00 -0.12620629209E+04  0.29980689464E+04  0.27194879281E+04 0.  0.
        2    1    3    3  502    0 -0.23062520131E+03 -0.11607641715E+04  0.10714346905E+03  0.11882933848E+04  0.25500000920E-02 0.  1.
       -2    1    3    3    0  502  0.23062520131E+03  0.11607641715E+04 -0.13692063900E+04  0.18097755617E+04  0.25500000920E-02 0. -1.
</event>
<event>
 5   0  0.3046300E-06  0.2693943E+04  0.7818609E-02  0.8336973E-01
        1   -1    0    0  501    0  0.00000000000E+00  0.00000000000E+00  0.10197146657E+04  0.10197146657E+04  0.50400001928E-02 0. -1.
       -1   -1    0    0    0  501  0.00000000000E+00  0.00000000000E+00 -0.17792546620E+04  0.17792546620E+04  0.50400001928E-02 0.  1.
    10030    2    1    2    0    0  0.00000000000E+00  0.00000000000E+00 -0.75953999628E+03  0.27989693277E+04  0.26939428894E+04 0.  0.
        2    1    3    3  502    0  0.13113203521E+04  0.17305032864E+03 -0.11523712655E+03  0.13276999200E+04  0.25500000920E-02 0. -1.
       -2    1    3    3    0  502 -0.13113203521E+04 -0.17305032864E+03 -0.64430286972E+03  0.14712694077E+04  0.25500000920E-02 0.  1.
</event>
<event>
 5   0  0.3013407E-06  0.2681783E+04  0.7818609E-02  0.8340940E-01
        1   -1    0    0  501    0  0.00000000000E+00  0.00000000000E+00  0.13626641089E+04  0.13626641089E+04  0.50400001928E-02 0. -1.
       -1   -1    0    0    0  501  0.00000000000E+00  0.00000000000E+00 -0.13194663858E+04  0.13194663858E+04  0.50400001928E-02 0.  1.
    10030    2    1    2    0    0  0.00000000000E+00  0.00000000000E+00  0.43197723182E+02  0.26821304947E+04  0.26817826063E+04 0.  0.
        4    1    3    3  502    0  0.51213277294E+03 -0.11724377299E+03  0.12554370546E+04  0.13609371368E+04  0.12699999809E+01 0. -1.
       -4    1    3    3    0  502 -0.51213277294E+03  0.11724377299E+03 -0.12122393314E+04  0.13211933579E+04  0.12699999809E+01 0.  1.
</event>
<event>
 5   0  0.8407622E-06  0.2774382E+04  0.7818609E-02  0.8311266E-01
        2   -1    0    0  501    0  0.00000000000E+00  0.00000000000E+00  0.12301542909E+04  0.12301542909E+04  0.25500000920E-02 0. -1.
       -2   -1    0    0    0  501  0.00000000000E+00  0.00000000000E+00 -0.15642749355E+04  0.15642749355E+04  0.25500000920E-02 0.  1.
    10030    2    1    2    0    0  0.00000000000E+00  0.00000000000E+00 -0.33412064460E+03  0.27944292265E+04  0.27743824712E+04 0.  0.
        1    1    3    3  502    0 -0.11246087350E+04  0.58340073601E+03 -0.73611902155E+03  0.14652550766E+04  0.50400001928E-02 0.  1.
       -1    1    3    3    0  502  0.11246087350E+04 -0.58340073601E+03  0.40199837695E+03  0.13291741499E+04  0.50400001928E-02 0. -1.
</event>
<event>
 5   0  0.7838364E-06  0.2707277E+04  0.7818609E-02  0.8332648E-01
        2   -1    0    0  501    0  0.00000000000E+00  0.00000000000E+00  0.17850366554E+04  0.17850366554E+04  0.25500000920E-02 0.  1.
       -2   -1    0    0    0  501  0.00000000000E+00  0.00000000000E+00 -0.10264982198E+04  0.10264982198E+04  0.25500000920E-02 0. -1.
    10030    2    1    2    0    0  0.00000000000E+00  0.00000000000E+00  0.75853843559E+03  0.28115348753E+04  0.27072768230E+04 0.  0.
        2    1    3    3  502    0 -0.98970689776E+03 -0.18317152163E+03  0.13192589645E+04  0.16593720997E+04  0.25500000920E-02 0.  1.
       -2    1    3    3    0  502  0.98970689776E+03  0.18317152163E+03 -0.56072052893E+03  0.11521627756E+04  0.25500000920E-02 0. -1.
</event>
<event>
 5   0  0.3199840E-06  0.2698551E+04  0.7818609E-02  0.8335475E-01
       -1   -1    0    0    0  501  0.00000000000E+00  0.00000000000E+00  0.10452379962E+04  0.10452379963E+04  0.50400001928E-02 0. -1.
        1   -1    0    0  501    0  0.00000000000E+00  0.00000000000E+00 -0.17417516666E+04  0.17417516666E+04  0.50400001928E-02 0.  1.
    10030    2    1    2    0    0  0.00000000000E+00  0.00000000000E+00 -0.69651367035E+03  0.27869896629E+04  0.26985514796E+04 0.  0.
        1    1    3    3  502    0 -0.10676160693E+04  0.75887177364E+03 -0.68268154326E+03  0.14770729602E+04  0.50400001928E-02 0.  1.
       -1    1    3    3    0  502  0.10676160693E+04 -0.75887177364E+03 -0.13832127086E+02  0.13099167027E+04  0.50400001928E-02 0. -1.
</event>
<event>
 5   0  0.3046300E-06  0.2707082E+04  0.7818609E-02  0.8332711E-01
       -1   -1    0    0    0  501  0.00000000000E+00  0.00000000000E+00  0.12757797078E+04  0.12757797078E+04  0.50400001928E-02 0.  1.
        1   -1    0    0  501    0  0.00000000000E+00  0.00000000000E+00 -0.14360418573E+04  0.14360418573E+04  0.50400001928E-02 0. -1.
    10030    2    1    2    0    0  0.00000000000E+00  0.00000000000E+00 -0.16026214957E+03  0.27118215651E+04  0.27070818688E+04 0.  0.
        2    1    3    3  502    0 -0.10954320383E+04 -0.15914361125E+03 -0.86045256412E+03  0.14020259108E+04  0.25500000920E-02 0. -1.
       -2    1    3    3    0  502  0.10954320383E+04  0.15914361125E+03  0.70019041455E+03  0.13097956543E+04  0.25500000920E-02 0.  1.
</event>
<event>
 5   0  0.8407622E-06  0.2700243E+04  0.7818609E-02  0.8334926E-01
       -2   -1    0    0    0  501  0.00000000000E+00  0.00000000000E+00  0.10860426087E+04  0.10860426087E+04  0.25500000920E-02 0.  1.
        2   -1    0    0  501    0  0.00000000000E+00  0.00000000000E+00 -0.16784135815E+04  0.16784135815E+04  0.25500000920E-02 0. -1.
    10030    2    1    2    0    0  0.00000000000E+00  0.00000000000E+00 -0.59237097272E+03  0.27644561902E+04  0.27002434443E+04 0.  0.
        1    1    3    3  502    0 -0.10330697798E+04  0.67066977485E+03 -0.86232542120E+03  0.15035412362E+04  0.50400001928E-02 0. -1.
       -1    1    3    3    0  502  0.10330697798E+04 -0.67066977485E+03  0.26995444848E+03  0.12609149540E+04  0.50400001928E-02 0.  1.
</event>
<event>
 5   0  0.3046300E-06  0.2696183E+04  0.7818609E-02  0.8336244E-01
        1   -1    0    0  501    0  0.00000000000E+00  0.00000000000E+00  0.21348202328E+04  0.21348202328E+04  0.50400001928E-02 0.  1.
       -1   -1    0    0    0  501  0.00000000000E+00  0.00000000000E+00 -0.85129010867E+03  0.85129010869E+03  0.50400001928E-02 0. -1.
    10030    2    1    2    0    0  0.00000000000E+00  0.00000000000E+00  0.12835301241E+04  0.29861103415E+04  0.26961834863E+04 0.  0.
        2    1    3    3  502    0 -0.21674617451E+03 -0.10925237410E+03  0.21104198826E+04  0.21243321460E+04  0.25500000920E-02 0.  1.
       -2    1    3    3    0  502  0.21674617451E+03  0.10925237410E+03 -0.82688975855E+03  0.86177819548E+03  0.25500000920E-02 0. -1.
</event>
<event>
 5   0  0.3028601E-06  0.2697540E+04  0.7818609E-02  0.8335804E-01
        1   -1    0    0  501    0  0.00000000000E+00  0.00000000000E+00  0.13142594319E+04  0.13142594319E+04  0.50400001928E-02 0.  1.
       -1   -1    0    0    0  501  0.00000000000E+00  0.00000000000E+00 -0.13841868558E+04  0.13841868558E+04  0.50400001928E-02 0. -1.
    10030    2    1    2    0    0  0.00000000000E+00  0.00000000000E+00 -0.69927423887E+02  0.26984462877E+04  0.26975400874E+04 0.  0.
        3    1    3    3  502    0  0.90405754597E+02 -0.13010269620E+04  0.30915223403E+03  0.13403057377E+04  0.10100000352E+00 0. -1.
       -3    1    3    3    0  502 -0.90405754597E+02  0.13010269620E+04 -0.37907965791E+03  0.13581405500E+04  0.10100000352E+00 0.  1.
</event>
<event>
 5   0  0.7729970E-06  0.2698085E+04  0.7818609E-02  0.8335627E-01
        2   -1    0    0  501    0  0.00000000000E+00  0.00000000000E+00  0.17252082299E+04  0.17252082299E+04  0.25500000920E-02 0.  1.
       -2   -1    0    0    0  501  0.00000000000E+00  0.00000000000E+00 -0.10548959215E+04  0.10548959215E+04  0.25500000920E-02 0. -1.
    10030    2    1    2    0    0  0.00000000000E+00  0.00000000000E+00  0.67031230835E+03  0.27801041514E+04  0.26980845988E+04 0.  0.
        4    1    3    3  502    0  0.76713982267E+03 -0.25311400460E+03 -0.77812485803E+03  0.11216283317E+04  0.12699999809E+01 0. -1.
       -4    1    3    3    0  502 -0.76713982267E+03  0.25311400460E+03  0.14484371664E+04  0.16584758198E+04  0.12699999809E+01 0.  1.
</event>
<event>
 5   0  0.7729970E-06  0.2688562E+04  0.7818609E-02  0.8338726E-01
        2   -1    0    0  501    0  0.00000000000E+00  0.00000000000E+00  0.18493597356E+04  0.18493597356E+04  0.25500000920E-02 0.  1.
       -2   -1    0    0    0  501  0.00000000000E+00  0.00000000000E+00 -0.97714439229E+03  0.97714439229E+03  0.25500000920E-02 0. -1.
    10030    2    1    2    0    0  0.00000000000E+00  0.00000000000E+00  0.87221534330E+03  0.28265041279E+04  0.26885620655E+04 0.  0.
        4    1    3    3  502    0  0.11721453515E+04 -0.43120297511E+03 -0.86624700744E+02  0.12519449598E+04  0.12699999809E+01 0. -1.
       -4    1    3    3    0  502 -0.11721453515E+04  0.43120297511E+03  0.95884004404E+03  0.15745591681E+04  0.12699999809E+01 0.  1.
</event>
<event>
 5   0  0.7729970E-06  0.2610194E+04  0.7818609E-02  0.8364747E-01
       -2   -1    0    0    0  501  0.00000000000E+00  0.00000000000E+00  0.12618117089E+04  0.12618117089E+04  0.25500000920E-02 0. -1.
        2   -1    0    0  501    0  0.00000000000E+00  0.00000000000E+00 -0.13498675296E+04  0.13498675296E+04  0.25500000920E-02 0.  1.
    10030    2    1    2    0    0  0.00000000000E+00  0.00000000000E+00 -0.88055820682E+02  0.26116792384E+04  0.26101943638E+04 0.  0.
        4    1    3    3  502    0  0.89435425390E+03  0.86988546201E+03  0.33921320956E+03  0.12929181965E+04  0.12699999809E+01 0. -1.
       -4    1    3    3    0  502 -0.89435425390E+03 -0.86988546201E+03 -0.42726903025E+03  0.13187610419E+04  0.12699999809E+01 0.  1.
</event>
<event>
 5   0  0.8213334E-06  0.2679134E+04  0.7818609E-02  0.8341807E-01
       -2   -1    0    0    0  501  0.00000000000E+00  0.00000000000E+00  0.53063716457E+03  0.53063716458E+03  0.25500000920E-02 0.  1.
        2   -1    0    0  501    0  0.00000000000E+00  0.00000000000E+00 -0.33816705160E+04  0.33816705160E+04  0.25500000920E-02 0. -1.
    10030    2    1    2    0    0  0.00000000000E+00  0.00000000000E+00 -0.28510333514E+04  0.39123076806E+04  0.26791342289E+04 0.  0.
        3    1    3    3  502    0 -0.50478272303E+03  0.54141202072E+03 -0.30558859122E+04  0.31442600548E+04  0.10100000352E+00 0. -1.
       -3    1    3    3    0  502  0.50478272303E+03 -0.54141202072E+03  0.20485256074E+03  0.76804762580E+03  0.10100000352E+00 0.  1.
</event>
<event>
 5   0  0.3199840E-06  0.2676233E+04  0.7818609E-02  0.8342758E-01
        1   -1    0    0  501    0  0.00000000000E+00  0.00000000000E+00  0.27352364652E+04  0.27352364652E+04  0.50400001928E-02 0.  1.
       -1   -1    0    0    0  501  0.00000000000E+00  0.00000000000E+00 -0.65462544299E+03  0.65462544301E+03  0.50400001928E-02 0. -1.
    10030    2    1    2    0    0  0.00000000000E+00  0.00000000000E+00  0.20806110222E+04  0.33898619083E+04  0.26762327124E+04 0.  0.
        1    1    3    3  502    0 -0.72756518865E+03 -0.97889214122E+03  0.17375115471E+04  0.21228582864E+04  0.50400001928E-02 0.  1.
       -1    1    3    3    0  502  0.72756518865E+03  0.97889214122E+03  0.34309947515E+03  0.12670036218E+04  0.50400001928E-02 0. -1.
</event>
<event>
 5   0  0.7838364E-06  0.2692219E+04  0.7818609E-02  0.8337534E-01
       -2   -1    0    0    0  501  0.00000000000E+00  0.00000000000E+00  0.13313741154E+04  0.13313741154E+04  0.25500000920E-02 0.  1.
        2   -1    0    0  501    0  0.00000000000E+00  0.00000000000E+00 -0.13610075178E+04  0.13610075178E+04  0.25500000920E-02 0. -1.
    10030    2    1    2    0    0  0.00000000000E+00  0.00000000000E+00 -0.29633402408E+02  0.26923816332E+04  0.26922185499E+04 0.  0.
        2    1    3    3  502    0  0.19403660467E+03  0.46280614181E+02  0.13165107546E+04  0.13315377073E+04  0.25500000920E-02 0.  1.
       -2    1    3    3    0  502 -0.19403660467E+03 -0.46280614181E+02 -0.13461441570E+04  0.13608439259E+04  0.25500000920E-02 0. -1.
</event>
<event>
 5   0  0.8407622E-06  0.2679525E+04  0.7818609E-02  0.8341679E-01
        2   -1    0    0  501    0  0.00000000000E+00  0.00000000000E+00  0.12328670896E+04  0.12328670896E+04  0.25500000920E-02 0.  1.
       -2   -1    0    0    0  501  0.00000000000E+00  0.00000000000E+00 -0.14559257097E+04  0.14559257097E+04  0.25500000920E-02 0. -1.
    10030    2    1    2    0    0  0.00000000000E+00  0.00000000000E+00 -0.22305862005E+03  0.26887927993E+04  0.26795245044E+04 0.  0.
        1    1    3    3  502    0  0.89141299792E+03  0.43863903352E+03 -0.10134940849E+04  0.14192221795E+04  0.50400001928E-02 0. -1.
       -1    1    3    3    0  502 -0.89141299792E+03 -0.43863903352E+03  0.79043546484E+03  0.12695706198E+04  0.50400001928E-02 0.  1.
</event>
<event>
 5   0  0.3046300E-06  0.2709684E+04  0.7818609E-02  0.8331870E-01
        1   -1    0    0  501    0  0.00000000000E+00  0.00000000000E+00  0.18519040175E+04  0.18519040175E+04  0.50400001928E-02 0.  1.
       -1   -1    0    0    0  501  0.00000000000E+00  0.00000000000E+00 -0.99119411264E+03  0.99119411266E+03  0.50400001928E-02 0. -1.
    10030    2    1    2    0    0  0.00000000000E+00  0.00000000000E+00  0.86070990488E+03  0.28430981302E+04  0.27096836416E+04 0.  0.
        2    1    3    3  502    0  0.10002566192E+04 -0.76310695102E+03 -0.97141521456E+02  0.12618565680E+04  0.25500000920E-02 0. -1.
       -2    1    3    3    0  502 -0.10002566192E+04  0.76310695102E+03  0.95785142633E+03  0.15812415622E+04  0.25500000920E-02 0.  1.
</event>
<event>
 5   0  0.3046300E-06  0.2691939E+04  0.7818609E-02  0.8337625E-01
       -1   -1    0    0    0  501  0.00000000000E+00  0.00000000000E+00  0.59907734091E+03  0.59907734093E+03  0.50400001928E-02 0.  1.
        1   -1    0    0  501    0  0.00000000000E+00  0.00000000000E+00 -0.30240391563E+04  0.30240391563E+04  0.50400001928E-02 0. -1.
    10030    2    1    2    0    0  0.00000000000E+00  0.00000000000E+00 -0.24249618154E+04  0.36231164972E+04  0.26919385852E+04 0.  0.
        2    1    3    3  502    0 -0.81319551496E+03  0.88126269956E+03 -0.38968572191E+03  0.12608591726E+04  0.25500000920E-02 0.  1.
       -2    1    3    3    0  502  0.81319551496E+03 -0.88126269956E+03 -0.20352760935E+04  0.23622573246E+04  0.25500000920E-02 0. -1.
</event>
<event>
 5   0  0.7729970E-06  0.2674506E+04  0.7818609E-02  0.8343324E-01
       -2   -1    0    0    0  501  0.00000000000E+00  0.00000000000E+00  0.11561190157E+04  0.11561190157E+04  0.25500000920E-02 0. -1.
        2   -1    0    0  501    0  0.00000000000E+00  0.00000000000E+00 -0.15467664104E+04  0.15467664104E+04  0.25500000920E-02 0.  1.
    10030    2    1    2    0    0  0.00000000000E+00  0.00000000000E+00 -0.39064739470E+03  0.27028854262E+04  0.26745063544E+04 0.  0.
        4    1    3    3  502    0  0.27887010011E+03 -0.12821639258E+04  0.65350428971E+02  0.13137675429E+04  0.12699999809E+01 0.  1.
       -4    1    3    3    0  502 -0.27887010011E+03  0.12821639258E+04 -0.45599782367E+03  0.13891178832E+04  0.12699999809E+01 0. -1.
</event>
<event>
 5   0  0.7729970E-06  0.2697892E+04  0.7818609E-02  0.8335689E-01
        2   -1    0    0  501    0  0.00000000000E+00  0.00000000000E+00  0.13185001394E+04  0.13185001394E+04  0.25500000920E-02 0.  1.
       -2   -1    0    0    0  501  0.00000000000E+00  0.00000000000E+00 -0.13800944874E+04  0.13800944874E+04  0.25500000920E-02 0. -1.
    10030    2    1    2    0    0  0.00000000000E+00  0.00000000000E+00 -0.61594347979E+02  0.26985946268E+04  0.26978916020E+04 0.  0.
        4    1    3    3  502    0  0.97342543968E+02 -0.12061493178E+04  0.56549692315E+03  0.13356871380E+04  0.12699999809E+01 0.  1.
       -4    1    3    3    0  502 -0.97342543968E+02  0.12061493178E+04 -0.62709127113E+03  0.13629074888E+04  0.12699999809E+01 0. -1.
</event>
<event>
 5   0  0.7729970E-06  0.2715265E+04  0.7818609E-02  0.8330069E-01
        2   -1    0    0  501    0  0.00000000000E+00  0.00000000000E+00  0.16409872877E+04  0.16409872877E+04  0.25500000920E-02 0.  1.
       -2   -1    0    0    0  501  0.00000000000E+00  0.00000000000E+00 -0.11232057364E+04  0.11232057364E+04  0.25500000920E-02 0. -1.
    10030    2    1    2    0    0  0.00000000000E+00  0.00000000000E+00  0.51778155128E+03  0.27641930241E+04  0.27152652430E+04 0.  0.
        4    1    3    3  502    0 -0.17729653345E+03 -0.61232148217E+03  0.14791531420E+04  0.16106729304E+04  0.12699999809E+01 0.  1.
       -4    1    3    3    0  502  0.17729653345E+03  0.61232148217E+03 -0.96137159071E+03  0.11535200937E+04  0.12699999809E+01 0. -1.
</event>
<event>
 5   0  0.3028601E-06  0.2687557E+04  0.7818609E-02  0.8339054E-01
       -1   -1    0    0    0  501  0.00000000000E+00  0.00000000000E+00  0.97991929261E+03  0.97991929262E+03  0.50400001928E-02 0.  1.
        1   -1    0    0  501    0  0.00000000000E+00  0.00000000000E+00 -0.18427439298E+04  0.18427439298E+04  0.50400001928E-02 0. -1.
    10030    2    1    2    0    0  0.00000000000E+00  0.00000000000E+00 -0.86282463717E+03  0.28226632224E+04  0.26875567552E+04 0.  0.
        3    1    3    3  502    0  0.12436157846E+04  0.13687371360E+03 -0.94639408336E+03  0.15687499496E+04  0.10100000352E+00 0.  1.
       -3    1    3    3    0  502 -0.12436157846E+04 -0.13687371360E+03  0.83569446187E+02  0.12539132728E+04  0.10100000352E+00 0. -1.
</event>
<event>
 5   0  0.3089218E-06  0.2674416E+04  0.7818609E-02  0.8343354E-01
       -1   -1    0    0    0  501  0.00000000000E+00  0.00000000000E+00  0.92236004076E+03  0.92236004077E+03  0.50400001928E-02 0.  1.
        1   -1    0    0  501    0  0.00000000000E+00  0.00000000000E+00 -0.19386413044E+04  0.19386413044E+04  0.50400001928E-02 0. -1.
    10030    2    1    2    0    0  0.00000000000E+00  0.00000000000E+00 -0.10162812636E+04  0.28610013452E+04  0.26744160279E+04 0.  0.
        5    1    3    3  502    0 -0.52323006490E+03 -0.71027748414E+03  0.56687615592E+03  0.10486345748E+04  0.46999998093E+01 0.  1.
       -5    1    3    3    0  502  0.52323006490E+03  0.71027748414E+03 -0.15831574195E+04  0.18123667704E+04  0.46999998093E+01 0. -1.
</event>
<event>
 5   0  0.7838364E-06  0.2864943E+04  0.7818609E-02  0.8283385E-01
       -2   -1    0    0    0  501  0.00000000000E+00  0.00000000000E+00  0.10612480825E+04  0.10612480825E+04  0.25500000920E-02 0.  1.
        2   -1    0    0  501    0  0.00000000000E+00  0.00000000000E+00 -0.19335491362E+04  0.19335491362E+04  0.25500000920E-02 0. -1.
    10030    2    1    2    0    0  0.00000000000E+00  0.00000000000E+00 -0.87230105368E+03  0.29947972186E+04  0.28649434990E+04 0.  0.
        2    1    3    3  502    0 -0.11530988146E+04 -0.85681069443E+02 -0.13200513279E+04  0.17548543046E+04  0.25500000920E-02 0. -1.
       -2    1    3    3    0  502  0.11530988146E+04  0.85681069443E+02  0.44775027423E+03  0.12399429140E+04  0.25500000920E-02 0.  1.
</event>
<event>
 5   0  0.3046300E-06  0.2726643E+04  0.7818609E-02  0.8326412E-01
       -1   -1    0    0    0  501  0.00000000000E+00  0.00000000000E+00  0.91852096680E+03  0.91852096682E+03  0.50400001928E-02 0. -1.
        1   -1    0    0  501    0  0.00000000000E+00  0.00000000000E+00 -0.20235196230E+04  0.20235196230E+04  0.50400001928E-02 0.  1.
    10030    2    1    2    0    0  0.00000000000E+00  0.00000000000E+00 -0.11049986562E+04  0.29420405898E+04  0.27266427712E+04 0.  0.
        2    1    3    3  502    0  0.87843928982E+02 -0.35585288113E+02  0.91496192645E+03  0.91985770392E+03  0.25500000920E-02 0. -1.
       -2    1    3    3    0  502 -0.87843928982E+02  0.35585288113E+02 -0.20199605826E+04  0.20221828859E+04  0.25500000920E-02 0.  1.
</event>
<event>
 5   0  0.3046300E-06  0.2682687E+04  0.7818609E-02  0.8340644E-01
       -1   -1    0    0    0  501  0.00000000000E+00  0.00000000000E+00  0.10349165137E+04  0.10349165137E+04  0.50400001928E-02 0.  1.
        1   -1    0    0  501    0  0.00000000000E+00  0.00000000000E+00 -0.17384999382E+04  0.17384999382E+04  0.50400001928E-02 0. -1.
    10030    2    1    2    0    0  0.00000000000E+00  0.00000000000E+00 -0.70358342455E+03  0.27734164519E+04  0.26826869330E+04 0.  0.
        2    1    3    3  502    0 -0.80066140320E+02 -0.18407440813E+03 -0.17228840230E+04  0.17345383625E+04  0.25500000920E-02 0. -1.
       -2    1    3    3    0  502  0.80066140320E+02  0.18407440813E+03  0.10193005984E+04  0.10388780893E+04  0.25500000920E-02 0.  1.
</event>
<event>
 5   0  0.3199840E-06  0.2709080E+04  0.7818609E-02  0.8332065E-01
       -1   -1    0    0    0  501  0.00000000000E+00  0.00000000000E+00  0.62748837476E+03  0.62748837479E+03  0.50400001928E-02 0.  1.
        1   -1    0    0  501    0  0.00000000000E+00  0.00000000000E+00 -0.29240050723E+04  0.29240050723E+04  0.50400001928E-02 0. -1.
    10030    2    1    2    0    0  0.00000000000E+00  0.00000000000E+00 -0.22965166975E+04  0.35514934471E+04  0.27090804275E+04 0.  0.
        1    1    3    3  502    0  0.11998003239E+04 -0.43280469429E+03 -0.55045748102E+03  0.13891883094E+04  0.50400001928E-02 0.  1.
       -1    1    3    3    0  502 -0.11998003239E+04  0.43280469429E+03 -0.17460592165E+04  0.21623051376E+04  0.50400001928E-02 0. -1.
</event>
<event>
 5   0  0.7838364E-06  0.2680827E+04  0.7818609E-02  0.8341253E-01
       -2   -1    0    0    0  501  0.00000000000E+00  0.00000000000E+00  0.15593221872E+04  0.15593221872E+04  0.25500000920E-02 0. -1.
        2   -1    0    0  501    0  0.00000000000E+00  0.00000000000E+00 -0.11522365494E+04  0.11522365494E+04  0.25500000920E-02 0.  1.
    10030    2    1    2    0    0  0.00000000000E+00  0.00000000000E+00  0.40708563777E+03  0.27115587365E+04  0.26808267503E+04 0.  0.
        2    1    3    3  502    0 -0.14260398729E+03 -0.66431016368E+03 -0.96515257136E+03  0.11803234204E+04  0.25500000920E-02 0.  1.
       -2    1    3    3    0  502  0.14260398729E+03  0.66431016368E+03  0.13722382091E+04  0.15312353161E+04  0.25500000920E-02 0. -1.
</event>
<event>
 5   0  0.7729970E-06  0.2633343E+04  0.7818609E-02  0.8356963E-01
        2   -1    0    0  501    0  0.00000000000E+00  0.00000000000E+00  0.11876828257E+04  0.11876828257E+04  0.25500000920E-02 0. -1.
       -2   -1    0    0    0  501  0.00000000000E+00  0.00000000000E+00 -0.14596686421E+04  0.14596686421E+04  0.25500000920E-02 0.  1.
    10030    2    1    2    0    0  0.00000000000E+00  0.00000000000E+00 -0.27198581642E+03  0.26473514678E+04  0.26333426495E+04 0.  0.
        4    1    3    3  502    0 -0.12802799110E+04 -0.11167686710E+03 -0.42393129242E+03  0.13532581892E+04  0.12699999809E+01 0.  1.
       -4    1    3    3    0  502  0.12802799110E+04  0.11167686710E+03  0.15194547600E+03  0.12940932786E+04  0.12699999809E+01 0. -1.
</event>
<event>
 5   0  0.3028601E-06  0.2701735E+04  0.7818609E-02  0.8334442E-01
        1   -1    0    0  501    0  0.00000000000E+00  0.00000000000E+00  0.87409668964E+03  0.87409668965E+03  0.50400001928E-02 0. -1.
       -1   -1    0    0    0  501  0.00000000000E+00  0.00000000000E+00 -0.20876900728E+04  0.20876900728E+04  0.50400001928E-02 0.  1.
    10030    2    1    2    0    0  0.00000000000E+00  0.00000000000E+00 -0.12135933832E+04  0.29617867625E+04  0.27017349845E+04 0.  0.
        3    1    3    3  502    0 -0.74287560532E+03  0.42966633925E+03  0.53686731505E+03  0.10122765690E+04  0.10100000352E+00 0. -1.
       -3    1    3    3    0  502  0.74287560532E+03 -0.42966633925E+03 -0.17504606982E+04  0.19495101934E+04  0.10100000352E+00 0.  1.
</event>
<event>
 5   0  0.8407622E-06  0.2628016E+04  0.7818609E-02  0.8358746E-01
        2   -1    0    0  501    0  0.00000000000E+00  0.00000000000E+00  0.14015606929E+04  0.14015606929E+04  0.25500000920E-02 0. -1.
       -2   -1    0    0    0  501  0.00000000000E+00  0.00000000000E+00 -0.12319249415E+04  0.12319249415E+04  0.25500000920E-02 0.  1.
    10030    2    1    2    0    0  0.00000000000E+00  0.00000000000E+00  0.16963575141E+03  0.26334856345E+04  0.26280164190E+04 0.  0.
        1    1    3    3  502    0 -0.32285054284E+03  0.38492942803E+03 -0.11318812876E+04  0.12383692449E+04  0.50400001928E-02 0.  1.
       -1    1    3    3    0  502  0.32285054284E+03 -0.38492942803E+03  0.13015170390E+04  0.13951163895E+04  0.50400001928E-02 0. -1.
</event>
<event>
 5   0  0.3046300E-06  0.2505850E+04  0.7818609E-02  0.8400905E-01
       -1   -1    0    0    0  501  0.00000000000E+00  0.00000000000E+00  0.18882934522E+04  0.18882934522E+04  0.50400001928E-02 0.  1.
        1   -1    0    0  501    0  0.00000000000E+00  0.00000000000E+00 -0.83134353616E+03  0.83134353618E+03  0.50400001928E-02 0. -1.
    10030    2    1    2    0    0  0.00000000000E+00  0.00000000000E+00  0.10569499160E+04  0.27196369883E+04  0.25058496011E+04 0.  0.
        2    1    3    3  502    0 -0.54045035876E+03 -0.94498868509E+03  0.12016595417E+04  0.16214425242E+04  0.25500000920E-02 0.  1.
       -2    1    3    3    0  502  0.54045035876E+03  0.94498868509E+03 -0.14470962569E+03  0.10981944641E+04  0.25500000920E-02 0. -1.
</event>
<event>
 5   0  0.3199840E-06  0.2716176E+04  0.7818609E-02  0.8329775E-01
        1   -1    0    0  501    0  0.00000000000E+00  0.00000000000E+00  0.11737148327E+04  0.11737148327E+04  0.50400001928E-02 0.  1.
       -1   -1    0    0    0  501  0.00000000000E+00  0.00000000000E+00 -0.15714234470E+04  0.15714234470E+04  0.50400001928E-02 0. -1.
    10030    2    1    2    0    0  0.00000000000E+00  0.00000000000E+00 -0.39770861431E+03  0.27451382797E+04  0.27161759944E+04 0.  0.
        1    1    3    3  502    0  0.39659142127E+03  0.10864876866E+04 -0.91824665077E+03  0.14767928630E+04  0.50400001928E-02 0. -1.
       -1    1    3    3    0  502 -0.39659142127E+03 -0.10864876866E+04  0.52053803645E+03  0.12683454167E+04  0.50400001928E-02 0.  1.
</event>
<event>
 5   0  0.3028601E-06  0.2696306E+04  0.7818609E-02  0.8336205E-01
        1   -1    0    0  501    0  0.00000000000E+00  0.00000000000E+00  0.91118300053E+03  0.91118300055E+03  0.50400001928E-02 0. -1.
       -1   -1    0    0    0  501  0.00000000000E+00  0.00000000000E+00 -0.19946773049E+04  0.19946773049E+04  0.50400001928E-02 0.  1.
    10030    2    1    2    0    0  0.00000000000E+00  0.00000000000E+00 -0.10834943044E+04  0.29058603054E+04  0.26963056591E+04 0.  0.
        3    1    3    3  502    0  0.45700567283E+03 -0.23802390719E+03  0.80087056492E+03  0.95231467349E+03  0.10100000352E+00 0. -1.
       -3    1    3    3    0  502 -0.45700567283E+03  0.23802390719E+03 -0.18843648693E+04  0.19535456320E+04  0.10100000352E+00 0.  1.
</event>
<event>
 5   0  0.3199840E-06  0.2671104E+04  0.7818609E-02  0.8344442E-01
        1   -1    0    0  501    0  0.00000000000E+00  0.00000000000E+00  0.92599095427E+03  0.92599095429E+03  0.50400001928E-02 0.  1.
       -1   -1    0    0    0  501  0.00000000000E+00  0.00000000000E+00 -0.19262603496E+04  0.19262603496E+04  0.50400001928E-02 0. -1.
    10030    2    1    2    0    0  0.00000000000E+00  0.00000000000E+00 -0.10002693953E+04  0.28522513039E+04  0.26711043853E+04 0.  0.
        1    1    3    3  502    0  0.12164739335E+04 -0.70994761212E+02  0.83611376615E+02  0.12214090016E+04  0.50400001928E-02 0.  1.
       -1    1    3    3    0  502 -0.12164739335E+04  0.70994761212E+02 -0.10838807719E+04  0.16308423022E+04  0.50400001928E-02 0. -1.
</event>
<event>
 5   0  0.3199840E-06  0.2728909E+04  0.7818609E-02  0.8325686E-01
       -1   -1    0    0    0  501  0.00000000000E+00  0.00000000000E+00  0.92648731036E+03  0.92648731037E+03  0.50400001928E-02 0.  1.
        1   -1    0    0  501    0  0.00000000000E+00  0.00000000000E+00 -0.20094564120E+04  0.20094564120E+04  0.50400001928E-02 0. -1.
    10030    2    1    2    0    0  0.00000000000E+00  0.00000000000E+00 -0.10829691017E+04  0.29359437224E+04  0.27289088416E+04 0.  0.
        1    1    3    3  502    0 -0.49429952012E+02 -0.67589488597E+01  0.92550569711E+03  0.92684939389E+03  0.50400001928E-02 0.  1.
       -1    1    3    3    0  502  0.49429952012E+02  0.67589488597E+01 -0.20084747988E+04  0.20090943285E+04  0.50400001928E-02 0. -1.
</event>
<event>
 5   0  0.3046300E-06  0.2706048E+04  0.7818609E-02  0.8333045E-01
       -1   -1    0    0    0  501  0.00000000000E+00  0.00000000000E+00  0.72414630312E+03  0.72414630314E+03  0.50400001928E-02 0. -1.
        1   -1    0    0  501    0  0.00000000000E+00  0.00000000000E+00 -0.25280443540E+04  0.25280443540E+04  0.50400001928E-02 0.  1.
    10030    2    1    2    0    0  0.00000000000E+00  0.00000000000E+00 -0.18038980509E+04  0.32521906571E+04  0.27060480211E+04 0.  0.
        2    1    3    3  502    0  0.62528402861E+03 -0.48596575690E+01  0.54007339327E+03  0.82624633302E+03  0.25500000920E-02 0. -1.
       -2    1    3    3    0  502 -0.62528402861E+03  0.48596575690E+01 -0.23439714441E+04  0.24259443241E+04  0.25500000920E-02 0.  1.
</event>
<event>
 5   0  0.3199840E-06  0.2604020E+04  0.7818609E-02  0.8366837E-01
       -1   -1    0    0    0  501  0.00000000000E+00  0.00000000000E+00  0.10670745053E+04  0.10670745053E+04  0.50400001928E-02 0.  1.
        1   -1    0    0  501    0  0.00000000000E+00  0.00000000000E+00 -0.15886708767E+04  0.15886708768E+04  0.50400001928E-02 0. -1.
    10030    2    1    2    0    0  0.00000000000E+00  0.00000000000E+00 -0.52159637144E+03  0.26557453821E+04  0.26040201151E+04 0.  0.
        1    1    3    3  502    0 -0.26014410571E+03 -0.56754428836E+03  0.90445958515E+03  0.10990125642E+04  0.50400001928E-02 0.  1.
       -1    1    3    3    0  502  0.26014410571E+03  0.56754428836E+03 -0.14260559566E+04  0.15567328179E+04  0.50400001928E-02 0. -1.
</event>
<event>
 5   0  0.7838364E-06  0.2800050E+04  0.7818609E-02  0.8303253E-01
       -2   -1    0    0    0  501  0.00000000000E+00  0.00000000000E+00  0.68879001292E+03  0.68879001292E+03  0.25500000920E-02 0.  1.
        2   -1    0    0  501    0  0.00000000000E+00  0.00000000000E+00 -0.28456719629E+04  0.28456719629E+04  0.25500000920E-02 0. -1.
    10030    2    1    2    0    0  0.00000000000E+00  0.00000000000E+00 -0.21568819500E+04  0.35344619758E+04  0.28000503053E+04 0.  0.
        2    1    3    3  502    0  0.13754657873E+04  0.18458405373E+03 -0.84536890308E+03  0.16250003038E+04  0.25500000920E-02 0.  1.
       -2    1    3    3    0  502 -0.13754657873E+04 -0.18458405373E+03 -0.13115130469E+04  0.19094616721E+04  0.25500000920E-02 0. -1.
</event>
<event>
 5   0  0.3046300E-06  0.2685827E+04  0.7818609E-02  0.8339618E-01
        1   -1    0    0  501    0  0.00000000000E+00  0.00000000000E+00  0.11731595172E+04  0.11731595172E+04  0.50400001928E-02 0. -1.
       -1   -1    0    0    0  501  0.00000000000E+00  0.00000000000E+00 -0.15372302429E+04  0.15372302429E+04  0.50400001928E-02 0.  1.
    10030    2    1    2    0    0  0.00000000000E+00  0.00000000000E+00 -0.36407072564E+03  0.27103897601E+04  0.26858267178E+04 0.  0.
        2    1    3    3  502    0 -0.28292068457E+03  0.18836568347E+03  0.11290346927E+04  0.11790865455E+04  0.25500000920E-02 0. -1.
       -2    1    3    3    0  502  0.28292068457E+03 -0.18836568347E+03 -0.14931054184E+04  0.15313032145E+04  0.25500000920E-02 0.  1.
</event>
<event>
 5   0  0.3089218E-06  0.2697985E+04  0.7818609E-02  0.8335659E-01
       -1   -1    0    0    0  501  0.00000000000E+00  0.00000000000E+00  0.89526711667E+03  0.89526711668E+03  0.50400001928E-02 0. -1.
        1   -1    0    0  501    0  0.00000000000E+00  0.00000000000E+00 -0.20326684528E+04  0.20326684528E+04  0.50400001928E-02 0.  1.
    10030    2    1    2    0    0  0.00000000000E+00  0.00000000000E+00 -0.11374013361E+04  0.29279355695E+04  0.26979853409E+04 0.  0.
        5    1    3    3  502    0 -0.10234507443E+04 -0.66683922388E+03  0.52477028929E+02  0.12226618114E+04  0.46999998093E+01 0. -1.
       -5    1    3    3    0  502  0.10234507443E+04  0.66683922388E+03 -0.11898783650E+04  0.17052737581E+04  0.46999998093E+01 0.  1.
</event>
<event>
 5   0  0.8407622E-06  0.2691282E+04  0.7818609E-02  0.8337839E-01
       -2   -1    0    0    0  501  0.00000000000E+00  0.00000000000E+00  0.63958873827E+03  0.63958873828E+03  0.25500000920E-02 0. -1.
        2   -1    0    0  501    0  0.00000000000E+00  0.00000000000E+00 -0.28311158266E+04  0.28311158266E+04  0.25500000920E-02 0.  1.
    10030    2    1    2    0    0  0.00000000000E+00  0.00000000000E+00 -0.21915270883E+04  0.34707045648E+04  0.26912820732E+04 0.  0.
        1    1    3    3  502    0 -0.58800824920E+03  0.25234586685E+03 -0.26223687053E+04  0.26993054226E+04  0.50400001928E-02 0.  1.
       -1    1    3    3    0  502  0.58800824920E+03 -0.25234586685E+03  0.43084161706E+03  0.77139914225E+03  0.50400001928E-02 0. -1.
</event>
<event>
 5   0  0.8407622E-06  0.2682528E+04  0.7818609E-02  0.8340696E-01
       -2   -1    0    0    0  501  0.00000000000E+00  0.00000000000E+00  0.91480043373E+03  0.91480043373E+03  0.25500000920E-02 0. -1.
        2   -1    0    0  501    0  0.00000000000E+00  0.00000000000E+00 -0.19665375987E+04  0.19665375987E+04  0.25500000920E-02 0.  1.
    10030    2    1    2    0    0  0.00000000000E+00  0.00000000000E+00 -0.10517371650E+04  0.28813380325E+04  0.26825282465E+04 0.  0.
        1    1    3    3  502    0  0.23169267948E+03 -0.59326819138E+03 -0.17937498515E+04  0.19034671456E+04  0.50400001928E-02 0.  1.
       -1    1    3    3    0  502 -0.23169267948E+03  0.59326819138E+03  0.74201268643E+03  0.97787088692E+03  0.50400001928E-02 0. -1.
</event>
<event>
 5   0  0.7838364E-06  0.2672727E+04  0.7818609E-02  0.8343909E-01
       -2   -1    0    0    0  501  0.00000000000E+00  0.00000000000E+00  0.86245861577E+03  0.86245861577E+03  0.25500000920E-02 0.  1.
        2   -1    0    0  501    0  0.00000000000E+00  0.00000000000E+00 -0.20706697497E+04  0.20706697497E+04  0.25500000920E-02 0. -1.
    10030    2    1    2    0    0  0.00000000000E+00  0.00000000000E+00 -0.12082111339E+04  0.29331283655E+04  0.26727266722E+04 0.  0.
        2    1    3    3  502    0 -0.80587186764E+02 -0.13027405284E+04 -0.28939051788E+03  0.13369270926E+04  0.25500000920E-02 0.  1.
       -2    1    3    3    0  502  0.80587186764E+02  0.13027405284E+04 -0.91882061603E+03  0.15962012729E+04  0.25500000920E-02 0. -1.
</event>
<event>
 5   0  0.7812908E-06  0.2684888E+04  0.7818609E-02  0.8339925E-01
        2   -1    0    0  501    0  0.00000000000E+00  0.00000000000E+00  0.28871509747E+04  0.28871509747E+04  0.25500000920E-02 0.  1.
       -2   -1    0    0    0  501  0.00000000000E+00  0.00000000000E+00 -0.62419886277E+03  0.62419886277E+03  0.25500000920E-02 0. -1.
    10030    2    1    2    0    0  0.00000000000E+00  0.00000000000E+00  0.22629521119E+04  0.35113498374E+04  0.26848883441E+04 0.  0.
        5    1    3    3  502    0  0.23260363870E+03  0.42074367444E+03  0.27706936080E+04  0.28120979449E+04  0.46999998093E+01 0.  1.
       -5    1    3    3    0  502 -0.23260363870E+03 -0.42074367444E+03 -0.50774149612E+03  0.69925189252E+03  0.46999998093E+01 0. -1.
</event>
<event>
 5   0  0.3013407E-06  0.2568782E+04  0.7818609E-02  0.8378883E-01
       -1   -1    0    0    0  501  0.00000000000E+00  0.00000000000E+00  0.21968293257E+04  0.21968293257E+04  0.50400001928E-02 0. -1.
        1   -1    0    0  501    0  0.00000000000E+00  0.00000000000E+00 -0.75092762044E+03  0.75092762045E+03  0.50400001928E-02 0.  1.
    10030    2    1    2    0    0  0.00000000000E+00  0.00000000000E+00  0.14459017053E+04  0.29477569462E+04  0.25687816708E+04 0.  0.
        4    1    3    3  502    0 -0.79608256931E+03 -0.72604314723E+03  0.15252155460E+04  0.18673966326E+04  0.12699999809E+01 0. -1.
       -4    1    3    3    0  502  0.79608256931E+03  0.72604314723E+03 -0.79313840775E+02  0.10803603135E+04  0.12699999809E+01 0.  1.
</event>
<event>
 5   0  0.8407622E-06  0.2683977E+04  0.7818609E-02  0.8340223E-01
       -2   -1    0    0    0  501  0.00000000000E+00  0.00000000000E+00  0.11991812375E+04  0.11991812375E+04  0.25500000920E-02 0. -1.
        2   -1    0    0  501    0  0.00000000000E+00  0.00000000000E+00 -0.15018025515E+04  0.15018025515E+04  0.25500000920E-02 0.  1.
    10030    2    1    2    0    0  0.00000000000E+00  0.00000000000E+00 -0.30262131406E+03  0.27009837890E+04  0.26839772295E+04 0.  0.
        1    1    3    3  502    0  0.13382150466E+04  0.11166389068E+02 -0.50731164867E+02  0.13392228531E+04  0.50400001928E-02 0. -1.
       -1    1    3    3    0  502 -0.13382150466E+04 -0.11166389068E+02 -0.25189014920E+03  0.13617609359E+04  0.50400001928E-02 0.  1.
</event>
<event>
 5   0  0.3199840E-06  0.2699791E+04  0.7818609E-02  0.8335073E-01
       -1   -1    0    0    0  501  0.00000000000E+00  0.00000000000E+00  0.10346621575E+04  0.10346621576E+04  0.50400001928E-02 0. -1.
        1   -1    0    0  501    0  0.00000000000E+00  0.00000000000E+00 -0.17611714855E+04  0.17611714855E+04  0.50400001928E-02 0.  1.
    10030    2    1    2    0    0  0.00000000000E+00  0.00000000000E+00 -0.72650932797E+03  0.27958336431E+04  0.26997907245E+04 0.  0.
        1    1    3    3  502    0  0.65063156832E+03  0.84170027051E+03  0.49723005364E+03  0.11743161880E+04  0.50400001928E-02 0. -1.
       -1    1    3    3    0  502 -0.65063156832E+03 -0.84170027051E+03 -0.12237393816E+04  0.16215174551E+04  0.50400001928E-02 0.  1.
</event>
<event>
 5   0  0.3046300E-06  0.2706737E+04  0.7818609E-02  0.8332822E-01
        1   -1    0    0  501    0  0.00000000000E+00  0.00000000000E+00  0.68054879042E+03  0.68054879044E+03  0.50400001928E-02 0.  1.
       -1   -1    0    0    0  501  0.00000000000E+00  0.00000000000E+00 -0.26913672769E+04  0.26913672769E+04  0.50400001928E-02 0. -1.
    10030    2    1    2    0    0  0.00000000000E+00  0.00000000000E+00 -0.20108184865E+04  0.33719160674E+04  0.27067373311E+04 0.  0.
        2    1    3    3  502    0  0.94898208223E+03 -0.94651743757E+03 -0.77187031455E+03  0.15466887323E+04  0.25500000920E-02 0. -1.
       -2    1    3    3    0  502 -0.94898208223E+03  0.94651743757E+03 -0.12389481720E+04  0.18252273351E+04  0.25500000920E-02 0.  1.
</event>
<event>
 5   0  0.3199840E-06  0.2693235E+04  0.7818609E-02  0.8337203E-01
       -1   -1    0    0    0  501  0.00000000000E+00  0.00000000000E+00  0.16127211312E+04  0.16127211312E+04  0.50400001928E-02 0. -1.
        1   -1    0    0  501    0  0.00000000000E+00  0.00000000000E+00 -0.11244218259E+04  0.11244218259E+04  0.50400001928E-02 0.  1.
    10030    2    1    2    0    0  0.00000000000E+00  0.00000000000E+00  0.48829930533E+03  0.27371429571E+04  0.26932351097E+04 0.  0.
        1    1    3    3  502    0 -0.13453380326E+04  0.56396157356E+02  0.22764010615E+03  0.13656262177E+04  0.50400001928E-02 0.  1.
       -1    1    3    3    0  502  0.13453380326E+04 -0.56396157356E+02  0.26065919918E+03  0.13715167395E+04  0.50400001928E-02 0. -1.
</event>
<event>
 5   0  0.3089218E-06  0.2729031E+04  0.7818609E-02  0.8325646E-01
       -1   -1    0    0    0  501  0.00000000000E+00  0.00000000000E+00  0.10069356491E+04  0.10069356491E+04  0.50400001928E-02 0.  1.
        1   -1    0    0  501    0  0.00000000000E+00  0.00000000000E+00 -0.18490778990E+04  0.18490778990E+04  0.50400001928E-02 0. -1.
    10030    2    1    2    0    0  0.00000000000E+00  0.00000000000E+00 -0.84214224990E+03  0.28560135480E+04  0.27290309301E+04 0.  0.
        5    1    3    3  502    0 -0.71700931058E+03 -0.35690483951E+03 -0.15771896547E+04  0.17689072086E+04  0.46999998093E+01 0. -1.
       -5    1    3    3    0  502  0.71700931058E+03  0.35690483951E+03  0.73504740477E+03  0.10871063394E+04  0.46999998093E+01 0.  1.
</event>
<event>
 5   0  0.3046300E-06  0.2702674E+04  0.7818609E-02  0.8334138E-01
        1   -1    0    0  501    0  0.00000000000E+00  0.00000000000E+00  0.16389106517E+04  0.16389106517E+04  0.50400001928E-02 0.  1.
       -1   -1    0    0    0  501  0.00000000000E+00  0.00000000000E+00 -0.11142229938E+04  0.11142229938E+04  0.50400001928E-02 0. -1.
    10030    2    1    2    0    0  0.00000000000E+00  0.00000000000E+00  0.52468765790E+03  0.27531336455E+04  0.27026741815E+04 0.  0.
        2    1    3    3  502    0 -0.46062790221E+03 -0.12325184033E+04 -0.51354089962E+02  0.13167827920E+04  0.25500000920E-02 0.  1.
       -2    1    3    3    0  502  0.46062790221E+03  0.12325184033E+04  0.57604174787E+03  0.14363508534E+04  0.25500000920E-02 0. -1.
</event>
<event>
 5   0  0.8407622E-06  0.2684331E+04  0.7818609E-02  0.8340107E-01
       -2   -1    0    0    0  501  0.00000000000E+00  0.00000000000E+00  0.14265497881E+04  0.14265497881E+04  0.25500000920E-02 0.  1.
        2   -1    0    0  501    0  0.00000000000E+00  0.00000000000E+00 -0.12627732317E+04  0.12627732317E+04  0.25500000920E-02 0. -1.
    10030    2    1    2    0    0  0.00000000000E+00  0.00000000000E+00  0.16377655640E+03  0.26893230198E+04  0.26843314893E+04 0.  0.
        1    1    3    3  502    0 -0.12753060158E+04 -0.40542071950E+03 -0.21441727694E+02  0.13383688361E+04  0.50400001928E-02 0. -1.
       -1    1    3    3    0  502  0.12753060158E+04  0.40542071950E+03  0.18521828410E+03  0.13509541837E+04  0.50400001928E-02 0.  1.
</event>
<event>
 5   0  0.8213334E-06  0.2715230E+04  0.7818609E-02  0.8330080E-01
       -2   -1    0    0    0  501  0.00000000000E+00  0.00000000000E+00  0.16184235102E+04  0.16184235102E+04  0.25500000920E-02 0.  1.
        2   -1    0    0  501    0  0.00000000000E+00  0.00000000000E+00 -0.11388358119E+04  0.11388358119E+04  0.25500000920E-02 0. -1.
    10030    2    1    2    0    0  0.00000000000E+00  0.00000000000E+00  0.47958769830E+03  0.27572593221E+04  0.27152301208E+04 0.  0.
        3    1    3    3  502    0  0.11003037682E+04  0.17144437125E+03  0.10283818851E+04  0.15157938074E+04  0.10100000352E+00 0.  1.
       -3    1    3    3    0  502 -0.11003037682E+04 -0.17144437125E+03 -0.54879418676E+03  0.12414655147E+04  0.10100000352E+00 0. -1.
</event>
<event>
 5   0  0.3199840E-06  0.2692822E+04  0.7818609E-02  0.8337338E-01
       -1   -1    0    0    0  501  0.00000000000E+00  0.00000000000E+00  0.12913177325E+04  0.12913177325E+04  0.50400001928E-02 0. -1.
        1   -1    0    0  501    0  0.00000000000E+00  0.00000000000E+00 -0.14038545835E+04  0.14038545835E+04  0.50400001928E-02 0.  1.
    10030    2    1    2    0    0  0.00000000000E+00  0.00000000000E+00 -0.11253685095E+03  0.26951723160E+04  0.26928218044E+04 0.  0.
        1    1    3    3  502    0  0.11704780783E+04 -0.63567671318E+03 -0.25321035834E+03  0.13558094634E+04  0.50400001928E-02 0.  1.
       -1    1    3    3    0  502 -0.11704780783E+04  0.63567671318E+03  0.14067350739E+03  0.13393628527E+04  0.50400001928E-02 0. -1.
</event>
<event>
 5   0  0.3046300E-06  0.2705988E+04  0.7818609E-02  0.8333065E-01
        1   -1    0    0  501    0  0.00000000000E+00  0.00000000000E+00  0.21251769738E+04  0.21251769738E+04  0.50400001928E-02 0. -1.
       -1   -1    0    0    0  501  0.00000000000E+00  0.00000000000E+00 -0.86138375480E+03  0.86138375481E+03  0.50400001928E-02 0.  1.
    10030    2    1    2    0    0  0.00000000000E+00  0.00000000000E+00  0.12637932190E+04  0.29865607286E+04  0.27059881162E+04 0.  0.
        2    1    3    3  502    0 -0.91667687190E+03  0.47031494828E+03 -0.33601778984E+03  0.10836976484E+04  0.25500000920E-02 0.  1.
       -2    1    3    3    0  502  0.91667687190E+03 -0.47031494828E+03  0.15998110088E+04  0.19028630802E+04  0.25500000920E-02 0. -1.
</event>
<event>
 5   0  0.3199840E-06  0.2682890E+04  0.7818609E-02  0.8340578E-01
        1   -1    0    0  501    0  0.00000000000E+00  0.00000000000E+00  0.15848526436E+04  0.15848526436E+04  0.50400001928E-02 0.  1.
       -1   -1    0    0    0  501  0.00000000000E+00  0.00000000000E+00 -0.11354210905E+04  0.11354210905E+04  0.50400001928E-02 0. -1.
    10030    2    1    2    0    0  0.00000000000E+00  0.00000000000E+00  0.44943155315E+03  0.27202737341E+04  0.26828903197E+04 0.  0.
        1    1    3    3  502    0 -0.24293354803E+03  0.12985784043E+04  0.46066529174E+03  0.13991193988E+04  0.50400001928E-02 0.  1.
       -1    1    3    3    0  502  0.24293354803E+03 -0.12985784043E+04 -0.11233738586E+02  0.13211543354E+04  0.50400001928E-02 0. -1.
</event>
<event>
 5   0  0.3013407E-06  0.2456491E+04  0.7818609E-02  0.8418652E-01
        1   -1    0    0  501    0  0.00000000000E+00  0.00000000000E+00  0.14037627378E+04  0.14037627378E+04  0.50400001928E-02 0. -1.
       -1   -1    0    0    0  501  0.00000000000E+00  0.00000000000E+00 -0.10746739875E+04  0.10746739875E+04  0.50400001928E-02 0.  1.
    10030    2    1    2    0    0  0.00000000000E+00  0.00000000000E+00  0.32908875035E+03  0.24784367253E+04  0.24564912367E+04 0.  0.
        4    1    3    3  502    0 -0.71781686362E+01 -0.11239527975E+04 -0.33512157828E+03  0.11728723299E+04  0.12699999809E+01 0.  1.
       -4    1    3    3    0  502  0.71781686362E+01  0.11239527975E+04  0.66421032863E+03  0.13055643954E+04  0.12699999809E+01 0. -1.
</event>
<event>
 5   0  0.3028601E-06  0.2684577E+04  0.7818609E-02  0.8340027E-01
        1   -1    0    0  501    0  0.00000000000E+00  0.00000000000E+00  0.14596261075E+04  0.14596261075E+04  0.50400001928E-02 0.  1.
       -1   -1    0    0    0  501  0.00000000000E+00  0.00000000000E+00 -0.12343831384E+04  0.12343831384E+04  0.50400001928E-02 0. -1.
    10030    2    1    2    0    0  0.00000000000E+00  0.00000000000E+00  0.22524296905E+03  0.26940092459E+04  0.26845765815E+04 0.  0.
        3    1    3    3  502    0  0.41305702284E+03  0.19479791982E+03 -0.11540240480E+04  0.12411018682E+04  0.10100000352E+00 0. -1.
       -3    1    3    3    0  502 -0.41305702284E+03 -0.19479791982E+03  0.13792670171E+04  0.14529073777E+04  0.10100000352E+00 0.  1.
</event>
<event>
 5   0  0.8407622E-06  0.2705686E+04  0.7818609E-02  0.8333162E-01
        2   -1    0    0  501    0  0.00000000000E+00  0.00000000000E+00  0.20287479033E+04  0.20287479033E+04  0.25500000920E-02 0. -1.
       -2   -1    0    0    0  501  0.00000000000E+00  0.00000000000E+00 -0.90212528735E+03  0.90212528735E+03  0.25500000920E-02 0.  1.
    10030    2    1    2    0    0  0.00000000000E+00  0.00000000000E+00  0.11266226159E+04  0.29308731906E+04  0.27056864454E+04 0.  0.
        1    1    3    3  502    0  0.12049714079E+04 -0.45753253420E+03  0.11814225583E+03  0.12943143770E+04  0.50400001928E-02 0.  1.
       -1    1    3    3    0  502 -0.12049714079E+04  0.45753253420E+03  0.10084803601E+04  0.16365588137E+04  0.50400001928E-02 0. -1.
</event>
<event>
 5   0  0.3089218E-06  0.2697467E+04  0.7818609E-02  0.8335827E-01
       -1   -1    0    0    0  501  0.00000000000E+00  0.00000000000E+00  0.91783413362E+03  0.91783413363E+03  0.50400001928E-02 0.  1.
        1   -1    0    0  501    0  0.00000000000E+00  0.00000000000E+00 -0.19819296795E+04  0.19819296795E+04  0.50400001928E-02 0. -1.
    10030    2    1    2    0    0  0.00000000000E+00  0.00000000000E+00 -0.10640955459E+04  0.28997638131E+04  0.26974674866E+04 0.  0.
        5    1    3    3  502    0  0.12075154536E+04  0.59594289097E+03 -0.61405178048E+03  0.14799740467E+04  0.46999998093E+01 0.  1.
       -5    1    3    3    0  502 -0.12075154536E+04 -0.59594289097E+03 -0.45004376538E+03  0.14197897664E+04  0.46999998093E+01 0. -1.
</event>
<event>
 5   0  0.7838364E-06  0.2706870E+04  0.7818609E-02  0.8332779E-01
       -2   -1    0    0    0  501  0.00000000000E+00  0.00000000000E+00  0.87829804068E+03  0.87829804068E+03  0.25500000920E-02 0. -1.
        2   -1    0    0  501    0  0.00000000000E+00  0.00000000000E+00 -0.20856084179E+04  0.20856084179E+04  0.25500000920E-02 0.  1.
    10030    2    1    2    0    0  0.00000000000E+00  0.00000000000E+00 -0.12073103772E+04  0.29639064585E+04  0.27068696216E+04 0.  0.
        2    1    3    3  502    0 -0.18435326449E+03  0.70682070308E+03  0.64392552478E+03  0.97376676566E+03  0.25500000920E-02 0. -1.
       -2    1    3    3    0  502  0.18435326449E+03 -0.70682070308E+03 -0.18512359020E+04  0.19901396929E+04  0.25500000920E-02 0.  1.
</event>
<event>
 5   0  0.3013407E-06  0.2704292E+04  0.7818609E-02  0.8333614E-01
       -1   -1    0    0    0  501  0.00000000000E+00  0.00000000000E+00  0.13650130109E+04  0.13650130109E+04  0.50400001928E-02 0.  1.
        1   -1    0    0  501    0  0.00000000000E+00  0.00000000000E+00 -0.13393999464E+04  0.13393999464E+04  0.50400001928E-02 0. -1.
    10030    2    1    2    0    0  0.00000000000E+00  0.00000000000E+00  0.25613064429E+02  0.27044129573E+04  0.27042916659E+04 0.  0.
        4    1    3    3  502    0 -0.11892691935E+03 -0.60910895806E+03 -0.11885547217E+04  0.13408285775E+04  0.12699999809E+01 0. -1.
       -4    1    3    3    0  502  0.11892691935E+03  0.60910895806E+03  0.12141677861E+04  0.13635843798E+04  0.12699999809E+01 0.  1.
</event>
<event>
 5   0  0.8213334E-06  0.2694200E+04  0.7818609E-02  0.8336889E-01
        2   -1    0    0  501    0  0.00000000000E+00  0.00000000000E+00  0.19078112159E+04  0.19078112159E+04  0.25500000920E-02 0.  1.
       -2   -1    0    0    0  501  0.00000000000E+00  0.00000000000E+00 -0.95118320330E+03  0.95118320330E+03  0.25500000920E-02 0. -1.
    10030    2    1    2    0    0  0.00000000000E+00  0.00000000000E+00  0.95662801259E+03  0.28589944192E+04  0.26941996835E+04 0.  0.
        3    1    3    3  502    0  0.13407401741E+04 -0.13037394907E+03  0.48873249934E+03  0.14329832683E+04  0.10100000352E+00 0.  1.
       -3    1    3    3    0  502 -0.13407401741E+04  0.13037394907E+03  0.46789551325E+03  0.14260111509E+04  0.10100000352E+00 0. -1.
</event>
<event>
 5   0  0.3199840E-06  0.2709727E+04  0.7818609E-02  0.8331856E-01
        1   -1    0    0  501    0  0.00000000000E+00  0.00000000000E+00  0.17430331758E+04  0.17430331758E+04  0.50400001928E-02 0.  1.
       -1   -1    0    0    0  501  0.00000000000E+00  0.00000000000E+00 -0.10531380454E+04  0.10531380454E+04  0.50400001928E-02 0. -1.
    10030    2    1    2    0    0  0.00000000000E+00  0.00000000000E+00  0.68989513042E+03  0.27961712213E+04  0.27097265928E+04 0.  0.
        1    1    3    3  502    0 -0.10186664526E+04 -0.82193207771E+03 -0.16071834839E+02  0.13090118357E+04  0.50400001928E-02 0. -1.
       -1    1    3    3    0  502  0.10186664526E+04  0.82193207771E+03  0.70596696526E+03  0.14871593856E+04  0.50400001928E-02 0.  1.
</event>
<event>
 5   0  0.8213334E-06  0.2590906E+04  0.7818609E-02  0.8371297E-01
       -2   -1    0    0    0  501  0.00000000000E+00  0.00000000000E+00  0.10319951774E+04  0.10319951774E+04  0.25500000920E-02 0. -1.
        2   -1    0    0  501    0  0.00000000000E+00  0.00000000000E+00 -0.16261688928E+04  0.16261688928E+04  0.25500000920E-02 0.  1.
    10030    2    1    2    0    0  0.00000000000E+00  0.00000000000E+00 -0.59417371534E+03  0.26581640702E+04  0.25909059844E+04 0.  0.
        3    1    3    3  502    0  0.60229000840E+03 -0.42424016901E+03 -0.13903308390E+04  0.15734525182E+04  0.10100000352E+00 0.  1.
       -3    1    3    3    0  502 -0.60229000840E+03  0.42424016901E+03  0.79615712362E+03  0.10847115519E+04  0.10100000352E+00 0. -1.
</event>
<event>
 5   0  0.3028601E-06  0.2711974E+04  0.7818609E-02  0.8331130E-01
        1   -1    0    0  501    0  0.00000000000E+00  0.00000000000E+00  0.14832342607E+04  0.14832342607E+04  0.50400001928E-02 0. -1.
       -1   -1    0    0    0  501  0.00000000000E+00  0.00000000000E+00 -0.12396564208E+04  0.12396564208E+04  0.50400001928E-02 0.  1.
    10030    2    1    2    0    0  0.00000000000E+00  0.00000000000E+00  0.24357783983E+03  0.27228906815E+04  0.27119740964E+04 0.  0.
        3    1    3    3  502    0  0.85908794618E+03 -0.61799369237E+03  0.97299432242E+03  0.14375904371E+04  0.10100000352E+00 0. -1.
       -3    1    3    3    0  502 -0.85908794618E+03  0.61799369237E+03 -0.72941648259E+03  0.12853002444E+04  0.10100000352E+00 0.  1.
</event>
<event>
 5   0  0.3089218E-06  0.2760260E+04  0.7818609E-02  0.8315713E-01
       -1   -1    0    0    0  501  0.00000000000E+00  0.00000000000E+00  0.91747253671E+03  0.91747253672E+03  0.50400001928E-02 0. -1.
        1   -1    0    0  501    0  0.00000000000E+00  0.00000000000E+00 -0.20760935079E+04  0.20760935079E+04  0.50400001928E-02 0.  1.
    10030    2    1    2    0    0  0.00000000000E+00  0.00000000000E+00 -0.11586209712E+04  0.29935660446E+04  0.27602599712E+04 0.  0.
        5    1    3    3  502    0  0.13800193317E+04 -0.16339936832E+02 -0.58369410818E+03  0.14984796467E+04  0.46999998093E+01 0.  1.
       -5    1    3    3    0  502 -0.13800193317E+04  0.16339936832E+02 -0.57492686298E+03  0.14950863979E+04  0.46999998093E+01 0. -1.
</event>
<event>
 5   0  0.3028601E-06  0.2715223E+04  0.7818609E-02  0.8330083E-01
        1   -1    0    0  501    0  0.00000000000E+00  0.00000000000E+00  0.13309342531E+04  0.13309342532E+04  0.50400001928E-02 0.  1.
       -1   -1    0    0    0  501  0.00000000000E+00  0.00000000000E+00 -0.13848233160E+04  0.13848233160E+04  0.50400001928E-02 0. -1.
    10030    2    1    2    0    0  0.00000000000E+00  0.00000000000E+00 -0.53889062876E+02  0.27157575692E+04  0.27152228534E+04 0.  0.
        3    1    3    3  502    0  0.38077308156E+03 -0.12614349929E+04  0.30007917396E+03  0.13513896188E+04  0.10100000352E+00 0.  1.
       -3    1    3    3    0  502 -0.38077308156E+03  0.12614349929E+04 -0.35396823683E+03  0.13643679503E+04  0.10100000352E+00 0. -1.
</event>
<event>
 5   0  0.7812908E-06  0.2689717E+04  0.7818609E-02  0.8338349E-01
        2   -1    0    0  501    0  0.00000000000E+00  0.00000000000E+00  0.24924371929E+04  0.24924371929E+04  0.25500000920E-02 0. -1.
       -2   -1    0    0    0  501  0.00000000000E+00  0.00000000000E+00 -0.72565311394E+03  0.72565311395E+03  0.25500000920E-02 0.  1.
    10030    2    1    2    0    0  0.00000000000E+00  0.00000000000E+00  0.17667840790E+04  0.32180903069E+04  0.26897173163E+04 0.  0.
        5    1    3    3  502    0 -0.78066071811E+03 -0.33128479841E+03 -0.36541010126E+03  0.92343240498E+03  0.46999998093E+01 0.  1.
       -5    1    3    3    0  502  0.78066071811E+03  0.33128479841E+03  0.21321941802E+04  0.22946579019E+04  0.46999998093E+01 0. -1.
</event>
<event>
 5   0  0.8407622E-06  0.2694200E+04  0.7818609E-02  0.8336889E-01
        2   -1    0    0  501    0  0.00000000000E+00  0.00000000000E+00  0.16778872020E+04  0.16778872021E+04  0.25500000920E-02 0. -1.
       -2   -1    0    0    0  501  0.00000000000E+00  0.00000000000E+00 -0.10815256191E+04  0.10815256191E+04  0.25500000920E-02 0.  1.
    10030    2    1    2    0    0  0.00000000000E+00  0.00000000000E+00  0.59636158294E+03  0.27594128212E+04  0.26941996919E+04 0.  0.
        1    1    3    3  502    0 -0.23698912684E+03 -0.19687871452E+03  0.16413165870E+04  0.16699835967E+04  0.50400001928E-02 0. -1.
       -1    1    3    3    0  502  0.23698912684E+03  0.19687871452E+03 -0.10449550041E+04  0.10894292244E+04  0.50400001928E-02 0.  1.
</event>
<event>
 5   0  0.8407622E-06  0.2696722E+04  0.7818609E-02  0.8336069E-01
       -2   -1    0    0    0  501  0.00000000000E+00  0.00000000000E+00  0.22237405940E+04  0.22237405940E+04  0.25500000920E-02 0.  1.
        2   -1    0    0  501    0  0.00000000000E+00  0.00000000000E+00 -0.81757643265E+03  0.81757643266E+03  0.25500000920E-02 0. -1.
    10030    2    1    2    0    0  0.00000000000E+00  0.00000000000E+00  0.14061641614E+04  0.30413170267E+04  0.26967223825E+04 0.  0.
        1    1    3    3  502    0 -0.48300769356E+03 -0.33933370175E+03 -0.66411167148E+03  0.88853143186E+03  0.50400001928E-02 0. -1.
       -1    1    3    3    0  502  0.48300769356E+03  0.33933370175E+03  0.20702758329E+04  0.21527855948E+04  0.50400001928E-02 0.  1.
</event>
<event>
 5   0  0.3046300E-06  0.2657613E+04  0.7818609E-02  0.8348891E-01
        1   -1    0    0  501    0  0.00000000000E+00  0.00000000000E+00  0.13616326782E+04  0.13616326782E+04  0.50400001928E-02 0.  1.
       -1   -1    0    0    0  501  0.00000000000E+00  0.00000000000E+00 -0.12967715367E+04  0.12967715367E+04  0.50400001928E-02 0. -1.
    10030    2    1    2    0    0  0.00000000000E+00  0.00000000000E+00  0.64861141473E+02  0.26584042149E+04  0.26576128390E+04 0.  0.
        2    1    3    3  502    0 -0.12697491679E+04 -0.30513191634E+03 -0.21332137053E+03  0.13232061226E+04  0.25500000920E-02 0. -1.
       -2    1    3    3    0  502  0.12697491679E+04  0.30513191634E+03  0.27818251201E+03  0.13351980923E+04  0.25500000920E-02 0.  1.
</event>
<event>
 5   0  0.3046300E-06  0.2689454E+04  0.7818609E-02  0.8338435E-01
       -1   -1    0    0    0  501  0.00000000000E+00  0.00000000000E+00  0.72265352700E+03  0.72265352702E+03  0.50400001928E-02 0. -1.
        1   -1    0    0  501    0  0.00000000000E+00  0.00000000000E+00 -0.25022928792E+04  0.25022928792E+04  0.50400001928E-02 0.  1.
    10030    2    1    2    0    0  0.00000000000E+00  0.00000000000E+00 -0.17796393522E+04  0.32249464062E+04  0.26894540522E+04 0.  0.
        2    1    3    3  502    0 -0.36755892018E+02  0.10235730335E+04 -0.19346537995E+04  0.21890495825E+04  0.25500000920E-02 0.  1.
       -2    1    3    3    0  502  0.36755892018E+02 -0.10235730335E+04  0.15501444736E+03  0.10358968237E+04  0.25500000920E-02 0. -1.
</event>
<event>
 5   0  0.7838364E-06  0.2700736E+04  0.7818609E-02  0.8334766E-01
       -2   -1    0    0    0  501  0.00000000000E+00  0.00000000000E+00  0.13122323663E+04  0.13122323663E+04  0.25500000920E-02 0. -1.
        2   -1    0    0  501    0  0.00000000000E+00  0.00000000000E+00 -0.13896120078E+04  0.13896120078E+04  0.25500000920E-02 0.  1.
    10030    2    1    2    0    0  0.00000000000E+00  0.00000000000E+00 -0.77379641467E+02  0.27018443742E+04  0.27007360873E+04 0.  0.
        2    1    3    3  502    0 -0.23276744059E+03 -0.55384098260E+03  0.11711754450E+04  0.13162721749E+04  0.25500000920E-02 0. -1.
       -2    1    3    3    0  502  0.23276744059E+03  0.55384098260E+03 -0.12485550865E+04  0.13855721993E+04  0.25500000920E-02 0.  1.
</event>
<event>
 5   0  0.3089218E-06  0.2635996E+04  0.7818609E-02  0.8356076E-01
        1   -1    0    0  501    0  0.00000000000E+00  0.00000000000E+00  0.19765642655E+04  0.19765642655E+04  0.50400001928E-02 0. -1.
       -1   -1    0    0    0  501  0.00000000000E+00  0.00000000000E+00 -0.87885754390E+03  0.87885754391E+03  0.50400001928E-02 0.  1.
    10030    2    1    2    0    0  0.00000000000E+00  0.00000000000E+00  0.10977067216E+04  0.28554218094E+04  0.26359957631E+04 0.  0.
        5    1    3    3  502    0 -0.48023009573E+03  0.12234531029E+04  0.44250851323E+03  0.13868288698E+04  0.46999998093E+01 0.  1.
       -5    1    3    3    0  502  0.48023009573E+03 -0.12234531029E+04  0.65519820833E+03  0.14685929396E+04  0.46999998093E+01 0. -1.
</event>
<event>
 5   0  0.3013407E-06  0.2719123E+04  0.7818609E-02  0.8328827E-01
        1   -1    0    0  501    0  0.00000000000E+00  0.00000000000E+00  0.14703401389E+04  0.14703401389E+04  0.50400001928E-02 0. -1.
       -1   -1    0    0    0  501  0.00000000000E+00  0.00000000000E+00 -0.12571292147E+04  0.12571292147E+04  0.50400001928E-02 0.  1.
    10030    2    1    2    0    0  0.00000000000E+00  0.00000000000E+00  0.21321092421E+03  0.27274693536E+04  0.27191230529E+04 0.  0.
        4    1    3    3  502    0  0.10942903089E+04 -0.73076530811E+03  0.44958587667E+03  0.13905460399E+04  0.12699999809E+01 0. -1.
       -4    1    3    3    0  502 -0.10942903089E+04  0.73076530811E+03 -0.23637495246E+03  0.13369233137E+04  0.12699999809E+01 0.  1.
</event>
<event>
 5   0  0.3028601E-06  0.2688423E+04  0.7818609E-02  0.8338771E-01
        1   -1    0    0  501    0  0.00000000000E+00  0.00000000000E+00  0.13917566256E+04  0.13917566256E+04  0.50400001928E-02 0.  1.
       -1   -1    0    0    0  501  0.00000000000E+00  0.00000000000E+00 -0.12982904159E+04  0.12982904159E+04  0.50400001928E-02 0. -1.
    10030    2    1    2    0    0  0.00000000000E+00  0.00000000000E+00  0.93466209753E+02  0.26900470415E+04  0.26884228003E+04 0.  0.
        3    1    3    3  502    0 -0.24347123592E+03  0.12366266249E+04 -0.42086135604E+03  0.13287768599E+04  0.10100000352E+00 0.  1.
       -3    1    3    3    0  502  0.24347123592E+03 -0.12366266249E+04  0.51432756580E+03  0.13612701816E+04  0.10100000352E+00 0. -1.
</event>
<event>
 5   0  0.3089218E-06  0.2699869E+04  0.7818609E-02  0.8335047E-01
        1   -1    0    0  501    0  0.00000000000E+00  0.00000000000E+00  0.22332256792E+04  0.22332256792E+04  0.50400001928E-02 0. -1.
       -1   -1    0    0    0  501  0.00000000000E+00  0.00000000000E+00 -0.81600489659E+03  0.81600489660E+03  0.50400001928E-02 0.  1.
    10030    2    1    2    0    0  0.00000000000E+00  0.00000000000E+00  0.14172207826E+04  0.30492305758E+04  0.26998689520E+04 0.  0.
        5    1    3    3  502    0 -0.54334421592E+03 -0.11918902827E+04  0.34008054741E+03  0.13533300601E+04  0.46999998093E+01 0.  1.
       -5    1    3    3    0  502  0.54334421592E+03  0.11918902827E+04  0.10771402352E+04  0.16959005157E+04  0.46999998093E+01 0. -1.
</event>
<event>
 5   0  0.7838364E-06  0.2646623E+04  0.7818609E-02  0.8352535E-01
       -2   -1    0    0    0  501  0.00000000000E+00  0.00000000000E+00  0.78250642626E+03  0.78250642627E+03  0.25500000920E-02 0.  1.
        2   -1    0    0  501    0  0.00000000000E+00  0.00000000000E+00 -0.22378778117E+04  0.22378778117E+04  0.25500000920E-02 0. -1.
    10030    2    1    2    0    0  0.00000000000E+00  0.00000000000E+00 -0.14553713854E+04  0.30203842379E+04  0.26466233346E+04 0.  0.
        2    1    3    3  502    0 -0.77710838312E+03 -0.60645546282E+03 -0.17352417805E+04  0.19956827665E+04  0.25500000920E-02 0. -1.
       -2    1    3    3    0  502  0.77710838312E+03  0.60645546282E+03  0.27987039514E+03  0.10247014714E+04  0.25500000920E-02 0.  1.
</event>
<event>
 5   0  0.7838364E-06  0.2717934E+04  0.7818609E-02  0.8329209E-01
       -2   -1    0    0    0  501  0.00000000000E+00  0.00000000000E+00  0.87314424757E+03  0.87314424757E+03  0.25500000920E-02 0.  1.
        2   -1    0    0  501    0  0.00000000000E+00  0.00000000000E+00 -0.21151041437E+04  0.21151041437E+04  0.25500000920E-02 0. -1.
    10030    2    1    2    0    0  0.00000000000E+00  0.00000000000E+00 -0.12419598961E+04  0.29882483913E+04  0.27179337859E+04 0.  0.
        2    1    3    3  502    0  0.12688193275E+04  0.25896861391E+03 -0.10740622341E+04  0.16824318445E+04  0.25500000920E-02 0. -1.
       -2    1    3    3    0  502 -0.12688193275E+04 -0.25896861391E+03 -0.16789766199E+03  0.13058165467E+04  0.25500000920E-02 0.  1.
</event>
<event>
 5   0  0.3013407E-06  0.2763110E+04  0.7818609E-02  0.8314814E-01
        1   -1    0    0  501    0  0.00000000000E+00  0.00000000000E+00  0.14992006286E+04  0.14992006286E+04  0.50400001928E-02 0. -1.
       -1   -1    0    0    0  501  0.00000000000E+00  0.00000000000E+00 -0.12731409917E+04  0.12731409917E+04  0.50400001928E-02 0.  1.
    10030    2    1    2    0    0  0.00000000000E+00  0.00000000000E+00  0.22605963690E+03  0.27723416203E+04  0.27631096794E+04 0.  0.
        4    1    3    3  502    0 -0.26419470317E+03 -0.10874947115E+04  0.92582815635E+03  0.14524472372E+04  0.12699999809E+01 0. -1.
       -4    1    3    3    0  502  0.26419470317E+03  0.10874947115E+04 -0.69976851945E+03  0.13198943831E+04  0.12699999809E+01 0.  1.
</event>
<event>
 5   0  0.3199840E-06  0.2703010E+04  0.7818609E-02  0.8334029E-01
       -1   -1    0    0    0  501  0.00000000000E+00  0.00000000000E+00  0.10329384785E+04  0.10329384785E+04  0.50400001928E-02 0.  1.
        1   -1    0    0  501    0  0.00000000000E+00  0.00000000000E+00 -0.17683205378E+04  0.17683205378E+04  0.50400001928E-02 0. -1.
    10030    2    1    2    0    0  0.00000000000E+00  0.00000000000E+00 -0.73538205929E+03  0.28012590163E+04  0.27030104150E+04 0.  0.
        1    1    3    3  502    0  0.95838038991E+02 -0.13295849844E+04 -0.59846213535E+03  0.14612111716E+04  0.50400001928E-02 0. -1.
       -1    1    3    3    0  502 -0.95838038991E+02  0.13295849844E+04 -0.13691992394E+03  0.13400478447E+04  0.50400001928E-02 0.  1.
</event>
<event>
 5   0  0.3199840E-06  0.2696461E+04  0.7818609E-02  0.8336154E-01
        1   -1    0    0  501    0  0.00000000000E+00  0.00000000000E+00  0.18613739607E+04  0.18613739607E+04  0.50400001928E-02 0.  1.
       -1   -1    0    0    0  501  0.00000000000E+00  0.00000000000E+00 -0.97655023409E+03  0.97655023410E+03  0.50400001928E-02 0. -1.
    10030    2    1    2    0    0  0.00000000000E+00  0.00000000000E+00  0.88482372664E+03  0.28379241948E+04  0.26964607745E+04 0.  0.
        1    1    3    3  502    0  0.12098394148E+04  0.55498716691E+03  0.21667638672E+03  0.13485810400E+04  0.50400001928E-02 0. -1.
       -1    1    3    3    0  502 -0.12098394148E+04 -0.55498716691E+03  0.66814733993E+03  0.14893431548E+04  0.50400001928E-02 0.  1.
</event>
<event>
 5   0  0.3089218E-06  0.2704286E+04  0.7818609E-02  0.8333616E-01
        1   -1    0    0  501    0  0.00000000000E+00  0.00000000000E+00  0.10587799739E+04  0.10587799739E+04  0.50400001928E-02 0.  1.
       -1   -1    0    0    0  501  0.00000000000E+00  0.00000000000E+00 -0.17267901624E+04  0.17267901624E+04  0.50400001928E-02 0. -1.
    10030    2    1    2    0    0  0.00000000000E+00  0.00000000000E+00 -0.66801018853E+03  0.27855701363E+04  0.27042861114E+04 0.  0.
        5    1    3    3  502    0 -0.79099938897E+03 -0.47184133323E+03 -0.13536862903E+04  0.16373157727E+04  0.46999998093E+01 0. -1.
       -5    1    3    3    0  502  0.79099938897E+03  0.47184133323E+03  0.68567610173E+03  0.11482543636E+04  0.46999998093E+01 0.  1.
</event>
<event>
 5   0  0.7729970E-06  0.2708773E+04  0.7818609E-02  0.8332164E-01
        2   -1    0    0  501    0  0.00000000000E+00  0.00000000000E+00  0.27594630283E+04  0.27594630283E+04  0.25500000920E-02 0. -1.
       -2   -1    0    0    0  501  0.00000000000E+00  0.00000000000E+00 -0.66475366525E+03  0.66475366525E+03  0.25500000920E-02 0.  1.
    10030    2    1    2    0    0  0.00000000000E+00  0.00000000000E+00  0.20947093631E+04  0.34242166936E+04  0.27087732738E+04 0.  0.
        4    1    3    3  502    0  0.16728541432E+00  0.67517801334E+03 -0.43684169349E+03  0.80417513998E+03  0.12699999809E+01 0.  1.
       -4    1    3    3    0  502 -0.16728541432E+00 -0.67517801334E+03  0.25315510565E+04  0.26200415536E+04  0.12699999809E+01 0. -1.
</event>
<event>
 5   0  0.8213334E-06  0.2693858E+04  0.7818609E-02  0.8337001E-01
        2   -1    0    0  501    0  0.00000000000E+00  0.00000000000E+00  0.13734614578E+04  0.13734614578E+04  0.25500000920E-02 0.  1.
       -2   -1    0    0    0  501  0.00000000000E+00  0.00000000000E+00 -0.13209092878E+04  0.13209092878E+04  0.25500000920E-02 0. -1.
    10030    2    1    2    0    0  0.00000000000E+00  0.00000000000E+00  0.52552170061E+02  0.26943707456E+04  0.26938581967E+04 0.  0.
        3    1    3    3  502    0 -0.31050160544E+03  0.10038697998E+04  0.86908234195E+03  0.13636238298E+04  0.10100000352E+00 0.  1.
       -3    1    3    3    0  502  0.31050160544E+03 -0.10038697998E+04 -0.81653017189E+03  0.13307469158E+04  0.10100000352E+00 0. -1.
</event>
<event>
 5   0  0.8407622E-06  0.2695916E+04  0.7818609E-02  0.8336331E-01
        2   -1    0    0  501    0  0.00000000000E+00  0.00000000000E+00  0.12089855742E+04  0.12089855742E+04  0.25500000920E-02 0. -1.
       -2   -1    0    0    0  501  0.00000000000E+00  0.00000000000E+00 -0.15029052490E+04  0.15029052490E+04  0.25500000920E-02 0.  1.
    10030    2    1    2    0    0  0.00000000000E+00  0.00000000000E+00 -0.29391967476E+03  0.27118908232E+04  0.26959159968E+04 0.  0.
        1    1    3    3  502    0 -0.63935593753E+02 -0.75404119726E+03 -0.12690628745E+04  0.14775609858E+04  0.50400001928E-02 0.  1.
       -1    1    3    3    0  502  0.63935593753E+02  0.75404119726E+03  0.97514319979E+03  0.12343298374E+04  0.50400001928E-02 0. -1.
</event>
<event>
 5   0  0.8213334E-06  0.2696716E+04  0.7818609E-02  0.8336071E-01
       -2   -1    0    0    0  501  0.00000000000E+00  0.00000000000E+00  0.17538731446E+04  0.17538731446E+04  0.25500000920E-02 0.  1.
        2   -1    0    0  501    0  0.00000000000E+00  0.00000000000E+00 -0.10366028796E+04  0.10366028796E+04  0.25500000920E-02 0. -1.
    10030    2    1    2    0    0  0.00000000000E+00  0.00000000000E+00  0.71727026506E+03  0.27904760242E+04  0.26967164865E+04 0.  0.
        3    1    3    3  502    0 -0.12256801241E+03  0.12333899491E+04  0.90793641866E+03  0.15364316564E+04  0.10100000352E+00 0.  1.
       -3    1    3    3    0  502  0.12256801241E+03 -0.12333899491E+04 -0.19066615360E+03  0.12540443678E+04  0.10100000352E+00 0. -1.
</event>
<event>
 5   0  0.7812908E-06  0.2722149E+04  0.7818609E-02  0.8327854E-01
        2   -1    0    0  501    0  0.00000000000E+00  0.00000000000E+00  0.88489699483E+03  0.88489699483E+03  0.25500000920E-02 0.  1.
       -2   -1    0    0    0  501  0.00000000000E+00  0.00000000000E+00 -0.20934907353E+04  0.20934907353E+04  0.25500000920E-02 0. -1.
    10030    2    1    2    0    0  0.00000000000E+00  0.00000000000E+00 -0.12085937405E+04  0.29783877302E+04  0.27221489014E+04 0.  0.
        5    1    3    3  502    0 -0.11377340560E+04 -0.31283003111E+03  0.13794036812E+03  0.11880029653E+04  0.46999998093E+01 0.  1.
       -5    1    3    3    0  502  0.11377340560E+04  0.31283003111E+03 -0.13465341086E+04  0.17903847648E+04  0.46999998093E+01 0. -1.
</event>
<event>
 5   0  0.3046300E-06  0.2658912E+04  0.7818609E-02  0.8348461E-01
       -1   -1    0    0    0  501  0.00000000000E+00  0.00000000000E+00  0.14665862386E+04  0.14665862386E+04  0.50400001928E-02 0.  1.
        1   -1    0    0  501    0  0.00000000000E+00  0.00000000000E+00 -0.12051475749E+04  0.12051475749E+04  0.50400001928E-02 0. -1.
    10030    2    1    2    0    0  0.00000000000E+00  0.00000000000E+00  0.26143866371E+03  0.26717338135E+04  0.26589116937E+04 0.  0.
        2    1    3    3  502    0 -0.50619748634E+03 -0.84961036145E+03  0.10234739567E+04  0.14232261245E+04  0.25500000920E-02 0. -1.
       -2    1    3    3    0  502  0.50619748634E+03  0.84961036145E+03 -0.76203529302E+03  0.12485076889E+04  0.25500000920E-02 0.  1.
</event>
<event>
 5   0  0.3028601E-06  0.2735839E+04  0.7818609E-02  0.8323469E-01
        1   -1    0    0  501    0  0.00000000000E+00  0.00000000000E+00  0.93375939692E+03  0.93375939693E+03  0.50400001928E-02 0. -1.
       -1   -1    0    0    0  501  0.00000000000E+00  0.00000000000E+00 -0.20039460582E+04  0.20039460583E+04  0.50400001928E-02 0.  1.
    10030    2    1    2    0    0  0.00000000000E+00  0.00000000000E+00 -0.10701866613E+04  0.29377054552E+04  0.27358387839E+04 0.  0.
        3    1    3    3  502    0  0.44891905916E+03 -0.12713011484E+03 -0.19158640321E+04  0.19718583589E+04  0.10100000352E+00 0.  1.
       -3    1    3    3    0  502 -0.44891905916E+03  0.12713011484E+03  0.84567737078E+03  0.96584709630E+03  0.10100000352E+00 0. -1.
</event>
<event>
 5   0  0.8407622E-06  0.2722840E+04  0.7818609E-02  0.8327632E-01
       -2   -1    0    0    0  501  0.00000000000E+00  0.00000000000E+00  0.11401834915E+04  0.11401834915E+04  0.25500000920E-02 0.  1.
        2   -1    0    0  501    0  0.00000000000E+00  0.00000000000E+00 -0.16255848922E+04  0.16255848922E+04  0.25500000920E-02 0. -1.
    10030    2    1    2    0    0  0.00000000000E+00  0.00000000000E+00 -0.48540140065E+03  0.27657683837E+04  0.27228404713E+04 0.  0.
        1    1    3    3  502    0  0.10718951553E+03 -0.11853483616E+04 -0.91412479559E+03  0.15007213174E+04  0.50400001928E-02 0. -1.
       -1    1    3    3    0  502 -0.10718951553E+03  0.11853483616E+04  0.42872339495E+03  0.12650470663E+04  0.50400001928E-02 0.  1.
</event>
<event>
 5   0  0.3028601E-06  0.2703150E+04  0.7818609E-02  0.8333984E-01
        1   -1    0    0  501    0  0.00000000000E+00  0.00000000000E+00  0.30558045476E+04  0.30558045476E+04  0.50400001928E-02 0. -1.
       -1   -1    0    0    0  501  0.00000000000E+00  0.00000000000E+00 -0.59779836025E+03  0.59779836027E+03  0.50400001928E-02 0.  1.
    10030    2    1    2    0    0  0.00000000000E+00  0.00000000000E+00  0.24580061873E+04  0.36536029079E+04  0.27031499757E+04 0.  0.
        3    1    3    3  502    0  0.13095392636E+04 -0.89316092541E+02  0.16646418997E+04  0.21198828061E+04  0.10100000352E+00 0. -1.
       -3    1    3    3    0  502 -0.13095392636E+04  0.89316092541E+02  0.79336428765E+03  0.15337201017E+04  0.10100000352E+00 0.  1.
</event>
<event>
 5   0  0.3046300E-06  0.2672697E+04  0.7818609E-02  0.8343919E-01
        1   -1    0    0  501    0  0.00000000000E+00  0.00000000000E+00  0.18371462348E+04  0.18371462349E+04  0.50400001928E-02 0. -1.
       -1   -1    0    0    0  501  0.00000000000E+00  0.00000000000E+00 -0.97206581888E+03  0.97206581889E+03  0.50400001928E-02 0.  1.
    10030    2    1    2    0    0  0.00000000000E+00  0.00000000000E+00  0.86508041597E+03  0.28092120537E+04  0.26726968097E+04 0.  0.
        2    1    3    3  502    0 -0.32373641354E+03  0.11202513457E+04  0.11186119866E+04  0.16158778171E+04  0.25500000920E-02 0. -1.
       -2    1    3    3    0  502  0.32373641354E+03 -0.11202513457E+04 -0.25353157065E+03  0.11933342367E+04  0.25500000920E-02 0.  1.
</event>
<event>
 5   0  0.3013407E-06  0.2630633E+04  0.7818609E-02  0.8357870E-01
       -1   -1    0    0    0  501  0.00000000000E+00  0.00000000000E+00  0.17499557751E+04  0.17499557751E+04  0.50400001928E-02 0.  1.
        1   -1    0    0  501    0  0.00000000000E+00  0.00000000000E+00 -0.98862921200E+03  0.98862921202E+03  0.50400001928E-02 0. -1.
    10030    2    1    2    0    0  0.00000000000E+00  0.00000000000E+00  0.76132656311E+03  0.27385849871E+04  0.26306329269E+04 0.  0.
        4    1    3    3  502    0 -0.11439266830E+04  0.42480984466E+03  0.89175192339E+03  0.15113751242E+04  0.12699999809E+01 0.  1.
       -4    1    3    3    0  502  0.11439266830E+04 -0.42480984466E+03 -0.13042536029E+03  0.12272098630E+04  0.12699999809E+01 0. -1.
</event>
<event>
 5   0  0.7729970E-06  0.2688446E+04  0.7818609E-02  0.8338764E-01
        2   -1    0    0  501    0  0.00000000000E+00  0.00000000000E+00  0.19755478161E+04  0.19755478161E+04  0.25500000920E-02 0.  1.
       -2   -1    0    0    0  501  0.00000000000E+00  0.00000000000E+00 -0.91465037012E+03  0.91465037012E+03  0.25500000920E-02 0. -1.
    10030    2    1    2    0    0  0.00000000000E+00  0.00000000000E+00  0.10608974460E+04  0.28901981863E+04  0.26884460502E+04 0.  0.
        4    1    3    3  502    0 -0.10057697063E+04 -0.67234508923E+03 -0.99451289680E+02  0.12138833523E+04  0.12699999809E+01 0. -1.
       -4    1    3    3    0  502  0.10057697063E+04  0.67234508923E+03  0.11603487357E+04  0.16763148339E+04  0.12699999809E+01 0.  1.
</event>
<event>
 5   0  0.3089218E-06  0.2722658E+04  0.7818609E-02  0.8327690E-01
       -1   -1    0    0    0  501  0.00000000000E+00  0.00000000000E+00  0.12066161096E+04  0.12066161096E+04  0.50400001928E-02 0.  1.
        1   -1    0    0  501    0  0.00000000000E+00  0.00000000000E+00 -0.15358794823E+04  0.15358794823E+04  0.50400001928E-02 0. -1.
    10030    2    1    2    0    0  0.00000000000E+00  0.00000000000E+00 -0.32926337265E+03  0.27424955919E+04  0.27226582053E+04 0.  0.
        5    1    3    3  502    0  0.10950175770E+04 -0.70406095334E+03 -0.56556381607E+03  0.14193836127E+04  0.46999998093E+01 0. -1.
       -5    1    3    3    0  502 -0.10950175770E+04  0.70406095334E+03  0.23630044342E+03  0.13231119792E+04  0.46999998093E+01 0.  1.
</event>
<event>
 5   0  0.3089218E-06  0.2691158E+04  0.7818609E-02  0.8337880E-01
       -1   -1    0    0    0  501  0.00000000000E+00  0.00000000000E+00  0.14342737781E+04  0.14342737782E+04  0.50400001928E-02 0. -1.
        1   -1    0    0  501    0  0.00000000000E+00  0.00000000000E+00 -0.12623689939E+04  0.12623689939E+04  0.50400001928E-02 0.  1.
    10030    2    1    2    0    0  0.00000000000E+00  0.00000000000E+00  0.17190478429E+03  0.26966427720E+04  0.26911579264E+04 0.  0.
        5    1    3    3  502    0  0.22930333083E+03  0.95344280516E+03  0.10092028339E+04  0.14071764816E+04  0.46999998093E+01 0. -1.
       -5    1    3    3    0  502 -0.22930333083E+03 -0.95344280516E+03 -0.83729804966E+03  0.12894662905E+04  0.46999998093E+01 0.  1.
</event>
<event>
 5   0  0.3089218E-06  0.2711666E+04  0.7818609E-02  0.8331230E-01
       -1   -1    0    0    0  501  0.00000000000E+00  0.00000000000E+00  0.10893860706E+04  0.10893860706E+04  0.50400001928E-02 0. -1.
        1   -1    0    0  501    0  0.00000000000E+00  0.00000000000E+00 -0.16874492050E+04  0.16874492050E+04  0.50400001928E-02 0.  1.
    10030    2    1    2    0    0  0.00000000000E+00  0.00000000000E+00 -0.59806313438E+03  0.27768352756E+04  0.27116663946E+04 0.  0.
        5    1    3    3  502    0  0.86579135903E+03 -0.86083449420E+03  0.30474050885E+03  0.12583797406E+04  0.46999998093E+01 0. -1.
       -5    1    3    3    0  502 -0.86579135903E+03  0.86083449420E+03 -0.90280364322E+03  0.15184555351E+04  0.46999998093E+01 0.  1.
</event>
<event>
 5   0  0.7812908E-06  0.2699518E+04  0.7818609E-02  0.8335161E-01
       -2   -1    0    0    0  501  0.00000000000E+00  0.00000000000E+00  0.10045735752E+04  0.10045735752E+04  0.25500000920E-02 0. -1.
        2   -1    0    0  501    0  0.00000000000E+00  0.00000000000E+00 -0.18135552600E+04  0.18135552600E+04  0.25500000920E-02 0.  1.
    10030    2    1    2    0    0  0.00000000000E+00  0.00000000000E+00 -0.80898168479E+03  0.28181288352E+04  0.26995182469E+04 0.  0.
        5    1    3    3  502    0 -0.30234557638E+03  0.75337855412E+03  0.72123780660E+03  0.10859089083E+04  0.46999998093E+01 0. -1.
       -5    1    3    3    0  502  0.30234557638E+03 -0.75337855412E+03 -0.15302194914E+04  0.17322199269E+04  0.46999998093E+01 0.  1.
</event>
<event>
 5   0  0.8407622E-06  0.2685845E+04  0.7818609E-02  0.8339612E-01
        2   -1    0    0  501    0  0.00000000000E+00  0.00000000000E+00  0.22534445811E+04  0.22534445811E+04  0.25500000920E-02 0.  1.
       -2   -1    0    0    0  501  0.00000000000E+00  0.00000000000E+00 -0.80030407365E+03  0.80030407365E+03  0.25500000920E-02 0. -1.
    10030    2    1    2    0    0  0.00000000000E+00  0.00000000000E+00  0.14531405075E+04  0.30537486548E+04  0.26858450276E+04 0.  0.
        1    1    3    3  502    0  0.40454472930E+03 -0.12289760452E+04  0.31757019508E+03  0.13322497463E+04  0.50400001928E-02 0. -1.
       -1    1    3    3    0  502 -0.40454472930E+03  0.12289760452E+04  0.11355703124E+04  0.17214989085E+04  0.50400001928E-02 0.  1.
</event>
<event>
 5   0  0.3046300E-06  0.2694734E+04  0.7818609E-02  0.8336716E-01
       -1   -1    0    0    0  501  0.00000000000E+00  0.00000000000E+00  0.88763438841E+03  0.88763438843E+03  0.50400001928E-02 0.  1.
        1   -1    0    0  501    0  0.00000000000E+00  0.00000000000E+00 -0.20452086199E+04  0.20452086199E+04  0.50400001928E-02 0. -1.
    10030    2    1    2    0    0  0.00000000000E+00  0.00000000000E+00 -0.11575742315E+04  0.29328430083E+04  0.26947337550E+04 0.  0.
        2    1    3    3  502    0 -0.57423343699E+03  0.10388896876E+04  0.11500494704E+03  0.11925862489E+04  0.25500000920E-02 0.  1.
       -2    1    3    3    0  502  0.57423343699E+03 -0.10388896876E+04 -0.12725791785E+04  0.17402567595E+04  0.25500000920E-02 0. -1.
</event>
<event>
 5   0  0.3046300E-06  0.2700474E+04  0.7818609E-02  0.8334851E-01
       -1   -1    0    0    0  501  0.00000000000E+00  0.00000000000E+00  0.11432132639E+04  0.11432132639E+04  0.50400001928E-02 0.  1.
        1   -1    0    0  501    0  0.00000000000E+00  0.00000000000E+00 -0.15947506335E+04  0.15947506335E+04  0.50400001928E-02 0. -1.
    10030    2    1    2    0    0  0.00000000000E+00  0.00000000000E+00 -0.45153736958E+03  0.27379638974E+04  0.27004740893E+04 0.  0.
        2    1    3    3  502    0 -0.23677241513E+03 -0.11981361169E+04  0.35802769443E+03  0.12727038781E+04  0.25500000920E-02 0. -1.
       -2    1    3    3    0  502  0.23677241513E+03  0.11981361169E+04 -0.80956506401E+03  0.14652600193E+04  0.25500000920E-02 0.  1.
</event>
<event>
 5   0  0.8407622E-06  0.2697252E+04  0.7818609E-02  0.8335897E-01
        2   -1    0    0  501    0  0.00000000000E+00  0.00000000000E+00  0.14278442855E+04  0.14278442855E+04  0.25500000920E-02 0.  1.
       -2   -1    0    0    0  501  0.00000000000E+00  0.00000000000E+00 -0.12738028099E+04  0.12738028099E+04  0.25500000920E-02 0. -1.
    10030    2    1    2    0    0  0.00000000000E+00  0.00000000000E+00  0.15404147563E+03  0.27016470955E+04  0.26972519816E+04 0.  0.
        1    1    3    3  502    0  0.15330944517E+02 -0.11933160986E+04 -0.55213790283E+03  0.13149504222E+04  0.50400001928E-02 0. -1.
       -1    1    3    3    0  502 -0.15330944517E+02  0.11933160986E+04  0.70617937845E+03  0.13866966733E+04  0.50400001928E-02 0.  1.
</event>
<event>
 5   0  0.8407622E-06  0.2852447E+04  0.7818609E-02  0.8287168E-01
       -2   -1    0    0    0  501  0.00000000000E+00  0.00000000000E+00  0.98631853319E+03  0.98631853320E+03  0.25500000920E-02 0.  1.
        2   -1    0    0  501    0  0.00000000000E+00  0.00000000000E+00 -0.20623295548E+04  0.20623295548E+04  0.25500000920E-02 0. -1.
    10030    2    1    2    0    0  0.00000000000E+00  0.00000000000E+00 -0.10760110216E+04  0.30486480880E+04  0.28524472731E+04 0.  0.
        1    1    3    3  502    0 -0.10479866609E+04  0.63585074352E+02  0.49368586919E+03  0.11601917258E+04  0.50400001928E-02 0.  1.
       -1    1    3    3    0  502  0.10479866609E+04 -0.63585074352E+02 -0.15696968908E+04  0.18884563622E+04  0.50400001928E-02 0. -1.
</event>
<event>
 5   0  0.8213334E-06  0.2698378E+04  0.7818609E-02  0.8335531E-01
        2   -1    0    0  501    0  0.00000000000E+00  0.00000000000E+00  0.23762612800E+04  0.23762612800E+04  0.25500000920E-02 0.  1.
       -2   -1    0    0    0  501  0.00000000000E+00  0.00000000000E+00 -0.76603992793E+03  0.76603992793E+03  0.25500000920E-02 0. -1.
    10030    2    1    2    0    0  0.00000000000E+00  0.00000000000E+00  0.16102213521E+04  0.31423012080E+04  0.26983780459E+04 0.  0.
        3    1    3    3  502    0  0.12811228035E+04  0.37917104770E+03  0.10237936862E+04  0.16832111701E+04  0.10100000352E+00 0.  1.
       -3    1    3    3    0  502 -0.12811228035E+04 -0.37917104770E+03  0.58642766591E+03  0.14590900379E+04  0.10100000352E+00 0. -1.
</event>
<event>
 5   0  0.3013407E-06  0.2708085E+04  0.7818609E-02  0.8332386E-01
       -1   -1    0    0    0  501  0.00000000000E+00  0.00000000000E+00  0.12019127598E+04  0.12019127598E+04  0.50400001928E-02 0.  1.
        1   -1    0    0  501    0  0.00000000000E+00  0.00000000000E+00 -0.15254276206E+04  0.15254276206E+04  0.50400001928E-02 0. -1.
    10030    2    1    2    0    0  0.00000000000E+00  0.00000000000E+00 -0.32351486080E+03  0.27273403804E+04  0.27080848741E+04 0.  0.
        4    1    3    3  502    0 -0.45522787050E+03  0.48860827152E+03 -0.13480372080E+04  0.15043857165E+04  0.12699999809E+01 0. -1.
       -4    1    3    3    0  502  0.45522787050E+03 -0.48860827152E+03  0.10245223472E+04  0.12229546639E+04  0.12699999809E+01 0.  1.
</event>
<event>
 5   0  0.3013407E-06  0.2885318E+04  0.7818609E-02  0.8277259E-01
        1   -1    0    0  501    0  0.00000000000E+00  0.00000000000E+00  0.13768822020E+04  0.13768822020E+04  0.50400001928E-02 0. -1.
       -1   -1    0    0    0  501  0.00000000000E+00  0.00000000000E+00 -0.15115784782E+04  0.15115784782E+04  0.50400001928E-02 0.  1.
    10030    2    1    2    0    0  0.00000000000E+00  0.00000000000E+00 -0.13469627617E+03  0.28884606802E+04  0.28853183558E+04 0.  0.
        4    1    3    3  502    0 -0.14220953779E+04 -0.12733022121E+03 -0.27420240990E+03  0.14538764815E+04  0.12699999809E+01 0. -1.
       -4    1    3    3    0  502  0.14220953779E+04  0.12733022121E+03  0.13950613372E+03  0.14345841987E+04  0.12699999809E+01 0.  1.
</event>
<event>
 5   0  0.3199840E-06  0.2783987E+04  0.7818609E-02  0.8308257E-01
       -1   -1    0    0    0  501  0.00000000000E+00  0.00000000000E+00  0.11049531866E+04  0.11049531866E+04  0.50400001928E-02 0.  1.
        1   -1    0    0  501    0  0.00000000000E+00  0.00000000000E+00 -0.17536004963E+04  0.17536004963E+04  0.50400001928E-02 0. -1.
    10030    2    1    2    0    0  0.00000000000E+00  0.00000000000E+00 -0.64864730971E+03  0.28585536829E+04  0.27839873969E+04 0.  0.
        1    1    3    3  502    0  0.72160874681E+03 -0.10756715509E+04  0.19909250057E+03  0.13105061208E+04  0.50400001928E-02 0.  1.
       -1    1    3    3    0  502 -0.72160874681E+03  0.10756715509E+04 -0.84773981027E+03  0.15480475622E+04  0.50400001928E-02 0. -1.
</event>
<event>
 5   0  0.7812908E-06  0.2699561E+04  0.7818609E-02  0.8335147E-01
       -2   -1    0    0    0  501  0.00000000000E+00  0.00000000000E+00  0.14260790263E+04  0.14260790263E+04  0.25500000920E-02 0. -1.
        2   -1    0    0  501    0  0.00000000000E+00  0.00000000000E+00 -0.12775642498E+04  0.12775642498E+04  0.25500000920E-02 0.  1.
    10030    2    1    2    0    0  0.00000000000E+00  0.00000000000E+00  0.14851477647E+03  0.27036432762E+04  0.26995611358E+04 0.  0.
        5    1    3    3  502    0 -0.15332901731E+03  0.62107135227E+03  0.12646025373E+04  0.14172089047E+04  0.46999998093E+01 0. -1.
       -5    1    3    3    0  502  0.15332901731E+03 -0.62107135227E+03 -0.11160877609E+04  0.12864343715E+04  0.46999998093E+01 0.  1.
</event>
<event>
 5   0  0.3028601E-06  0.2699209E+04  0.7818609E-02  0.8335262E-01
       -1   -1    0    0    0  501  0.00000000000E+00  0.00000000000E+00  0.10386441276E+04  0.10386441276E+04  0.50400001928E-02 0. -1.
        1   -1    0    0  501    0  0.00000000000E+00  0.00000000000E+00 -0.17536636577E+04  0.17536636577E+04  0.50400001928E-02 0.  1.
    10030    2    1    2    0    0  0.00000000000E+00  0.00000000000E+00 -0.71501953012E+03  0.27923077853E+04  0.26992091137E+04 0.  0.
        3    1    3    3  502    0 -0.62141778209E+02 -0.17510976699E+03  0.10253488560E+04  0.10420486158E+04  0.10100000352E+00 0. -1.
       -3    1    3    3    0  502  0.62141778209E+02  0.17510976699E+03 -0.17403683861E+04  0.17502591695E+04  0.10100000352E+00 0.  1.
</event>
<event>
 5   0  0.7812908E-06  0.2893734E+04  0.7818609E-02  0.8274744E-01
        2   -1    0    0  501    0  0.00000000000E+00  0.00000000000E+00  0.24711705580E+04  0.24711705580E+04  0.25500000920E-02 0.  1.
       -2   -1    0    0    0  501  0.00000000000E+00  0.00000000000E+00 -0.84713838536E+03  0.84713838536E+03  0.25500000920E-02 0. -1.
    10030    2    1    2    0    0  0.00000000000E+00  0.00000000000E+00  0.16240321727E+04  0.33183089434E+04  0.28937335306E+04 0.  0.
        5    1    3    3  502    0  0.38638735130E+03  0.11786570831E+04 -0.42175576707E+02  0.12410997438E+04  0.46999998093E+01 0. -1.
       -5    1    3    3    0  502 -0.38638735130E+03 -0.11786570831E+04  0.16662077494E+04  0.20772091996E+04  0.46999998093E+01 0.  1.
</event>
<event>
 5   0  0.8407622E-06  0.2641591E+04  0.7818609E-02  0.8354209E-01
       -2   -1    0    0    0  501  0.00000000000E+00  0.00000000000E+00  0.83399984160E+03  0.83399984160E+03  0.25500000920E-02 0.  1.
        2   -1    0    0  501    0  0.00000000000E+00  0.00000000000E+00 -0.20917274092E+04  0.20917274092E+04  0.25500000920E-02 0. -1.
    10030    2    1    2    0    0  0.00000000000E+00  0.00000000000E+00 -0.12577275677E+04  0.29257272509E+04  0.26415906784E+04 0.  0.
        1    1    3    3  502    0  0.37804879551E+03  0.26503518300E+03  0.74171350039E+03  0.87367239667E+03  0.50400001928E-02 0.  1.
       -1    1    3    3    0  502 -0.37804879551E+03 -0.26503518300E+03 -0.19994410680E+04  0.20520548542E+04  0.50400001928E-02 0. -1.
</event>
<event>
 5   0  0.7729970E-06  0.2696027E+04  0.7818609E-02  0.8336295E-01
        2   -1    0    0  501    0  0.00000000000E+00  0.00000000000E+00  0.18843952777E+04  0.18843952777E+04  0.25500000920E-02 0. -1.
       -2   -1    0    0    0  501  0.00000000000E+00  0.00000000000E+00 -0.96430954859E+03  0.96430954859E+03  0.25500000920E-02 0.  1.
    10030    2    1    2    0    0  0.00000000000E+00  0.00000000000E+00  0.92008572914E+03  0.28487048263E+04  0.26960269729E+04 0.  0.
        4    1    3    3  502    0 -0.13428755670E+04 -0.57715734013E+02  0.35180729762E+03  0.13893940701E+04  0.12699999809E+01 0.  1.
       -4    1    3    3    0  502  0.13428755670E+04  0.57715734013E+02  0.56827843152E+03  0.14593107562E+04  0.12699999809E+01 0. -1.
</event>
<event>
 5   0  0.7812908E-06  0.2693630E+04  0.7818609E-02  0.8337075E-01
        2   -1    0    0  501    0  0.00000000000E+00  0.00000000000E+00  0.16436851131E+04  0.16436851131E+04  0.25500000920E-02 0. -1.
       -2   -1    0    0    0  501  0.00000000000E+00  0.00000000000E+00 -0.11035632774E+04  0.11035632774E+04  0.25500000920E-02 0.  1.
    10030    2    1    2    0    0  0.00000000000E+00  0.00000000000E+00  0.54012183572E+03  0.27472483905E+04  0.26936299155E+04 0.  0.
        5    1    3    3  502    0  0.11368064014E+04  0.22264398615E+01 -0.46650213147E+03  0.12288124674E+04  0.46999998093E+01 0.  1.
       -5    1    3    3    0  502 -0.11368064014E+04 -0.22264398615E+01  0.10066239672E+04  0.15184359231E+04  0.46999998093E+01 0. -1.
</event>
<event>
 5   0  0.3013407E-06  0.2699871E+04  0.7818609E-02  0.8335047E-01
        1   -1    0    0  501    0  0.00000000000E+00  0.00000000000E+00  0.16839445396E+04  0.16839445396E+04  0.50400001928E-02 0.  1.
       -1   -1    0    0    0  501  0.00000000000E+00  0.00000000000E+00 -0.10821765774E+04  0.10821765775E+04  0.50400001928E-02 0. -1.
    10030    2    1    2    0    0  0.00000000000E+00  0.00000000000E+00  0.60176796220E+03  0.27661211171E+04  0.26998706180E+04 0.  0.
        4    1    3    3  502    0 -0.10703037920E+04  0.39695759631E+03 -0.43735134360E+03  0.12224579139E+04  0.12699999809E+01 0. -1.
       -4    1    3    3    0  502  0.10703037920E+04 -0.39695759631E+03  0.10391193058E+04  0.15436632033E+04  0.12699999809E+01 0.  1.
</event>
<event>
 5   0  0.8407622E-06  0.2720735E+04  0.7818609E-02  0.8328308E-01
        2   -1    0    0  501    0  0.00000000000E+00  0.00000000000E+00  0.18736864264E+04  0.18736864264E+04  0.25500000920E-02 0. -1.
       -2   -1    0    0    0  501  0.00000000000E+00  0.00000000000E+00 -0.98767851631E+03  0.98767851631E+03  0.25500000920E-02 0.  1.
    10030    2    1    2    0    0  0.00000000000E+00  0.00000000000E+00  0.88600791009E+03  0.28613649427E+04  0.27207350695E+04 0.  0.
        1    1    3    3  502    0  0.59155267636E+03  0.75113652735E+03  0.14607312506E+04  0.17458168398E+04  0.50400001928E-02 0. -1.
       -1    1    3    3    0  502 -0.59155267636E+03 -0.75113652735E+03 -0.57472334055E+03  0.11155481029E+04  0.50400001928E-02 0.  1.
</event>
<event>
 5   0  0.3013407E-06  0.2713591E+04  0.7818609E-02  0.8330609E-01
        1   -1    0    0  501    0  0.00000000000E+00  0.00000000000E+00  0.11512059658E+04  0.11512059658E+04  0.50400001928E-02 0. -1.
       -1   -1    0    0    0  501  0.00000000000E+00  0.00000000000E+00 -0.15991005665E+04  0.15991005665E+04  0.50400001928E-02 0.  1.
    10030    2    1    2    0    0  0.00000000000E+00  0.00000000000E+00 -0.44789460074E+03  0.27503065323E+04  0.27135910613E+04 0.  0.
        4    1    3    3  502    0 -0.90543776484E+03 -0.87496593528E+03 -0.73626608717E+03  0.14585857184E+04  0.12699999809E+01 0. -1.
       -4    1    3    3    0  502  0.90543776484E+03  0.87496593528E+03  0.28837148643E+03  0.12917208139E+04  0.12699999809E+01 0.  1.
</event>
<event>
 5   0  0.3046300E-06  0.2715387E+04  0.7818609E-02  0.8330030E-01
       -1   -1    0    0    0  501  0.00000000000E+00  0.00000000000E+00  0.11239020487E+04  0.11239020487E+04  0.50400001928E-02 0.  1.
        1   -1    0    0  501    0  0.00000000000E+00  0.00000000000E+00 -0.16401182372E+04  0.16401182372E+04  0.50400001928E-02 0. -1.
    10030    2    1    2    0    0  0.00000000000E+00  0.00000000000E+00 -0.51621618846E+03  0.27640202859E+04  0.27153874471E+04 0.  0.
        2    1    3    3  502    0  0.89943719462E+03 -0.14964069643E+03  0.76586728489E+03  0.11907696264E+04  0.25500000920E-02 0.  1.
       -2    1    3    3    0  502 -0.89943719462E+03  0.14964069643E+03 -0.12820834733E+04  0.15732506595E+04  0.25500000920E-02 0. -1.
</event>
<event>
 5   0  0.3046300E-06  0.2696706E+04  0.7818609E-02  0.8336075E-01
        1   -1    0    0  501    0  0.00000000000E+00  0.00000000000E+00  0.17336008806E+04  0.17336008806E+04  0.50400001928E-02 0.  1.
       -1   -1    0    0    0  501  0.00000000000E+00  0.00000000000E+00 -0.10487162179E+04  0.10487162179E+04  0.50400001928E-02 0. -1.
    10030    2    1    2    0    0  0.00000000000E+00  0.00000000000E+00  0.68488466267E+03  0.27823170985E+04  0.26967056635E+04 0.  0.
        2    1    3    3  502    0 -0.91407683308E+03 -0.60658221690E+03  0.11512796847E+04  0.15902588956E+04  0.25500000920E-02 0.  1.
       -2    1    3    3    0  502  0.91407683308E+03  0.60658221690E+03 -0.46639502199E+03  0.11920582029E+04  0.25500000920E-02 0. -1.
</event>
<event>
 5   0  0.3199840E-06  0.2719218E+04  0.7818609E-02  0.8328796E-01
       -1   -1    0    0    0  501  0.00000000000E+00  0.00000000000E+00  0.98132510360E+03  0.98132510361E+03  0.50400001928E-02 0. -1.
        1   -1    0    0  501    0  0.00000000000E+00  0.00000000000E+00 -0.18837145227E+04  0.18837145227E+04  0.50400001928E-02 0.  1.
    10030    2    1    2    0    0  0.00000000000E+00  0.00000000000E+00 -0.90238941913E+03  0.28650396263E+04  0.27192177913E+04 0.  0.
        1    1    3    3  502    0 -0.39448335242E+03 -0.10526608872E+04  0.35455348534E+03  0.11787367105E+04  0.50400001928E-02 0. -1.
       -1    1    3    3    0  502  0.39448335242E+03  0.10526608872E+04 -0.12569429045E+04  0.16863029158E+04  0.50400001928E-02 0.  1.
</event>
<event>
 5   0  0.3013407E-06  0.2681052E+04  0.7818609E-02  0.8341179E-01
       -1   -1    0    0    0  501  0.00000000000E+00  0.00000000000E+00  0.17905509452E+04  0.17905509452E+04  0.50400001928E-02 0. -1.
        1   -1    0    0  501    0  0.00000000000E+00  0.00000000000E+00 -0.10036076068E+04  0.10036076068E+04  0.50400001928E-02 0.  1.
    10030    2    1    2    0    0  0.00000000000E+00  0.00000000000E+00  0.78694333845E+03  0.27941585520E+04  0.26810524418E+04 0.  0.
        4    1    3    3  502    0 -0.11388236015E+04 -0.66116379512E+03  0.13198406073E+03  0.13234342313E+04  0.12699999809E+01 0.  1.
       -4    1    3    3    0  502  0.11388236015E+04  0.66116379512E+03  0.65495927772E+03  0.14707243207E+04  0.12699999809E+01 0. -1.
</event>
<event>
 5   0  0.7729970E-06  0.2753589E+04  0.7818609E-02  0.8317824E-01
       -2   -1    0    0    0  501  0.00000000000E+00  0.00000000000E+00  0.81728815623E+03  0.81728815623E+03  0.25500000920E-02 0. -1.
        2   -1    0    0  501    0  0.00000000000E+00  0.00000000000E+00 -0.23193334697E+04  0.23193334697E+04  0.25500000920E-02 0.  1.
    10030    2    1    2    0    0  0.00000000000E+00  0.00000000000E+00 -0.15020453134E+04  0.31366216259E+04  0.27535894938E+04 0.  0.
        4    1    3    3  502    0 -0.12649600041E+04  0.31019521284E+03 -0.12594471210E+04  0.18117818703E+04  0.12699999809E+01 0.  1.
       -4    1    3    3    0  502  0.12649600041E+04 -0.31019521284E+03 -0.24259819249E+03  0.13248397556E+04  0.12699999809E+01 0. -1.
</event>
<event>
 5   0  0.7838364E-06  0.2685289E+04  0.7818609E-02  0.8339794E-01
       -2   -1    0    0    0  501  0.00000000000E+00  0.00000000000E+00  0.10937810505E+04  0.10937810505E+04  0.25500000920E-02 0. -1.
        2   -1    0    0  501    0  0.00000000000E+00  0.00000000000E+00 -0.16481303868E+04  0.16481303868E+04  0.25500000920E-02 0.  1.
    10030    2    1    2    0    0  0.00000000000E+00  0.00000000000E+00 -0.55434933629E+03  0.27419114373E+04  0.26852886518E+04 0.  0.
        2    1    3    3  502    0 -0.90196945924E+03  0.86820875423E+03 -0.77254196801E+03  0.14711072152E+04  0.25500000920E-02 0.  1.
       -2    1    3    3    0  502  0.90196945924E+03 -0.86820875423E+03  0.21819263171E+03  0.12708042221E+04  0.25500000920E-02 0. -1.
</event>
<event>
 5   0  0.3089218E-06  0.2681777E+04  0.7818609E-02  0.8340942E-01
       -1   -1    0    0    0  501  0.00000000000E+00  0.00000000000E+00  0.83383161113E+03  0.83383161115E+03  0.50400001928E-02 0.  1.
        1   -1    0    0  501    0  0.00000000000E+00  0.00000000000E+00 -0.21562891806E+04  0.21562891806E+04  0.50400001928E-02 0. -1.
    10030    2    1    2    0    0  0.00000000000E+00  0.00000000000E+00 -0.13224575695E+04  0.29901207918E+04  0.26817770836E+04 0.  0.
        5    1    3    3  502    0 -0.24141576444E+03  0.10477703628E+02 -0.21318026456E+04  0.21454593828E+04  0.46999998093E+01 0. -1.
       -5    1    3    3    0  502  0.24141576444E+03 -0.10477703628E+02  0.80934507609E+03  0.84466140896E+03  0.46999998093E+01 0.  1.
</event>
<event>
 5   0  0.7838364E-06  0.2647675E+04  0.7818609E-02  0.8352185E-01
       -2   -1    0    0    0  501  0.00000000000E+00  0.00000000000E+00  0.10947266692E+04  0.10947266692E+04  0.25500000920E-02 0.  1.
        2   -1    0    0  501    0  0.00000000000E+00  0.00000000000E+00 -0.16008976340E+04  0.16008976340E+04  0.25500000920E-02 0. -1.
    10030    2    1    2    0    0  0.00000000000E+00  0.00000000000E+00 -0.50617096482E+03  0.26956243032E+04  0.26476747040E+04 0.  0.
        2    1    3    3  502    0  0.10386849948E+04 -0.42589471305E+03 -0.96742775475E+03  0.14819478013E+04  0.25500000920E-02 0. -1.
       -2    1    3    3    0  502 -0.10386849948E+04  0.42589471305E+03  0.46125678993E+03  0.12136765019E+04  0.25500000920E-02 0.  1.
</event>
<event>
 5   0  0.3089218E-06  0.2693105E+04  0.7818609E-02  0.8337246E-01
       -1   -1    0    0    0  501  0.00000000000E+00  0.00000000000E+00  0.15733202459E+04  0.15733202459E+04  0.50400001928E-02 0.  1.
        1   -1    0    0  501    0  0.00000000000E+00  0.00000000000E+00 -0.11524695903E+04  0.11524695903E+04  0.50400001928E-02 0. -1.
    10030    2    1    2    0    0  0.00000000000E+00  0.00000000000E+00  0.42085065553E+03  0.27257898362E+04  0.26931050772E+04 0.  0.
        5    1    3    3  502    0 -0.93922285939E+03  0.76550185429E+03  0.80496308919E+03  0.14546890848E+04  0.46999998093E+01 0.  1.
       -5    1    3    3    0  502  0.93922285939E+03 -0.76550185429E+03 -0.38411243366E+03  0.12711007514E+04  0.46999998093E+01 0. -1.
</event>
<event>
 5   0  0.8407622E-06  0.2697790E+04  0.7818609E-02  0.8335722E-01
        2   -1    0    0  501    0  0.00000000000E+00  0.00000000000E+00  0.17861970222E+04  0.17861970222E+04  0.25500000920E-02 0.  1.
       -2   -1    0    0    0  501  0.00000000000E+00  0.00000000000E+00 -0.10186545936E+04  0.10186545936E+04  0.25500000920E-02 0. -1.
    10030    2    1    2    0    0  0.00000000000E+00  0.00000000000E+00  0.76754242853E+03  0.28048516158E+04  0.26977900598E+04 0.  0.
        1    1    3    3  502    0 -0.94101332799E+02 -0.59921848146E+02  0.17813924238E+04  0.17848822527E+04  0.50400001928E-02 0.  1.
       -1    1    3    3    0  502  0.94101332799E+02  0.59921848146E+02 -0.10138499952E+04  0.10199693630E+04  0.50400001928E-02 0. -1.
</event>
<event>
 5   0  0.7729970E-06  0.2701442E+04  0.7818609E-02  0.8334537E-01
       -2   -1    0    0    0  501  0.00000000000E+00  0.00000000000E+00  0.12724682285E+04  0.12724682285E+04  0.25500000920E-02 0. -1.
        2   -1    0    0  501    0  0.00000000000E+00  0.00000000000E+00 -0.14337865727E+04  0.14337865727E+04  0.25500000920E-02 0.  1.
    10030    2    1    2    0    0  0.00000000000E+00  0.00000000000E+00 -0.16131834421E+03  0.27062548013E+04  0.27014424742E+04 0.  0.
        4    1    3    3  502    0  0.41616191667E+03 -0.45214310797E+03 -0.12856410896E+04  0.14249557029E+04  0.12699999809E+01 0.  1.
       -4    1    3    3    0  502 -0.41616191667E+03  0.45214310797E+03  0.11243227454E+04  0.12812990984E+04  0.12699999809E+01 0. -1.
</event>
<event>
 5   0  0.3089218E-06  0.2766523E+04  0.7818609E-02  0.8313737E-01
       -1   -1    0    0    0  501  0.00000000000E+00  0.00000000000E+00  0.11421521500E+04  0.11421521500E+04  0.50400001928E-02 0.  1.
        1   -1    0    0  501    0  0.00000000000E+00  0.00000000000E+00 -0.16752697609E+04  0.16752697609E+04  0.50400001928E-02 0. -1.
    10030    2    1    2    0    0  0.00000000000E+00  0.00000000000E+00 -0.53311761094E+03  0.28174219109E+04  0.27665234207E+04 0.  0.
        5    1    3    3  502    0  0.11224823385E+04  0.27183744401E+03  0.50871480389E+03  0.12620122971E+04  0.46999998093E+01 0.  1.
       -5    1    3    3    0  502 -0.11224823385E+04 -0.27183744401E+03 -0.10418324148E+04  0.15554096138E+04  0.46999998093E+01 0. -1.
</event>
<event>
 5   0  0.7729970E-06  0.2686306E+04  0.7818609E-02  0.8339462E-01
        2   -1    0    0  501    0  0.00000000000E+00  0.00000000000E+00  0.12353633402E+04  0.12353633402E+04  0.25500000920E-02 0. -1.
       -2   -1    0    0    0  501  0.00000000000E+00  0.00000000000E+00 -0.14603475695E+04  0.14603475695E+04  0.25500000920E-02 0.  1.
    10030    2    1    2    0    0  0.00000000000E+00  0.00000000000E+00 -0.22498422934E+03  0.26957109097E+04  0.26863059031E+04 0.  0.
        4    1    3    3  502    0 -0.87264040708E+03 -0.59105448788E+03  0.72301614020E+03  0.12781238749E+04  0.12699999809E+01 0. -1.
       -4    1    3    3    0  502  0.87264040708E+03  0.59105448788E+03 -0.94800036954E+03  0.14175870348E+04  0.12699999809E+01 0.  1.
</event>
<event>
 5   0  0.7812908E-06  0.2713048E+04  0.7818609E-02  0.8330784E-01
        2   -1    0    0  501    0  0.00000000000E+00  0.00000000000E+00  0.17890845265E+04  0.17890845265E+04  0.25500000920E-02 0.  1.
       -2   -1    0    0    0  501  0.00000000000E+00  0.00000000000E+00 -0.10285471761E+04  0.10285471761E+04  0.25500000920E-02 0. -1.
    10030    2    1    2    0    0  0.00000000000E+00  0.00000000000E+00  0.76053735034E+03  0.28176317026E+04  0.27130483501E+04 0.  0.
        5    1    3    3  502    0  0.11023066805E+03  0.28561441238E+03  0.17527287390E+04  0.17792713439E+04  0.46999998093E+01 0.  1.
       -5    1    3    3    0  502 -0.11023066805E+03 -0.28561441238E+03 -0.99219138866E+03  0.10383603587E+04  0.46999998093E+01 0. -1.
</event>
<event>
 5   0  0.8407622E-06  0.2732285E+04  0.7818609E-02  0.8324605E-01
       -2   -1    0    0    0  501  0.00000000000E+00  0.00000000000E+00  0.13701758047E+04  0.13701758047E+04  0.25500000920E-02 0. -1.
        2   -1    0    0  501    0  0.00000000000E+00  0.00000000000E+00 -0.13621213867E+04  0.13621213867E+04  0.25500000920E-02 0.  1.
    10030    2    1    2    0    0  0.00000000000E+00  0.00000000000E+00  0.80544180294E+01  0.27322971914E+04  0.27322853198E+04 0.  0.
        1    1    3    3  502    0 -0.43586860134E+03  0.94787281898E+03 -0.87796383882E+03  0.13635486133E+04  0.50400001928E-02 0.  1.
       -1    1    3    3    0  502  0.43586860134E+03 -0.94787281898E+03  0.88601825685E+03  0.13687485781E+04  0.50400001928E-02 0. -1.
</event>
<event>
 5   0  0.3013407E-06  0.2705767E+04  0.7818609E-02  0.8333136E-01
        1   -1    0    0  501    0  0.00000000000E+00  0.00000000000E+00  0.20605934419E+04  0.20605934419E+04  0.50400001928E-02 0. -1.
       -1   -1    0    0    0  501  0.00000000000E+00  0.00000000000E+00 -0.88823613319E+03  0.88823613320E+03  0.50400001928E-02 0.  1.
    10030    2    1    2    0    0  0.00000000000E+00  0.00000000000E+00  0.11723573087E+04  0.29488295751E+04  0.27057668421E+04 0.  0.
        4    1    3    3  502    0  0.43001654006E+03  0.54296376051E+03  0.18527146637E+04  0.19779477010E+04  0.12699999809E+01 0. -1.
       -4    1    3    3    0  502 -0.43001654006E+03 -0.54296376051E+03 -0.68035735502E+03  0.97088187406E+03  0.12699999809E+01 0.  1.
</event>
<event>
 5   0  0.8407622E-06  0.2710856E+04  0.7818609E-02  0.8331491E-01
        2   -1    0    0  501    0  0.00000000000E+00  0.00000000000E+00  0.11730427320E+04  0.11730427320E+04  0.25500000920E-02 0.  1.
       -2   -1    0    0    0  501  0.00000000000E+00  0.00000000000E+00 -0.15661705519E+04  0.15661705519E+04  0.25500000920E-02 0. -1.
    10030    2    1    2    0    0  0.00000000000E+00  0.00000000000E+00 -0.39312781982E+03  0.27392132839E+04  0.27108559409E+04 0.  0.
        1    1    3    3  502    0  0.99362271034E+03  0.28281552487E+03  0.69006236020E+03  0.12423593573E+04  0.50400001928E-02 0.  1.
       -1    1    3    3    0  502 -0.99362271034E+03 -0.28281552487E+03 -0.10831901800E+04  0.14968539266E+04  0.50400001928E-02 0. -1.
</event>
<event>
 5   0  0.3046300E-06  0.2703457E+04  0.7818609E-02  0.8333884E-01
        1   -1    0    0  501    0  0.00000000000E+00  0.00000000000E+00  0.12928933696E+04  0.12928933696E+04  0.50400001928E-02 0. -1.
       -1   -1    0    0    0  501  0.00000000000E+00  0.00000000000E+00 -0.14132407866E+04  0.14132407866E+04  0.50400001928E-02 0.  1.
    10030    2    1    2    0    0  0.00000000000E+00  0.00000000000E+00 -0.12034741706E+03  0.27061341562E+04  0.27034567817E+04 0.  0.
        2    1    3    3  502    0 -0.34037144590E+03  0.52604604901E+03  0.11387572263E+04  0.12997481246E+04  0.25500000920E-02 0. -1.
       -2    1    3    3    0  502  0.34037144590E+03 -0.52604604901E+03 -0.12591046434E+04  0.14063860316E+04  0.25500000920E-02 0.  1.
</event>
<event>
 5   0  0.8213334E-06  0.2694258E+04  0.7818609E-02  0.8336870E-01
       -2   -1    0    0    0  501  0.00000000000E+00  0.00000000000E+00  0.88027906409E+03  0.88027906409E+03  0.25500000920E-02 0.  1.
        2   -1    0    0  501    0  0.00000000000E+00  0.00000000000E+00 -0.20615700895E+04  0.20615700895E+04  0.25500000920E-02 0. -1.
    10030    2    1    2    0    0  0.00000000000E+00  0.00000000000E+00 -0.11812910254E+04  0.29418491536E+04  0.26942583313E+04 0.  0.
        3    1    3    3  502    0  0.66334205949E+03  0.41101943202E+03  0.60835211064E+03  0.98947054636E+03  0.10100000352E+00 0.  1.
       -3    1    3    3    0  502 -0.66334205949E+03 -0.41101943202E+03 -0.17896431361E+04  0.19523786073E+04  0.10100000352E+00 0. -1.
</event>
<event>
 5   0  0.3013407E-06  0.2702013E+04  0.7818609E-02  0.8334352E-01
        1   -1    0    0  501    0  0.00000000000E+00  0.00000000000E+00  0.11737954973E+04  0.11737954973E+04  0.50400001928E-02 0.  1.
       -1   -1    0    0    0  501  0.00000000000E+00  0.00000000000E+00 -0.15549711751E+04  0.15549711751E+04  0.50400001928E-02 0. -1.
    10030    2    1    2    0    0  0.00000000000E+00  0.00000000000E+00 -0.38117567782E+03  0.27287666724E+04  0.27020127045E+04 0.  0.
        4    1    3    3  502    0 -0.20663820812E+03  0.70669248520E+03 -0.13345450082E+04  0.15241803074E+04  0.12699999809E+01 0. -1.
       -4    1    3    3    0  502  0.20663820812E+03 -0.70669248520E+03  0.95336933038E+03  0.12045863650E+04  0.12699999809E+01 0.  1.
</event>
<event>
 5   0  0.3199840E-06  0.2766109E+04  0.7818609E-02  0.8313868E-01
       -1   -1    0    0    0  501  0.00000000000E+00  0.00000000000E+00  0.95295891213E+03  0.95295891215E+03  0.50400001928E-02 0.  1.
        1   -1    0    0  501    0  0.00000000000E+00  0.00000000000E+00 -0.20072638949E+04  0.20072638949E+04  0.50400001928E-02 0. -1.
    10030    2    1    2    0    0  0.00000000000E+00  0.00000000000E+00 -0.10543049827E+04  0.29602228070E+04  0.27661091935E+04 0.  0.
        1    1    3    3  502    0 -0.79599720072E+03  0.49764961359E+03 -0.16140913975E+04  0.18672326371E+04  0.50400001928E-02 0. -1.
       -1    1    3    3    0  502  0.79599720072E+03 -0.49764961359E+03  0.55978641475E+03  0.10929901700E+04  0.50400001928E-02 0.  1.
</event>
<event>
 5   0  0.8407622E-06  0.2700306E+04  0.7818609E-02  0.8334906E-01
        2   -1    0    0  501    0  0.00000000000E+00  0.00000000000E+00  0.15120108170E+04  0.15120108170E+04  0.25500000920E-02 0. -1.
       -2   -1    0    0    0  501  0.00000000000E+00  0.00000000000E+00 -0.12056216762E+04  0.12056216762E+04  0.25500000920E-02 0.  1.
    10030    2    1    2    0    0  0.00000000000E+00  0.00000000000E+00  0.30638914074E+03  0.27176324932E+04  0.27003059202E+04 0.  0.
        1    1    3    3  502    0  0.12375686645E+04 -0.25340564628E+03 -0.32643697321E+03  0.13047420122E+04  0.50400001928E-02 0.  1.
       -1    1    3    3    0  502 -0.12375686645E+04  0.25340564628E+03  0.63282611395E+03  0.14128904810E+04  0.50400001928E-02 0. -1.
</event>
<event>
 5   0  0.7729970E-06  0.2697887E+04  0.7818609E-02  0.8335691E-01
        2   -1    0    0  501    0  0.00000000000E+00  0.00000000000E+00  0.13320302976E+04  0.13320302976E+04  0.25500000920E-02 0. -1.
       -2   -1    0    0    0  501  0.00000000000E+00  0.00000000000E+00 -0.13660709576E+04  0.13660709576E+04  0.25500000920E-02 0.  1.
    10030    2    1    2    0    0  0.00000000000E+00  0.00000000000E+00 -0.34040659957E+02  0.26981012552E+04  0.26978865093E+04 0.  0.
        4    1    3    3  502    0 -0.15212653175E+03 -0.54052536171E+03  0.12095911148E+04  0.13335750546E+04  0.12699999809E+01 0. -1.
       -4    1    3    3    0  502  0.15212653175E+03  0.54052536171E+03 -0.12436317747E+04  0.13645262007E+04  0.12699999809E+01 0.  1.
</event>
<event>
 5   0  0.3089218E-06  0.2696800E+04  0.7818609E-02  0.8336044E-01
        1   -1    0    0  501    0  0.00000000000E+00  0.00000000000E+00  0.10749413247E+04  0.10749413247E+04  0.50400001928E-02 0.  1.
       -1   -1    0    0    0  501  0.00000000000E+00  0.00000000000E+00 -0.16914251310E+04  0.16914251310E+04  0.50400001928E-02 0. -1.
    10030    2    1    2    0    0  0.00000000000E+00  0.00000000000E+00 -0.61648380633E+03  0.27663664558E+04  0.26968001565E+04 0.  0.
        5    1    3    3  502    0 -0.10524836518E+04 -0.83853637230E+02  0.55208680490E+03  0.11914592733E+04  0.46999998093E+01 0.  1.
       -5    1    3    3    0  502  0.10524836518E+04  0.83853637230E+02 -0.11685706112E+04  0.15749071824E+04  0.46999998093E+01 0. -1.
</event>
<event>
 5   0  0.8407622E-06  0.2687118E+04  0.7818609E-02  0.8339197E-01
        2   -1    0    0  501    0  0.00000000000E+00  0.00000000000E+00  0.28909831225E+04  0.28909831225E+04  0.25500000920E-02 0.  1.
       -2   -1    0    0    0  501  0.00000000000E+00  0.00000000000E+00 -0.62440713840E+03  0.62440713840E+03  0.25500000920E-02 0. -1.
    10030    2    1    2    0    0  0.00000000000E+00  0.00000000000E+00  0.22665759841E+04  0.35153902609E+04  0.26871177858E+04 0.  0.
        1    1    3    3  502    0 -0.67242709217E+03 -0.24239755064E+03 -0.35502247001E+03  0.79809505767E+03  0.50400001928E-02 0. -1.
       -1    1    3    3    0  502  0.67242709217E+03  0.24239755064E+03  0.26215984541E+04  0.27172952032E+04  0.50400001928E-02 0.  1.
</event>
<event>
 5   0  0.8213334E-06  0.2738893E+04  0.7818609E-02  0.8322495E-01
        2   -1    0    0  501    0  0.00000000000E+00  0.00000000000E+00  0.13600504312E+04  0.13600504312E+04  0.25500000920E-02 0. -1.
       -2   -1    0    0    0  501  0.00000000000E+00  0.00000000000E+00 -0.13789074537E+04  0.13789074537E+04  0.25500000920E-02 0.  1.
    10030    2    1    2    0    0  0.00000000000E+00  0.00000000000E+00 -0.18857022505E+02  0.27389578849E+04  0.27388929712E+04 0.  0.
        3    1    3    3  502    0  0.19062827413E+02  0.64588943182E+03 -0.12168705272E+04  0.13777918710E+04  0.10100000352E+00 0.  1.
       -3    1    3    3    0  502 -0.19062827413E+02 -0.64588943182E+03  0.11980135047E+04  0.13611660139E+04  0.10100000352E+00 0. -1.
</event>
<event>
 5   0  0.3199840E-06  0.2776473E+04  0.7818609E-02  0.8310610E-01
       -1   -1    0    0    0  501  0.00000000000E+00  0.00000000000E+00  0.11394519371E+04  0.11394519371E+04  0.50400001928E-02 0.  1.
        1   -1    0    0  501    0  0.00000000000E+00  0.00000000000E+00 -0.16913400303E+04  0.16913400303E+04  0.50400001928E-02 0. -1.
    10030    2    1    2    0    0  0.00000000000E+00  0.00000000000E+00 -0.55188809321E+03  0.28307919675E+04  0.27764730677E+04 0.  0.
        1    1    3    3  502    0  0.13115739916E+04 -0.26780604936E+02  0.18709645790E+03  0.13251221155E+04  0.50400001928E-02 0. -1.
       -1    1    3    3    0  502 -0.13115739916E+04  0.26780604936E+02 -0.73898455111E+03  0.15056698520E+04  0.50400001928E-02 0.  1.
</event>
<event>
 5   0  0.3199840E-06  0.2754059E+04  0.7818609E-02  0.8317675E-01
       -1   -1    0    0    0  501  0.00000000000E+00  0.00000000000E+00  0.14281552907E+04  0.14281552907E+04  0.50400001928E-02 0. -1.
        1   -1    0    0  501    0  0.00000000000E+00  0.00000000000E+00 -0.13277336279E+04  0.13277336279E+04  0.50400001928E-02 0.  1.
    10030    2    1    2    0    0  0.00000000000E+00  0.00000000000E+00  0.10042166282E+03  0.27558889185E+04  0.27540586815E+04 0.  0.
        1    1    3    3  502    0 -0.11888701970E+04  0.64975044813E+03 -0.19616777068E+03  0.13689666849E+04  0.50400001928E-02 0.  1.
       -1    1    3    3    0  502  0.11888701970E+04 -0.64975044813E+03  0.29658943350E+03  0.13869222336E+04  0.50400001928E-02 0. -1.
</event>
<event>
 5   0  0.3028601E-06  0.2705868E+04  0.7818609E-02  0.8333103E-01
       -1   -1    0    0    0  501  0.00000000000E+00  0.00000000000E+00  0.12216514469E+04  0.12216514470E+04  0.50400001928E-02 0.  1.
        1   -1    0    0  501    0  0.00000000000E+00  0.00000000000E+00 -0.14983251384E+04  0.14983251384E+04  0.50400001928E-02 0. -1.
    10030    2    1    2    0    0  0.00000000000E+00  0.00000000000E+00 -0.27667369147E+03  0.27199765854E+04  0.27058684915E+04 0.  0.
        3    1    3    3  502    0  0.17197701590E+03  0.89047918924E+03  0.87084071798E+03  0.12573356142E+04  0.10100000352E+00 0.  1.
       -3    1    3    3    0  502 -0.17197701590E+03 -0.89047918924E+03 -0.11475144095E+04  0.14626409712E+04  0.10100000352E+00 0. -1.
</event>
<event>
 5   0  0.3089218E-06  0.2695278E+04  0.7818609E-02  0.8336539E-01
        1   -1    0    0  501    0  0.00000000000E+00  0.00000000000E+00  0.24989996916E+04  0.24989996916E+04  0.50400001928E-02 0. -1.
       -1   -1    0    0    0  501  0.00000000000E+00  0.00000000000E+00 -0.72674334269E+03  0.72674334271E+03  0.50400001928E-02 0.  1.
    10030    2    1    2    0    0  0.00000000000E+00  0.00000000000E+00  0.17722563489E+04  0.32257430343E+04  0.26952783821E+04 0.  0.
        5    1    3    3  502    0  0.11307666525E+03 -0.77343082075E+03 -0.42771243232E+03  0.89103399568E+03  0.46999998093E+01 0.  1.
       -5    1    3    3    0  502 -0.11307666525E+03  0.77343082075E+03  0.21999687812E+04  0.23347090386E+04  0.46999998093E+01 0. -1.
</event>
<event>
 5   0  0.3089218E-06  0.2698540E+04  0.7818609E-02  0.8335479E-01
        1   -1    0    0  501    0  0.00000000000E+00  0.00000000000E+00  0.13565582352E+04  0.13565582352E+04  0.50400001928E-02 0. -1.
       -1   -1    0    0    0  501  0.00000000000E+00  0.00000000000E+00 -0.13420205610E+04  0.13420205610E+04  0.50400001928E-02 0.  1.
    10030    2    1    2    0    0  0.00000000000E+00  0.00000000000E+00  0.14537674164E+02  0.26985787962E+04  0.26985396375E+04 0.  0.
        5    1    3    3  502    0 -0.16911511137E+03 -0.87210425925E+03 -0.10082956000E+04  0.13438183906E+04  0.46999998093E+01 0.  1.
       -5    1    3    3    0  502  0.16911511137E+03  0.87210425925E+03  0.10228332742E+04  0.13547604056E+04  0.46999998093E+01 0. -1.
</event>
<event>
 5   0  0.7729970E-06  0.2690115E+04  0.7818609E-02  0.8338219E-01
        2   -1    0    0  501    0  0.00000000000E+00  0.00000000000E+00  0.26810919262E+04  0.26810919262E+04  0.25500000920E-02 0. -1.
       -2   -1    0    0    0  501  0.00000000000E+00  0.00000000000E+00 -0.67479203170E+03  0.67479203170E+03  0.25500000920E-02 0.  1.
    10030    2    1    2    0    0  0.00000000000E+00  0.00000000000E+00  0.20062998945E+04  0.33558839579E+04  0.26901148437E+04 0.  0.
        4    1    3    3  502    0  0.48718469125E+03  0.83803274900E+03  0.21664142747E+04  0.23733942433E+04  0.12699999809E+01 0. -1.
       -4    1    3    3    0  502 -0.48718469125E+03 -0.83803274900E+03 -0.16011438011E+03  0.98248971465E+03  0.12699999809E+01 0.  1.
</event>
<event>
 5   0  0.8407622E-06  0.2684546E+04  0.7818609E-02  0.8340037E-01
       -2   -1    0    0    0  501  0.00000000000E+00  0.00000000000E+00  0.10482331797E+04  0.10482331798E+04  0.25500000920E-02 0. -1.
        2   -1    0    0  501    0  0.00000000000E+00  0.00000000000E+00 -0.17187938880E+04  0.17187938880E+04  0.25500000920E-02 0.  1.
    10030    2    1    2    0    0  0.00000000000E+00  0.00000000000E+00 -0.67056070824E+03  0.27670270677E+04  0.26845459821E+04 0.  0.
        1    1    3    3  502    0  0.12713365404E+04  0.22499919905E+03  0.43117014041E+02  0.12918128020E+04  0.50400001928E-02 0. -1.
       -1    1    3    3    0  502 -0.12713365404E+04 -0.22499919905E+03 -0.71367772228E+03  0.14752142657E+04  0.50400001928E-02 0.  1.
</event>
<event>
 5   0  0.3046300E-06  0.2751934E+04  0.7818609E-02  0.8318348E-01
       -1   -1    0    0    0  501  0.00000000000E+00  0.00000000000E+00  0.16364969140E+04  0.16364969141E+04  0.50400001928E-02 0.  1.
        1   -1    0    0  501    0  0.00000000000E+00  0.00000000000E+00 -0.11569132399E+04  0.11569132400E+04  0.50400001928E-02 0. -1.
    10030    2    1    2    0    0  0.00000000000E+00  0.00000000000E+00  0.47958367410E+03  0.27934101540E+04  0.27519338270E+04 0.  0.
        2    1    3    3  502    0 -0.48903991250E+03 -0.12117477772E+04  0.67732452137E+03  0.14718224141E+04  0.25500000920E-02 0.  1.
       -2    1    3    3    0  502  0.48903991250E+03  0.12117477772E+04 -0.19774084728E+03  0.13215877399E+04  0.25500000920E-02 0. -1.
</event>
<event>
 5   0  0.7812908E-06  0.2691542E+04  0.7818609E-02  0.8337754E-01
       -2   -1    0    0    0  501  0.00000000000E+00  0.00000000000E+00  0.78219792917E+03  0.78219792917E+03  0.25500000920E-02 0. -1.
        2   -1    0    0  501    0  0.00000000000E+00  0.00000000000E+00 -0.23153985390E+04  0.23153985390E+04  0.25500000920E-02 0.  1.
    10030    2    1    2    0    0  0.00000000000E+00  0.00000000000E+00 -0.15332006098E+04  0.30975964681E+04  0.26915422660E+04 0.  0.
        5    1    3    3  502    0 -0.76295315510E+03  0.10906743892E+04 -0.53813236362E+03  0.14357146899E+04  0.46999998093E+01 0.  1.
       -5    1    3    3    0  502  0.76295315510E+03 -0.10906743892E+04 -0.99506824618E+03  0.16618817782E+04  0.46999998093E+01 0. -1.
</event>
<event>
 5   0  0.3046300E-06  0.2686380E+04  0.7818609E-02  0.8339438E-01
        1   -1    0    0  501    0  0.00000000000E+00  0.00000000000E+00  0.14613099020E+04  0.14613099020E+04  0.50400001928E-02 0.  1.
       -1   -1    0    0    0  501  0.00000000000E+00  0.00000000000E+00 -0.12346180300E+04  0.12346180300E+04  0.50400001928E-02 0. -1.
    10030    2    1    2    0    0  0.00000000000E+00  0.00000000000E+00  0.22669187203E+03  0.26959279320E+04  0.26863801313E+04 0.  0.
        2    1    3    3  502    0  0.17518461896E+03  0.32258512053E+03  0.14099941116E+04  0.14569949229E+04  0.25500000920E-02 0.  1.
       -2    1    3    3    0  502 -0.17518461896E+03 -0.32258512053E+03 -0.11833022396E+04  0.12389330090E+04  0.25500000920E-02 0. -1.
</event>
<event>
 5   0  0.7838364E-06  0.2807118E+04  0.7818609E-02  0.8301062E-01
        2   -1    0    0  501    0  0.00000000000E+00  0.00000000000E+00  0.85409312369E+03  0.85409312370E+03  0.25500000920E-02 0.  1.
       -2   -1    0    0    0  501  0.00000000000E+00  0.00000000000E+00 -0.23065136042E+04  0.23065136042E+04  0.25500000920E-02 0. -1.
    10030    2    1    2    0    0  0.00000000000E+00  0.00000000000E+00 -0.14524204805E+04  0.31606067279E+04  0.28071176741E+04 0.  0.
        2    1    3    3  502    0 -0.56894324041E+03 -0.91398259759E+03  0.28769646029E+03  0.11143741978E+04  0.25500000920E-02 0.  1.
       -2    1    3    3    0  502  0.56894324041E+03  0.91398259759E+03 -0.17401169408E+04  0.20462325301E+04  0.25500000920E-02 0. -1.
</event>
<event>
 5   0  0.8213334E-06  0.2665453E+04  0.7818609E-02  0.8346302E-01
       -2   -1    0    0    0  501  0.00000000000E+00  0.00000000000E+00  0.13764112429E+04  0.13764112429E+04  0.25500000920E-02 0. -1.
        2   -1    0    0  501    0  0.00000000000E+00  0.00000000000E+00 -0.12904285907E+04  0.12904285907E+04  0.25500000920E-02 0.  1.
    10030    2    1    2    0    0  0.00000000000E+00  0.00000000000E+00  0.85982652155E+02  0.26668398336E+04  0.26654533726E+04 0.  0.
        3    1    3    3  502    0 -0.10692600257E+04 -0.41936859669E+03 -0.63335836851E+03  0.13116134551E+04  0.10100000352E+00 0.  1.
       -3    1    3    3    0  502  0.10692600257E+04  0.41936859669E+03  0.71934102067E+03  0.13552263784E+04  0.10100000352E+00 0. -1.
</event>
<event>
 5   0  0.8407622E-06  0.2688832E+04  0.7818609E-02  0.8338638E-01
       -2   -1    0    0    0  501  0.00000000000E+00  0.00000000000E+00  0.75290323313E+03  0.75290323314E+03  0.25500000920E-02 0.  1.
        2   -1    0    0  501    0  0.00000000000E+00  0.00000000000E+00 -0.24006456786E+04  0.24006456786E+04  0.25500000920E-02 0. -1.
    10030    2    1    2    0    0  0.00000000000E+00  0.00000000000E+00 -0.16477424455E+04  0.31535489118E+04  0.26888316370E+04 0.  0.
        1    1    3    3  502    0 -0.12583981455E+03 -0.33258247257E+03  0.69674892350E+03  0.78224409388E+03  0.50400001928E-02 0.  1.
       -1    1    3    3    0  502  0.12583981455E+03  0.33258247257E+03 -0.23444913690E+04  0.23713048179E+04  0.50400001928E-02 0. -1.
</event>
<event>
 5   0  0.7729970E-06  0.2678439E+04  0.7818609E-02  0.8342035E-01
       -2   -1    0    0    0  501  0.00000000000E+00  0.00000000000E+00  0.18272150429E+04  0.18272150429E+04  0.25500000920E-02 0.  1.
        2   -1    0    0  501    0  0.00000000000E+00  0.00000000000E+00 -0.98155341461E+03  0.98155341462E+03  0.25500000920E-02 0. -1.
    10030    2    1    2    0    0  0.00000000000E+00  0.00000000000E+00  0.84566162828E+03  0.28087684575E+04  0.26784392206E+04 0.  0.
        4    1    3    3  502    0  0.81515651614E+01 -0.39522591985E+03 -0.91897600712E+03  0.10003941675E+04  0.12699999809E+01 0. -1.
       -4    1    3    3    0  502 -0.81515651614E+01  0.39522591985E+03  0.17646376354E+04  0.18083742901E+04  0.12699999809E+01 0.  1.
</event>
<event>
 5   0  0.3089218E-06  0.2709502E+04  0.7818609E-02  0.8331928E-01
        1   -1    0    0  501    0  0.00000000000E+00  0.00000000000E+00  0.14492949569E+04  0.14492949569E+04  0.50400001928E-02 0.  1.
       -1   -1    0    0    0  501  0.00000000000E+00  0.00000000000E+00 -0.12663748946E+04  0.12663748946E+04  0.50400001928E-02 0. -1.
    10030    2    1    2    0    0  0.00000000000E+00  0.00000000000E+00  0.18292006228E+03  0.27156698515E+04  0.27095023516E+04 0.  0.
        5    1    3    3  502    0  0.81192037563E+03  0.38094366449E+03  0.11091509634E+04  0.14263837918E+04  0.46999998093E+01 0.  1.
       -5    1    3    3    0  502 -0.81192037563E+03 -0.38094366449E+03 -0.92623090107E+03  0.12892860598E+04  0.46999998093E+01 0. -1.
</event>
<event>
 5   0  0.3013407E-06  0.2699846E+04  0.7818609E-02  0.8335055E-01
        1   -1    0    0  501    0  0.00000000000E+00  0.00000000000E+00  0.17366052905E+04  0.17366052905E+04  0.50400001928E-02 0.  1.
       -1   -1    0    0    0  501  0.00000000000E+00  0.00000000000E+00 -0.10493419039E+04  0.10493419039E+04  0.50400001928E-02 0. -1.
    10030    2    1    2    0    0  0.00000000000E+00  0.00000000000E+00  0.68726338661E+03  0.27859471944E+04  0.26998464414E+04 0.  0.
        4    1    3    3  502    0 -0.10951994616E+04 -0.40303799647E+03  0.10437905227E+04  0.15656952946E+04  0.12699999809E+01 0.  1.
       -4    1    3    3    0  502  0.10951994616E+04  0.40303799647E+03 -0.35652713612E+03  0.12202518998E+04  0.12699999809E+01 0. -1.
</event>
<event>
 5   0  0.3089218E-06  0.2714933E+04  0.7818609E-02  0.8330176E-01
        1   -1    0    0  501    0  0.00000000000E+00  0.00000000000E+00  0.12074227462E+04  0.12074227462E+04  0.50400001928E-02 0.  1.
       -1   -1    0    0    0  501  0.00000000000E+00  0.00000000000E+00 -0.15261561795E+04  0.15261561795E+04  0.50400001928E-02 0. -1.
    10030    2    1    2    0    0  0.00000000000E+00  0.00000000000E+00 -0.31873343325E+03  0.27335789257E+04  0.27149332850E+04 0.  0.
        5    1    3    3  502    0  0.73339737526E+03  0.10191208253E+04  0.36013670704E+03  0.13062157190E+04  0.46999998093E+01 0.  1.
       -5    1    3    3    0  502 -0.73339737526E+03 -0.10191208253E+04 -0.67887014029E+03  0.14273632068E+04  0.46999998093E+01 0. -1.
</event>
<event>
 5   0  0.8213334E-06  0.2694775E+04  0.7818609E-02  0.8336702E-01
       -2   -1    0    0    0  501  0.00000000000E+00  0.00000000000E+00  0.14575630877E+04  0.14575630877E+04  0.25500000920E-02 0.  1.
        2   -1    0    0  501    0  0.00000000000E+00  0.00000000000E+00 -0.12455400535E+04  0.12455400535E+04  0.25500000920E-02 0. -1.
    10030    2    1    2    0    0  0.00000000000E+00  0.00000000000E+00  0.21202303424E+03  0.27031031412E+04  0.26947750973E+04 0.  0.
        3    1    3    3  502    0 -0.12880626763E+03  0.78467077859E+03  0.11971018644E+04  0.14371333165E+04  0.10100000352E+00 0.  1.
       -3    1    3    3    0  502  0.12880626763E+03 -0.78467077859E+03 -0.98507883016E+03  0.12659698248E+04  0.10100000352E+00 0. -1.
</event>
<event>
 5   0  0.7838364E-06  0.2681893E+04  0.7818609E-02  0.8340904E-01
       -2   -1    0    0    0  501  0.00000000000E+00  0.00000000000E+00  0.99539132016E+03  0.99539132017E+03  0.25500000920E-02 0. -1.
        2   -1    0    0  501    0  0.00000000000E+00  0.00000000000E+00 -0.18064624268E+04  0.18064624268E+04  0.25500000920E-02 0.  1.
    10030    2    1    2    0    0  0.00000000000E+00  0.00000000000E+00 -0.81107110661E+03  0.28018537469E+04  0.26818926301E+04 0.  0.
        2    1    3    3  502    0  0.99671924819E+03  0.68177904620E+03 -0.10145917347E+04  0.15772343883E+04  0.25500000920E-02 0. -1.
       -2    1    3    3    0  502 -0.99671924819E+03 -0.68177904620E+03  0.20352062805E+03  0.12246193587E+04  0.25500000920E-02 0.  1.
</event>
<event>
 5   0  0.7812908E-06  0.2690947E+04  0.7818609E-02  0.8337948E-01
       -2   -1    0    0    0  501  0.00000000000E+00  0.00000000000E+00  0.99589153210E+03  0.99589153210E+03  0.25500000920E-02 0.  1.
        2   -1    0    0  501    0  0.00000000000E+00  0.00000000000E+00 -0.18177673599E+04  0.18177673599E+04  0.25500000920E-02 0. -1.
    10030    2    1    2    0    0  0.00000000000E+00  0.00000000000E+00 -0.82187582782E+03  0.28136588920E+04  0.26909471352E+04 0.  0.
        5    1    3    3  502    0  0.44733335410E+03  0.10743090609E+04  0.29515679854E+03  0.12005776584E+04  0.46999998093E+01 0. -1.
       -5    1    3    3    0  502 -0.44733335410E+03 -0.10743090609E+04 -0.11170326264E+04  0.16130812337E+04  0.46999998093E+01 0.  1.
</event>
<event>
 5   0  0.3013407E-06  0.2555321E+04  0.7818609E-02  0.8383538E-01
       -1   -1    0    0    0  501  0.00000000000E+00  0.00000000000E+00  0.13185479341E+04  0.13185479341E+04  0.50400001928E-02 0.  1.
        1   -1    0    0  501    0  0.00000000000E+00  0.00000000000E+00 -0.12380408100E+04  0.12380408100E+04  0.50400001928E-02 0. -1.
    10030    2    1    2    0    0  0.00000000000E+00  0.00000000000E+00  0.80507124055E+02  0.25565887441E+04  0.25553208428E+04 0.  0.
        4    1    3    3  502    0  0.89769991872E+03 -0.74483974261E+03  0.56182130210E+03  0.12947185697E+04  0.12699999809E+01 0.  1.
       -4    1    3    3    0  502 -0.89769991872E+03  0.74483974261E+03 -0.48131417804E+03  0.12618701744E+04  0.12699999809E+01 0. -1.
</event>
<event>
 5   0  0.3199840E-06  0.2696178E+04  0.7818609E-02  0.8336246E-01
        1   -1    0    0  501    0  0.00000000000E+00  0.00000000000E+00  0.30628139672E+04  0.30628139672E+04  0.50400001928E-02 0.  1.
       -1   -1    0    0    0  501  0.00000000000E+00  0.00000000000E+00 -0.59335768056E+03  0.59335768058E+03  0.50400001928E-02 0. -1.
    10030    2    1    2    0    0  0.00000000000E+00  0.00000000000E+00  0.24694562867E+04  0.36561716478E+04  0.26961781778E+04 0.  0.
        1    1    3    3  502    0 -0.83722043668E+03 -0.92521191677E+03  0.19267014448E+04  0.22954593458E+04  0.50400001928E-02 0.  1.
       -1    1    3    3    0  502  0.83722043668E+03  0.92521191677E+03  0.54275484181E+03  0.13607123020E+04  0.50400001928E-02 0. -1.
</event>
<event>
 5   0  0.7838364E-06  0.2703383E+04  0.7818609E-02  0.8333908E-01
        2   -1    0    0  501    0  0.00000000000E+00  0.00000000000E+00  0.22753538881E+04  0.22753538881E+04  0.25500000920E-02 0. -1.
       -2   -1    0    0    0  501  0.00000000000E+00  0.00000000000E+00 -0.80298297213E+03  0.80298297213E+03  0.25500000920E-02 0.  1.
    10030    2    1    2    0    0  0.00000000000E+00  0.00000000000E+00  0.14723709159E+04  0.30783368602E+04  0.27033833821E+04 0.  0.
        2    1    3    3  502    0 -0.50924291026E+03  0.67094514200E+03  0.19399645169E+04  0.21149368908E+04  0.25500000920E-02 0. -1.
       -2    1    3    3    0  502  0.50924291026E+03 -0.67094514200E+03 -0.46759360101E+03  0.96339996935E+03  0.25500000920E-02 0.  1.
</event>
<event>
 5   0  0.3013407E-06  0.2699079E+04  0.7818609E-02  0.8335304E-01
       -1   -1    0    0    0  501  0.00000000000E+00  0.00000000000E+00  0.97700921833E+03  0.97700921834E+03  0.50400001928E-02 0.  1.
        1   -1    0    0  501    0  0.00000000000E+00  0.00000000000E+00 -0.18641148835E+04  0.18641148835E+04  0.50400001928E-02 0. -1.
    10030    2    1    2    0    0  0.00000000000E+00  0.00000000000E+00 -0.88710566513E+03  0.28411241018E+04  0.26990794173E+04 0.  0.
        4    1    3    3  502    0 -0.73254346953E+03 -0.10276599508E+04 -0.94678223952E+03  0.15776891745E+04  0.12699999809E+01 0. -1.
       -4    1    3    3    0  502  0.73254346953E+03  0.10276599508E+04  0.59676574388E+02  0.12634349274E+04  0.12699999809E+01 0.  1.
</event>
<event>
 5   0  0.7729970E-06  0.2635325E+04  0.7818609E-02  0.8356300E-01
       -2   -1    0    0    0  501  0.00000000000E+00  0.00000000000E+00  0.11311266928E+04  0.11311266928E+04  0.25500000920E-02 0.  1.
        2   -1    0    0  501    0  0.00000000000E+00  0.00000000000E+00 -0.15349603921E+04  0.15349603921E+04  0.25500000920E-02 0. -1.
    10030    2    1    2    0    0  0.00000000000E+00  0.00000000000E+00 -0.40383369930E+03  0.26660870848E+04  0.26353251578E+04 0.  0.
        4    1    3    3  502    0 -0.38248398798E+03  0.69220766268E+03  0.86432478394E+03  0.11715393269E+04  0.12699999809E+01 0.  1.
       -4    1    3    3    0  502  0.38248398798E+03 -0.69220766268E+03 -0.12681584832E+04  0.14945477580E+04  0.12699999809E+01 0. -1.
</event>
<event>
 5   0  0.3089218E-06  0.2698955E+04  0.7818609E-02  0.8335344E-01
       -1   -1    0    0    0  501  0.00000000000E+00  0.00000000000E+00  0.12376584043E+04  0.12376584043E+04  0.50400001928E-02 0. -1.
        1   -1    0    0  501    0  0.00000000000E+00  0.00000000000E+00 -0.14713994784E+04  0.14713994784E+04  0.50400001928E-02 0.  1.
    10030    2    1    2    0    0  0.00000000000E+00  0.00000000000E+00 -0.23374107410E+03  0.27090578827E+04  0.26989553020E+04 0.  0.
        5    1    3    3  502    0 -0.11448371122E+04  0.70479754537E+03 -0.23425376846E+03  0.13646569208E+04  0.46999998093E+01 0.  1.
       -5    1    3    3    0  502  0.11448371122E+04 -0.70479754537E+03  0.51269435915E+00  0.13444009619E+04  0.46999998093E+01 0. -1.
</event>
<event>
 5   0  0.7812908E-06  0.2715101E+04  0.7818609E-02  0.8330122E-01
        2   -1    0    0  501    0  0.00000000000E+00  0.00000000000E+00  0.18073719851E+04  0.18073719851E+04  0.25500000920E-02 0.  1.
       -2   -1    0    0    0  501  0.00000000000E+00  0.00000000000E+00 -0.10196810952E+04  0.10196810952E+04  0.25500000920E-02 0. -1.
    10030    2    1    2    0    0  0.00000000000E+00  0.00000000000E+00  0.78769088989E+03  0.28270530803E+04  0.27151007680E+04 0.  0.
        5    1    3    3  502    0 -0.96563964245E+03 -0.83474881959E+03  0.87513339905E+03  0.15476259454E+04  0.46999998093E+01 0.  1.
       -5    1    3    3    0  502  0.96563964245E+03  0.83474881959E+03 -0.87442509170E+02  0.12794271348E+04  0.46999998093E+01 0. -1.
</event>
<event>
 5   0  0.8407622E-06  0.2712902E+04  0.7818609E-02  0.8330831E-01
       -2   -1    0    0    0  501  0.00000000000E+00  0.00000000000E+00  0.14124517452E+04  0.14124517452E+04  0.25500000920E-02 0.  1.
        2   -1    0    0  501    0  0.00000000000E+00  0.00000000000E+00 -0.13026705765E+04  0.13026705765E+04  0.25500000920E-02 0. -1.
    10030    2    1    2    0    0  0.00000000000E+00  0.00000000000E+00  0.10978116864E+03  0.27151223217E+04  0.27129020102E+04 0.  0.
        1    1    3    3  502    0 -0.12405532586E+04 -0.98968554825E+02  0.59495447021E+03  0.13793976888E+04  0.50400001928E-02 0. -1.
       -1    1    3    3    0  502  0.12405532586E+04  0.98968554825E+02 -0.48517330156E+03  0.13357246329E+04  0.50400001928E-02 0.  1.
</event>
<event>
 5   0  0.3028601E-06  0.2697777E+04  0.7818609E-02  0.8335727E-01
       -1   -1    0    0    0  501  0.00000000000E+00  0.00000000000E+00  0.14110112471E+04  0.14110112471E+04  0.50400001928E-02 0.  1.
        1   -1    0    0  501    0  0.00000000000E+00  0.00000000000E+00 -0.12895011005E+04  0.12895011005E+04  0.50400001928E-02 0. -1.
    10030    2    1    2    0    0  0.00000000000E+00  0.00000000000E+00  0.12151014665E+03  0.27005123476E+04  0.26977772747E+04 0.  0.
        3    1    3    3  502    0  0.47548599542E+03  0.29223848750E+03 -0.11685006145E+04  0.12949455439E+04  0.10100000352E+00 0. -1.
       -3    1    3    3    0  502 -0.47548599542E+03 -0.29223848750E+03  0.12900107612E+04  0.14055668037E+04  0.10100000352E+00 0.  1.
</event>
<event>
 5   0  0.3013407E-06  0.2734815E+04  0.7818609E-02  0.8323796E-01
       -1   -1    0    0    0  501  0.00000000000E+00  0.00000000000E+00  0.16713736247E+04  0.16713736247E+04  0.50400001928E-02 0. -1.
        1   -1    0    0  501    0  0.00000000000E+00  0.00000000000E+00 -0.11187221339E+04  0.11187221339E+04  0.50400001928E-02 0.  1.
    10030    2    1    2    0    0  0.00000000000E+00  0.00000000000E+00  0.55265149081E+03  0.27900957586E+04  0.27348145590E+04 0.  0.
        4    1    3    3  502    0  0.21803536702E+03  0.12758624961E+04 -0.17353712594E+03  0.13059407633E+04  0.12699999809E+01 0.  1.
       -4    1    3    3    0  502 -0.21803536702E+03 -0.12758624961E+04  0.72618861674E+03  0.14841549954E+04  0.12699999809E+01 0. -1.
</event>
<event>
 5   0  0.3013407E-06  0.2703813E+04  0.7818609E-02  0.8333769E-01
       -1   -1    0    0    0  501  0.00000000000E+00  0.00000000000E+00  0.13492001791E+04  0.13492001791E+04  0.50400001928E-02 0.  1.
        1   -1    0    0  501    0  0.00000000000E+00  0.00000000000E+00 -0.13546181791E+04  0.13546181791E+04  0.50400001928E-02 0. -1.
    10030    2    1    2    0    0  0.00000000000E+00  0.00000000000E+00 -0.54180000265E+01  0.27038183582E+04  0.27038129298E+04 0.  0.
        4    1    3    3  502    0  0.61304951410E+03 -0.25795610800E+03  0.11742718745E+04  0.13495507062E+04  0.12699999809E+01 0.  1.
       -4    1    3    3    0  502 -0.61304951410E+03  0.25795610800E+03 -0.11796898745E+04  0.13542676520E+04  0.12699999809E+01 0. -1.
</event>
<event>
 5   0  0.3013407E-06  0.2708072E+04  0.7818609E-02  0.8332391E-01
        1   -1    0    0  501    0  0.00000000000E+00  0.00000000000E+00  0.15531279794E+04  0.15531279794E+04  0.50400001928E-02 0. -1.
       -1   -1    0    0    0  501  0.00000000000E+00  0.00000000000E+00 -0.11804649755E+04  0.11804649755E+04  0.50400001928E-02 0.  1.
    10030    2    1    2    0    0  0.00000000000E+00  0.00000000000E+00  0.37266300396E+03  0.27335929549E+04  0.27080717732E+04 0.  0.
        4    1    3    3  502    0  0.91924185565E+02  0.13343456972E+04 -0.26566247248E+02  0.13377727288E+04  0.12699999809E+01 0.  1.
       -4    1    3    3    0  502 -0.91924185565E+02 -0.13343456972E+04  0.39922925121E+03  0.13958202261E+04  0.12699999809E+01 0. -1.
</event>
<event>
 5   0  0.3028601E-06  0.2740148E+04  0.7818609E-02  0.8322095E-01
        1   -1    0    0  501    0  0.00000000000E+00  0.00000000000E+00  0.19673155581E+04  0.19673155581E+04  0.50400001928E-02 0. -1.
       -1   -1    0    0    0  501  0.00000000000E+00  0.00000000000E+00 -0.95414432717E+03  0.95414432718E+03  0.50400001928E-02 0.  1.
    10030    2    1    2    0    0  0.00000000000E+00  0.00000000000E+00  0.10131712309E+04  0.29214598853E+04  0.27401481562E+04 0.  0.
        3    1    3    3  502    0  0.10576745299E+04 -0.86833738035E+03  0.43572147076E+03  0.14361540403E+04  0.10100000352E+00 0. -1.
       -3    1    3    3    0  502 -0.10576745299E+04  0.86833738035E+03  0.57744976015E+03  0.14853058449E+04  0.10100000352E+00 0.  1.
</event>
<event>
 5   0  0.7812908E-06  0.2773787E+04  0.7818609E-02  0.8311453E-01
       -2   -1    0    0    0  501  0.00000000000E+00  0.00000000000E+00  0.94202773655E+03  0.94202773655E+03  0.25500000920E-02 0. -1.
        2   -1    0    0  501    0  0.00000000000E+00  0.00000000000E+00 -0.20418432456E+04  0.20418432456E+04  0.25500000920E-02 0.  1.
    10030    2    1    2    0    0  0.00000000000E+00  0.00000000000E+00 -0.10998155091E+04  0.29838709822E+04  0.27737865607E+04 0.  0.
        5    1    3    3  502    0  0.15241247032E+02 -0.50576891788E+03 -0.19389934341E+04  0.20039341609E+04  0.46999998093E+01 0.  1.
       -5    1    3    3    0  502 -0.15241247032E+02  0.50576891788E+03  0.83917792499E+03  0.97993682128E+03  0.46999998093E+01 0. -1.
</event>
<event>
 5   0  0.7838364E-06  0.2709925E+04  0.7818609E-02  0.8331792E-01
        2   -1    0    0  501    0  0.00000000000E+00  0.00000000000E+00  0.13392797121E+04  0.13392797121E+04  0.25500000920E-02 0. -1.
       -2   -1    0    0    0  501  0.00000000000E+00  0.00000000000E+00 -0.13708293327E+04  0.13708293327E+04  0.25500000920E-02 0.  1.
    10030    2    1    2    0    0  0.00000000000E+00  0.00000000000E+00 -0.31549620583E+02  0.27101090448E+04  0.27099253968E+04 0.  0.
        2    1    3    3  502    0 -0.36105060885E+03 -0.90000401642E+03  0.93062918805E+03  0.13440370000E+04  0.25500000920E-02 0. -1.
       -2    1    3    3    0  502  0.36105060885E+03  0.90000401642E+03 -0.96217880863E+03  0.13660720448E+04  0.25500000920E-02 0.  1.
</event>
<event>
 5   0  0.3046300E-06  0.2710601E+04  0.7818609E-02  0.8331573E-01
       -1   -1    0    0    0  501  0.00000000000E+00  0.00000000000E+00  0.93181495978E+03  0.93181495980E+03  0.50400001928E-02 0. -1.
        1   -1    0    0  501    0  0.00000000000E+00  0.00000000000E+00 -0.19712492614E+04  0.19712492614E+04  0.50400001928E-02 0.  1.
    10030    2    1    2    0    0  0.00000000000E+00  0.00000000000E+00 -0.10394343016E+04  0.29030642212E+04  0.27106010782E+04 0.  0.
        2    1    3    3  502    0  0.40223719415E+03 -0.60073592377E+03 -0.17474824290E+04  0.18911301516E+04  0.25500000920E-02 0.  1.
       -2    1    3    3    0  502 -0.40223719415E+03  0.60073592377E+03  0.70804812742E+03  0.10119340696E+04  0.25500000920E-02 0. -1.
</event>
<event>
 5   0  0.3199840E-06  0.2690635E+04  0.7818609E-02  0.8338050E-01
        1   -1    0    0  501    0  0.00000000000E+00  0.00000000000E+00  0.17718769937E+04  0.17718769937E+04  0.50400001928E-02 0. -1.
       -1   -1    0    0    0  501  0.00000000000E+00  0.00000000000E+00 -0.10214474607E+04  0.10214474608E+04  0.50400001928E-02 0.  1.
    10030    2    1    2    0    0  0.00000000000E+00  0.00000000000E+00  0.75042953298E+03  0.27933244545E+04  0.26906350596E+04 0.  0.
        1    1    3    3  502    0  0.13402279204E+03 -0.10016231710E+04  0.12971782994E+04  0.16443486936E+04  0.50400001928E-02 0. -1.
       -1    1    3    3    0  502 -0.13402279204E+03  0.10016231710E+04 -0.54674876646E+03  0.11489757609E+04  0.50400001928E-02 0.  1.
</event>
<event>
 5   0  0.3028601E-06  0.2688001E+04  0.7818609E-02  0.8338909E-01
        1   -1    0    0  501    0  0.00000000000E+00  0.00000000000E+00  0.13182659725E+04  0.13182659725E+04  0.50400001928E-02 0.  1.
       -1   -1    0    0    0  501  0.00000000000E+00  0.00000000000E+00 -0.13702369553E+04  0.13702369553E+04  0.50400001928E-02 0. -1.
    10030    2    1    2    0    0  0.00000000000E+00  0.00000000000E+00 -0.51970982723E+02  0.26885029278E+04  0.26880005599E+04 0.  0.
        3    1    3    3  502    0  0.14657765662E+03  0.12295098283E+04  0.49675672686E+03  0.13341464250E+04  0.10100000352E+00 0.  1.
       -3    1    3    3    0  502 -0.14657765662E+03 -0.12295098283E+04 -0.54872770958E+03  0.13543565029E+04  0.10100000352E+00 0. -1.
</event>
<event>
 5   0  0.3199840E-06  0.2723050E+04  0.7818609E-02  0.8327565E-01
        1   -1    0    0  501    0  0.00000000000E+00  0.00000000000E+00  0.17387382037E+04  0.17387382037E+04  0.50400001928E-02 0. -1.
       -1   -1    0    0    0  501  0.00000000000E+00  0.00000000000E+00 -0.10661466067E+04  0.10661466067E+04  0.50400001928E-02 0.  1.
    10030    2    1    2    0    0  0.00000000000E+00  0.00000000000E+00  0.67259159702E+03  0.28048848104E+04  0.27230496402E+04 0.  0.
        1    1    3    3  502    0  0.75467531033E+03  0.10986308134E+04  0.50049810687E+02  0.13338026360E+04  0.50400001928E-02 0.  1.
       -1    1    3    3    0  502 -0.75467531033E+03 -0.10986308134E+04  0.62254178634E+03  0.14710821744E+04  0.50400001928E-02 0. -1.
</event>
<event>
 5   0  0.3013407E-06  0.2712938E+04  0.7818609E-02  0.8330819E-01
       -1   -1    0    0    0  501  0.00000000000E+00  0.00000000000E+00  0.11521916333E+04  0.11521916333E+04  0.50400001928E-02 0.  1.
        1   -1    0    0  501    0  0.00000000000E+00  0.00000000000E+00 -0.15969633717E+04  0.15969633717E+04  0.50400001928E-02 0. -1.
    10030    2    1    2    0    0  0.00000000000E+00  0.00000000000E+00 -0.44477173842E+03  0.27491550050E+04  0.27129377697E+04 0.  0.
        4    1    3    3  502    0  0.89887211006E+03 -0.33412388512E+03  0.74979449873E+03  0.12172934092E+04  0.12699999809E+01 0.  1.
       -4    1    3    3    0  502 -0.89887211006E+03  0.33412388512E+03 -0.11945662372E+04  0.15318615958E+04  0.12699999809E+01 0. -1.
</event>
<event>
 5   0  0.3013407E-06  0.2723891E+04  0.7818609E-02  0.8327295E-01
       -1   -1    0    0    0  501  0.00000000000E+00  0.00000000000E+00  0.11956058442E+04  0.11956058442E+04  0.50400001928E-02 0. -1.
        1   -1    0    0  501    0  0.00000000000E+00  0.00000000000E+00 -0.15514274742E+04  0.15514274742E+04  0.50400001928E-02 0.  1.
    10030    2    1    2    0    0  0.00000000000E+00  0.00000000000E+00 -0.35582163003E+03  0.27470333184E+04  0.27238911542E+04 0.  0.
        4    1    3    3  502    0  0.66763509814E+03  0.22317037035E+03 -0.13537291373E+04  0.15258197235E+04  0.12699999809E+01 0. -1.
       -4    1    3    3    0  502 -0.66763509814E+03 -0.22317037035E+03  0.99790750728E+03  0.12212135949E+04  0.12699999809E+01 0.  1.
</event>
<event>
 5   0  0.3028601E-06  0.2634961E+04  0.7818609E-02  0.8356422E-01
        1   -1    0    0  501    0  0.00000000000E+00  0.00000000000E+00  0.12997034894E+04  0.12997034894E+04  0.50400001928E-02 0.  1.
       -1   -1    0    0    0  501  0.00000000000E+00  0.00000000000E+00 -0.13355004910E+04  0.13355004910E+04  0.50400001928E-02 0. -1.
    10030    2    1    2    0    0  0.00000000000E+00  0.00000000000E+00 -0.35797001593E+02  0.26352039804E+04  0.26349608333E+04 0.  0.
        3    1    3    3  502    0 -0.44720093550E+03  0.12014948531E+03 -0.12514344119E+04  0.13343585249E+04  0.10100000352E+00 0. -1.
       -3    1    3    3    0  502  0.44720093550E+03 -0.12014948531E+03  0.12156374103E+04  0.13008454555E+04  0.10100000352E+00 0.  1.
</event>
<event>
 5   0  0.7838364E-06  0.2679712E+04  0.7818609E-02  0.8341618E-01
       -2   -1    0    0    0  501  0.00000000000E+00  0.00000000000E+00  0.77075823364E+03  0.77075823364E+03  0.25500000920E-02 0.  1.
        2   -1    0    0  501    0  0.00000000000E+00  0.00000000000E+00 -0.23291540641E+04  0.23291540641E+04  0.25500000920E-02 0. -1.
    10030    2    1    2    0    0  0.00000000000E+00  0.00000000000E+00 -0.15583958305E+04  0.30999122978E+04  0.26797124266E+04 0.  0.
        2    1    3    3  502    0 -0.80883645883E+03  0.76429572548E+03 -0.16424357078E+04  0.19839252575E+04  0.25500000920E-02 0. -1.
       -2    1    3    3    0  502  0.80883645883E+03 -0.76429572548E+03  0.84039877271E+02  0.11159870403E+04  0.25500000920E-02 0.  1.
</event>
<event>
 5   0  0.3089218E-06  0.2725055E+04  0.7818609E-02  0.8326921E-01
        1   -1    0    0  501    0  0.00000000000E+00  0.00000000000E+00  0.20267980886E+04  0.20267980886E+04  0.50400001928E-02 0. -1.
       -1   -1    0    0    0  501  0.00000000000E+00  0.00000000000E+00 -0.91596761540E+03  0.91596761541E+03  0.50400001928E-02 0.  1.
    10030    2    1    2    0    0  0.00000000000E+00  0.00000000000E+00  0.11108304732E+04  0.29427657040E+04  0.27250551643E+04 0.  0.
        5    1    3    3  502    0 -0.99019065017E+02  0.10992729785E+04  0.14181493653E+04  0.17970463458E+04  0.46999998093E+01 0. -1.
       -5    1    3    3    0  502  0.99019065017E+02 -0.10992729785E+04 -0.30731889212E+03  0.11457193583E+04  0.46999998093E+01 0.  1.
</event>
<event>
 5   0  0.8407622E-06  0.2717270E+04  0.7818609E-02  0.8329423E-01
       -2   -1    0    0    0  501  0.00000000000E+00  0.00000000000E+00  0.13582568163E+04  0.13582568163E+04  0.25500000920E-02 0. -1.
        2   -1    0    0  501    0  0.00000000000E+00  0.00000000000E+00 -0.13590135855E+04  0.13590135855E+04  0.25500000920E-02 0.  1.
    10030    2    1    2    0    0  0.00000000000E+00  0.00000000000E+00 -0.75676924588E+00  0.27172704018E+04  0.27172702964E+04 0.  0.
        1    1    3    3  502    0  0.12336939623E+04  0.51302629085E+03  0.24598050588E+03  0.13585665891E+04  0.50400001928E-02 0. -1.
       -1    1    3    3    0  502 -0.12336939623E+04 -0.51302629085E+03 -0.24673727513E+03  0.13587038127E+04  0.50400001928E-02 0.  1.
</event>
<event>
 5   0  0.3028601E-06  0.2694643E+04  0.7818609E-02  0.8336745E-01
        1   -1    0    0  501    0  0.00000000000E+00  0.00000000000E+00  0.15065258218E+04  0.15065258218E+04  0.50400001928E-02 0. -1.
       -1   -1    0    0    0  501  0.00000000000E+00  0.00000000000E+00 -0.12049408885E+04  0.12049408886E+04  0.50400001928E-02 0.  1.
    10030    2    1    2    0    0  0.00000000000E+00  0.00000000000E+00  0.30158493325E+03  0.27114667104E+04  0.26946425087E+04 0.  0.
        3    1    3    3  502    0  0.26448352665E+03 -0.12601839750E+04 -0.24824289128E+03  0.13113503460E+04  0.10100000352E+00 0.  1.
       -3    1    3    3    0  502 -0.26448352665E+03  0.12601839750E+04  0.54982782452E+03  0.14001163643E+04  0.10100000352E+00 0. -1.
</event>
<event>
 5   0  0.8407622E-06  0.2707887E+04  0.7818609E-02  0.8332450E-01
       -2   -1    0    0    0  501  0.00000000000E+00  0.00000000000E+00  0.12509228113E+04  0.12509228113E+04  0.25500000920E-02 0.  1.
        2   -1    0    0  501    0  0.00000000000E+00  0.00000000000E+00 -0.14654487032E+04  0.14654487032E+04  0.25500000920E-02 0. -1.
    10030    2    1    2    0    0  0.00000000000E+00  0.00000000000E+00 -0.21452589191E+03  0.27163715144E+04  0.27078871554E+04 0.  0.
        1    1    3    3  502    0 -0.43371807953E+03  0.11907245649E+04 -0.58543966625E+03  0.13959498432E+04  0.50400001928E-02 0. -1.
       -1    1    3    3    0  502  0.43371807953E+03 -0.11907245649E+04  0.37091377434E+03  0.13204216712E+04  0.50400001928E-02 0.  1.
</event>
<event>
 5   0  0.3199840E-06  0.2671506E+04  0.7818609E-02  0.8344310E-01
        1   -1    0    0  501    0  0.00000000000E+00  0.00000000000E+00  0.28313478968E+04  0.28313478968E+04  0.50400001928E-02 0.  1.
       -1   -1    0    0    0  501  0.00000000000E+00  0.00000000000E+00 -0.63017174516E+03  0.63017174518E+03  0.50400001928E-02 0. -1.
    10030    2    1    2    0    0  0.00000000000E+00  0.00000000000E+00  0.22011761517E+04  0.34615196420E+04  0.26715055271E+04 0.  0.
        1    1    3    3  502    0  0.87590413792E+03 -0.89053590618E+03  0.48737876921E+03  0.13408207650E+04  0.50400001928E-02 0. -1.
       -1    1    3    3    0  502 -0.87590413792E+03  0.89053590618E+03  0.17137973825E+04  0.21206988771E+04  0.50400001928E-02 0.  1.
</event>
<event>
 5   0  0.7812908E-06  0.2761477E+04  0.7818609E-02  0.8315329E-01
       -2   -1    0    0    0  501  0.00000000000E+00  0.00000000000E+00  0.11330307130E+04  0.11330307130E+04  0.25500000920E-02 0. -1.
        2   -1    0    0  501    0  0.00000000000E+00  0.00000000000E+00 -0.16826012757E+04  0.16826012757E+04  0.25500000920E-02 0.  1.
    10030    2    1    2    0    0  0.00000000000E+00  0.00000000000E+00 -0.54957056274E+03  0.28156319887E+04  0.27614770852E+04 0.  0.
        5    1    3    3  502    0  0.57489054101E+03 -0.10934141597E+04  0.35404533497E+03  0.12850773704E+04  0.46999998093E+01 0. -1.
       -5    1    3    3    0  502 -0.57489054101E+03  0.10934141597E+04 -0.90361589771E+03  0.15305546182E+04  0.46999998093E+01 0.  1.
</event>
<event>
 5   0  0.3046300E-06  0.2388363E+04  0.7818609E-02  0.8443873E-01
        1   -1    0    0  501    0  0.00000000000E+00  0.00000000000E+00  0.12281619778E+04  0.12281619779E+04  0.50400001928E-02 0. -1.
       -1   -1    0    0    0  501  0.00000000000E+00  0.00000000000E+00 -0.11611413940E+04  0.11611413940E+04  0.50400001928E-02 0.  1.
    10030    2    1    2    0    0  0.00000000000E+00  0.00000000000E+00  0.67020583845E+02  0.23893033719E+04  0.23883632145E+04 0.  0.
        2    1    3    3  502    0 -0.30488270903E+03 -0.30251863067E+03  0.11482194034E+04  0.12259195678E+04  0.25500000920E-02 0. -1.
       -2    1    3    3    0  502  0.30488270903E+03  0.30251863067E+03 -0.10811988196E+04  0.11633838041E+04  0.25500000920E-02 0.  1.
</event>
<event>
 5   0  0.8213334E-06  0.2655516E+04  0.7818609E-02  0.8349584E-01
        2   -1    0    0  501    0  0.00000000000E+00  0.00000000000E+00  0.14392033001E+04  0.14392033001E+04  0.25500000920E-02 0. -1.
       -2   -1    0    0    0  501  0.00000000000E+00  0.00000000000E+00 -0.12249426856E+04  0.12249426856E+04  0.25500000920E-02 0.  1.
    10030    2    1    2    0    0  0.00000000000E+00  0.00000000000E+00  0.21426061450E+03  0.26641459858E+04  0.26555161876E+04 0.  0.
        3    1    3    3  502    0 -0.26781655017E+03 -0.77539123709E+03  0.11545462526E+04  0.14163101125E+04  0.10100000352E+00 0. -1.
       -3    1    3    3    0  502  0.26781655017E+03  0.77539123709E+03 -0.94028563814E+03  0.12478358733E+04  0.10100000352E+00 0.  1.
</event>
<event>
 5   0  0.7838364E-06  0.2702224E+04  0.7818609E-02  0.8334284E-01
       -2   -1    0    0    0  501  0.00000000000E+00  0.00000000000E+00  0.11906571163E+04  0.11906571163E+04  0.25500000920E-02 0. -1.
        2   -1    0    0  501    0  0.00000000000E+00  0.00000000000E+00 -0.15331901260E+04  0.15331901261E+04  0.25500000920E-02 0.  1.
    10030    2    1    2    0    0  0.00000000000E+00  0.00000000000E+00 -0.34253300977E+03  0.27238472423E+04  0.27022240723E+04 0.  0.
        2    1    3    3  502    0 -0.67217933740E+02 -0.35550089625E+03  0.11409200379E+04  0.11969117222E+04  0.25500000920E-02 0. -1.
       -2    1    3    3    0  502  0.67217933740E+02  0.35550089625E+03 -0.14834530477E+04  0.15269355201E+04  0.25500000920E-02 0.  1.
</event>
<event>
 5   0  0.3046300E-06  0.2744246E+04  0.7818609E-02  0.8320790E-01
       -1   -1    0    0    0  501  0.00000000000E+00  0.00000000000E+00  0.11105398677E+04  0.11105398677E+04  0.50400001928E-02 0. -1.
        1   -1    0    0  501    0  0.00000000000E+00  0.00000000000E+00 -0.16953205471E+04  0.16953205471E+04  0.50400001928E-02 0.  1.
    10030    2    1    2    0    0  0.00000000000E+00  0.00000000000E+00 -0.58478067943E+03  0.28058604148E+04  0.27442456567E+04 0.  0.
        2    1    3    3  502    0  0.36116795244E+03  0.10326904434E+04 -0.11391322712E+04  0.15794031065E+04  0.25500000920E-02 0.  1.
       -2    1    3    3    0  502 -0.36116795244E+03 -0.10326904434E+04  0.55435159172E+03  0.12264573083E+04  0.25500000920E-02 0. -1.
</event>
<event>
 5   0  0.7812908E-06  0.2709657E+04  0.7818609E-02  0.8331878E-01
        2   -1    0    0  501    0  0.00000000000E+00  0.00000000000E+00  0.30612129632E+04  0.30612129632E+04  0.25500000920E-02 0.  1.
       -2   -1    0    0    0  501  0.00000000000E+00  0.00000000000E+00 -0.59961866599E+03  0.59961866599E+03  0.25500000920E-02 0. -1.
    10030    2    1    2    0    0  0.00000000000E+00  0.00000000000E+00  0.24615942972E+04  0.36608316292E+04  0.27096571246E+04 0.  0.
        5    1    3    3  502    0  0.14768770949E+03 -0.65498603115E+03  0.28206114350E+04  0.28994291365E+04  0.46999998093E+01 0.  1.
       -5    1    3    3    0  502 -0.14768770949E+03  0.65498603115E+03 -0.35901713781E+03  0.76140249263E+03  0.46999998093E+01 0. -1.
</event>
<event>
 5   0  0.7812908E-06  0.2708431E+04  0.7818609E-02  0.8332274E-01
        2   -1    0    0  501    0  0.00000000000E+00  0.00000000000E+00  0.15342376083E+04  0.15342376083E+04  0.25500000920E-02 0. -1.
       -2   -1    0    0    0  501  0.00000000000E+00  0.00000000000E+00 -0.11953168598E+04  0.11953168598E+04  0.25500000920E-02 0.  1.
    10030    2    1    2    0    0  0.00000000000E+00  0.00000000000E+00  0.33892074848E+03  0.27295544681E+04  0.27084313395E+04 0.  0.
        5    1    3    3  502    0 -0.59450408074E+03 -0.11190036365E+04 -0.31204586713E+03  0.13049900206E+04  0.46999998093E+01 0. -1.
       -5    1    3    3    0  502  0.59450408074E+03  0.11190036365E+04  0.65096661561E+03  0.14245644475E+04  0.46999998093E+01 0.  1.
</event>
<event>
 5   0  0.8213334E-06  0.2715349E+04  0.7818609E-02  0.8330042E-01
        2   -1    0    0  501    0  0.00000000000E+00  0.00000000000E+00  0.22647805300E+04  0.22647805300E+04  0.25500000920E-02 0. -1.
       -2   -1    0    0    0  501  0.00000000000E+00  0.00000000000E+00 -0.81388923311E+03  0.81388923311E+03  0.25500000920E-02 0.  1.
    10030    2    1    2    0    0  0.00000000000E+00  0.00000000000E+00  0.14508912969E+04  0.30786697631E+04  0.27153493246E+04 0.  0.
        3    1    3    3  502    0 -0.11643435377E+04  0.68176921868E+03  0.55433784945E+03  0.14586965424E+04  0.10100000352E+00 0. -1.
       -3    1    3    3    0  502  0.11643435377E+04 -0.68176921868E+03  0.89655344742E+03  0.16199732207E+04  0.10100000352E+00 0.  1.
</event>
<event>
 5   0  0.8407622E-06  0.2703691E+04  0.7818609E-02  0.8333808E-01
       -2   -1    0    0    0  501  0.00000000000E+00  0.00000000000E+00  0.13072913447E+04  0.13072913447E+04  0.25500000920E-02 0. -1.
        2   -1    0    0  501    0  0.00000000000E+00  0.00000000000E+00 -0.13979179793E+04  0.13979179793E+04  0.25500000920E-02 0.  1.
    10030    2    1    2    0    0  0.00000000000E+00  0.00000000000E+00 -0.90626634655E+02  0.27052093240E+04  0.27036908661E+04 0.  0.
        1    1    3    3  502    0 -0.29630164429E+03 -0.67023259598E+03 -0.11819441341E+04  0.13906826861E+04  0.50400001928E-02 0.  1.
       -1    1    3    3    0  502  0.29630164429E+03  0.67023259598E+03  0.10913174995E+04  0.13145266379E+04  0.50400001928E-02 0. -1.
</event>
<event>
 5   0  0.3089218E-06  0.2667074E+04  0.7818609E-02  0.8345768E-01
        1   -1    0    0  501    0  0.00000000000E+00  0.00000000000E+00  0.20672406958E+04  0.20672406958E+04  0.50400001928E-02 0. -1.
       -1   -1    0    0    0  501  0.00000000000E+00  0.00000000000E+00 -0.86023885413E+03  0.86023885414E+03  0.50400001928E-02 0.  1.
    10030    2    1    2    0    0  0.00000000000E+00  0.00000000000E+00  0.12070018416E+04  0.29274795499E+04  0.26670738778E+04 0.  0.
        5    1    3    3  502    0  0.20659877377E+03  0.10315922350E+04 -0.29591421699E+03  0.10929102920E+04  0.46999998093E+01 0.  1.
       -5    1    3    3    0  502 -0.20659877377E+03 -0.10315922350E+04  0.15029160586E+04  0.18345692579E+04  0.46999998093E+01 0. -1.
</event>
<event>
 5   0  0.3199840E-06  0.2752584E+04  0.7818609E-02  0.8318142E-01
        1   -1    0    0  501    0  0.00000000000E+00  0.00000000000E+00  0.17937540677E+04  0.17937540677E+04  0.50400001928E-02 0. -1.
       -1   -1    0    0    0  501  0.00000000000E+00  0.00000000000E+00 -0.10559862228E+04  0.10559862229E+04  0.50400001928E-02 0.  1.
    10030    2    1    2    0    0  0.00000000000E+00  0.00000000000E+00  0.73776784485E+03  0.28497402905E+04  0.27525839371E+04 0.  0.
        1    1    3    3  502    0  0.13141248381E+04 -0.32016497211E+03  0.63232543159E+03  0.14930723864E+04  0.50400001928E-02 0. -1.
       -1    1    3    3    0  502 -0.13141248381E+04  0.32016497211E+03  0.10544241325E+03  0.13566679041E+04  0.50400001928E-02 0.  1.
</event>
<event>
 5   0  0.7838364E-06  0.2703834E+04  0.7818609E-02  0.8333762E-01
       -2   -1    0    0    0  501  0.00000000000E+00  0.00000000000E+00  0.31225309026E+04  0.31225309027E+04  0.25500000920E-02 0. -1.
        2   -1    0    0  501    0  0.00000000000E+00  0.00000000000E+00 -0.58532014270E+03  0.58532014271E+03  0.25500000920E-02 0.  1.
    10030    2    1    2    0    0  0.00000000000E+00  0.00000000000E+00  0.25372107600E+04  0.37078510454E+04  0.27038344872E+04 0.  0.
        2    1    3    3  502    0  0.56079247372E+02 -0.20882079282E+02  0.31207138296E+04  0.31212875147E+04  0.25500000920E-02 0. -1.
       -2    1    3    3    0  502 -0.56079247372E+02  0.20882079282E+02 -0.58350306964E+03  0.58656353066E+03  0.25500000920E-02 0.  1.
</event>
<event>
 5   0  0.3046300E-06  0.2703389E+04  0.7818609E-02  0.8333906E-01
        1   -1    0    0  501    0  0.00000000000E+00  0.00000000000E+00  0.22804450714E+04  0.22804450714E+04  0.50400001928E-02 0.  1.
       -1   -1    0    0    0  501  0.00000000000E+00  0.00000000000E+00 -0.80119383561E+03  0.80119383563E+03  0.50400001928E-02 0. -1.
    10030    2    1    2    0    0  0.00000000000E+00  0.00000000000E+00  0.14792512358E+04  0.30816389071E+04  0.27033893791E+04 0.  0.
        2    1    3    3  502    0 -0.11616989065E+04 -0.46705440444E+03  0.15905718783E+03  0.12621344442E+04  0.25500000920E-02 0. -1.
       -2    1    3    3    0  502  0.11616989065E+04  0.46705440444E+03  0.13201940480E+04  0.18195044629E+04  0.25500000920E-02 0.  1.
</event>
<event>
 5   0  0.8407622E-06  0.2726836E+04  0.7818609E-02  0.8326350E-01
        2   -1    0    0  501    0  0.00000000000E+00  0.00000000000E+00  0.21536259086E+04  0.21536259086E+04  0.25500000920E-02 0. -1.
       -2   -1    0    0    0  501  0.00000000000E+00  0.00000000000E+00 -0.86315328504E+03  0.86315328505E+03  0.25500000920E-02 0.  1.
    10030    2    1    2    0    0  0.00000000000E+00  0.00000000000E+00  0.12904726235E+04  0.30167791936E+04  0.27268364657E+04 0.  0.
        1    1    3    3  502    0 -0.55096833449E+03 -0.17127908172E+03  0.20119031100E+04  0.20930018523E+04  0.50400001928E-02 0. -1.
       -1    1    3    3    0  502  0.55096833449E+03  0.17127908172E+03 -0.72143048652E+03  0.92377734133E+03  0.50400001928E-02 0.  1.
</event>
<event>
 5   0  0.7812908E-06  0.2608217E+04  0.7818609E-02  0.8365415E-01
       -2   -1    0    0    0  501  0.00000000000E+00  0.00000000000E+00  0.10588126473E+04  0.10588126473E+04  0.25500000920E-02 0. -1.
        2   -1    0    0  501    0  0.00000000000E+00  0.00000000000E+00 -0.16062320321E+04  0.16062320321E+04  0.25500000920E-02 0.  1.
    10030    2    1    2    0    0  0.00000000000E+00  0.00000000000E+00 -0.54741938481E+03  0.26650446793E+04  0.26082168545E+04 0.  0.
        5    1    3    3  502    0  0.83647222484E+02 -0.12671249206E+04  0.29529507985E+02  0.12702348224E+04  0.46999998093E+01 0. -1.
       -5    1    3    3    0  502 -0.83647222484E+02  0.12671249206E+04 -0.57694889280E+03  0.13948098570E+04  0.46999998093E+01 0.  1.
</event>
<event>
 5   0  0.3089218E-06  0.2689454E+04  0.7818609E-02  0.8338435E-01
        1   -1    0    0  501    0  0.00000000000E+00  0.00000000000E+00  0.11579614649E+04  0.11579614650E+04  0.50400001928E-02 0.  1.
       -1   -1    0    0    0  501  0.00000000000E+00  0.00000000000E+00 -0.15616154472E+04  0.15616154472E+04  0.50400001928E-02 0. -1.
    10030    2    1    2    0    0  0.00000000000E+00  0.00000000000E+00 -0.40365398224E+03  0.27195769122E+04  0.26894538560E+04 0.  0.
        5    1    3    3  502    0  0.90799220720E+03 -0.58696081331E+03 -0.10103420214E+04  0.14797925311E+04  0.46999998093E+01 0. -1.
       -5    1    3    3    0  502 -0.90799220720E+03  0.58696081331E+03  0.60668803921E+03  0.12397843811E+04  0.46999998093E+01 0.  1.
</event>
<event>
 5   0  0.3089218E-06  0.2649152E+04  0.7818609E-02  0.8351694E-01
       -1   -1    0    0    0  501  0.00000000000E+00  0.00000000000E+00  0.81870891676E+03  0.81870891677E+03  0.50400001928E-02 0. -1.
        1   -1    0    0  501    0  0.00000000000E+00  0.00000000000E+00 -0.21430106684E+04  0.21430106684E+04  0.50400001928E-02 0.  1.
    10030    2    1    2    0    0  0.00000000000E+00  0.00000000000E+00 -0.13243017516E+04  0.29617195851E+04  0.26491522742E+04 0.  0.
        5    1    3    3  502    0  0.94365215568E+03  0.52493723246E+03  0.19545670554E+03  0.10973895856E+04  0.46999998093E+01 0. -1.
       -5    1    3    3    0  502 -0.94365215568E+03 -0.52493723246E+03 -0.15197584571E+04  0.18643299995E+04  0.46999998093E+01 0.  1.
</event>
<event>
 5   0  0.8407622E-06  0.2686938E+04  0.7818609E-02  0.8339255E-01
        2   -1    0    0  501    0  0.00000000000E+00  0.00000000000E+00  0.14585858839E+04  0.14585858839E+04  0.25500000920E-02 0. -1.
       -2   -1    0    0    0  501  0.00000000000E+00  0.00000000000E+00 -0.12374378534E+04  0.12374378534E+04  0.25500000920E-02 0.  1.
    10030    2    1    2    0    0  0.00000000000E+00  0.00000000000E+00  0.22114803043E+03  0.26960237373E+04  0.26869383210E+04 0.  0.
        1    1    3    3  502    0  0.54689451693E+03 -0.10005356139E+04 -0.60228181826E+03  0.12895381018E+04  0.50400001928E-02 0.  1.
       -1    1    3    3    0  502 -0.54689451693E+03  0.10005356139E+04  0.82342984868E+03  0.14064856355E+04  0.50400001928E-02 0. -1.
</event>
<event>
 5   0  0.7729970E-06  0.2724096E+04  0.7818609E-02  0.8327229E-01
        2   -1    0    0  501    0  0.00000000000E+00  0.00000000000E+00  0.11769225039E+04  0.11769225039E+04  0.25500000920E-02 0. -1.
       -2   -1    0    0    0  501  0.00000000000E+00  0.00000000000E+00 -0.15762926308E+04  0.15762926308E+04  0.25500000920E-02 0.  1.
    10030    2    1    2    0    0  0.00000000000E+00  0.00000000000E+00 -0.39937012689E+03  0.27532151348E+04  0.27240956444E+04 0.  0.
        4    1    3    3  502    0 -0.11893044811E+04 -0.14338799293E+03 -0.85481729847E+03  0.14716383699E+04  0.12699999809E+01 0.  1.
       -4    1    3    3    0  502  0.11893044811E+04  0.14338799293E+03  0.45544717158E+03  0.12815767648E+04  0.12699999809E+01 0. -1.
</event>
<event>
 5   0  0.3046300E-06  0.2368625E+04  0.7818609E-02  0.8451344E-01
        1   -1    0    0  501    0  0.00000000000E+00  0.00000000000E+00  0.81540986287E+03  0.81540986289E+03  0.50400001928E-02 0.  1.
       -1   -1    0    0    0  501  0.00000000000E+00  0.00000000000E+00 -0.17201112084E+04  0.17201112084E+04  0.50400001928E-02 0. -1.
    10030    2    1    2    0    0  0.00000000000E+00  0.00000000000E+00 -0.90470134551E+03  0.25355210713E+04  0.23686246174E+04 0.  0.
        2    1    3    3  502    0  0.90306733273E+03  0.69898495752E+03 -0.78828638612E+03  0.13876260321E+04  0.25500000920E-02 0. -1.
       -2    1    3    3    0  502 -0.90306733273E+03 -0.69898495752E+03 -0.11641495938E+03  0.11478950392E+04  0.25500000920E-02 0.  1.
</event>
<event>
 5   0  0.3013407E-06  0.2712452E+04  0.7818609E-02  0.8330976E-01
       -1   -1    0    0    0  501  0.00000000000E+00  0.00000000000E+00  0.10148633523E+04  0.10148633523E+04  0.50400001928E-02 0.  1.
        1   -1    0    0  501    0  0.00000000000E+00  0.00000000000E+00 -0.18124100082E+04  0.18124100082E+04  0.50400001928E-02 0. -1.
    10030    2    1    2    0    0  0.00000000000E+00  0.00000000000E+00 -0.79754665585E+03  0.28272733605E+04  0.27124516561E+04 0.  0.
        4    1    3    3  502    0 -0.50875688903E+03  0.89777884281E+03 -0.13160879519E+04  0.16724023238E+04  0.12699999809E+01 0. -1.
       -4    1    3    3    0  502  0.50875688903E+03 -0.89777884281E+03  0.51854129605E+03  0.11548710367E+04  0.12699999809E+01 0.  1.
</event>
<event>
 5   0  0.7812908E-06  0.2686295E+04  0.7818609E-02  0.8339466E-01
       -2   -1    0    0    0  501  0.00000000000E+00  0.00000000000E+00  0.11184323406E+04  0.11184323406E+04  0.25500000920E-02 0.  1.
        2   -1    0    0  501    0  0.00000000000E+00  0.00000000000E+00 -0.16130121686E+04  0.16130121686E+04  0.25500000920E-02 0. -1.
    10030    2    1    2    0    0  0.00000000000E+00  0.00000000000E+00 -0.49457982808E+03  0.27314445092E+04  0.26862948275E+04 0.  0.
        5    1    3    3  502    0 -0.51203353997E+03 -0.11408030522E+04  0.25127030393E+03  0.12754484723E+04  0.46999998093E+01 0. -1.
       -5    1    3    3    0  502  0.51203353997E+03  0.11408030522E+04 -0.74585013201E+03  0.14559960369E+04  0.46999998093E+01 0.  1.
</event>
<event>
 5   0  0.3199840E-06  0.2696674E+04  0.7818609E-02  0.8336085E-01
       -1   -1    0    0    0  501  0.00000000000E+00  0.00000000000E+00  0.10609402100E+04  0.10609402100E+04  0.50400001928E-02 0.  1.
        1   -1    0    0  501    0  0.00000000000E+00  0.00000000000E+00 -0.17135868739E+04  0.17135868739E+04  0.50400001928E-02 0. -1.
    10030    2    1    2    0    0  0.00000000000E+00  0.00000000000E+00 -0.65264666384E+03  0.27745270839E+04  0.26966744096E+04 0.  0.
        1    1    3    3  502    0  0.52174311185E+03 -0.76189505572E+03 -0.13371916660E+04  0.16250481538E+04  0.50400001928E-02 0. -1.
       -1    1    3    3    0  502 -0.52174311185E+03  0.76189505572E+03  0.68454500212E+03  0.11494789301E+04  0.50400001928E-02 0.  1.
</event>
<event>
 5   0  0.7812908E-06  0.2696892E+04  0.7818609E-02  0.8336014E-01
        2   -1    0    0  501    0  0.00000000000E+00  0.00000000000E+00  0.13195901357E+04  0.13195901357E+04  0.25500000920E-02 0. -1.
       -2   -1    0    0    0  501  0.00000000000E+00  0.00000000000E+00 -0.13779331324E+04  0.13779331324E+04  0.25500000920E-02 0.  1.
    10030    2    1    2    0    0  0.00000000000E+00  0.00000000000E+00 -0.58342996791E+02  0.26975232681E+04  0.26968922627E+04 0.  0.
        5    1    3    3  502    0 -0.10820540314E+04  0.46055830127E+03 -0.68912129953E+03  0.13630352641E+04  0.46999998093E+01 0.  1.
       -5    1    3    3    0  502  0.10820540314E+04 -0.46055830127E+03  0.63077830274E+03  0.13344880040E+04  0.46999998093E+01 0. -1.
</event>
<event>
 5   0  0.3046300E-06  0.2724865E+04  0.7818609E-02  0.8326982E-01
        1   -1    0    0  501    0  0.00000000000E+00  0.00000000000E+00  0.17116536135E+04  0.17116536135E+04  0.50400001928E-02 0.  1.
       -1   -1    0    0    0  501  0.00000000000E+00  0.00000000000E+00 -0.10844616916E+04  0.10844616916E+04  0.50400001928E-02 0. -1.
    10030    2    1    2    0    0  0.00000000000E+00  0.00000000000E+00  0.62719192183E+03  0.27961153051E+04  0.27248653348E+04 0.  0.
        2    1    3    3  502    0  0.56044398189E+03 -0.22409283146E+03 -0.93977899676E+03  0.11169152236E+04  0.25500000920E-02 0. -1.
       -2    1    3    3    0  502 -0.56044398189E+03  0.22409283146E+03  0.15669709186E+04  0.16792000815E+04  0.25500000920E-02 0.  1.
</event>
<event>
 5   0  0.8407622E-06  0.2717997E+04  0.7818609E-02  0.8329189E-01
       -2   -1    0    0    0  501  0.00000000000E+00  0.00000000000E+00  0.11282752106E+04  0.11282752106E+04  0.25500000920E-02 0. -1.
        2   -1    0    0  501    0  0.00000000000E+00  0.00000000000E+00 -0.16369022843E+04  0.16369022843E+04  0.25500000920E-02 0.  1.
    10030    2    1    2    0    0  0.00000000000E+00  0.00000000000E+00 -0.50862707367E+03  0.27651774950E+04  0.27179965192E+04 0.  0.
        1    1    3    3  502    0 -0.82341318238E+03 -0.16544460302E+02  0.84546644389E+03  0.11802950885E+04  0.50400001928E-02 0. -1.
       -1    1    3    3    0  502  0.82341318238E+03  0.16544460302E+02 -0.13540935176E+04  0.15848824065E+04  0.50400001928E-02 0.  1.
</event>
<event>
 5   0  0.7838364E-06  0.2698654E+04  0.7818609E-02  0.8335442E-01
       -2   -1    0    0    0  501  0.00000000000E+00  0.00000000000E+00  0.11110608363E+04  0.11110608363E+04  0.25500000920E-02 0.  1.
        2   -1    0    0  501    0  0.00000000000E+00  0.00000000000E+00 -0.16386891403E+04  0.16386891404E+04  0.25500000920E-02 0. -1.
    10030    2    1    2    0    0  0.00000000000E+00  0.00000000000E+00 -0.52762830401E+03  0.27497499767E+04  0.26986539806E+04 0.  0.
        2    1    3    3  502    0 -0.21399804708E+03  0.11449467781E+03 -0.16162657598E+04  0.16343864909E+04  0.25500000920E-02 0. -1.
       -2    1    3    3    0  502  0.21399804708E+03 -0.11449467781E+03  0.10886374558E+04  0.11153634858E+04  0.25500000920E-02 0.  1.
</event>
<event>
 5   0  0.2654625E-06  0.2701585E+04  0.7818609E-02  0.8334491E-01
       -3   -1    0    0    0  501  0.00000000000E+00  0.00000000000E+00  0.10246560166E+04  0.10246560216E+04  0.10100000352E+00 0.  1.
        3   -1    0    0  501    0  0.00000000000E+00  0.00000000000E+00 -0.17807340807E+04  0.17807340836E+04  0.10100000352E+00 0. -1.
    10030    2    1    2    0    0  0.00000000000E+00  0.00000000000E+00 -0.75607806415E+03  0.28053901052E+04  0.27015846467E+04 0.  0.
        3    1    3    3  502    0 -0.36509855043E+03 -0.71125654986E+03  0.75258339258E+03  0.10979820601E+04  0.10100000352E+00 0.  1.
       -3    1    3    3    0  502  0.36509855043E+03  0.71125654986E+03 -0.15086614567E+04  0.17074080451E+04  0.10100000352E+00 0. -1.
</event>
<event>
 5   0  0.3013407E-06  0.2722874E+04  0.7818609E-02  0.8327621E-01
       -1   -1    0    0    0  501  0.00000000000E+00  0.00000000000E+00  0.88501982272E+03  0.88501982274E+03  0.50400001928E-02 0. -1.
        1   -1    0    0  501    0  0.00000000000E+00  0.00000000000E+00 -0.20943151846E+04  0.20943151846E+04  0.50400001928E-02 0.  1.
    10030    2    1    2    0    0  0.00000000000E+00  0.00000000000E+00 -0.12092953619E+04  0.29793350074E+04  0.27228738153E+04 0.  0.
        4    1    3    3  502    0  0.11039104960E+04  0.77916532116E+03 -0.78705851455E+03  0.15637070375E+04  0.12699999809E+01 0. -1.
       -4    1    3    3    0  502 -0.11039104960E+04 -0.77916532116E+03 -0.42223684734E+03  0.14156279699E+04  0.12699999809E+01 0.  1.
</event>
<event>
 5   0  0.7729970E-06  0.2716639E+04  0.7818609E-02  0.8329626E-01
        2   -1    0    0  501    0  0.00000000000E+00  0.00000000000E+00  0.18808117219E+04  0.18808117219E+04  0.25500000920E-02 0. -1.
       -2   -1    0    0    0  501  0.00000000000E+00  0.00000000000E+00 -0.98097630783E+03  0.98097630784E+03  0.25500000920E-02 0.  1.
    10030    2    1    2    0    0  0.00000000000E+00  0.00000000000E+00  0.89983541408E+03  0.28617880297E+04  0.27166389077E+04 0.  0.
        4    1    3    3  502    0 -0.76729890784E+03 -0.42636856331E+01  0.16306353731E+04  0.18021484750E+04  0.12699999809E+01 0. -1.
       -4    1    3    3    0  502  0.76729890784E+03  0.42636856331E+01 -0.73079995903E+03  0.10596395548E+04  0.12699999809E+01 0.  1.
</event>
<event>
 5   0  0.7812908E-06  0.2698291E+04  0.7818609E-02  0.8335560E-01
        2   -1    0    0  501    0  0.00000000000E+00  0.00000000000E+00  0.20009008755E+04  0.20009008755E+04  0.25500000920E-02 0. -1.
       -2   -1    0    0    0  501  0.00000000000E+00  0.00000000000E+00 -0.90968708519E+03  0.90968708519E+03  0.25500000920E-02 0.  1.
    10030    2    1    2    0    0  0.00000000000E+00  0.00000000000E+00  0.10912137903E+04  0.29105879607E+04  0.26982910779E+04 0.  0.
        5    1    3    3  502    0  0.18508075835E+03  0.13289756527E+04  0.39405193512E+03  0.13984742365E+04  0.46999998093E+01 0.  1.
       -5    1    3    3    0  502 -0.18508075835E+03 -0.13289756527E+04  0.69716185521E+03  0.15121137242E+04  0.46999998093E+01 0. -1.
</event>
<event>
 5   0  0.3199840E-06  0.2682860E+04  0.7818609E-02  0.8340588E-01
       -1   -1    0    0    0  501  0.00000000000E+00  0.00000000000E+00  0.85820338218E+03  0.85820338219E+03  0.50400001928E-02 0.  1.
        1   -1    0    0  501    0  0.00000000000E+00  0.00000000000E+00 -0.20967451453E+04  0.20967451453E+04  0.50400001928E-02 0. -1.
    10030    2    1    2    0    0  0.00000000000E+00  0.00000000000E+00 -0.12385417631E+04  0.29549485275E+04  0.26828595008E+04 0.  0.
        1    1    3    3  502    0  0.79844288622E+03 -0.32455082990E+03 -0.17514239141E+04  0.19520066625E+04  0.50400001928E-02 0. -1.
       -1    1    3    3    0  502 -0.79844288622E+03  0.32455082990E+03  0.51288215094E+03  0.10029418650E+04  0.50400001928E-02 0.  1.
</event>
<event>
 5   0  0.7729970E-06  0.2735930E+04  0.7818609E-02  0.8323440E-01
       -2   -1    0    0    0  501  0.00000000000E+00  0.00000000000E+00  0.98860227808E+03  0.98860227808E+03  0.25500000920E-02 0.  1.
        2   -1    0    0  501    0  0.00000000000E+00  0.00000000000E+00 -0.18929030629E+04  0.18929030629E+04  0.25500000920E-02 0. -1.
    10030    2    1    2    0    0  0.00000000000E+00  0.00000000000E+00 -0.90430078478E+03  0.28815053409E+04  0.27359300284E+04 0.  0.
        4    1    3    3  502    0  0.40823762666E+03 -0.12629192724E+04 -0.10331148313E+03  0.13312768021E+04  0.12699999809E+01 0.  1.
       -4    1    3    3    0  502 -0.40823762666E+03  0.12629192724E+04 -0.80098930165E+03  0.15502285388E+04  0.12699999809E+01 0. -1.
</event>
<event>
 5   0  0.3028601E-06  0.2723472E+04  0.7818609E-02  0.8327429E-01
        1   -1    0    0  501    0  0.00000000000E+00  0.00000000000E+00  0.22979437048E+04  0.22979437048E+04  0.50400001928E-02 0.  1.
       -1   -1    0    0    0  501  0.00000000000E+00  0.00000000000E+00 -0.80694992547E+03  0.80694992549E+03  0.50400001928E-02 0. -1.
    10030    2    1    2    0    0  0.00000000000E+00  0.00000000000E+00  0.14909937794E+04  0.31048936303E+04  0.27234724169E+04 0.  0.
        3    1    3    3  502    0 -0.13058015564E+03  0.92973704372E+03 -0.37897775011E+03  0.10124654526E+04  0.10100000352E+00 0. -1.
       -3    1    3    3    0  502  0.13058015564E+03 -0.92973704372E+03  0.18699715295E+04  0.20924281777E+04  0.10100000352E+00 0.  1.
</event>
<event>
 5   0  0.3046300E-06  0.2685451E+04  0.7818609E-02  0.8339741E-01
       -1   -1    0    0    0  501  0.00000000000E+00  0.00000000000E+00  0.95420223603E+03  0.95420223605E+03  0.50400001928E-02 0.  1.
        1   -1    0    0  501    0  0.00000000000E+00  0.00000000000E+00 -0.18894437058E+04  0.18894437059E+04  0.50400001928E-02 0. -1.
    10030    2    1    2    0    0  0.00000000000E+00  0.00000000000E+00 -0.93524146981E+03  0.28436459419E+04  0.26854507324E+04 0.  0.
        2    1    3    3  502    0  0.12877826156E+04  0.24602125806E+03 -0.77452311910E+03  0.15227595301E+04  0.25500000920E-02 0.  1.
       -2    1    3    3    0  502 -0.12877826156E+04 -0.24602125806E+03 -0.16071835071E+03  0.13208864118E+04  0.25500000920E-02 0. -1.
</event>
<event>
 5   0  0.3046300E-06  0.2821220E+04  0.7818609E-02  0.8296711E-01
        1   -1    0    0  501    0  0.00000000000E+00  0.00000000000E+00  0.14879863290E+04  0.14879863290E+04  0.50400001928E-02 0. -1.
       -1   -1    0    0    0  501  0.00000000000E+00  0.00000000000E+00 -0.13372571958E+04  0.13372571958E+04  0.50400001928E-02 0.  1.
    10030    2    1    2    0    0  0.00000000000E+00  0.00000000000E+00  0.15072913317E+03  0.28252435248E+04  0.28212198962E+04 0.  0.
        2    1    3    3  502    0  0.55531707321E+03  0.83583808155E+02 -0.12204891111E+04  0.13434868719E+04  0.25500000920E-02 0.  1.
       -2    1    3    3    0  502 -0.55531707321E+03 -0.83583808155E+02  0.13712182443E+04  0.14817566528E+04  0.25500000920E-02 0. -1.
</event>
<event>
 5   0  0.3199840E-06  0.2694566E+04  0.7818609E-02  0.8336770E-01
       -1   -1    0    0    0  501  0.00000000000E+00  0.00000000000E+00  0.68174007177E+03  0.68174007178E+03  0.50400001928E-02 0. -1.
        1   -1    0    0  501    0  0.00000000000E+00  0.00000000000E+00 -0.26625558149E+04  0.26625558149E+04  0.50400001928E-02 0.  1.
    10030    2    1    2    0    0  0.00000000000E+00  0.00000000000E+00 -0.19808157431E+04  0.33442958867E+04  0.26945656365E+04 0.  0.
        1    1    3    3  502    0 -0.11450549164E+04  0.67879651386E+03 -0.12485368209E+04  0.18250368933E+04  0.50400001928E-02 0.  1.
       -1    1    3    3    0  502  0.11450549164E+04 -0.67879651386E+03 -0.73227892225E+03  0.15192589934E+04  0.50400001928E-02 0. -1.
</event>
<event>
 5   0  0.3089218E-06  0.2699494E+04  0.7818609E-02  0.8335169E-01
       -1   -1    0    0    0  501  0.00000000000E+00  0.00000000000E+00  0.92657009078E+03  0.92657009080E+03  0.50400001928E-02 0. -1.
        1   -1    0    0  501    0  0.00000000000E+00  0.00000000000E+00 -0.19661938279E+04  0.19661938279E+04  0.50400001928E-02 0.  1.
    10030    2    1    2    0    0  0.00000000000E+00  0.00000000000E+00 -0.10396237371E+04  0.28927639187E+04  0.26994935774E+04 0.  0.
        5    1    3    3  502    0 -0.36556291146E+03  0.10110197558E+04 -0.13943260715E+04  0.17606715970E+04  0.46999998093E+01 0.  1.
       -5    1    3    3    0  502  0.36556291146E+03 -0.10110197558E+04  0.35470233440E+03  0.11320923217E+04  0.46999998093E+01 0. -1.
</event>
<event>
 5   0  0.3046300E-06  0.2708132E+04  0.7818609E-02  0.8332371E-01
        1   -1    0    0  501    0  0.00000000000E+00  0.00000000000E+00  0.21880070397E+04  0.21880070397E+04  0.50400001928E-02 0. -1.
       -1   -1    0    0    0  501  0.00000000000E+00  0.00000000000E+00 -0.83797468937E+03  0.83797468939E+03  0.50400001928E-02 0.  1.
    10030    2    1    2    0    0  0.00000000000E+00  0.00000000000E+00  0.13500323503E+04  0.30259817291E+04  0.27081318428E+04 0.  0.
        2    1    3    3  502    0  0.47805110504E+03 -0.86881980666E+03  0.17052481667E+04  0.19726256679E+04  0.25500000920E-02 0. -1.
       -2    1    3    3    0  502 -0.47805110504E+03  0.86881980666E+03 -0.35521581639E+03  0.10533560612E+04  0.25500000920E-02 0.  1.
</event>
<event>
 5   0  0.7729970E-06  0.2712408E+04  0.7818609E-02  0.8330990E-01
       -2   -1    0    0    0  501  0.00000000000E+00  0.00000000000E+00  0.92965605861E+03  0.92965605862E+03  0.25500000920E-02 0.  1.
        2   -1    0    0  501    0  0.00000000000E+00  0.00000000000E+00 -0.19784624840E+04  0.19784624840E+04  0.25500000920E-02 0. -1.
    10030    2    1    2    0    0  0.00000000000E+00  0.00000000000E+00 -0.10488064254E+04  0.29081185427E+04  0.27124082547E+04 0.  0.
        4    1    3    3  502    0  0.78356399068E+02  0.57068250903E+03 -0.18407834515E+04  0.19288088500E+04  0.12699999809E+01 0. -1.
       -4    1    3    3    0  502 -0.78356399068E+02 -0.57068250903E+03  0.79197702611E+03  0.97930969268E+03  0.12699999809E+01 0.  1.
</event>
<event>
 5   0  0.7729970E-06  0.2705517E+04  0.7818609E-02  0.8333217E-01
        2   -1    0    0  501    0  0.00000000000E+00  0.00000000000E+00  0.15588100979E+04  0.15588100979E+04  0.25500000920E-02 0.  1.
       -2   -1    0    0    0  501  0.00000000000E+00  0.00000000000E+00 -0.11739440314E+04  0.11739440314E+04  0.25500000920E-02 0. -1.
    10030    2    1    2    0    0  0.00000000000E+00  0.00000000000E+00  0.38486606648E+03  0.27327541294E+04  0.27055171857E+04 0.  0.
        4    1    3    3  502    0  0.12341379601E+04 -0.42259350516E+03 -0.16932393936E+03  0.13154292017E+04  0.12699999809E+01 0. -1.
       -4    1    3    3    0  502 -0.12341379601E+04  0.42259350516E+03  0.55419000584E+03  0.14173249277E+04  0.12699999809E+01 0.  1.
</event>
<event>
 5   0  0.8407622E-06  0.2679338E+04  0.7818609E-02  0.8341740E-01
       -2   -1    0    0    0  501  0.00000000000E+00  0.00000000000E+00  0.16285981188E+04  0.16285981188E+04  0.25500000920E-02 0.  1.
        2   -1    0    0  501    0  0.00000000000E+00  0.00000000000E+00 -0.11019984568E+04  0.11019984568E+04  0.25500000920E-02 0. -1.
    10030    2    1    2    0    0  0.00000000000E+00  0.00000000000E+00  0.52659966200E+03  0.27305965756E+04  0.26793376895E+04 0.  0.
        1    1    3    3  502    0  0.67748902112E+03  0.11552113665E+04  0.22787950715E+03  0.13584674250E+04  0.50400001928E-02 0.  1.
       -1    1    3    3    0  502 -0.67748902112E+03 -0.11552113665E+04  0.29872015485E+03  0.13721291506E+04  0.50400001928E-02 0. -1.
</event>
<event>
 5   0  0.3013407E-06  0.2767401E+04  0.7818609E-02  0.8313461E-01
        1   -1    0    0  501    0  0.00000000000E+00  0.00000000000E+00  0.21766117019E+04  0.21766117019E+04  0.50400001928E-02 0. -1.
       -1   -1    0    0    0  501  0.00000000000E+00  0.00000000000E+00 -0.87963652003E+03  0.87963652005E+03  0.50400001928E-02 0.  1.
    10030    2    1    2    0    0  0.00000000000E+00  0.00000000000E+00  0.12969751819E+04  0.30562482220E+04  0.27674010501E+04 0.  0.
        4    1    3    3  502    0 -0.95441287765E+03  0.85846915481E+03  0.12188758905E+04  0.17701788836E+04  0.12699999809E+01 0.  1.
       -4    1    3    3    0  502  0.95441287765E+03 -0.85846915481E+03  0.78099291410E+02  0.12860693383E+04  0.12699999809E+01 0. -1.
</event>
<event>
 5   0  0.3013407E-06  0.2676698E+04  0.7818609E-02  0.8342605E-01
        1   -1    0    0  501    0  0.00000000000E+00  0.00000000000E+00  0.21966844514E+04  0.21966844514E+04  0.50400001928E-02 0.  1.
       -1   -1    0    0    0  501  0.00000000000E+00  0.00000000000E+00 -0.81540086051E+03  0.81540086052E+03  0.50400001928E-02 0. -1.
    10030    2    1    2    0    0  0.00000000000E+00  0.00000000000E+00  0.13812835909E+04  0.30120853119E+04  0.26766982586E+04 0.  0.
        4    1    3    3  502    0  0.10532005536E+04 -0.29569001580E+02  0.16193174513E+04  0.19319152033E+04  0.12699999809E+01 0.  1.
       -4    1    3    3    0  502 -0.10532005536E+04  0.29569001580E+02 -0.23803386043E+03  0.10801701086E+04  0.12699999809E+01 0. -1.
</event>
<event>
 5   0  0.7812908E-06  0.2701702E+04  0.7818609E-02  0.8334453E-01
       -2   -1    0    0    0  501  0.00000000000E+00  0.00000000000E+00  0.76313302631E+03  0.76313302631E+03  0.25500000920E-02 0. -1.
        2   -1    0    0  501    0  0.00000000000E+00  0.00000000000E+00 -0.23911939149E+04  0.23911939149E+04  0.25500000920E-02 0.  1.
    10030    2    1    2    0    0  0.00000000000E+00  0.00000000000E+00 -0.16280608886E+04  0.31543269412E+04  0.27017024624E+04 0.  0.
        5    1    3    3  502    0  0.12447407278E+04 -0.52371049932E+03 -0.85318707589E+03  0.15973736079E+04  0.46999998093E+01 0. -1.
       -5    1    3    3    0  502 -0.12447407278E+04  0.52371049932E+03 -0.77487381273E+03  0.15569533334E+04  0.46999998093E+01 0.  1.
</event>
<event>
 5   0  0.3089218E-06  0.2715759E+04  0.7818609E-02  0.8329910E-01
        1   -1    0    0  501    0  0.00000000000E+00  0.00000000000E+00  0.13321982781E+04  0.13321982781E+04  0.50400001928E-02 0. -1.
       -1   -1    0    0    0  501  0.00000000000E+00  0.00000000000E+00 -0.13840555463E+04  0.13840555463E+04  0.50400001928E-02 0.  1.
    10030    2    1    2    0    0  0.00000000000E+00  0.00000000000E+00 -0.51857268261E+02  0.27162538244E+04  0.27157587636E+04 0.  0.
        5    1    3    3  502    0 -0.46370106774E+03  0.31532010419E+03 -0.12628306153E+04  0.13817411846E+04  0.46999998093E+01 0.  1.
       -5    1    3    3    0  502  0.46370106774E+03 -0.31532010419E+03  0.12109733471E+04  0.13345126397E+04  0.46999998093E+01 0. -1.
</event>
<event>
 5   0  0.2654625E-06  0.2679767E+04  0.7818609E-02  0.8341600E-01
        3   -1    0    0  501    0  0.00000000000E+00  0.00000000000E+00  0.16187722920E+04  0.16187722952E+04  0.10100000352E+00 0. -1.
       -3   -1    0    0    0  501  0.00000000000E+00  0.00000000000E+00 -0.11090427493E+04  0.11090427539E+04  0.10100000352E+00 0.  1.
    10030    2    1    2    0    0  0.00000000000E+00  0.00000000000E+00  0.50972954268E+03  0.27278150491E+04  0.26797669181E+04 0.  0.
        2    1    3    3  502    0  0.29802517659E+03  0.29139700847E+03  0.15511003484E+04  0.16061268671E+04  0.25500000920E-02 0. -1.
       -2    1    3    3    0  502 -0.29802517659E+03 -0.29139700847E+03 -0.10413708058E+04  0.11216881819E+04  0.25500000920E-02 0.  1.
</event>
<event>
 5   0  0.7838364E-06  0.2698372E+04  0.7818609E-02  0.8335533E-01
        2   -1    0    0  501    0  0.00000000000E+00  0.00000000000E+00  0.17540669192E+04  0.17540669192E+04  0.25500000920E-02 0.  1.
       -2   -1    0    0    0  501  0.00000000000E+00  0.00000000000E+00 -0.10377611196E+04  0.10377611196E+04  0.25500000920E-02 0. -1.
    10030    2    1    2    0    0  0.00000000000E+00  0.00000000000E+00  0.71630579963E+03  0.27918280388E+04  0.26983716941E+04 0.  0.
        2    1    3    3  502    0 -0.76411705215E+03  0.56796909091E+03 -0.63090487979E+03  0.11421491693E+04  0.25500000920E-02 0. -1.
       -2    1    3    3    0  502  0.76411705215E+03 -0.56796909091E+03  0.13472106794E+04  0.16496788695E+04  0.25500000920E-02 0.  1.
</event>
<event>
 5   0  0.3028601E-06  0.2707553E+04  0.7818609E-02  0.8332559E-01
       -1   -1    0    0    0  501  0.00000000000E+00  0.00000000000E+00  0.16114808253E+04  0.16114808253E+04  0.50400001928E-02 0. -1.
        1   -1    0    0  501    0  0.00000000000E+00  0.00000000000E+00 -0.11372832689E+04  0.11372832689E+04  0.50400001928E-02 0.  1.
    10030    2    1    2    0    0  0.00000000000E+00  0.00000000000E+00  0.47419755645E+03  0.27487640942E+04  0.27075525338E+04 0.  0.
        3    1    3    3  502    0  0.55432163574E+03 -0.10761730891E+04 -0.37816966775E+03  0.12682402380E+04  0.10100000352E+00 0.  1.
       -3    1    3    3    0  502 -0.55432163574E+03  0.10761730891E+04  0.85236722420E+03  0.14805238562E+04  0.10100000352E+00 0. -1.
</event>
<event>
 5   0  0.8213334E-06  0.2710558E+04  0.7818609E-02  0.8331587E-01
       -2   -1    0    0    0  501  0.00000000000E+00  0.00000000000E+00  0.13548036938E+04  0.13548036938E+04  0.25500000920E-02 0. -1.
        2   -1    0    0  501    0  0.00000000000E+00  0.00000000000E+00 -0.13557547771E+04  0.13557547771E+04  0.25500000920E-02 0.  1.
    10030    2    1    2    0    0  0.00000000000E+00  0.00000000000E+00 -0.95108322030E+00  0.27105584709E+04  0.27105583040E+04 0.  0.
        3    1    3    3  502    0 -0.33194921669E+02 -0.62143535182E+03  0.12034754328E+04  0.13548567920E+04  0.10100000352E+00 0. -1.
       -3    1    3    3    0  502  0.33194921669E+02  0.62143535182E+03 -0.12044265160E+04  0.13557016789E+04  0.10100000352E+00 0.  1.
</event>
<event>
 5   0  0.7729970E-06  0.2712922E+04  0.7818609E-02  0.8330824E-01
       -2   -1    0    0    0  501  0.00000000000E+00  0.00000000000E+00  0.11503123129E+04  0.11503123129E+04  0.25500000920E-02 0. -1.
        2   -1    0    0  501    0  0.00000000000E+00  0.00000000000E+00 -0.15995537645E+04  0.15995537645E+04  0.25500000920E-02 0.  1.
    10030    2    1    2    0    0  0.00000000000E+00  0.00000000000E+00 -0.44924145162E+03  0.27498660773E+04  0.27129219601E+04 0.  0.
        4    1    3    3  502    0 -0.10200652333E+04  0.89410544780E+03 -0.21933965089E+03  0.13740702775E+04  0.12699999809E+01 0. -1.
       -4    1    3    3    0  502  0.10200652333E+04 -0.89410544780E+03 -0.22990180073E+03  0.13757957999E+04  0.12699999809E+01 0.  1.
</event>
<event>
 5   0  0.7729970E-06  0.2696782E+04  0.7818609E-02  0.8336050E-01
       -2   -1    0    0    0  501  0.00000000000E+00  0.00000000000E+00  0.90226586100E+03  0.90226586101E+03  0.25500000920E-02 0.  1.
        2   -1    0    0  501    0  0.00000000000E+00  0.00000000000E+00 -0.20151028254E+04  0.20151028254E+04  0.25500000920E-02 0. -1.
    10030    2    1    2    0    0  0.00000000000E+00  0.00000000000E+00 -0.11128369644E+04  0.29173686864E+04  0.26967821460E+04 0.  0.
        4    1    3    3  502    0 -0.36687999548E+03  0.11442422560E+04 -0.12182316585E+04  0.17111344944E+04  0.12699999809E+01 0. -1.
       -4    1    3    3    0  502  0.36687999548E+03 -0.11442422560E+04  0.10539469406E+03  0.12062341920E+04  0.12699999809E+01 0.  1.
</event>
<event>
 5   0  0.3046300E-06  0.2707184E+04  0.7818609E-02  0.8332678E-01
       -1   -1    0    0    0  501  0.00000000000E+00  0.00000000000E+00  0.16462531576E+04  0.16462531576E+04  0.50400001928E-02 0.  1.
        1   -1    0    0  501    0  0.00000000000E+00  0.00000000000E+00 -0.11129587845E+04  0.11129587845E+04  0.50400001928E-02 0. -1.
    10030    2    1    2    0    0  0.00000000000E+00  0.00000000000E+00  0.53329437315E+03  0.27592119421E+04  0.27071844512E+04 0.  0.
        2    1    3    3  502    0  0.17215432720E+03 -0.12154827716E+04 -0.31455433855E+03  0.12672726275E+04  0.25500000920E-02 0. -1.
       -2    1    3    3    0  502 -0.17215432720E+03  0.12154827716E+04  0.84784871170E+03  0.14919393146E+04  0.25500000920E-02 0.  1.
</event>
<event>
 5   0  0.8407622E-06  0.2691631E+04  0.7818609E-02  0.8337725E-01
        2   -1    0    0  501    0  0.00000000000E+00  0.00000000000E+00  0.22870157183E+04  0.22870157183E+04  0.25500000920E-02 0.  1.
       -2   -1    0    0    0  501  0.00000000000E+00  0.00000000000E+00 -0.79195759508E+03  0.79195759509E+03  0.25500000920E-02 0. -1.
    10030    2    1    2    0    0  0.00000000000E+00  0.00000000000E+00  0.14950581232E+04  0.30789733134E+04  0.26916310803E+04 0.  0.
        1    1    3    3  502    0 -0.10590059889E+04 -0.75170196840E+03  0.34363147734E+03  0.13433659688E+04  0.50400001928E-02 0. -1.
       -1    1    3    3    0  502  0.10590059889E+04  0.75170196840E+03  0.11514266459E+04  0.17356073446E+04  0.50400001928E-02 0.  1.
</event>
<event>
 5   0  0.3199840E-06  0.2669591E+04  0.7818609E-02  0.8344939E-01
       -1   -1    0    0    0  501  0.00000000000E+00  0.00000000000E+00  0.16649778958E+04  0.16649778958E+04  0.50400001928E-02 0.  1.
        1   -1    0    0  501    0  0.00000000000E+00  0.00000000000E+00 -0.10700919810E+04  0.10700919810E+04  0.50400001928E-02 0. -1.
    10030    2    1    2    0    0  0.00000000000E+00  0.00000000000E+00  0.59488591482E+03  0.27350698768E+04  0.26695913506E+04 0.  0.
        1    1    3    3  502    0  0.81675870107E+02 -0.44895303317E+03  0.15825818728E+04  0.16470565133E+04  0.50400001928E-02 0.  1.
       -1    1    3    3    0  502 -0.81675870107E+02  0.44895303317E+03 -0.98769595798E+03  0.10880133635E+04  0.50400001928E-02 0. -1.
</event>
<event>
 5   0  0.3089218E-06  0.2690649E+04  0.7818609E-02  0.8338045E-01
        1   -1    0    0  501    0  0.00000000000E+00  0.00000000000E+00  0.23649169239E+04  0.23649169239E+04  0.50400001928E-02 0.  1.
       -1   -1    0    0    0  501  0.00000000000E+00  0.00000000000E+00 -0.76531158071E+03  0.76531158072E+03  0.50400001928E-02 0. -1.
    10030    2    1    2    0    0  0.00000000000E+00  0.00000000000E+00  0.15996053432E+04  0.31302285047E+04  0.26906492223E+04 0.  0.
        5    1    3    3  502    0 -0.10575184157E+03  0.16039170414E+03  0.23488665181E+04  0.23567148662E+04  0.46999998093E+01 0.  1.
       -5    1    3    3    0  502  0.10575184157E+03 -0.16039170414E+03 -0.74926117486E+03  0.77351363847E+03  0.46999998093E+01 0. -1.
</event>
<event>
 5   0  0.8407622E-06  0.2678439E+04  0.7818609E-02  0.8342035E-01
       -2   -1    0    0    0  501  0.00000000000E+00  0.00000000000E+00  0.93779802509E+03  0.93779802509E+03  0.25500000920E-02 0. -1.
        2   -1    0    0  501    0  0.00000000000E+00  0.00000000000E+00 -0.19124679487E+04  0.19124679487E+04  0.25500000920E-02 0.  1.
    10030    2    1    2    0    0  0.00000000000E+00  0.00000000000E+00 -0.97466992361E+03  0.28502659738E+04  0.26784388478E+04 0.  0.
        1    1    3    3  502    0  0.99915018023E+03 -0.89132478654E+03 -0.51643339076E+03  0.14350834139E+04  0.50400001928E-02 0.  1.
       -1    1    3    3    0  502 -0.99915018023E+03  0.89132478654E+03 -0.45823653285E+03  0.14151825599E+04  0.50400001928E-02 0. -1.
</event>
<event>
 5   0  0.3089218E-06  0.2719277E+04  0.7818609E-02  0.8328777E-01
       -1   -1    0    0    0  501  0.00000000000E+00  0.00000000000E+00  0.74363645967E+03  0.74363645969E+03  0.50400001928E-02 0. -1.
        1   -1    0    0  501    0  0.00000000000E+00  0.00000000000E+00 -0.24859143477E+04  0.24859143477E+04  0.50400001928E-02 0.  1.
    10030    2    1    2    0    0  0.00000000000E+00  0.00000000000E+00 -0.17422778880E+04  0.32295508074E+04  0.27192767749E+04 0.  0.
        5    1    3    3  502    0  0.12217197824E+04  0.13360394418E+03 -0.18051706883E+03  0.12421987533E+04  0.46999998093E+01 0. -1.
       -5    1    3    3    0  502 -0.12217197824E+04 -0.13360394418E+03 -0.15617608192E+04  0.19873520541E+04  0.46999998093E+01 0.  1.
</event>
<event>
 5   0  0.3028601E-06  0.2698472E+04  0.7818609E-02  0.8335501E-01
       -1   -1    0    0    0  501  0.00000000000E+00  0.00000000000E+00  0.92027430156E+03  0.92027430157E+03  0.50400001928E-02 0. -1.
        1   -1    0    0  501    0  0.00000000000E+00  0.00000000000E+00 -0.19781474208E+04  0.19781474208E+04  0.50400001928E-02 0.  1.
    10030    2    1    2    0    0  0.00000000000E+00  0.00000000000E+00 -0.10578731193E+04  0.28984217224E+04  0.26984723353E+04 0.  0.
        3    1    3    3  502    0  0.61892509127E+03  0.89460042039E+03  0.32836534753E+03  0.11363106936E+04  0.10100000352E+00 0. -1.
       -3    1    3    3    0  502 -0.61892509127E+03 -0.89460042039E+03 -0.13862384668E+04  0.17621110288E+04  0.10100000352E+00 0.  1.
</event>
<event>
 5   0  0.3013407E-06  0.2625657E+04  0.7818609E-02  0.8359538E-01
       -1   -1    0    0    0  501  0.00000000000E+00  0.00000000000E+00  0.73356689973E+03  0.73356689975E+03  0.50400001928E-02 0.  1.
        1   -1    0    0  501    0  0.00000000000E+00  0.00000000000E+00 -0.23495038684E+04  0.23495038684E+04  0.50400001928E-02 0. -1.
    10030    2    1    2    0    0  0.00000000000E+00  0.00000000000E+00 -0.16159369686E+04  0.30830707681E+04  0.26256566940E+04 0.  0.
        4    1    3    3  502    0 -0.36293183454E+03  0.24757230304E+01  0.67348689783E+03  0.76505676925E+03  0.12699999809E+01 0.  1.
       -4    1    3    3    0  502  0.36293183454E+03 -0.24757230304E+01 -0.22894238665E+04  0.23180139989E+04  0.12699999809E+01 0. -1.
</event>
<event>
 5   0  0.7812908E-06  0.2659063E+04  0.7818609E-02  0.8348411E-01
       -2   -1    0    0    0  501  0.00000000000E+00  0.00000000000E+00  0.10212269810E+04  0.10212269810E+04  0.25500000920E-02 0.  1.
        2   -1    0    0  501    0  0.00000000000E+00  0.00000000000E+00 -0.17309125801E+04  0.17309125801E+04  0.25500000920E-02 0. -1.
    10030    2    1    2    0    0  0.00000000000E+00  0.00000000000E+00 -0.70968559909E+03  0.27521395611E+04  0.26590634656E+04 0.  0.
        5    1    3    3  502    0  0.10131714605E+04  0.82334724175E+03 -0.94615193656E+02  0.13089657038E+04  0.46999998093E+01 0.  1.
       -5    1    3    3    0  502 -0.10131714605E+04 -0.82334724175E+03 -0.61507040544E+03  0.14431738573E+04  0.46999998093E+01 0. -1.
</event>
<event>
 5   0  0.8407622E-06  0.2687181E+04  0.7818609E-02  0.8339176E-01
       -2   -1    0    0    0  501  0.00000000000E+00  0.00000000000E+00  0.13616313258E+04  0.13616313258E+04  0.25500000920E-02 0. -1.
        2   -1    0    0  501    0  0.00000000000E+00  0.00000000000E+00 -0.13257890857E+04  0.13257890857E+04  0.25500000920E-02 0.  1.
    10030    2    1    2    0    0  0.00000000000E+00  0.00000000000E+00  0.35842240146E+02  0.26874204115E+04  0.26871813862E+04 0.  0.
        1    1    3    3  502    0 -0.80635102489E+03 -0.68174211438E+03 -0.81297265650E+03  0.13326285402E+04  0.50400001928E-02 0.  1.
       -1    1    3    3    0  502  0.80635102489E+03  0.68174211438E+03  0.84881489664E+03  0.13547918713E+04  0.50400001928E-02 0. -1.
</event>
<event>
 5   0  0.3046300E-06  0.2689299E+04  0.7818609E-02  0.8338485E-01
       -1   -1    0    0    0  501  0.00000000000E+00  0.00000000000E+00  0.10390979585E+04  0.10390979585E+04  0.50400001928E-02 0.  1.
        1   -1    0    0  501    0  0.00000000000E+00  0.00000000000E+00 -0.17400499217E+04  0.17400499217E+04  0.50400001928E-02 0. -1.
    10030    2    1    2    0    0  0.00000000000E+00  0.00000000000E+00 -0.70095196324E+03  0.27791478802E+04  0.26892990323E+04 0.  0.
        2    1    3    3  502    0 -0.55186968738E+03  0.11683404834E+04 -0.73506923036E+03  0.14865753968E+04  0.25500000920E-02 0. -1.
       -2    1    3    3    0  502  0.55186968738E+03 -0.11683404834E+04  0.34117267120E+02  0.12925724834E+04  0.25500000920E-02 0.  1.
</event>
<event>
 5   0  0.3089218E-06  0.2692601E+04  0.7818609E-02  0.8337410E-01
       -1   -1    0    0    0  501  0.00000000000E+00  0.00000000000E+00  0.25802611566E+04  0.25802611566E+04  0.50400001928E-02 0. -1.
        1   -1    0    0  501    0  0.00000000000E+00  0.00000000000E+00 -0.70245792485E+03  0.70245792487E+03  0.50400001928E-02 0.  1.
    10030    2    1    2    0    0  0.00000000000E+00  0.00000000000E+00  0.18778032317E+04  0.32827190814E+04  0.26926008970E+04 0.  0.
        5    1    3    3  502    0 -0.12844613079E+04  0.36551377266E+03  0.73106513580E+03  0.15224715079E+04  0.46999998093E+01 0. -1.
       -5    1    3    3    0  502  0.12844613079E+04 -0.36551377266E+03  0.11467380959E+04  0.17602475735E+04  0.46999998093E+01 0.  1.
</event>
<event>
 5   0  0.8213334E-06  0.2665738E+04  0.7818609E-02  0.8346208E-01
        2   -1    0    0  501    0  0.00000000000E+00  0.00000000000E+00  0.82865234191E+03  0.82865234191E+03  0.25500000920E-02 0.  1.
       -2   -1    0    0    0  501  0.00000000000E+00  0.00000000000E+00 -0.21438902955E+04  0.21438902955E+04  0.25500000920E-02 0. -1.
    10030    2    1    2    0    0  0.00000000000E+00  0.00000000000E+00 -0.13152379536E+04  0.29725426374E+04  0.26657379573E+04 0.  0.
        3    1    3    3  502    0  0.12981106416E+04  0.22700273077E+03 -0.43482868873E+03  0.13876950228E+04  0.10100000352E+00 0.  1.
       -3    1    3    3    0  502 -0.12981106416E+04 -0.22700273077E+03 -0.88040926487E+03  0.15848476146E+04  0.10100000352E+00 0. -1.
</event>
<event>
 5   0  0.8407622E-06  0.2704260E+04  0.7818609E-02  0.8333624E-01
       -2   -1    0    0    0  501  0.00000000000E+00  0.00000000000E+00  0.12298094791E+04  0.12298094791E+04  0.25500000920E-02 0. -1.
        2   -1    0    0  501    0  0.00000000000E+00  0.00000000000E+00 -0.14866173243E+04  0.14866173243E+04  0.25500000920E-02 0.  1.
    10030    2    1    2    0    0  0.00000000000E+00  0.00000000000E+00 -0.25680784522E+03  0.27164268034E+04  0.27042603996E+04 0.  0.
        1    1    3    3  502    0  0.55333818836E+03  0.12301719069E+04 -0.34441615661E+02  0.13493303140E+04  0.50400001928E-02 0.  1.
       -1    1    3    3    0  502 -0.55333818836E+03 -0.12301719069E+04 -0.22236622956E+03  0.13670964894E+04  0.50400001928E-02 0. -1.
</event>
<event>
 5   0  0.2654625E-06  0.2693865E+04  0.7818609E-02  0.8336998E-01
       -3   -1    0    0    0  501  0.00000000000E+00  0.00000000000E+00  0.14686929559E+04  0.14686929593E+04  0.10100000352E+00 0.  1.
        3   -1    0    0  501    0  0.00000000000E+00  0.00000000000E+00 -0.12352660754E+04  0.12352660795E+04  0.10100000352E+00 0. -1.
    10030    2    1    2    0    0  0.00000000000E+00  0.00000000000E+00  0.23342688052E+03  0.27039590388E+04  0.26938645800E+04 0.  0.
        4    1    3    3  502    0 -0.88139852611E+03 -0.91620904746E+03  0.56326544403E+03  0.13905293790E+04  0.12699999809E+01 0.  1.
       -4    1    3    3    0  502  0.88139852611E+03  0.91620904746E+03 -0.32983856351E+03  0.13134296598E+04  0.12699999809E+01 0. -1.
</event>
<event>
 5   0  0.3046300E-06  0.2703453E+04  0.7818609E-02  0.8333885E-01
       -1   -1    0    0    0  501  0.00000000000E+00  0.00000000000E+00  0.14816417678E+04  0.14816417678E+04  0.50400001928E-02 0. -1.
        1   -1    0    0  501    0  0.00000000000E+00  0.00000000000E+00 -0.12332027514E+04  0.12332027514E+04  0.50400001928E-02 0.  1.
    10030    2    1    2    0    0  0.00000000000E+00  0.00000000000E+00  0.24843901637E+03  0.27148445192E+04  0.27034531286E+04 0.  0.
        2    1    3    3  502    0 -0.31441472190E+03  0.66670431927E+03 -0.10136096964E+04  0.12532980026E+04  0.25500000920E-02 0.  1.
       -2    1    3    3    0  502  0.31441472190E+03 -0.66670431927E+03  0.12620487128E+04  0.14615465166E+04  0.25500000920E-02 0. -1.
</event>
<event>
 5   0  0.3089218E-06  0.2587602E+04  0.7818609E-02  0.8372425E-01
       -1   -1    0    0    0  501  0.00000000000E+00  0.00000000000E+00  0.29791650601E+04  0.29791650601E+04  0.50400001928E-02 0.  1.
        1   -1    0    0  501    0  0.00000000000E+00  0.00000000000E+00 -0.56187591307E+03  0.56187591309E+03  0.50400001928E-02 0. -1.
    10030    2    1    2    0    0  0.00000000000E+00  0.00000000000E+00  0.24172891470E+04  0.35410409732E+04  0.25876020470E+04 0.  0.
        5    1    3    3  502    0  0.43869320923E+03  0.47079540886E+03  0.27446193608E+04  0.28190526023E+04  0.46999998093E+01 0.  1.
       -5    1    3    3    0  502 -0.43869320923E+03 -0.47079540886E+03 -0.32733021379E+03  0.72198837088E+03  0.46999998093E+01 0. -1.
</event>
<event>
 5   0  0.3046300E-06  0.2373602E+04  0.7818609E-02  0.8449453E-01
        1   -1    0    0  501    0  0.00000000000E+00  0.00000000000E+00  0.14517299952E+04  0.14517299952E+04  0.50400001928E-02 0. -1.
       -1   -1    0    0    0  501  0.00000000000E+00  0.00000000000E+00 -0.97021949867E+03  0.97021949868E+03  0.50400001928E-02 0.  1.
    10030    2    1    2    0    0  0.00000000000E+00  0.00000000000E+00  0.48151049652E+03  0.24219494939E+04  0.23736021134E+04 0.  0.
        2    1    3    3  502    0  0.10785858605E+04 -0.40362332653E+03 -0.51856737995E+02  0.11528002296E+04  0.25500000920E-02 0.  1.
       -2    1    3    3    0  502 -0.10785858605E+04  0.40362332653E+03  0.53336723451E+03  0.12691492643E+04  0.25500000920E-02 0. -1.
</event>
<event>
 5   0  0.3089218E-06  0.2692636E+04  0.7818609E-02  0.8337398E-01
       -1   -1    0    0    0  501  0.00000000000E+00  0.00000000000E+00  0.89593354518E+03  0.89593354519E+03  0.50400001928E-02 0.  1.
        1   -1    0    0  501    0  0.00000000000E+00  0.00000000000E+00 -0.20231094872E+04  0.20231094872E+04  0.50400001928E-02 0. -1.
    10030    2    1    2    0    0  0.00000000000E+00  0.00000000000E+00 -0.11271759420E+04  0.29190430324E+04  0.26926356271E+04 0.  0.
        5    1    3    3  502    0 -0.91017625273E+03  0.97816409389E+03 -0.74278596217E+03  0.15287180516E+04  0.46999998093E+01 0.  1.
       -5    1    3    3    0  502  0.91017625273E+03 -0.97816409389E+03 -0.38438997980E+03  0.13903249808E+04  0.46999998093E+01 0. -1.
</event>
<event>
 5   0  0.3046300E-06  0.2734086E+04  0.7818609E-02  0.8324029E-01
       -1   -1    0    0    0  501  0.00000000000E+00  0.00000000000E+00  0.12039662194E+04  0.12039662194E+04  0.50400001928E-02 0. -1.
        1   -1    0    0  501    0  0.00000000000E+00  0.00000000000E+00 -0.15522084367E+04  0.15522084367E+04  0.50400001928E-02 0.  1.
    10030    2    1    2    0    0  0.00000000000E+00  0.00000000000E+00 -0.34824221735E+03  0.27561746561E+04  0.27340859703E+04 0.  0.
        2    1    3    3  502    0  0.37013476221E+03 -0.11559594884E+04  0.45989923209E+03  0.12979789616E+04  0.25500000920E-02 0. -1.
       -2    1    3    3    0  502 -0.37013476221E+03  0.11559594884E+04 -0.80814144944E+03  0.14581956945E+04  0.25500000920E-02 0.  1.
</event>
<event>
 5   0  0.8213334E-06  0.2666836E+04  0.7818609E-02  0.8345847E-01
       -2   -1    0    0    0  501  0.00000000000E+00  0.00000000000E+00  0.12565945650E+04  0.12565945650E+04  0.25500000920E-02 0. -1.
        2   -1    0    0  501    0  0.00000000000E+00  0.00000000000E+00 -0.14149376064E+04  0.14149376064E+04  0.25500000920E-02 0.  1.
    10030    2    1    2    0    0  0.00000000000E+00  0.00000000000E+00 -0.15834304138E+03  0.26715321714E+04  0.26668355075E+04 0.  0.
        3    1    3    3  502    0 -0.74013268709E+03  0.71619836626E+03 -0.92757887312E+03  0.13860516117E+04  0.10100000352E+00 0.  1.
       -3    1    3    3    0  502  0.74013268709E+03 -0.71619836626E+03  0.76923583174E+03  0.12854805597E+04  0.10100000352E+00 0. -1.
</event>
<event>
 5   0  0.7838364E-06  0.2718664E+04  0.7818609E-02  0.8328975E-01
       -2   -1    0    0    0  501  0.00000000000E+00  0.00000000000E+00  0.11264095836E+04  0.11264095836E+04  0.25500000920E-02 0. -1.
        2   -1    0    0  501    0  0.00000000000E+00  0.00000000000E+00 -0.16404183108E+04  0.16404183108E+04  0.25500000920E-02 0.  1.
    10030    2    1    2    0    0  0.00000000000E+00  0.00000000000E+00 -0.51400872722E+03  0.27668278943E+04  0.27186635734E+04 0.  0.
        2    1    3    3  502    0  0.42597943955E+03  0.11350564984E+04 -0.88268975347E+03  0.14996509388E+04  0.25500000920E-02 0.  1.
       -2    1    3    3    0  502 -0.42597943955E+03 -0.11350564984E+04  0.36868102624E+03  0.12671769555E+04  0.25500000920E-02 0. -1.
</event>
<event>
 5   0  0.8407622E-06  0.2720854E+04  0.7818609E-02  0.8328270E-01
        2   -1    0    0  501    0  0.00000000000E+00  0.00000000000E+00  0.23217078592E+04  0.23217078592E+04  0.25500000920E-02 0.  1.
       -2   -1    0    0    0  501  0.00000000000E+00  0.00000000000E+00 -0.79715551985E+03  0.79715551986E+03  0.25500000920E-02 0. -1.
    10030    2    1    2    0    0  0.00000000000E+00  0.00000000000E+00  0.15245523394E+04  0.31188633791E+04  0.27208544507E+04 0.  0.
        1    1    3    3  502    0  0.89183527770E+02 -0.11644185723E+04  0.15621616988E+04  0.19504290519E+04  0.50400001928E-02 0.  1.
       -1    1    3    3    0  502 -0.89183527770E+02  0.11644185723E+04 -0.37609359448E+02  0.11684343272E+04  0.50400001928E-02 0. -1.
</event>
<event>
 5   0  0.3046300E-06  0.2711603E+04  0.7818609E-02  0.8331250E-01
        1   -1    0    0  501    0  0.00000000000E+00  0.00000000000E+00  0.15361005830E+04  0.15361005830E+04  0.50400001928E-02 0.  1.
       -1   -1    0    0    0  501  0.00000000000E+00  0.00000000000E+00 -0.11966648964E+04  0.11966648964E+04  0.50400001928E-02 0. -1.
    10030    2    1    2    0    0  0.00000000000E+00  0.00000000000E+00  0.33943568658E+03  0.27327654794E+04  0.27116029540E+04 0.  0.
        2    1    3    3  502    0  0.63179236581E+03 -0.11638435086E+04  0.46268286346E+03  0.14027718055E+04  0.25500000920E-02 0.  1.
       -2    1    3    3    0  502 -0.63179236581E+03  0.11638435086E+04 -0.12324717688E+03  0.13299936739E+04  0.25500000920E-02 0. -1.
</event>
<event>
 5   0  0.7729970E-06  0.2759496E+04  0.7818609E-02  0.8315955E-01
        2   -1    0    0  501    0  0.00000000000E+00  0.00000000000E+00  0.26325258485E+04  0.26325258485E+04  0.25500000920E-02 0.  1.
       -2   -1    0    0    0  501  0.00000000000E+00  0.00000000000E+00 -0.72314733373E+03  0.72314733374E+03  0.25500000920E-02 0. -1.
    10030    2    1    2    0    0  0.00000000000E+00  0.00000000000E+00  0.19093785147E+04  0.33556731822E+04  0.27594956411E+04 0.  0.
        4    1    3    3  502    0  0.30257208574E+03 -0.67983057616E+03 -0.45821940410E+03  0.87389136313E+03  0.12699999809E+01 0. -1.
       -4    1    3    3    0  502 -0.30257208574E+03  0.67983057616E+03  0.23675979188E+04  0.24817818191E+04  0.12699999809E+01 0.  1.
</event>
<event>
 5   0  0.3199840E-06  0.2671007E+04  0.7818609E-02  0.8344474E-01
       -1   -1    0    0    0  501  0.00000000000E+00  0.00000000000E+00  0.96501374905E+03  0.96501374907E+03  0.50400001928E-02 0.  1.
        1   -1    0    0  501    0  0.00000000000E+00  0.00000000000E+00 -0.18482325483E+04  0.18482325483E+04  0.50400001928E-02 0. -1.
    10030    2    1    2    0    0  0.00000000000E+00  0.00000000000E+00 -0.88321879928E+03  0.28132462974E+04  0.26710071663E+04 0.  0.
        1    1    3    3  502    0 -0.69722263634E+03  0.10867086473E+04 -0.80112945558E+03  0.15194944861E+04  0.50400001928E-02 0. -1.
       -1    1    3    3    0  502  0.69722263634E+03 -0.10867086473E+04 -0.82089343698E+02  0.12937518113E+04  0.50400001928E-02 0.  1.
</event>
<event>
 5   0  0.3013407E-06  0.2691729E+04  0.7818609E-02  0.8337694E-01
       -1   -1    0    0    0  501  0.00000000000E+00  0.00000000000E+00  0.79268480881E+03  0.79268480883E+03  0.50400001928E-02 0.  1.
        1   -1    0    0  501    0  0.00000000000E+00  0.00000000000E+00 -0.22850834218E+04  0.22850834218E+04  0.50400001928E-02 0. -1.
    10030    2    1    2    0    0  0.00000000000E+00  0.00000000000E+00 -0.14923986129E+04  0.30777682306E+04  0.26917287496E+04 0.  0.
        4    1    3    3  502    0  0.25136787943E+03 -0.12472134912E+04 -0.12480303947E+04  0.17822201835E+04  0.12699999809E+01 0. -1.
       -4    1    3    3    0  502 -0.25136787943E+03  0.12472134912E+04 -0.24436821823E+03  0.12955480471E+04  0.12699999809E+01 0.  1.
</event>
<event>
 5   0  0.8213334E-06  0.2701680E+04  0.7818609E-02  0.8334460E-01
        2   -1    0    0  501    0  0.00000000000E+00  0.00000000000E+00  0.92119588747E+03  0.92119588748E+03  0.25500000920E-02 0.  1.
       -2   -1    0    0    0  501  0.00000000000E+00  0.00000000000E+00 -0.19808700686E+04  0.19808700686E+04  0.25500000920E-02 0. -1.
    10030    2    1    2    0    0  0.00000000000E+00  0.00000000000E+00 -0.10596741812E+04  0.29020659561E+04  0.27016804851E+04 0.  0.
        3    1    3    3  502    0  0.91308887418E+03 -0.25269183931E+03  0.50448658600E+03  0.10733551059E+04  0.10100000352E+00 0.  1.
       -3    1    3    3    0  502 -0.91308887418E+03  0.25269183931E+03 -0.15641607671E+04  0.18287108502E+04  0.10100000352E+00 0. -1.
</event>
<event>
 5   0  0.3089218E-06  0.2694081E+04  0.7818609E-02  0.8336928E-01
        1   -1    0    0  501    0  0.00000000000E+00  0.00000000000E+00  0.21134398258E+04  0.21134398258E+04  0.50400001928E-02 0.  1.
       -1   -1    0    0    0  501  0.00000000000E+00  0.00000000000E+00 -0.85856143224E+03  0.85856143226E+03  0.50400001928E-02 0. -1.
    10030    2    1    2    0    0  0.00000000000E+00  0.00000000000E+00  0.12548783936E+04  0.29720012581E+04  0.26940808628E+04 0.  0.
        5    1    3    3  502    0  0.47066077557E+03 -0.93129056009E+03 -0.31230270793E+03  0.10892101470E+04  0.46999998093E+01 0. -1.
       -5    1    3    3    0  502 -0.47066077557E+03  0.93129056009E+03  0.15671811015E+04  0.18827911110E+04  0.46999998093E+01 0.  1.
</event>
<event>
 5   0  0.8213334E-06  0.2688216E+04  0.7818609E-02  0.8338839E-01
       -2   -1    0    0    0  501  0.00000000000E+00  0.00000000000E+00  0.78242896189E+03  0.78242896190E+03  0.25500000920E-02 0.  1.
        2   -1    0    0  501    0  0.00000000000E+00  0.00000000000E+00 -0.23089973113E+04  0.23089973113E+04  0.25500000920E-02 0. -1.
    10030    2    1    2    0    0  0.00000000000E+00  0.00000000000E+00 -0.15265683494E+04  0.30914262732E+04  0.26882160399E+04 0.  0.
        3    1    3    3  502    0  0.53229658239E+03 -0.16571208632E+03 -0.21697697909E+04  0.22402457684E+04  0.10100000352E+00 0. -1.
       -3    1    3    3    0  502 -0.53229658239E+03  0.16571208632E+03  0.64320144150E+03  0.85118050478E+03  0.10100000352E+00 0.  1.
</event>
<event>
 5   0  0.3013407E-06  0.2695019E+04  0.7818609E-02  0.8336623E-01
        1   -1    0    0  501    0  0.00000000000E+00  0.00000000000E+00  0.20984012013E+04  0.20984012013E+04  0.50400001928E-02 0. -1.
       -1   -1    0    0    0  501  0.00000000000E+00  0.00000000000E+00 -0.86531711944E+03  0.86531711945E+03  0.50400001928E-02 0.  1.
    10030    2    1    2    0    0  0.00000000000E+00  0.00000000000E+00  0.12330840818E+04  0.29637183207E+04  0.26950194678E+04 0.  0.
        4    1    3    3  502    0 -0.82422667052E+03 -0.23379136605E+03  0.17603235188E+04  0.19577406649E+04  0.12699999809E+01 0. -1.
       -4    1    3    3    0  502  0.82422667052E+03  0.23379136605E+03 -0.52723943697E+03  0.10059776558E+04  0.12699999809E+01 0.  1.
</event>
<event>
 5   0  0.3089218E-06  0.2696217E+04  0.7818609E-02  0.8336233E-01
       -1   -1    0    0    0  501  0.00000000000E+00  0.00000000000E+00  0.66329404137E+03  0.66329404139E+03  0.50400001928E-02 0.  1.
        1   -1    0    0  501    0  0.00000000000E+00  0.00000000000E+00 -0.27399558303E+04  0.27399558303E+04  0.50400001928E-02 0. -1.
    10030    2    1    2    0    0  0.00000000000E+00  0.00000000000E+00 -0.20766617889E+04  0.34032498717E+04  0.26962168873E+04 0.  0.
        5    1    3    3  502    0  0.11933494776E+04  0.12332764279E+03 -0.18144560947E+04  0.21752162405E+04  0.46999998093E+01 0. -1.
       -5    1    3    3    0  502 -0.11933494776E+04 -0.12332764279E+03 -0.26220569416E+03  0.12280336312E+04  0.46999998093E+01 0.  1.
</event>
<event>
 5   0  0.7812908E-06  0.2704451E+04  0.7818609E-02  0.8333562E-01
       -2   -1    0    0    0  501  0.00000000000E+00  0.00000000000E+00  0.88226033819E+03  0.88226033819E+03  0.25500000920E-02 0.  1.
        2   -1    0    0  501    0  0.00000000000E+00  0.00000000000E+00 -0.20725324877E+04  0.20725324877E+04  0.25500000920E-02 0. -1.
    10030    2    1    2    0    0  0.00000000000E+00  0.00000000000E+00 -0.11902721495E+04  0.29547928259E+04  0.27044505642E+04 0.  0.
        5    1    3    3  502    0 -0.11677823121E+04 -0.15598796279E+03  0.12995576500E+03  0.11853093958E+04  0.46999998093E+01 0.  1.
       -5    1    3    3    0  502  0.11677823121E+04  0.15598796279E+03 -0.13202279145E+04  0.17694834301E+04  0.46999998093E+01 0. -1.
</event>
<event>
 5   0  0.3199840E-06  0.2694616E+04  0.7818609E-02  0.8336754E-01
       -1   -1    0    0    0  501  0.00000000000E+00  0.00000000000E+00  0.16412768173E+04  0.16412768173E+04  0.50400001928E-02 0. -1.
        1   -1    0    0  501    0  0.00000000000E+00  0.00000000000E+00 -0.11059916403E+04  0.11059916403E+04  0.50400001928E-02 0.  1.
    10030    2    1    2    0    0  0.00000000000E+00  0.00000000000E+00  0.53528517702E+03  0.27472684577E+04  0.26946156976E+04 0.  0.
        1    1    3    3  502    0 -0.65769891669E+03 -0.44689257722E+03  0.13765335756E+04  0.15896935319E+04  0.50400001928E-02 0. -1.
       -1    1    3    3    0  502  0.65769891669E+03  0.44689257722E+03 -0.84124839859E+03  0.11575749258E+04  0.50400001928E-02 0.  1.
</event>
<event>
 5   0  0.7812908E-06  0.2705389E+04  0.7818609E-02  0.8333259E-01
       -2   -1    0    0    0  501  0.00000000000E+00  0.00000000000E+00  0.16700527138E+04  0.16700527138E+04  0.25500000920E-02 0.  1.
        2   -1    0    0  501    0  0.00000000000E+00  0.00000000000E+00 -0.10956432644E+04  0.10956432644E+04  0.25500000920E-02 0. -1.
    10030    2    1    2    0    0  0.00000000000E+00  0.00000000000E+00  0.57440944940E+03  0.27656959782E+04  0.27053887019E+04 0.  0.
        5    1    3    3  502    0 -0.67418035557E+03  0.79572531964E+03  0.11678375241E+04  0.15657472685E+04  0.46999998093E+01 0.  1.
       -5    1    3    3    0  502  0.67418035557E+03 -0.79572531964E+03 -0.59342807467E+03  0.11999487097E+04  0.46999998093E+01 0. -1.
</event>
<event>
 5   0  0.3046300E-06  0.2708179E+04  0.7818609E-02  0.8332356E-01
        1   -1    0    0  501    0  0.00000000000E+00  0.00000000000E+00  0.22323585721E+04  0.22323585721E+04  0.50400001928E-02 0.  1.
       -1   -1    0    0    0  501  0.00000000000E+00  0.00000000000E+00 -0.82135505173E+03  0.82135505175E+03  0.50400001928E-02 0. -1.
    10030    2    1    2    0    0  0.00000000000E+00  0.00000000000E+00  0.14110035203E+04  0.30537136238E+04  0.27081794553E+04 0.  0.
        2    1    3    3  502    0 -0.92226634311E+03 -0.96883470796E+02 -0.40710210636E+03  0.10127653922E+04  0.25500000920E-02 0. -1.
       -2    1    3    3    0  502  0.92226634311E+03  0.96883470796E+02  0.18181056267E+04  0.20409482317E+04  0.25500000920E-02 0.  1.
</event>
<event>
 5   0  0.3028601E-06  0.2767533E+04  0.7818609E-02  0.8313419E-01
       -1   -1    0    0    0  501  0.00000000000E+00  0.00000000000E+00  0.12524777378E+04  0.12524777378E+04  0.50400001928E-02 0.  1.
        1   -1    0    0  501    0  0.00000000000E+00  0.00000000000E+00 -0.15288176531E+04  0.15288176531E+04  0.50400001928E-02 0. -1.
    10030    2    1    2    0    0  0.00000000000E+00  0.00000000000E+00 -0.27633991525E+03  0.27812953909E+04  0.27675332523E+04 0.  0.
        3    1    3    3  502    0 -0.77731080076E+03 -0.10541569109E+04  0.31053791194E+03  0.13460656295E+04  0.10100000352E+00 0.  1.
       -3    1    3    3    0  502  0.77731080076E+03  0.10541569109E+04 -0.58687782719E+03  0.14352297614E+04  0.10100000352E+00 0. -1.
</event>
<event>
 5   0  0.3089218E-06  0.2660497E+04  0.7818609E-02  0.8347937E-01
        1   -1    0    0  501    0  0.00000000000E+00  0.00000000000E+00  0.17172694140E+04  0.17172694140E+04  0.50400001928E-02 0.  1.
       -1   -1    0    0    0  501  0.00000000000E+00  0.00000000000E+00 -0.10304507967E+04  0.10304507967E+04  0.50400001928E-02 0. -1.
    10030    2    1    2    0    0  0.00000000000E+00  0.00000000000E+00  0.68681861726E+03  0.27477202107E+04  0.26604974240E+04 0.  0.
        5    1    3    3  502    0 -0.98173436870E+03 -0.67072297182E+03  0.95951334632E+03  0.15278611283E+04  0.46999998093E+01 0.  1.
       -5    1    3    3    0  502  0.98173436870E+03  0.67072297182E+03 -0.27269472906E+03  0.12198590824E+04  0.46999998093E+01 0. -1.
</event>
<event>
 5   0  0.7838364E-06  0.2760438E+04  0.7818609E-02  0.8315657E-01
        2   -1    0    0  501    0  0.00000000000E+00  0.00000000000E+00  0.24206201537E+04  0.24206201537E+04  0.25500000920E-02 0. -1.
       -2   -1    0    0    0  501  0.00000000000E+00  0.00000000000E+00 -0.78698999159E+03  0.78698999159E+03  0.25500000920E-02 0.  1.
    10030    2    1    2    0    0  0.00000000000E+00  0.00000000000E+00  0.16336301621E+04  0.32076101453E+04  0.27604375265E+04 0.  0.
        2    1    3    3  502    0 -0.99649744172E+03  0.71499724739E+03  0.81193769499E+02  0.12291544424E+04  0.25500000920E-02 0.  1.
       -2    1    3    3    0  502  0.99649744172E+03 -0.71499724739E+03  0.15524363926E+04  0.19784557029E+04  0.25500000920E-02 0. -1.
</event>
<event>
 5   0  0.8407622E-06  0.2693919E+04  0.7818609E-02  0.8336981E-01
        2   -1    0    0  501    0  0.00000000000E+00  0.00000000000E+00  0.12488648728E+04  0.12488648728E+04  0.25500000920E-02 0. -1.
       -2   -1    0    0    0  501  0.00000000000E+00  0.00000000000E+00 -0.14527588797E+04  0.14527588797E+04  0.25500000920E-02 0.  1.
    10030    2    1    2    0    0  0.00000000000E+00  0.00000000000E+00 -0.20389400695E+03  0.27016237525E+04  0.26939187319E+04 0.  0.
        1    1    3    3  502    0  0.11142108229E+04 -0.70359148681E+03 -0.38165833717E+03  0.13719219455E+04  0.50400001928E-02 0. -1.
       -1    1    3    3    0  502 -0.11142108229E+04  0.70359148681E+03  0.17776433022E+03  0.13297018069E+04  0.50400001928E-02 0.  1.
</event>
<event>
 5   0  0.3199840E-06  0.2686270E+04  0.7818609E-02  0.8339474E-01
        1   -1    0    0  501    0  0.00000000000E+00  0.00000000000E+00  0.17350164861E+04  0.17350164861E+04  0.50400001928E-02 0. -1.
       -1   -1    0    0    0  501  0.00000000000E+00  0.00000000000E+00 -0.10397663549E+04  0.10397663549E+04  0.50400001928E-02 0.  1.
    10030    2    1    2    0    0  0.00000000000E+00  0.00000000000E+00  0.69525013114E+03  0.27747828410E+04  0.26862701037E+04 0.  0.
        1    1    3    3  502    0  0.31224139249E+02 -0.11985878555E+04 -0.27765021728E+03  0.12307223234E+04  0.50400001928E-02 0.  1.
       -1    1    3    3    0  502 -0.31224139249E+02  0.11985878555E+04  0.97290034841E+03  0.15440605176E+04  0.50400001928E-02 0. -1.
</event>
<event>
 5   0  0.3028601E-06  0.2552845E+04  0.7818609E-02  0.8384397E-01
        1   -1    0    0  501    0  0.00000000000E+00  0.00000000000E+00  0.16719445780E+04  0.16719445780E+04  0.50400001928E-02 0.  1.
       -1   -1    0    0    0  501  0.00000000000E+00  0.00000000000E+00 -0.97446701294E+03  0.97446701295E+03  0.50400001928E-02 0. -1.
    10030    2    1    2    0    0  0.00000000000E+00  0.00000000000E+00  0.69747756503E+03  0.26464115909E+04  0.25528453449E+04 0.  0.
        3    1    3    3  502    0 -0.71803862784E+03 -0.60181237799E+03  0.12474011874E+04  0.15600536343E+04  0.10100000352E+00 0.  1.
       -3    1    3    3    0  502  0.71803862784E+03  0.60181237799E+03 -0.54992362234E+03  0.10863579567E+04  0.10100000352E+00 0. -1.
</event>
<event>
 5   0  0.3028601E-06  0.2754474E+04  0.7818609E-02  0.8317543E-01
       -1   -1    0    0    0  501  0.00000000000E+00  0.00000000000E+00  0.99247402283E+03  0.99247402284E+03  0.50400001928E-02 0. -1.
        1   -1    0    0  501    0  0.00000000000E+00  0.00000000000E+00 -0.19111651201E+04  0.19111651201E+04  0.50400001928E-02 0.  1.
    10030    2    1    2    0    0  0.00000000000E+00  0.00000000000E+00 -0.91869109725E+03  0.29036391429E+04  0.27544739861E+04 0.  0.
        3    1    3    3  502    0 -0.58213666219E+03  0.74331452269E+03  0.59764122457E+03  0.11173963561E+04  0.10100000352E+00 0. -1.
       -3    1    3    3    0  502  0.58213666219E+03 -0.74331452269E+03 -0.15163323218E+04  0.17862427868E+04  0.10100000352E+00 0.  1.
</event>
<event>
 5   0  0.3013407E-06  0.2469411E+04  0.7818609E-02  0.8413965E-01
       -1   -1    0    0    0  501  0.00000000000E+00  0.00000000000E+00  0.98059253472E+03  0.98059253473E+03  0.50400001928E-02 0. -1.
        1   -1    0    0  501    0  0.00000000000E+00  0.00000000000E+00 -0.15546703005E+04  0.15546703005E+04  0.50400001928E-02 0.  1.
    10030    2    1    2    0    0  0.00000000000E+00  0.00000000000E+00 -0.57407776581E+03  0.25352628353E+04  0.24694113393E+04 0.  0.
        4    1    3    3  502    0  0.10908838524E+04 -0.14139574610E+03 -0.86277490521E+03  0.13979994587E+04  0.12699999809E+01 0.  1.
       -4    1    3    3    0  502 -0.10908838524E+04  0.14139574610E+03  0.28869713940E+03  0.11372633766E+04  0.12699999809E+01 0. -1.
</event>
<event>
 5   0  0.8407622E-06  0.2662791E+04  0.7818609E-02  0.8347180E-01
        2   -1    0    0  501    0  0.00000000000E+00  0.00000000000E+00  0.26504544470E+04  0.26504544470E+04  0.25500000920E-02 0.  1.
       -2   -1    0    0    0  501  0.00000000000E+00  0.00000000000E+00 -0.66879627262E+03  0.66879627263E+03  0.25500000920E-02 0. -1.
    10030    2    1    2    0    0  0.00000000000E+00  0.00000000000E+00  0.19816581744E+04  0.33192507197E+04  0.26627910582E+04 0.  0.
        1    1    3    3  502    0  0.10074786902E+03 -0.76925604197E+03 -0.35790849303E+03  0.85440241142E+03  0.50400001928E-02 0. -1.
       -1    1    3    3    0  502 -0.10074786902E+03  0.76925604197E+03  0.23395666674E+04  0.24648483082E+04  0.50400001928E-02 0.  1.
</event>
<event>
 5   0  0.8213334E-06  0.2718621E+04  0.7818609E-02  0.8328988E-01
       -2   -1    0    0    0  501  0.00000000000E+00  0.00000000000E+00  0.80449983780E+03  0.80449983780E+03  0.25500000920E-02 0. -1.
        2   -1    0    0  501    0  0.00000000000E+00  0.00000000000E+00 -0.22967374138E+04  0.22967374138E+04  0.25500000920E-02 0.  1.
    10030    2    1    2    0    0  0.00000000000E+00  0.00000000000E+00 -0.14922375761E+04  0.31012372516E+04  0.27186208834E+04 0.  0.
        3    1    3    3  502    0 -0.21999668203E+03  0.10314066521E+04  0.23221161084E+03  0.10798705777E+04  0.10100000352E+00 0. -1.
       -3    1    3    3    0  502  0.21999668203E+03 -0.10314066521E+04 -0.17244491869E+04  0.20213666739E+04  0.10100000352E+00 0.  1.
</event>
<event>
 5   0  0.3028601E-06  0.2685308E+04  0.7818609E-02  0.8339788E-01
        1   -1    0    0  501    0  0.00000000000E+00  0.00000000000E+00  0.20162680767E+04  0.20162680767E+04  0.50400001928E-02 0.  1.
       -1   -1    0    0    0  501  0.00000000000E+00  0.00000000000E+00 -0.89408710548E+03  0.89408710549E+03  0.50400001928E-02 0. -1.
    10030    2    1    2    0    0  0.00000000000E+00  0.00000000000E+00  0.11221809712E+04  0.29103551822E+04  0.26853076462E+04 0.  0.
        3    1    3    3  502    0 -0.91438757267E+03 -0.26122866588E+03  0.15883509835E+04  0.18512708894E+04  0.10100000352E+00 0.  1.
       -3    1    3    3    0  502  0.91438757267E+03  0.26122866588E+03 -0.46617001221E+03  0.10590842929E+04  0.10100000352E+00 0. -1.
</event>
<event>
 5   0  0.7729970E-06  0.2708271E+04  0.7818609E-02  0.8332326E-01
       -2   -1    0    0    0  501  0.00000000000E+00  0.00000000000E+00  0.13973139371E+04  0.13973139371E+04  0.25500000920E-02 0.  1.
        2   -1    0    0  501    0  0.00000000000E+00  0.00000000000E+00 -0.13122911594E+04  0.13122911594E+04  0.25500000920E-02 0. -1.
    10030    2    1    2    0    0  0.00000000000E+00  0.00000000000E+00  0.85022777694E+02  0.27096050965E+04  0.27082708332E+04 0.  0.
        4    1    3    3  502    0 -0.92067581265E+03 -0.25079857507E+03  0.10037850494E+04  0.13849656731E+04  0.12699999809E+01 0.  1.
       -4    1    3    3    0  502  0.92067581265E+03  0.25079857507E+03 -0.91876227170E+03  0.13246394234E+04  0.12699999809E+01 0. -1.
</event>
<event>
 5   0  0.3028601E-06  0.2696115E+04  0.7818609E-02  0.8336267E-01
        1   -1    0    0  501    0  0.00000000000E+00  0.00000000000E+00  0.18562903244E+04  0.18562903244E+04  0.50400001928E-02 0. -1.
       -1   -1    0    0    0  501  0.00000000000E+00  0.00000000000E+00 -0.97897314518E+03  0.97897314519E+03  0.50400001928E-02 0.  1.
    10030    2    1    2    0    0  0.00000000000E+00  0.00000000000E+00  0.87731717926E+03  0.28352634696E+04  0.26961145208E+04 0.  0.
        3    1    3    3  502    0  0.11944762098E+04 -0.74174481184E+02 -0.21383450250E+03  0.12157304282E+04  0.10100000352E+00 0.  1.
       -3    1    3    3    0  502 -0.11944762098E+04  0.74174481184E+02  0.10911516818E+04  0.16195330414E+04  0.10100000352E+00 0. -1.
</event>
<event>
 5   0  0.3028601E-06  0.2695838E+04  0.7818609E-02  0.8336357E-01
       -1   -1    0    0    0  501  0.00000000000E+00  0.00000000000E+00  0.11759892025E+04  0.11759892025E+04  0.50400001928E-02 0. -1.
        1   -1    0    0  501    0  0.00000000000E+00  0.00000000000E+00 -0.15449853516E+04  0.15449853516E+04  0.50400001928E-02 0.  1.
    10030    2    1    2    0    0  0.00000000000E+00  0.00000000000E+00 -0.36899614910E+03  0.27209745542E+04  0.26958383421E+04 0.  0.
        3    1    3    3  502    0 -0.23710823378E+03 -0.12322618323E+04 -0.68122145803E+03  0.14278488095E+04  0.10100000352E+00 0.  1.
       -3    1    3    3    0  502  0.23710823378E+03  0.12322618323E+04  0.31222530894E+03  0.12931257447E+04  0.10100000352E+00 0. -1.
</event>
<event>
 5   0  0.7812908E-06  0.2600774E+04  0.7818609E-02  0.8367938E-01
       -2   -1    0    0    0  501  0.00000000000E+00  0.00000000000E+00  0.10960934472E+04  0.10960934472E+04  0.25500000920E-02 0. -1.
        2   -1    0    0  501    0  0.00000000000E+00  0.00000000000E+00 -0.15427579319E+04  0.15427579319E+04  0.25500000920E-02 0.  1.
    10030    2    1    2    0    0  0.00000000000E+00  0.00000000000E+00 -0.44666448472E+03  0.26388513791E+04  0.26007743922E+04 0.  0.
        5    1    3    3  502    0  0.26389050147E+03  0.12649750425E+04 -0.37101288157E+03  0.13444228141E+04  0.46999998093E+01 0.  1.
       -5    1    3    3    0  502 -0.26389050147E+03 -0.12649750425E+04 -0.75651603151E+02  0.12944285650E+04  0.46999998093E+01 0. -1.
</event>
<event>
 5   0  0.3013407E-06  0.2752373E+04  0.7818609E-02  0.8318209E-01
        1   -1    0    0  501    0  0.00000000000E+00  0.00000000000E+00  0.11931987122E+04  0.11931987122E+04  0.50400001928E-02 0.  1.
       -1   -1    0    0    0  501  0.00000000000E+00  0.00000000000E+00 -0.15872368297E+04  0.15872368297E+04  0.50400001928E-02 0. -1.
    10030    2    1    2    0    0  0.00000000000E+00  0.00000000000E+00 -0.39403811749E+03  0.27804355420E+04  0.27523727518E+04 0.  0.
        4    1    3    3  502    0 -0.56894678843E+02  0.49918952628E+03  0.10972386260E+04  0.12067979959E+04  0.12699999809E+01 0.  1.
       -4    1    3    3    0  502  0.56894678843E+02 -0.49918952628E+03 -0.14912767435E+04  0.15736375460E+04  0.12699999809E+01 0. -1.
</event>
<event>
 5   0  0.3028601E-06  0.2716706E+04  0.7818609E-02  0.8329605E-01
        1   -1    0    0  501    0  0.00000000000E+00  0.00000000000E+00  0.13884105120E+04  0.13884105120E+04  0.50400001928E-02 0.  1.
       -1   -1    0    0    0  501  0.00000000000E+00  0.00000000000E+00 -0.13289465004E+04  0.13289465004E+04  0.50400001928E-02 0. -1.
    10030    2    1    2    0    0  0.00000000000E+00  0.00000000000E+00  0.59464011587E+02  0.27173570124E+04  0.27167063080E+04 0.  0.
        3    1    3    3  502    0 -0.78180523333E+02 -0.72819887475E+03 -0.11145426540E+04  0.13336383067E+04  0.10100000352E+00 0. -1.
       -3    1    3    3    0  502  0.78180523333E+02  0.72819887475E+03  0.11740066655E+04  0.13837187057E+04  0.10100000352E+00 0.  1.
</event>
<event>
 5   0  0.7838364E-06  0.2692408E+04  0.7818609E-02  0.8337472E-01
        2   -1    0    0  501    0  0.00000000000E+00  0.00000000000E+00  0.20243458044E+04  0.20243458045E+04  0.25500000920E-02 0. -1.
       -2   -1    0    0    0  501  0.00000000000E+00  0.00000000000E+00 -0.89523504979E+03  0.89523504979E+03  0.25500000920E-02 0.  1.
    10030    2    1    2    0    0  0.00000000000E+00  0.00000000000E+00  0.11291107547E+04  0.29195808542E+04  0.26924080798E+04 0.  0.
        2    1    3    3  502    0 -0.26076039148E+03 -0.10258308800E+04  0.14665707673E+04  0.18086334044E+04  0.25500000920E-02 0. -1.
       -2    1    3    3    0  502  0.26076039148E+03  0.10258308800E+04 -0.33746001260E+03  0.11109474498E+04  0.25500000920E-02 0.  1.
</event>
<event>
 5   0  0.3013407E-06  0.2692938E+04  0.7818609E-02  0.8337300E-01
        1   -1    0    0  501    0  0.00000000000E+00  0.00000000000E+00  0.24466678155E+04  0.24466678155E+04  0.50400001928E-02 0.  1.
       -1   -1    0    0    0  501  0.00000000000E+00  0.00000000000E+00 -0.74099932940E+03  0.74099932942E+03  0.50400001928E-02 0. -1.
    10030    2    1    2    0    0  0.00000000000E+00  0.00000000000E+00  0.17056684861E+04  0.31876671449E+04  0.26929383288E+04 0.  0.
        4    1    3    3  502    0 -0.65871166334E+03  0.88725932210E+03  0.17634841433E+04  0.20811074208E+04  0.12699999809E+01 0.  1.
       -4    1    3    3    0  502  0.65871166334E+03 -0.88725932210E+03 -0.57815657211E+02  0.11065597242E+04  0.12699999809E+01 0. -1.
</event>
<event>
 5   0  0.8407622E-06  0.2706555E+04  0.7818609E-02  0.8332881E-01
        2   -1    0    0  501    0  0.00000000000E+00  0.00000000000E+00  0.25881061117E+04  0.25881061117E+04  0.25500000920E-02 0. -1.
       -2   -1    0    0    0  501  0.00000000000E+00  0.00000000000E+00 -0.70760607044E+03  0.70760607044E+03  0.25500000920E-02 0.  1.
    10030    2    1    2    0    0  0.00000000000E+00  0.00000000000E+00  0.18805000413E+04  0.32957121821E+04  0.27065547071E+04 0.  0.
        1    1    3    3  502    0  0.39269402965E+03 -0.12789118726E+04  0.69208432193E+03  0.15062552531E+04  0.50400001928E-02 0.  1.
       -1    1    3    3    0  502 -0.39269402965E+03  0.12789118726E+04  0.11884157193E+04  0.17894569290E+04  0.50400001928E-02 0. -1.
</event>
<event>
 5   0  0.3046300E-06  0.2700037E+04  0.7818609E-02  0.8334993E-01
       -1   -1    0    0    0  501  0.00000000000E+00  0.00000000000E+00  0.11100735285E+04  0.11100735285E+04  0.50400001928E-02 0. -1.
        1   -1    0    0  501    0  0.00000000000E+00  0.00000000000E+00 -0.16418276488E+04  0.16418276488E+04  0.50400001928E-02 0.  1.
    10030    2    1    2    0    0  0.00000000000E+00  0.00000000000E+00 -0.53175412026E+03  0.27519011773E+04  0.27000366007E+04 0.  0.
        2    1    3    3  502    0 -0.51684858630E+03  0.10772568775E+04  0.37463270897E+03  0.12521838954E+04  0.25500000920E-02 0. -1.
       -2    1    3    3    0  502  0.51684858630E+03 -0.10772568775E+04 -0.90638682923E+03  0.14997172819E+04  0.25500000920E-02 0.  1.
</event>
<event>
 5   0  0.3013407E-06  0.2720449E+04  0.7818609E-02  0.8328400E-01
       -1   -1    0    0    0  501  0.00000000000E+00  0.00000000000E+00  0.11760410701E+04  0.11760410701E+04  0.50400001928E-02 0.  1.
        1   -1    0    0  501    0  0.00000000000E+00  0.00000000000E+00 -0.15732534303E+04  0.15732534303E+04  0.50400001928E-02 0. -1.
    10030    2    1    2    0    0  0.00000000000E+00  0.00000000000E+00 -0.39721236020E+03  0.27492945003E+04  0.27204489686E+04 0.  0.
        4    1    3    3  502    0  0.71252656794E+03 -0.52218223801E+03  0.84669207247E+03  0.12236247293E+04  0.12699999809E+01 0.  1.
       -4    1    3    3    0  502 -0.71252656794E+03  0.52218223801E+03 -0.12439044327E+04  0.15256697710E+04  0.12699999809E+01 0. -1.
</event>
<event>
 5   0  0.8213334E-06  0.2677438E+04  0.7818609E-02  0.8342363E-01
       -2   -1    0    0    0  501  0.00000000000E+00  0.00000000000E+00  0.87834985365E+03  0.87834985365E+03  0.25500000920E-02 0.  1.
        2   -1    0    0  501    0  0.00000000000E+00  0.00000000000E+00 -0.20403807498E+04  0.20403807498E+04  0.25500000920E-02 0. -1.
    10030    2    1    2    0    0  0.00000000000E+00  0.00000000000E+00 -0.11620308961E+04  0.29187306034E+04  0.26774376803E+04 0.  0.
        3    1    3    3  502    0  0.74652265019E+02 -0.12213831155E+04  0.10889496533E+02  0.12237108592E+04  0.10100000352E+00 0. -1.
       -3    1    3    3    0  502 -0.74652265019E+02  0.12213831155E+04 -0.11729203926E+04  0.16950197442E+04  0.10100000352E+00 0.  1.
</event>
<event>
 5   0  0.3028601E-06  0.2703145E+04  0.7818609E-02  0.8333985E-01
        1   -1    0    0  501    0  0.00000000000E+00  0.00000000000E+00  0.16474077480E+04  0.16474077480E+04  0.50400001928E-02 0.  1.
       -1   -1    0    0    0  501  0.00000000000E+00  0.00000000000E+00 -0.11088625504E+04  0.11088625504E+04  0.50400001928E-02 0. -1.
    10030    2    1    2    0    0  0.00000000000E+00  0.00000000000E+00  0.53854519756E+03  0.27562702984E+04  0.27031453953E+04 0.  0.
        3    1    3    3  502    0  0.41546779272E+02  0.86813224159E+03 -0.78613919249E+03  0.11719191798E+04  0.10100000352E+00 0. -1.
       -3    1    3    3    0  502 -0.41546779272E+02 -0.86813224159E+03  0.13246843901E+04  0.15843511187E+04  0.10100000352E+00 0.  1.
</event>
<event>
 5   0  0.7838364E-06  0.2704132E+04  0.7818609E-02  0.8333666E-01
        2   -1    0    0  501    0  0.00000000000E+00  0.00000000000E+00  0.24426954071E+04  0.24426954071E+04  0.25500000920E-02 0.  1.
       -2   -1    0    0    0  501  0.00000000000E+00  0.00000000000E+00 -0.74838741823E+03  0.74838741823E+03  0.25500000920E-02 0. -1.
    10030    2    1    2    0    0  0.00000000000E+00  0.00000000000E+00  0.16943079889E+04  0.31910828253E+04  0.27041320302E+04 0.  0.
        2    1    3    3  502    0 -0.12714569765E+03 -0.90430204038E+03  0.20237763129E+04  0.22202699776E+04  0.25500000920E-02 0.  1.
       -2    1    3    3    0  502  0.12714569765E+03  0.90430204038E+03 -0.32946832409E+03  0.97081284770E+03  0.25500000920E-02 0. -1.
</event>
<event>
 5   0  0.8213334E-06  0.2753492E+04  0.7818609E-02  0.8317854E-01
       -2   -1    0    0    0  501  0.00000000000E+00  0.00000000000E+00  0.11104910901E+04  0.11104910901E+04  0.25500000920E-02 0.  1.
        2   -1    0    0  501    0  0.00000000000E+00  0.00000000000E+00 -0.17068389535E+04  0.17068389536E+04  0.25500000920E-02 0. -1.
    10030    2    1    2    0    0  0.00000000000E+00  0.00000000000E+00 -0.59634786343E+03  0.28173300437E+04  0.27534919286E+04 0.  0.
        3    1    3    3  502    0 -0.85788878129E+03 -0.10732989377E+04 -0.20964825908E+03  0.13899266792E+04  0.10100000352E+00 0.  1.
       -3    1    3    3    0  502  0.85788878129E+03  0.10732989377E+04 -0.38669960435E+03  0.14274033645E+04  0.10100000352E+00 0. -1.
</event>
<event>
 5   0  0.7838364E-06  0.2695106E+04  0.7818609E-02  0.8336595E-01
       -2   -1    0    0    0  501  0.00000000000E+00  0.00000000000E+00  0.13034812553E+04  0.13034812553E+04  0.25500000920E-02 0. -1.
        2   -1    0    0  501    0  0.00000000000E+00  0.00000000000E+00 -0.13931145316E+04  0.13931145316E+04  0.25500000920E-02 0.  1.
    10030    2    1    2    0    0  0.00000000000E+00  0.00000000000E+00 -0.89633276306E+02  0.26965957869E+04  0.26951056962E+04 0.  0.
        2    1    3    3  502    0 -0.22461522722E+03 -0.63541515418E+03 -0.12123783727E+04  0.13871069667E+04  0.25500000920E-02 0.  1.
       -2    1    3    3    0  502  0.22461522722E+03  0.63541515418E+03  0.11227450964E+04  0.13094888201E+04  0.25500000920E-02 0. -1.
</event>
<event>
 5   0  0.7838364E-06  0.2701725E+04  0.7818609E-02  0.8334445E-01
        2   -1    0    0  501    0  0.00000000000E+00  0.00000000000E+00  0.14072555191E+04  0.14072555191E+04  0.25500000920E-02 0.  1.
       -2   -1    0    0    0  501  0.00000000000E+00  0.00000000000E+00 -0.12967296456E+04  0.12967296456E+04  0.25500000920E-02 0. -1.
    10030    2    1    2    0    0  0.00000000000E+00  0.00000000000E+00  0.11052587347E+03  0.27039851647E+04  0.27017253381E+04 0.  0.
        2    1    3    3  502    0  0.12771882634E+04  0.34631450035E+03  0.32694230112E+03  0.13630975246E+04  0.25500000920E-02 0. -1.
       -2    1    3    3    0  502 -0.12771882634E+04 -0.34631450035E+03 -0.21641642765E+03  0.13408876401E+04  0.25500000920E-02 0.  1.
</event>
<event>
 5   0  0.3089218E-06  0.2699086E+04  0.7818609E-02  0.8335301E-01
       -1   -1    0    0    0  501  0.00000000000E+00  0.00000000000E+00  0.21531658969E+04  0.21531658969E+04  0.50400001928E-02 0. -1.
        1   -1    0    0  501    0  0.00000000000E+00  0.00000000000E+00 -0.84585537046E+03  0.84585537047E+03  0.50400001928E-02 0.  1.
    10030    2    1    2    0    0  0.00000000000E+00  0.00000000000E+00  0.13073105264E+04  0.29990212674E+04  0.26990864657E+04 0.  0.
        5    1    3    3  502    0  0.13924189055E+03  0.47934414640E+03  0.20468148288E+04  0.21068061487E+04  0.46999998093E+01 0. -1.
       -5    1    3    3    0  502 -0.13924189055E+03 -0.47934414640E+03 -0.73950430237E+03  0.89221511868E+03  0.46999998093E+01 0.  1.
</event>
<event>
 5   0  0.3199840E-06  0.2764902E+04  0.7818609E-02  0.8314248E-01
       -1   -1    0    0    0  501  0.00000000000E+00  0.00000000000E+00  0.79696674841E+03  0.79696674843E+03  0.50400001928E-02 0.  1.
        1   -1    0    0  501    0  0.00000000000E+00  0.00000000000E+00 -0.23980561136E+04  0.23980561136E+04  0.50400001928E-02 0. -1.
    10030    2    1    2    0    0  0.00000000000E+00  0.00000000000E+00 -0.16010893652E+04  0.31950228621E+04  0.27649021563E+04 0.  0.
        1    1    3    3  502    0  0.10994149837E+04  0.82810347644E+03 -0.65120251085E+03  0.15226731049E+04  0.50400001928E-02 0.  1.
       -1    1    3    3    0  502 -0.10994149837E+04 -0.82810347644E+03 -0.94988685436E+03  0.16723497572E+04  0.50400001928E-02 0. -1.
</event>
<event>
 5   0  0.7838364E-06  0.2692342E+04  0.7818609E-02  0.8337494E-01
       -2   -1    0    0    0  501  0.00000000000E+00  0.00000000000E+00  0.10448586166E+04  0.10448586166E+04  0.25500000920E-02 0.  1.
        2   -1    0    0  501    0  0.00000000000E+00  0.00000000000E+00 -0.17343751570E+04  0.17343751570E+04  0.25500000920E-02 0. -1.
    10030    2    1    2    0    0  0.00000000000E+00  0.00000000000E+00 -0.68951654046E+03  0.27792337736E+04  0.26923423462E+04 0.  0.
        2    1    3    3  502    0  0.16850135909E+03 -0.11962307051E+04 -0.95791156709E+03  0.15417377138E+04  0.25500000920E-02 0. -1.
       -2    1    3    3    0  502 -0.16850135909E+03  0.11962307051E+04  0.26839502663E+03  0.12374960598E+04  0.25500000920E-02 0.  1.
</event>
<event>
 5   0  0.7838364E-06  0.2748898E+04  0.7818609E-02  0.8319311E-01
       -2   -1    0    0    0  501  0.00000000000E+00  0.00000000000E+00  0.16300496915E+04  0.16300496915E+04  0.25500000920E-02 0. -1.
        2   -1    0    0  501    0  0.00000000000E+00  0.00000000000E+00 -0.11589282959E+04  0.11589282960E+04  0.25500000920E-02 0.  1.
    10030    2    1    2    0    0  0.00000000000E+00  0.00000000000E+00  0.47112139552E+03  0.27889779874E+04  0.27488984785E+04 0.  0.
        2    1    3    3  502    0  0.42046814685E+03 -0.32305758925E+02  0.15627904517E+04  0.16186880862E+04  0.25500000920E-02 0. -1.
       -2    1    3    3    0  502 -0.42046814685E+03  0.32305758925E+02 -0.10916690562E+04  0.11702899012E+04  0.25500000920E-02 0.  1.
</event>
<event>
 5   0  0.8213334E-06  0.2700605E+04  0.7818609E-02  0.8334809E-01
       -2   -1    0    0    0  501  0.00000000000E+00  0.00000000000E+00  0.15353642284E+04  0.15353642284E+04  0.25500000920E-02 0. -1.
        2   -1    0    0  501    0  0.00000000000E+00  0.00000000000E+00 -0.11875470018E+04  0.11875470018E+04  0.25500000920E-02 0.  1.
    10030    2    1    2    0    0  0.00000000000E+00  0.00000000000E+00  0.34781722668E+03  0.27229112302E+04  0.27006052552E+04 0.  0.
        3    1    3    3  502    0 -0.28299713398E+03 -0.12421454273E+04  0.62515918614E+03  0.14190971280E+04  0.10100000352E+00 0. -1.
       -3    1    3    3    0  502  0.28299713398E+03  0.12421454273E+04 -0.27734195947E+03  0.13038141022E+04  0.10100000352E+00 0.  1.
</event>
<event>
 5   0  0.3046300E-06  0.2696287E+04  0.7818609E-02  0.8336211E-01
        1   -1    0    0  501    0  0.00000000000E+00  0.00000000000E+00  0.20154830919E+04  0.20154830919E+04  0.50400001928E-02 0.  1.
       -1   -1    0    0    0  501  0.00000000000E+00  0.00000000000E+00 -0.90176451488E+03  0.90176451489E+03  0.50400001928E-02 0. -1.
    10030    2    1    2    0    0  0.00000000000E+00  0.00000000000E+00  0.11137185771E+04  0.29172476068E+04  0.26962871751E+04 0.  0.
        2    1    3    3  502    0 -0.13033325955E+04  0.12276424828E+03  0.20837027109E+03  0.13255810368E+04  0.25500000920E-02 0.  1.
       -2    1    3    3    0  502  0.13033325955E+04 -0.12276424828E+03  0.90534830596E+03  0.15916665701E+04  0.25500000920E-02 0. -1.
</event>
<event>
 5   0  0.3199840E-06  0.2696252E+04  0.7818609E-02  0.8336222E-01
        1   -1    0    0  501    0  0.00000000000E+00  0.00000000000E+00  0.20314911019E+04  0.20314911019E+04  0.50400001928E-02 0. -1.
       -1   -1    0    0    0  501  0.00000000000E+00  0.00000000000E+00 -0.89463518177E+03  0.89463518178E+03  0.50400001928E-02 0.  1.
    10030    2    1    2    0    0  0.00000000000E+00  0.00000000000E+00  0.11368559201E+04  0.29261262837E+04  0.26962517770E+04 0.  0.
        1    1    3    3  502    0  0.49717280590E+02  0.40902042329E+03  0.19614829220E+04  0.20042915876E+04  0.50400001928E-02 0. -1.
       -1    1    3    3    0  502 -0.49717280590E+02 -0.40902042329E+03 -0.82462700189E+03  0.92183469610E+03  0.50400001928E-02 0.  1.
</event>
<event>
 5   0  0.7838364E-06  0.2710374E+04  0.7818609E-02  0.8331647E-01
       -2   -1    0    0    0  501  0.00000000000E+00  0.00000000000E+00  0.90864791375E+03  0.90864791375E+03  0.25500000920E-02 0. -1.
        2   -1    0    0  501    0  0.00000000000E+00  0.00000000000E+00 -0.20211693850E+04  0.20211693850E+04  0.25500000920E-02 0.  1.
    10030    2    1    2    0    0  0.00000000000E+00  0.00000000000E+00 -0.11125214713E+04  0.29298172988E+04  0.27103736606E+04 0.  0.
        2    1    3    3  502    0  0.95801033826E+03 -0.80983388636E+03 -0.11105294754E+04  0.16753777029E+04  0.25500000920E-02 0.  1.
       -2    1    3    3    0  502 -0.95801033826E+03  0.80983388636E+03 -0.19919959349E+01  0.12544395959E+04  0.25500000920E-02 0. -1.
</event>
<event>
 5   0  0.7812908E-06  0.2638179E+04  0.7818609E-02  0.8355347E-01
        2   -1    0    0  501    0  0.00000000000E+00  0.00000000000E+00  0.16031995825E+04  0.16031995825E+04  0.25500000920E-02 0.  1.
       -2   -1    0    0    0  501  0.00000000000E+00  0.00000000000E+00 -0.10853276541E+04  0.10853276541E+04  0.25500000920E-02 0. -1.
    10030    2    1    2    0    0  0.00000000000E+00  0.00000000000E+00  0.51787192846E+03  0.26885272366E+04  0.26381787975E+04 0.  0.
        5    1    3    3  502    0 -0.12651870825E+04  0.10148100460E+02 -0.12124323852E+03  0.12710323956E+04  0.46999998093E+01 0. -1.
       -5    1    3    3    0  502  0.12651870825E+04 -0.10148100460E+02  0.63911516698E+03  0.14174948410E+04  0.46999998093E+01 0.  1.
</event>
<event>
 5   0  0.3046300E-06  0.2702367E+04  0.7818609E-02  0.8334238E-01
       -1   -1    0    0    0  501  0.00000000000E+00  0.00000000000E+00  0.13996763492E+04  0.13996763492E+04  0.50400001928E-02 0.  1.
        1   -1    0    0  501    0  0.00000000000E+00  0.00000000000E+00 -0.13043702974E+04  0.13043702974E+04  0.50400001928E-02 0. -1.
    10030    2    1    2    0    0  0.00000000000E+00  0.00000000000E+00  0.95306051821E+02  0.27040466466E+04  0.27023665597E+04 0.  0.
        2    1    3    3  502    0  0.51346259568E+02  0.86146770115E+03 -0.99267273456E+03  0.13153563002E+04  0.25500000920E-02 0. -1.
       -2    1    3    3    0  502 -0.51346259568E+02 -0.86146770115E+03  0.10879787864E+04  0.13886903464E+04  0.25500000920E-02 0.  1.
</event>
<event>
 5   0  0.3089218E-06  0.2693322E+04  0.7818609E-02  0.8337175E-01
       -1   -1    0    0    0  501  0.00000000000E+00  0.00000000000E+00  0.13285189994E+04  0.13285189994E+04  0.50400001928E-02 0. -1.
        1   -1    0    0  501    0  0.00000000000E+00  0.00000000000E+00 -0.13650509793E+04  0.13650509793E+04  0.50400001928E-02 0.  1.
    10030    2    1    2    0    0  0.00000000000E+00  0.00000000000E+00 -0.36531979870E+02  0.26935699787E+04  0.26933222318E+04 0.  0.
        5    1    3    3  502    0  0.19536743791E+03  0.55380223605E+03  0.11937071586E+04  0.13303474069E+04  0.46999998093E+01 0. -1.
       -5    1    3    3    0  502 -0.19536743791E+03 -0.55380223605E+03 -0.12302391385E+04  0.13632225718E+04  0.46999998093E+01 0.  1.
</event>
<event>
 5   0  0.7729970E-06  0.2709295E+04  0.7818609E-02  0.8331995E-01
        2   -1    0    0  501    0  0.00000000000E+00  0.00000000000E+00  0.11866520842E+04  0.11866520842E+04  0.25500000920E-02 0. -1.
       -2   -1    0    0    0  501  0.00000000000E+00  0.00000000000E+00 -0.15464257820E+04  0.15464257820E+04  0.25500000920E-02 0.  1.
    10030    2    1    2    0    0  0.00000000000E+00  0.00000000000E+00 -0.35977369782E+03  0.27330778661E+04  0.27092946515E+04 0.  0.
        4    1    3    3  502    0  0.44106477760E+03  0.82161208376E+03  0.81132875061E+03  0.12360584568E+04  0.12699999809E+01 0. -1.
       -4    1    3    3    0  502 -0.44106477760E+03 -0.82161208376E+03 -0.11711024484E+04  0.14970194093E+04  0.12699999809E+01 0.  1.
</event>
<event>
 5   0  0.3028601E-06  0.2699462E+04  0.7818609E-02  0.8335180E-01
        1   -1    0    0  501    0  0.00000000000E+00  0.00000000000E+00  0.20160296646E+04  0.20160296646E+04  0.50400001928E-02 0.  1.
       -1   -1    0    0    0  501  0.00000000000E+00  0.00000000000E+00 -0.90364438866E+03  0.90364438867E+03  0.50400001928E-02 0. -1.
    10030    2    1    2    0    0  0.00000000000E+00  0.00000000000E+00  0.11123852759E+04  0.29196740533E+04  0.26994620900E+04 0.  0.
        3    1    3    3  502    0 -0.13295874291E+04  0.53432897700E+01  0.30499064549E+03  0.13641299742E+04  0.10100000352E+00 0.  1.
       -3    1    3    3    0  502  0.13295874291E+04 -0.53432897700E+01  0.80739463045E+03  0.15555440791E+04  0.10100000352E+00 0. -1.
</event>
<event>
 5   0  0.3046300E-06  0.2704151E+04  0.7818609E-02  0.8333659E-01
       -1   -1    0    0    0  501  0.00000000000E+00  0.00000000000E+00  0.16453554831E+04  0.16453554831E+04  0.50400001928E-02 0.  1.
        1   -1    0    0  501    0  0.00000000000E+00  0.00000000000E+00 -0.11110717926E+04  0.11110717926E+04  0.50400001928E-02 0. -1.
    10030    2    1    2    0    0  0.00000000000E+00  0.00000000000E+00  0.53428369052E+03  0.27564272757E+04  0.27041509322E+04 0.  0.
        2    1    3    3  502    0 -0.12798336338E+04 -0.39790896358E+03  0.85362092982E+02  0.13429789129E+04  0.25500000920E-02 0.  1.
       -2    1    3    3    0  502  0.12798336338E+04  0.39790896358E+03  0.44892159754E+03  0.14134483628E+04  0.25500000920E-02 0. -1.
</event>
<event>
 5   0  0.7838364E-06  0.2693295E+04  0.7818609E-02  0.8337184E-01
        2   -1    0    0  501    0  0.00000000000E+00  0.00000000000E+00  0.17607831174E+04  0.17607831174E+04  0.25500000920E-02 0. -1.
       -2   -1    0    0    0  501  0.00000000000E+00  0.00000000000E+00 -0.10299161681E+04  0.10299161681E+04  0.25500000920E-02 0.  1.
    10030    2    1    2    0    0  0.00000000000E+00  0.00000000000E+00  0.73086694932E+03  0.27906992855E+04  0.26932946375E+04 0.  0.
        2    1    3    3  502    0 -0.66732263930E+03  0.86607238505E+03  0.11800324005E+04  0.16086880826E+04  0.25500000920E-02 0. -1.
       -2    1    3    3    0  502  0.66732263930E+03 -0.86607238505E+03 -0.44916545115E+03  0.11820112028E+04  0.25500000920E-02 0.  1.
</event>
<event>
 5   0  0.7812908E-06  0.2704096E+04  0.7818609E-02  0.8333677E-01
        2   -1    0    0  501    0  0.00000000000E+00  0.00000000000E+00  0.10793491842E+04  0.10793491842E+04  0.25500000920E-02 0. -1.
       -2   -1    0    0    0  501  0.00000000000E+00  0.00000000000E+00 -0.16936444046E+04  0.16936444046E+04  0.25500000920E-02 0.  1.
    10030    2    1    2    0    0  0.00000000000E+00  0.00000000000E+00 -0.61429522037E+03  0.27729935889E+04  0.27040959351E+04 0.  0.
        5    1    3    3  502    0  0.53062332989E+03  0.12423338348E+04 -0.25044742003E+03  0.13739361250E+04  0.46999998093E+01 0.  1.
       -5    1    3    3    0  502 -0.53062332989E+03 -0.12423338348E+04 -0.36384780034E+03  0.13990574639E+04  0.46999998093E+01 0. -1.
</event>
<event>
 5   0  0.3013407E-06  0.2689424E+04  0.7818609E-02  0.8338445E-01
        1   -1    0    0  501    0  0.00000000000E+00  0.00000000000E+00  0.18849320012E+04  0.18849320012E+04  0.50400001928E-02 0.  1.
       -1   -1    0    0    0  501  0.00000000000E+00  0.00000000000E+00 -0.95931886106E+03  0.95931886108E+03  0.50400001928E-02 0. -1.
    10030    2    1    2    0    0  0.00000000000E+00  0.00000000000E+00  0.92561314013E+03  0.28442508623E+04  0.26894243403E+04 0.  0.
        4    1    3    3  502    0 -0.95373088277E+03  0.41779404241E+03  0.13627314658E+04  0.17149907053E+04  0.12699999809E+01 0.  1.
       -4    1    3    3    0  502  0.95373088277E+03 -0.41779404241E+03 -0.43711832563E+03  0.11292601570E+04  0.12699999809E+01 0. -1.
</event>
<event>
 5   0  0.7812908E-06  0.2691833E+04  0.7818609E-02  0.8337660E-01
        2   -1    0    0  501    0  0.00000000000E+00  0.00000000000E+00  0.22288630802E+04  0.22288630802E+04  0.25500000920E-02 0.  1.
       -2   -1    0    0    0  501  0.00000000000E+00  0.00000000000E+00 -0.81274215312E+03  0.81274215313E+03  0.25500000920E-02 0. -1.
    10030    2    1    2    0    0  0.00000000000E+00  0.00000000000E+00  0.14161209270E+04  0.30416052333E+04  0.26918328171E+04 0.  0.
        5    1    3    3  502    0  0.11159610075E+03  0.98121583398E+03 -0.32521903714E+03  0.10397248264E+04  0.46999998093E+01 0. -1.
       -5    1    3    3    0  502 -0.11159610075E+03 -0.98121583398E+03  0.17413399642E+04  0.20018804069E+04  0.46999998093E+01 0.  1.
</event>
<event>
 5   0  0.3028601E-06  0.2658939E+04  0.7818609E-02  0.8348452E-01
        1   -1    0    0  501    0  0.00000000000E+00  0.00000000000E+00  0.10518338779E+04  0.10518338779E+04  0.50400001928E-02 0. -1.
       -1   -1    0    0    0  501  0.00000000000E+00  0.00000000000E+00 -0.16803879522E+04  0.16803879522E+04  0.50400001928E-02 0.  1.
    10030    2    1    2    0    0  0.00000000000E+00  0.00000000000E+00 -0.62855407426E+03  0.27322218301E+04  0.26589388682E+04 0.  0.
        3    1    3    3  502    0 -0.11657884931E+04 -0.42044772153E+03  0.18028825374E+03  0.12523350038E+04  0.10100000352E+00 0. -1.
       -3    1    3    3    0  502  0.11657884931E+04  0.42044772153E+03 -0.80884232800E+03  0.14798868264E+04  0.10100000352E+00 0.  1.
</event>
<event>
 5   0  0.7838364E-06  0.2681742E+04  0.7818609E-02  0.8340954E-01
        2   -1    0    0  501    0  0.00000000000E+00  0.00000000000E+00  0.15503303963E+04  0.15503303963E+04  0.25500000920E-02 0. -1.
       -2   -1    0    0    0  501  0.00000000000E+00  0.00000000000E+00 -0.11597105921E+04  0.11597105921E+04  0.25500000920E-02 0.  1.
    10030    2    1    2    0    0  0.00000000000E+00  0.00000000000E+00  0.39061980418E+03  0.27100409884E+04  0.26817416593E+04 0.  0.
        2    1    3    3  502    0 -0.98451190957E+02 -0.32736845420E+03  0.15055535338E+04  0.15438763503E+04  0.25500000920E-02 0. -1.
       -2    1    3    3    0  502  0.98451190957E+02  0.32736845420E+03 -0.11149337296E+04  0.11661646381E+04  0.25500000920E-02 0.  1.
</event>
<event>
 5   0  0.8213334E-06  0.2701050E+04  0.7818609E-02  0.8334664E-01
        2   -1    0    0  501    0  0.00000000000E+00  0.00000000000E+00  0.13926319020E+04  0.13926319020E+04  0.25500000920E-02 0.  1.
       -2   -1    0    0    0  501  0.00000000000E+00  0.00000000000E+00 -0.13096912784E+04  0.13096912784E+04  0.25500000920E-02 0. -1.
    10030    2    1    2    0    0  0.00000000000E+00  0.00000000000E+00  0.82940623586E+02  0.27023231804E+04  0.27010500596E+04 0.  0.
        3    1    3    3  502    0  0.99183806235E+03  0.91620485274E+03  0.68755346262E+02  0.13519990318E+04  0.10100000352E+00 0. -1.
       -3    1    3    3    0  502 -0.99183806235E+03 -0.91620485274E+03  0.14185277324E+02  0.13503241486E+04  0.10100000352E+00 0.  1.
</event>
<event>
 5   0  0.8407622E-06  0.2701744E+04  0.7818609E-02  0.8334439E-01
       -2   -1    0    0    0  501  0.00000000000E+00  0.00000000000E+00  0.11423292861E+04  0.11423292861E+04  0.25500000920E-02 0.  1.
        2   -1    0    0  501    0  0.00000000000E+00  0.00000000000E+00 -0.15974855791E+04  0.15974855791E+04  0.25500000920E-02 0. -1.
    10030    2    1    2    0    0  0.00000000000E+00  0.00000000000E+00 -0.45515629296E+03  0.27398148652E+04  0.27017435564E+04 0.  0.
        1    1    3    3  502    0  0.20601054411E+02 -0.19944286668E+03 -0.15823118955E+04  0.15949648257E+04  0.50400001928E-02 0. -1.
       -1    1    3    3    0  502 -0.20601054411E+02  0.19944286668E+03  0.11271556026E+04  0.11448500395E+04  0.50400001928E-02 0.  1.
</event>
<event>
 5   0  0.3199840E-06  0.2729904E+04  0.7818609E-02  0.8325367E-01
       -1   -1    0    0    0  501  0.00000000000E+00  0.00000000000E+00  0.23597093008E+04  0.23597093008E+04  0.50400001928E-02 0.  1.
        1   -1    0    0  501    0  0.00000000000E+00  0.00000000000E+00 -0.78954407590E+03  0.78954407592E+03  0.50400001928E-02 0. -1.
    10030    2    1    2    0    0  0.00000000000E+00  0.00000000000E+00  0.15701652249E+04  0.31492533767E+04  0.27299043934E+04 0.  0.
        1    1    3    3  502    0 -0.37132821433E+03 -0.79117850000E+03 -0.42442247561E+03  0.97158761800E+03  0.50400001928E-02 0. -1.
       -1    1    3    3    0  502  0.37132821433E+03  0.79117850000E+03  0.19945877005E+04  0.21776657587E+04  0.50400001928E-02 0.  1.
</event>
<event>
 5   0  0.8213334E-06  0.2700625E+04  0.7818609E-02  0.8334802E-01
       -2   -1    0    0    0  501  0.00000000000E+00  0.00000000000E+00  0.14064019647E+04  0.14064019647E+04  0.25500000920E-02 0. -1.
        2   -1    0    0  501    0  0.00000000000E+00  0.00000000000E+00 -0.12964598213E+04  0.12964598213E+04  0.25500000920E-02 0.  1.
    10030    2    1    2    0    0  0.00000000000E+00  0.00000000000E+00  0.10994214337E+03  0.27028617860E+04  0.27006248461E+04 0.  0.
        3    1    3    3  502    0  0.88976113512E+03 -0.68042513010E+02  0.10692398109E+04  0.13926874899E+04  0.10100000352E+00 0. -1.
       -3    1    3    3    0  502 -0.88976113512E+03  0.68042513010E+02 -0.95929766752E+03  0.13101742961E+04  0.10100000352E+00 0.  1.
</event>
<event>
 5   0  0.3013407E-06  0.2675514E+04  0.7818609E-02  0.8342994E-01
       -1   -1    0    0    0  501  0.00000000000E+00  0.00000000000E+00  0.14746132074E+04  0.14746132074E+04  0.50400001928E-02 0. -1.
        1   -1    0    0  501    0  0.00000000000E+00  0.00000000000E+00 -0.12136019035E+04  0.12136019035E+04  0.50400001928E-02 0.  1.
    10030    2    1    2    0    0  0.00000000000E+00  0.00000000000E+00  0.26101130389E+03  0.26882151109E+04  0.26755137043E+04 0.  0.
        4    1    3    3  502    0  0.61305099704E+03 -0.46081791812E+03  0.12317962612E+04  0.14510369811E+04  0.12699999809E+01 0. -1.
       -4    1    3    3    0  502 -0.61305099704E+03  0.46081791812E+03 -0.97078495731E+03  0.12371781298E+04  0.12699999809E+01 0.  1.
</event>
<event>
 5   0  0.7812908E-06  0.2677108E+04  0.7818609E-02  0.8342471E-01
        2   -1    0    0  501    0  0.00000000000E+00  0.00000000000E+00  0.15554466889E+04  0.15554466889E+04  0.25500000920E-02 0. -1.
       -2   -1    0    0    0  501  0.00000000000E+00  0.00000000000E+00 -0.11519052920E+04  0.11519052920E+04  0.25500000920E-02 0.  1.
    10030    2    1    2    0    0  0.00000000000E+00  0.00000000000E+00  0.40354139688E+03  0.27073519809E+04  0.26771083448E+04 0.  0.
        5    1    3    3  502    0  0.44368619105E+03 -0.12627852502E+04  0.18673130855E+03  0.13514343106E+04  0.46999998093E+01 0.  1.
       -5    1    3    3    0  502 -0.44368619105E+03  0.12627852502E+04  0.21681008833E+03  0.13559176703E+04  0.46999998093E+01 0. -1.
</event>
<event>
 5   0  0.3013407E-06  0.2769685E+04  0.7818609E-02  0.8312742E-01
       -1   -1    0    0    0  501  0.00000000000E+00  0.00000000000E+00  0.89812820482E+03  0.89812820483E+03  0.50400001928E-02 0. -1.
        1   -1    0    0  501    0  0.00000000000E+00  0.00000000000E+00 -0.21353175555E+04  0.21353175555E+04  0.50400001928E-02 0.  1.
    10030    2    1    2    0    0  0.00000000000E+00  0.00000000000E+00 -0.12371893507E+04  0.30334457603E+04  0.27696851250E+04 0.  0.
        4    1    3    3  502    0 -0.19713442112E+03 -0.23465907492E+03 -0.20977086425E+04  0.21199787790E+04  0.12699999809E+01 0.  1.
       -4    1    3    3    0  502  0.19713442112E+03  0.23465907492E+03  0.86051929187E+03  0.91346698135E+03  0.12699999809E+01 0. -1.
</event>
<event>
 5   0  0.3028601E-06  0.2734250E+04  0.7818609E-02  0.8323977E-01
        1   -1    0    0  501    0  0.00000000000E+00  0.00000000000E+00  0.16089586240E+04  0.16089586240E+04  0.50400001928E-02 0. -1.
       -1   -1    0    0    0  501  0.00000000000E+00  0.00000000000E+00 -0.11616400562E+04  0.11616400562E+04  0.50400001928E-02 0.  1.
    10030    2    1    2    0    0  0.00000000000E+00  0.00000000000E+00  0.44731856777E+03  0.27705986802E+04  0.27342500152E+04 0.  0.
        3    1    3    3  502    0  0.22322157440E+03 -0.13484495116E+04  0.19348388538E+03  0.13804274631E+04  0.10100000352E+00 0.  1.
       -3    1    3    3    0  502 -0.22322157440E+03  0.13484495116E+04  0.25383468239E+03  0.13901712171E+04  0.10100000352E+00 0. -1.
</event>
<event>
 5   0  0.8407622E-06  0.2745663E+04  0.7818609E-02  0.8320339E-01
       -2   -1    0    0    0  501  0.00000000000E+00  0.00000000000E+00  0.66842006871E+03  0.66842006871E+03  0.25500000920E-02 0. -1.
        2   -1    0    0  501    0  0.00000000000E+00  0.00000000000E+00 -0.28195826749E+04  0.28195826749E+04  0.25500000920E-02 0.  1.
    10030    2    1    2    0    0  0.00000000000E+00  0.00000000000E+00 -0.21511626062E+04  0.34880027436E+04  0.27456625032E+04 0.  0.
        1    1    3    3  502    0  0.39510289854E+03  0.10601399158E+03  0.58919285921E+03  0.71728201722E+03  0.50400001928E-02 0. -1.
       -1    1    3    3    0  502 -0.39510289854E+03 -0.10601399158E+03 -0.27403554654E+04  0.27707207264E+04  0.50400001928E-02 0.  1.
</event>
<event>
 5   0  0.7729970E-06  0.2670051E+04  0.7818609E-02  0.8344788E-01
       -2   -1    0    0    0  501  0.00000000000E+00  0.00000000000E+00  0.13056144903E+04  0.13056144903E+04  0.25500000920E-02 0. -1.
        2   -1    0    0  501    0  0.00000000000E+00  0.00000000000E+00 -0.13650985409E+04  0.13650985409E+04  0.25500000920E-02 0.  1.
    10030    2    1    2    0    0  0.00000000000E+00  0.00000000000E+00 -0.59484050673E+02  0.26707130312E+04  0.26700505132E+04 0.  0.
        4    1    3    3  502    0 -0.14948677491E+03  0.45191939516E+03  0.12178498629E+04  0.13075692475E+04  0.12699999809E+01 0. -1.
       -4    1    3    3    0  502  0.14948677491E+03 -0.45191939516E+03 -0.12773339135E+04  0.13631437837E+04  0.12699999809E+01 0.  1.
</event>
<event>
 5   0  0.8213334E-06  0.2676135E+04  0.7818609E-02  0.8342790E-01
        2   -1    0    0  501    0  0.00000000000E+00  0.00000000000E+00  0.23432986379E+04  0.23432986379E+04  0.25500000920E-02 0.  1.
       -2   -1    0    0    0  501  0.00000000000E+00  0.00000000000E+00 -0.76406171971E+03  0.76406171971E+03  0.25500000920E-02 0. -1.
    10030    2    1    2    0    0  0.00000000000E+00  0.00000000000E+00  0.15792369182E+04  0.31073603576E+04  0.26761351140E+04 0.  0.
        3    1    3    3  502    0  0.59424837913E+03 -0.25861447208E+03 -0.56966237009E+03  0.86286024787E+03  0.10100000352E+00 0. -1.
       -3    1    3    3    0  502 -0.59424837913E+03  0.25861447208E+03  0.21488992883E+04  0.22445001098E+04  0.10100000352E+00 0.  1.
</event>
<event>
 5   0  0.3013407E-06  0.2706909E+04  0.7818609E-02  0.8332767E-01
       -1   -1    0    0    0  501  0.00000000000E+00  0.00000000000E+00  0.11501828540E+04  0.11501828540E+04  0.50400001928E-02 0. -1.
        1   -1    0    0  501    0  0.00000000000E+00  0.00000000000E+00 -0.15926497654E+04  0.15926497655E+04  0.50400001928E-02 0.  1.
    10030    2    1    2    0    0  0.00000000000E+00  0.00000000000E+00 -0.44246691148E+03  0.27428326194E+04  0.27069085338E+04 0.  0.
        4    1    3    3  502    0 -0.60559448701E+03  0.76857229239E+03  0.72626391751E+03  0.12185683986E+04  0.12699999809E+01 0. -1.
       -4    1    3    3    0  502  0.60559448701E+03 -0.76857229239E+03 -0.11687308290E+04  0.15242642208E+04  0.12699999809E+01 0.  1.
</event>
<event>
 5   0  0.3046300E-06  0.2709111E+04  0.7818609E-02  0.8332055E-01
       -1   -1    0    0    0  501  0.00000000000E+00  0.00000000000E+00  0.91049997170E+03  0.91049997171E+03  0.50400001928E-02 0.  1.
        1   -1    0    0  501    0  0.00000000000E+00  0.00000000000E+00 -0.20151785439E+04  0.20151785439E+04  0.50400001928E-02 0. -1.
    10030    2    1    2    0    0  0.00000000000E+00  0.00000000000E+00 -0.11046785722E+04  0.29256785156E+04  0.27091105605E+04 0.  0.
        2    1    3    3  502    0  0.36010774382E+03  0.10074973806E+04 -0.14494647753E+04  0.18015761693E+04  0.25500000920E-02 0. -1.
       -2    1    3    3    0  502 -0.36010774382E+03 -0.10074973806E+04  0.34478620305E+03  0.11241023463E+04  0.25500000920E-02 0.  1.
</event>
<event>
 5   0  0.7812908E-06  0.2729912E+04  0.7818609E-02  0.8325364E-01
        2   -1    0    0  501    0  0.00000000000E+00  0.00000000000E+00  0.16233604603E+04  0.16233604603E+04  0.25500000920E-02 0. -1.
       -2   -1    0    0    0  501  0.00000000000E+00  0.00000000000E+00 -0.11476837989E+04  0.11476837989E+04  0.25500000920E-02 0.  1.
    10030    2    1    2    0    0  0.00000000000E+00  0.00000000000E+00  0.47567666143E+03  0.27710442592E+04  0.27299117202E+04 0.  0.
        5    1    3    3  502    0  0.10232758713E+03 -0.47402586864E+02  0.16186151888E+04  0.16225458884E+04  0.46999998093E+01 0. -1.
       -5    1    3    3    0  502 -0.10232758713E+03  0.47402586864E+02 -0.11429385274E+04  0.11484983708E+04  0.46999998093E+01 0.  1.
</event>
<event>
 5   0  0.3199840E-06  0.2690781E+04  0.7818609E-02  0.8338002E-01
        1   -1    0    0  501    0  0.00000000000E+00  0.00000000000E+00  0.12287533244E+04  0.12287533244E+04  0.50400001928E-02 0. -1.
       -1   -1    0    0    0  501  0.00000000000E+00  0.00000000000E+00 -0.14730995912E+04  0.14730995912E+04  0.50400001928E-02 0.  1.
    10030    2    1    2    0    0  0.00000000000E+00  0.00000000000E+00 -0.24434626679E+03  0.27018529155E+04  0.26907813139E+04 0.  0.
        1    1    3    3  502    0 -0.47923416492E+03  0.11587731952E+04 -0.61167806041E+03  0.13951955965E+04  0.50400001928E-02 0. -1.
       -1    1    3    3    0  502  0.47923416492E+03 -0.11587731952E+04  0.36733179361E+03  0.13066573191E+04  0.50400001928E-02 0.  1.
</event>
<event>
 5   0  0.8213334E-06  0.2697184E+04  0.7818609E-02  0.8335919E-01
       -2   -1    0    0    0  501  0.00000000000E+00  0.00000000000E+00  0.67999754073E+03  0.67999754073E+03  0.25500000920E-02 0.  1.
        2   -1    0    0  501    0  0.00000000000E+00  0.00000000000E+00 -0.26745692709E+04  0.26745692709E+04  0.25500000920E-02 0. -1.
    10030    2    1    2    0    0  0.00000000000E+00  0.00000000000E+00 -0.19945717301E+04  0.33545668116E+04  0.26971841070E+04 0.  0.
        3    1    3    3  502    0  0.11391110210E+04 -0.48445605515E+03 -0.16629180203E+04  0.20730576306E+04  0.10100000352E+00 0. -1.
       -3    1    3    3    0  502 -0.11391110210E+04  0.48445605515E+03 -0.33165370981E+03  0.12815091810E+04  0.10100000352E+00 0.  1.
</event>
<event>
 5   0  0.3046300E-06  0.2735708E+04  0.7818609E-02  0.8323511E-01
        1   -1    0    0  501    0  0.00000000000E+00  0.00000000000E+00  0.20096384428E+04  0.20096384429E+04  0.50400001928E-02 0. -1.
       -1   -1    0    0    0  501  0.00000000000E+00  0.00000000000E+00 -0.93102514950E+03  0.93102514951E+03  0.50400001928E-02 0.  1.
    10030    2    1    2    0    0  0.00000000000E+00  0.00000000000E+00  0.10786132934E+04  0.29406635924E+04  0.27357075368E+04 0.  0.
        2    1    3    3  502    0 -0.26631843279E+03  0.11955189295E+04  0.11938897855E+04  0.17104279694E+04  0.25500000920E-02 0. -1.
       -2    1    3    3    0  502  0.26631843279E+03 -0.11955189295E+04 -0.11527649219E+03  0.12302356230E+04  0.25500000920E-02 0.  1.
</event>
<event>
 5   0  0.3013407E-06  0.2692733E+04  0.7818609E-02  0.8337367E-01
       -1   -1    0    0    0  501  0.00000000000E+00  0.00000000000E+00  0.16335586439E+04  0.16335586440E+04  0.50400001928E-02 0.  1.
        1   -1    0    0  501    0  0.00000000000E+00  0.00000000000E+00 -0.11096652869E+04  0.11096652870E+04  0.50400001928E-02 0. -1.
    10030    2    1    2    0    0  0.00000000000E+00  0.00000000000E+00  0.52389335700E+03  0.27432239309E+04  0.26927334227E+04 0.  0.
        4    1    3    3  502    0  0.11151114647E+03 -0.24103366852E+03 -0.10827153258E+04  0.11148121164E+04  0.12699999809E+01 0. -1.
       -4    1    3    3    0  502 -0.11151114647E+03  0.24103366852E+03  0.16066086828E+04  0.16284118145E+04  0.12699999809E+01 0.  1.
</event>
<event>
 5   0  0.2654625E-06  0.2708398E+04  0.7818609E-02  0.8332285E-01
       -3   -1    0    0    0  501  0.00000000000E+00  0.00000000000E+00  0.18950286281E+04  0.18950286308E+04  0.10100000352E+00 0.  1.
        3   -1    0    0  501    0  0.00000000000E+00  0.00000000000E+00 -0.96771863885E+03  0.96771864412E+03  0.10100000352E+00 0. -1.
    10030    2    1    2    0    0  0.00000000000E+00  0.00000000000E+00  0.92730998924E+03  0.28627472749E+04  0.27083977078E+04 0.  0.
        4    1    3    3  502    0 -0.52592074783E+03 -0.42853774705E+03 -0.77515070175E+03  0.10300958484E+04  0.12699999809E+01 0. -1.
       -4    1    3    3    0  502  0.52592074783E+03  0.42853774705E+03  0.17024606910E+04  0.18326514265E+04  0.12699999809E+01 0.  1.
</event>
<event>
 5   0  0.7729970E-06  0.2680781E+04  0.7818609E-02  0.8341268E-01
       -2   -1    0    0    0  501  0.00000000000E+00  0.00000000000E+00  0.13697904780E+04  0.13697904780E+04  0.25500000920E-02 0. -1.
        2   -1    0    0  501    0  0.00000000000E+00  0.00000000000E+00 -0.13116211905E+04  0.13116211905E+04  0.25500000920E-02 0.  1.
    10030    2    1    2    0    0  0.00000000000E+00  0.00000000000E+00  0.58169287485E+02  0.26814116685E+04  0.26807806456E+04 0.  0.
        4    1    3    3  502    0  0.94713571085E+03  0.89488092726E+03  0.34343027875E+03  0.13475251011E+04  0.12699999809E+01 0. -1.
       -4    1    3    3    0  502 -0.94713571085E+03 -0.89488092726E+03 -0.28526099126E+03  0.13338865674E+04  0.12699999809E+01 0.  1.
</event>
<event>
 5   0  0.3089218E-06  0.2681319E+04  0.7818609E-02  0.8341092E-01
       -1   -1    0    0    0  501  0.00000000000E+00  0.00000000000E+00  0.13266968413E+04  0.13266968413E+04  0.50400001928E-02 0.  1.
        1   -1    0    0  501    0  0.00000000000E+00  0.00000000000E+00 -0.13547693852E+04  0.13547693852E+04  0.50400001928E-02 0. -1.
    10030    2    1    2    0    0  0.00000000000E+00  0.00000000000E+00 -0.28072543910E+02  0.26814662266E+04  0.26813192754E+04 0.  0.
        5    1    3    3  502    0  0.18705665028E+03 -0.11146702645E+04 -0.73509325296E+03  0.13482819325E+04  0.46999998093E+01 0. -1.
       -5    1    3    3    0  502 -0.18705665028E+03  0.11146702645E+04  0.70702070905E+03  0.13331842941E+04  0.46999998093E+01 0.  1.
</event>
<event>
 5   0  0.7838364E-06  0.2716297E+04  0.7818609E-02  0.8329736E-01
       -2   -1    0    0    0  501  0.00000000000E+00  0.00000000000E+00  0.14943174930E+04  0.14943174931E+04  0.25500000920E-02 0.  1.
        2   -1    0    0  501    0  0.00000000000E+00  0.00000000000E+00 -0.12343881730E+04  0.12343881730E+04  0.25500000920E-02 0. -1.
    10030    2    1    2    0    0  0.00000000000E+00  0.00000000000E+00  0.25992932009E+03  0.27287056660E+04  0.27162973623E+04 0.  0.
        2    1    3    3  502    0  0.13116163292E+04  0.31230673687E+03  0.29409690621E+03  0.13799876388E+04  0.25500000920E-02 0.  1.
       -2    1    3    3    0  502 -0.13116163292E+04 -0.31230673687E+03 -0.34167586113E+02  0.13487180272E+04  0.25500000920E-02 0. -1.
</event>
<event>
 5   0  0.3013407E-06  0.2726964E+04  0.7818609E-02  0.8326309E-01
        1   -1    0    0  501    0  0.00000000000E+00  0.00000000000E+00  0.14835325650E+04  0.14835325650E+04  0.50400001928E-02 0.  1.
       -1   -1    0    0    0  501  0.00000000000E+00  0.00000000000E+00 -0.12531457745E+04  0.12531457745E+04  0.50400001928E-02 0. -1.
    10030    2    1    2    0    0  0.00000000000E+00  0.00000000000E+00  0.23038679051E+03  0.27366783396E+04  0.27269635606E+04 0.  0.
        4    1    3    3  502    0 -0.21768096553E+03  0.75881761733E+03 -0.10004737420E+04  0.12744169257E+04  0.12699999809E+01 0. -1.
       -4    1    3    3    0  502  0.21768096553E+03 -0.75881761733E+03  0.12308605325E+04  0.14622614139E+04  0.12699999809E+01 0.  1.
</event>
<event>
 5   0  0.3199840E-06  0.2700426E+04  0.7818609E-02  0.8334867E-01
        1   -1    0    0  501    0  0.00000000000E+00  0.00000000000E+00  0.14420341283E+04  0.14420341283E+04  0.50400001928E-02 0.  1.
       -1   -1    0    0    0  501  0.00000000000E+00  0.00000000000E+00 -0.12642382742E+04  0.12642382743E+04  0.50400001928E-02 0. -1.
    10030    2    1    2    0    0  0.00000000000E+00  0.00000000000E+00  0.17779585406E+03  0.27062724026E+04  0.27004256982E+04 0.  0.
        1    1    3    3  502    0  0.10852657024E+04 -0.44671219379E+03  0.75796703034E+03  0.13970924980E+04  0.50400001928E-02 0. -1.
       -1    1    3    3    0  502 -0.10852657024E+04  0.44671219379E+03 -0.58017117628E+03  0.13091799046E+04  0.50400001928E-02 0.  1.
</event>
<event>
 5   0  0.7838364E-06  0.2697779E+04  0.7818609E-02  0.8335726E-01
       -2   -1    0    0    0  501  0.00000000000E+00  0.00000000000E+00  0.13386878755E+04  0.13386878755E+04  0.25500000920E-02 0. -1.
        2   -1    0    0  501    0  0.00000000000E+00  0.00000000000E+00 -0.13591689883E+04  0.13591689883E+04  0.25500000920E-02 0.  1.
    10030    2    1    2    0    0  0.00000000000E+00  0.00000000000E+00 -0.20481112758E+02  0.26978568638E+04  0.26977791202E+04 0.  0.
        2    1    3    3  502    0  0.59022539501E+02 -0.51546142080E+03 -0.12553944678E+04  0.13583811712E+04  0.25500000920E-02 0.  1.
       -2    1    3    3    0  502 -0.59022539501E+02  0.51546142080E+03  0.12349133551E+04  0.13394756926E+04  0.25500000920E-02 0. -1.
</event>
<event>
 5   0  0.7729970E-06  0.2703071E+04  0.7818609E-02  0.8334009E-01
        2   -1    0    0  501    0  0.00000000000E+00  0.00000000000E+00  0.15360992968E+04  0.15360992968E+04  0.25500000920E-02 0. -1.
       -2   -1    0    0    0  501  0.00000000000E+00  0.00000000000E+00 -0.11891476060E+04  0.11891476061E+04  0.25500000920E-02 0.  1.
    10030    2    1    2    0    0  0.00000000000E+00  0.00000000000E+00  0.34695169078E+03  0.27252469029E+04  0.27030714393E+04 0.  0.
        4    1    3    3  502    0 -0.74869412293E+03 -0.10719008505E+04 -0.17157866994E+03  0.13186944968E+04  0.12699999809E+01 0. -1.
       -4    1    3    3    0  502  0.74869412293E+03  0.10719008505E+04  0.51853036073E+03  0.14065524061E+04  0.12699999809E+01 0.  1.
</event>
<event>
 5   0  0.3046300E-06  0.2708850E+04  0.7818609E-02  0.8332139E-01
       -1   -1    0    0    0  501  0.00000000000E+00  0.00000000000E+00  0.11512798959E+04  0.11512798959E+04  0.50400001928E-02 0.  1.
        1   -1    0    0  501    0  0.00000000000E+00  0.00000000000E+00 -0.15934148737E+04  0.15934148737E+04  0.50400001928E-02 0. -1.
    10030    2    1    2    0    0  0.00000000000E+00  0.00000000000E+00 -0.44213497784E+03  0.27446947697E+04  0.27088495787E+04 0.  0.
        2    1    3    3  502    0 -0.57961860106E+03  0.75731933828E+03  0.75341591241E+03  0.12153706595E+04  0.25500000920E-02 0.  1.
       -2    1    3    3    0  502  0.57961860106E+03 -0.75731933828E+03 -0.11955508902E+04  0.15293241102E+04  0.25500000920E-02 0. -1.
</event>
<event>
 5   0  0.3199840E-06  0.2685078E+04  0.7818609E-02  0.8339863E-01
        1   -1    0    0  501    0  0.00000000000E+00  0.00000000000E+00  0.11545517385E+04  0.11545517385E+04  0.50400001928E-02 0. -1.
       -1   -1    0    0    0  501  0.00000000000E+00  0.00000000000E+00 -0.15611350691E+04  0.15611350691E+04  0.50400001928E-02 0.  1.
    10030    2    1    2    0    0  0.00000000000E+00  0.00000000000E+00 -0.40658333060E+03  0.27156868077E+04  0.26850781800E+04 0.  0.
        1    1    3    3  502    0  0.10253155041E+04  0.86660014102E+03 -0.21540824630E+03  0.13596574569E+04  0.50400001928E-02 0.  1.
       -1    1    3    3    0  502 -0.10253155041E+04 -0.86660014102E+03 -0.19117508430E+03  0.13560293508E+04  0.50400001928E-02 0. -1.
</event>
<event>
 5   0  0.3199840E-06  0.2742317E+04  0.7818609E-02  0.8321404E-01
       -1   -1    0    0    0  501  0.00000000000E+00  0.00000000000E+00  0.10670040753E+04  0.10670040753E+04  0.50400001928E-02 0.  1.
        1   -1    0    0  501    0  0.00000000000E+00  0.00000000000E+00 -0.17620130947E+04  0.17620130947E+04  0.50400001928E-02 0. -1.
    10030    2    1    2    0    0  0.00000000000E+00  0.00000000000E+00 -0.69500901942E+03  0.28290171700E+04  0.27423166504E+04 0.  0.
        1    1    3    3  502    0 -0.98452330523E+03  0.49373567634E+03 -0.11900347328E+04  0.16214942867E+04  0.50400001928E-02 0. -1.
       -1    1    3    3    0  502  0.98452330523E+03 -0.49373567634E+03  0.49502571337E+03  0.12075228832E+04  0.50400001928E-02 0.  1.
</event>
<event>
 5   0  0.7729970E-06  0.2734068E+04  0.7818609E-02  0.8324035E-01
       -2   -1    0    0    0  501  0.00000000000E+00  0.00000000000E+00  0.11654633739E+04  0.11654633739E+04  0.25500000920E-02 0.  1.
        2   -1    0    0  501    0  0.00000000000E+00  0.00000000000E+00 -0.16034674102E+04  0.16034674102E+04  0.25500000920E-02 0. -1.
    10030    2    1    2    0    0  0.00000000000E+00  0.00000000000E+00 -0.43800403625E+03  0.27689307841E+04  0.27340684248E+04 0.  0.
        4    1    3    3  502    0  0.12514920830E+04 -0.54980437000E+03 -0.23544623722E+03  0.13870666251E+04  0.12699999809E+01 0.  1.
       -4    1    3    3    0  502 -0.12514920830E+04  0.54980437000E+03 -0.20255779904E+03  0.13818641590E+04  0.12699999809E+01 0. -1.
</event>
<event>
 5   0  0.3028601E-06  0.2695651E+04  0.7818609E-02  0.8336417E-01
        1   -1    0    0  501    0  0.00000000000E+00  0.00000000000E+00  0.12804264504E+04  0.12804264504E+04  0.50400001928E-02 0.  1.
       -1   -1    0    0    0  501  0.00000000000E+00  0.00000000000E+00 -0.14187725038E+04  0.14187725039E+04  0.50400001928E-02 0. -1.
    10030    2    1    2    0    0  0.00000000000E+00  0.00000000000E+00 -0.13834605344E+03  0.26991989543E+04  0.26956511948E+04 0.  0.
        3    1    3    3  502    0 -0.12771347187E+04  0.83329012048E+02  0.35401426481E+03  0.13279092303E+04  0.10100000352E+00 0. -1.
       -3    1    3    3    0  502  0.12771347187E+04 -0.83329012048E+02 -0.49236031825E+03  0.13712897240E+04  0.10100000352E+00 0.  1.
</event>
<event>
 5   0  0.3199840E-06  0.2706285E+04  0.7818609E-02  0.8332969E-01
        1   -1    0    0  501    0  0.00000000000E+00  0.00000000000E+00  0.16616059696E+04  0.16616059696E+04  0.50400001928E-02 0. -1.
       -1   -1    0    0    0  501  0.00000000000E+00  0.00000000000E+00 -0.11019424099E+04  0.11019424099E+04  0.50400001928E-02 0.  1.
    10030    2    1    2    0    0  0.00000000000E+00  0.00000000000E+00  0.55966355967E+03  0.27635483795E+04  0.27062846018E+04 0.  0.
        1    1    3    3  502    0 -0.28897312587E+03  0.71272591381E+03 -0.85705886096E+03  0.11515353172E+04  0.50400001928E-02 0.  1.
       -1    1    3    3    0  502  0.28897312587E+03 -0.71272591381E+03  0.14167224206E+04  0.16120130622E+04  0.50400001928E-02 0. -1.
</event>
<event>
 5   0  0.3199840E-06  0.2840673E+04  0.7818609E-02  0.8290751E-01
       -1   -1    0    0    0  501  0.00000000000E+00  0.00000000000E+00  0.12091915494E+04  0.12091915494E+04  0.50400001928E-02 0.  1.
        1   -1    0    0  501    0  0.00000000000E+00  0.00000000000E+00 -0.16683514118E+04  0.16683514118E+04  0.50400001928E-02 0. -1.
    10030    2    1    2    0    0  0.00000000000E+00  0.00000000000E+00 -0.45915986239E+03  0.28775429612E+04  0.28406734614E+04 0.  0.
        1    1    3    3  502    0  0.26658006250E+03  0.48424289526E+03 -0.15549191622E+04  0.16502514088E+04  0.50400001928E-02 0. -1.
       -1    1    3    3    0  502 -0.26658006250E+03 -0.48424289526E+03  0.10957592998E+04  0.12272915524E+04  0.50400001928E-02 0.  1.
</event>
<event>
 5   0  0.7729970E-06  0.2786520E+04  0.7818609E-02  0.8307466E-01
       -2   -1    0    0    0  501  0.00000000000E+00  0.00000000000E+00  0.12685344029E+04  0.12685344029E+04  0.25500000920E-02 0.  1.
        2   -1    0    0  501    0  0.00000000000E+00  0.00000000000E+00 -0.15302485403E+04  0.15302485403E+04  0.25500000920E-02 0. -1.
    10030    2    1    2    0    0  0.00000000000E+00  0.00000000000E+00 -0.26171413733E+03  0.27987829432E+04  0.27865196345E+04 0.  0.
        4    1    3    3  502    0  0.30233829948E+02  0.67470216268E+03  0.10931258035E+04  0.12849368576E+04  0.12699999809E+01 0.  1.
       -4    1    3    3    0  502 -0.30233829948E+02 -0.67470216268E+03 -0.13548399408E+04  0.15138460856E+04  0.12699999809E+01 0. -1.
</event>
<event>
 5   0  0.8213334E-06  0.2693930E+04  0.7818609E-02  0.8336977E-01
       -2   -1    0    0    0  501  0.00000000000E+00  0.00000000000E+00  0.90971890644E+03  0.90971890644E+03  0.25500000920E-02 0. -1.
        2   -1    0    0  501    0  0.00000000000E+00  0.00000000000E+00 -0.19943679851E+04  0.19943679851E+04  0.25500000920E-02 0.  1.
    10030    2    1    2    0    0  0.00000000000E+00  0.00000000000E+00 -0.10846490786E+04  0.29040868915E+04  0.26939296668E+04 0.  0.
        3    1    3    3  502    0 -0.29342233473E+03 -0.11316666948E+04  0.17885467580E+03  0.11826898071E+04  0.10100000352E+00 0. -1.
       -3    1    3    3    0  502  0.29342233473E+03  0.11316666948E+04 -0.12635037545E+04  0.17213970844E+04  0.10100000352E+00 0.  1.
</event>
<event>
 5   0  0.7812908E-06  0.2621807E+04  0.7818609E-02  0.8360832E-01
       -2   -1    0    0    0  501  0.00000000000E+00  0.00000000000E+00  0.10552110700E+04  0.10552110701E+04  0.25500000920E-02 0.  1.
        2   -1    0    0  501    0  0.00000000000E+00  0.00000000000E+00 -0.16285532587E+04  0.16285532587E+04  0.25500000920E-02 0. -1.
    10030    2    1    2    0    0  0.00000000000E+00  0.00000000000E+00 -0.57334218867E+03  0.26837643288E+04  0.26218065732E+04 0.  0.
        5    1    3    3  502    0 -0.88138856816E+02 -0.17853503227E+03  0.10396341377E+04  0.10585388259E+04  0.46999998093E+01 0.  1.
       -5    1    3    3    0  502  0.88138856816E+02  0.17853503227E+03 -0.16129763263E+04  0.16252255028E+04  0.46999998093E+01 0. -1.
</event>
<event>
 5   0  0.8213334E-06  0.2701346E+04  0.7818609E-02  0.8334568E-01
        2   -1    0    0  501    0  0.00000000000E+00  0.00000000000E+00  0.23933166919E+04  0.23933166919E+04  0.25500000920E-02 0.  1.
       -2   -1    0    0    0  501  0.00000000000E+00  0.00000000000E+00 -0.76225496629E+03  0.76225496630E+03  0.25500000920E-02 0. -1.
    10030    2    1    2    0    0  0.00000000000E+00  0.00000000000E+00  0.16310617256E+04  0.31555716582E+04  0.27013459862E+04 0.  0.
        3    1    3    3  502    0 -0.56430928692E+03  0.57095564703E+03 -0.45333922634E+03  0.92192829793E+03  0.10100000352E+00 0. -1.
       -3    1    3    3    0  502  0.56430928692E+03 -0.57095564703E+03  0.20844009520E+04  0.22336433603E+04  0.10100000352E+00 0.  1.
</event>
<event>
 5   0  0.3089218E-06  0.2702761E+04  0.7818609E-02  0.8334110E-01
        1   -1    0    0  501    0  0.00000000000E+00  0.00000000000E+00  0.23694983819E+04  0.23694983819E+04  0.50400001928E-02 0.  1.
       -1   -1    0    0    0  501  0.00000000000E+00  0.00000000000E+00 -0.77072399681E+03  0.77072399683E+03  0.50400001928E-02 0. -1.
    10030    2    1    2    0    0  0.00000000000E+00  0.00000000000E+00  0.15987743850E+04  0.31402223787E+04  0.27027610056E+04 0.  0.
        5    1    3    3  502    0 -0.12510581689E+04  0.19580909673E+03  0.13477043201E+04  0.18492746602E+04  0.46999998093E+01 0.  1.
       -5    1    3    3    0  502  0.12510581689E+04 -0.19580909673E+03  0.25107006496E+03  0.12909477185E+04  0.46999998093E+01 0. -1.
</event>
<event>
 5   0  0.7812908E-06  0.2695896E+04  0.7818609E-02  0.8336338E-01
        2   -1    0    0  501    0  0.00000000000E+00  0.00000000000E+00  0.29917230912E+04  0.29917230912E+04  0.25500000920E-02 0. -1.
       -2   -1    0    0    0  501  0.00000000000E+00  0.00000000000E+00 -0.60733022283E+03  0.60733022284E+03  0.25500000920E-02 0.  1.
    10030    2    1    2    0    0  0.00000000000E+00  0.00000000000E+00  0.23843928683E+04  0.35990533140E+04  0.26958960304E+04 0.  0.
        5    1    3    3  502    0  0.12650805422E+04 -0.10327334740E+03  0.17978970900E+04  0.22008067154E+04  0.46999998093E+01 0. -1.
       -5    1    3    3    0  502 -0.12650805422E+04  0.10327334740E+03  0.58649577834E+03  0.13982465986E+04  0.46999998093E+01 0.  1.
</event>
<event>
 5   0  0.7838364E-06  0.2747528E+04  0.7818609E-02  0.8319746E-01
        2   -1    0    0  501    0  0.00000000000E+00  0.00000000000E+00  0.13645192900E+04  0.13645192900E+04  0.25500000920E-02 0. -1.
       -2   -1    0    0    0  501  0.00000000000E+00  0.00000000000E+00 -0.13830716777E+04  0.13830716777E+04  0.25500000920E-02 0.  1.
    10030    2    1    2    0    0  0.00000000000E+00  0.00000000000E+00 -0.18552387694E+02  0.27475909678E+04  0.27475283320E+04 0.  0.
        2    1    3    3  502    0  0.17801833540E+03 -0.62637476740E+03  0.12003761615E+04  0.13656276235E+04  0.25500000920E-02 0. -1.
       -2    1    3    3    0  502 -0.17801833540E+03  0.62637476740E+03 -0.12189285492E+04  0.13819633443E+04  0.25500000920E-02 0.  1.
</event>
<event>
 5   0  0.7812908E-06  0.2718167E+04  0.7818609E-02  0.8329135E-01
       -2   -1    0    0    0  501  0.00000000000E+00  0.00000000000E+00  0.14963165357E+04  0.14963165357E+04  0.25500000920E-02 0.  1.
        2   -1    0    0  501    0  0.00000000000E+00  0.00000000000E+00 -0.12344362336E+04  0.12344362336E+04  0.25500000920E-02 0. -1.
    10030    2    1    2    0    0  0.00000000000E+00  0.00000000000E+00  0.26188030210E+03  0.27307527692E+04  0.27181665501E+04 0.  0.
        5    1    3    3  502    0 -0.68983134834E+03  0.11581131889E+04 -0.43043189109E+02  0.13486913115E+04  0.46999998093E+01 0.  1.
       -5    1    3    3    0  502  0.68983134834E+03 -0.11581131889E+04  0.30492349121E+03  0.13820614578E+04  0.46999998093E+01 0. -1.
</event>
<event>
 5   0  0.3199840E-06  0.2678438E+04  0.7818609E-02  0.8342035E-01
        1   -1    0    0  501    0  0.00000000000E+00  0.00000000000E+00  0.13563306564E+04  0.13563306564E+04  0.50400001928E-02 0.  1.
       -1   -1    0    0    0  501  0.00000000000E+00  0.00000000000E+00 -0.13223230405E+04  0.13223230405E+04  0.50400001928E-02 0. -1.
    10030    2    1    2    0    0  0.00000000000E+00  0.00000000000E+00  0.34007615904E+02  0.26786536969E+04  0.26784378115E+04 0.  0.
        1    1    3    3  502    0  0.77499652859E+03  0.45300138896E+03 -0.97689589637E+03  0.13267085098E+04  0.50400001928E-02 0. -1.
       -1    1    3    3    0  502 -0.77499652859E+03 -0.45300138896E+03  0.10109035123E+04  0.13519451871E+04  0.50400001928E-02 0.  1.
</event>
<event>
 5   0  0.7838364E-06  0.2695730E+04  0.7818609E-02  0.8336392E-01
        2   -1    0    0  501    0  0.00000000000E+00  0.00000000000E+00  0.22491803935E+04  0.22491803935E+04  0.25500000920E-02 0. -1.
       -2   -1    0    0    0  501  0.00000000000E+00  0.00000000000E+00 -0.80773403544E+03  0.80773403544E+03  0.25500000920E-02 0.  1.
    10030    2    1    2    0    0  0.00000000000E+00  0.00000000000E+00  0.14414463580E+04  0.30569144289E+04  0.26957296271E+04 0.  0.
        2    1    3    3  502    0  0.30148313284E+03  0.76113600574E+03  0.19349439694E+04  0.21010064882E+04  0.25500000920E-02 0. -1.
       -2    1    3    3    0  502 -0.30148313284E+03 -0.76113600574E+03 -0.49349761141E+03  0.95590794070E+03  0.25500000920E-02 0.  1.
</event>
<event>
 5   0  0.3089218E-06  0.2691383E+04  0.7818609E-02  0.8337806E-01
        1   -1    0    0  501    0  0.00000000000E+00  0.00000000000E+00  0.19613934284E+04  0.19613934284E+04  0.50400001928E-02 0. -1.
       -1   -1    0    0    0  501  0.00000000000E+00  0.00000000000E+00 -0.92326488343E+03  0.92326488345E+03  0.50400001928E-02 0.  1.
    10030    2    1    2    0    0  0.00000000000E+00  0.00000000000E+00  0.10381285450E+04  0.28846583119E+04  0.26913830460E+04 0.  0.
        5    1    3    3  502    0  0.26954687465E+03 -0.80774275505E+03 -0.59776226991E+03  0.10404065058E+04  0.46999998093E+01 0.  1.
       -5    1    3    3    0  502 -0.26954687465E+03  0.80774275505E+03  0.16358908149E+04  0.18442518061E+04  0.46999998093E+01 0. -1.
</event>
<event>
 5   0  0.3028601E-06  0.2375305E+04  0.7818609E-02  0.8448807E-01
       -1   -1    0    0    0  501  0.00000000000E+00  0.00000000000E+00  0.12798062028E+04  0.12798062029E+04  0.50400001928E-02 0.  1.
        1   -1    0    0  501    0  0.00000000000E+00  0.00000000000E+00 -0.11021340543E+04  0.11021340543E+04  0.50400001928E-02 0. -1.
    10030    2    1    2    0    0  0.00000000000E+00  0.00000000000E+00  0.17767214859E+03  0.23819402571E+04  0.23753046112E+04 0.  0.
        3    1    3    3  502    0  0.61167198361E+03  0.51871982837E+03 -0.78957054282E+03  0.11254485898E+04  0.10100000352E+00 0. -1.
       -3    1    3    3    0  502 -0.61167198361E+03 -0.51871982837E+03  0.96724269141E+03  0.12564916674E+04  0.10100000352E+00 0.  1.
</event>
<event>
 5   0  0.7729970E-06  0.2708948E+04  0.7818609E-02  0.8332107E-01
       -2   -1    0    0    0  501  0.00000000000E+00  0.00000000000E+00  0.77568525102E+03  0.77568525103E+03  0.25500000920E-02 0.  1.
        2   -1    0    0  501    0  0.00000000000E+00  0.00000000000E+00 -0.23651347203E+04  0.23651347203E+04  0.25500000920E-02 0. -1.
    10030    2    1    2    0    0  0.00000000000E+00  0.00000000000E+00 -0.15894494692E+04  0.31408199713E+04  0.27089482234E+04 0.  0.
        4    1    3    3  502    0 -0.81376129979E+03  0.43495815631E+03  0.35492042909E+03  0.98861831597E+03  0.12699999809E+01 0.  1.
       -4    1    3    3    0  502  0.81376129979E+03 -0.43495815631E+03 -0.19443698983E+04  0.21522016553E+04  0.12699999809E+01 0. -1.
</event>
<event>
 5   0  0.3089218E-06  0.2667957E+04  0.7818609E-02  0.8345477E-01
       -1   -1    0    0    0  501  0.00000000000E+00  0.00000000000E+00  0.20417246267E+04  0.20417246267E+04  0.50400001928E-02 0.  1.
        1   -1    0    0  501    0  0.00000000000E+00  0.00000000000E+00 -0.87156638787E+03  0.87156638789E+03  0.50400001928E-02 0. -1.
    10030    2    1    2    0    0  0.00000000000E+00  0.00000000000E+00  0.11701582388E+04  0.29132910146E+04  0.26679569397E+04 0.  0.
        5    1    3    3  502    0 -0.98175573251E+03  0.17266781509E+03 -0.38290009771E+03  0.10678450578E+04  0.46999998093E+01 0. -1.
       -5    1    3    3    0  502  0.98175573251E+03 -0.17266781509E+03  0.15530583365E+04  0.18454459568E+04  0.46999998093E+01 0.  1.
</event>
<event>
 5   0  0.3199840E-06  0.2695529E+04  0.7818609E-02  0.8336457E-01
       -1   -1    0    0    0  501  0.00000000000E+00  0.00000000000E+00  0.13268731036E+04  0.13268731036E+04  0.50400001928E-02 0. -1.
        1   -1    0    0  501    0  0.00000000000E+00  0.00000000000E+00 -0.13689846252E+04  0.13689846253E+04  0.50400001928E-02 0.  1.
    10030    2    1    2    0    0  0.00000000000E+00  0.00000000000E+00 -0.42111521649E+02  0.26958577289E+04  0.26955288004E+04 0.  0.
        1    1    3    3  502    0 -0.11327613277E+04 -0.50448839047E+03  0.50703529803E+03  0.13396796464E+04  0.50400001928E-02 0. -1.
       -1    1    3    3    0  502  0.11327613277E+04  0.50448839047E+03 -0.54914681968E+03  0.13561780824E+04  0.50400001928E-02 0.  1.
</event>
<event>
 5   0  0.3089218E-06  0.2665479E+04  0.7818609E-02  0.8346293E-01
       -1   -1    0    0    0  501  0.00000000000E+00  0.00000000000E+00  0.10784018088E+04  0.10784018088E+04  0.50400001928E-02 0.  1.
        1   -1    0    0  501    0  0.00000000000E+00  0.00000000000E+00 -0.16470624051E+04  0.16470624052E+04  0.50400001928E-02 0. -1.
    10030    2    1    2    0    0  0.00000000000E+00  0.00000000000E+00 -0.56866059637E+03  0.27254642139E+04  0.26654793767E+04 0.  0.
        5    1    3    3  502    0  0.53946156352E+03 -0.46239540179E+03 -0.14372440407E+04  0.16032843817E+04  0.46999998093E+01 0. -1.
       -5    1    3    3    0  502 -0.53946156352E+03  0.46239540179E+03  0.86858344433E+03  0.11221798322E+04  0.46999998093E+01 0.  1.
</event>
<event>
 5   0  0.7812908E-06  0.2719420E+04  0.7818609E-02  0.8328731E-01
       -2   -1    0    0    0  501  0.00000000000E+00  0.00000000000E+00  0.18262617095E+04  0.18262617095E+04  0.25500000920E-02 0. -1.
        2   -1    0    0  501    0  0.00000000000E+00  0.00000000000E+00 -0.10123472643E+04  0.10123472643E+04  0.25500000920E-02 0.  1.
    10030    2    1    2    0    0  0.00000000000E+00  0.00000000000E+00  0.81391444521E+03  0.28386089738E+04  0.27194198246E+04 0.  0.
        5    1    3    3  502    0  0.35087585608E+03 -0.13133070605E+04  0.43826606935E+03  0.14282816736E+04  0.46999998093E+01 0. -1.
       -5    1    3    3    0  502 -0.35087585608E+03  0.13133070605E+04  0.37564837586E+03  0.14103273003E+04  0.46999998093E+01 0.  1.
</event>
<event>
 5   0  0.3013407E-06  0.2692807E+04  0.7818609E-02  0.8337342E-01
        1   -1    0    0  501    0  0.00000000000E+00  0.00000000000E+00  0.15594300051E+04  0.15594300051E+04  0.50400001928E-02 0. -1.
       -1   -1    0    0    0  501  0.00000000000E+00  0.00000000000E+00 -0.11624779811E+04  0.11624779811E+04  0.50400001928E-02 0.  1.
    10030    2    1    2    0    0  0.00000000000E+00  0.00000000000E+00  0.39695202399E+03  0.27219079862E+04  0.26928074896E+04 0.  0.
        4    1    3    3  502    0 -0.11583944799E+04  0.43413045713E+01 -0.49516489577E+03  0.12597962157E+04  0.12699999809E+01 0.  1.
       -4    1    3    3    0  502  0.11583944799E+04 -0.43413045713E+01  0.89211691976E+03  0.14621117705E+04  0.12699999809E+01 0. -1.
</event>
<event>
 5   0  0.2654625E-06  0.2687789E+04  0.7818609E-02  0.8338978E-01
       -3   -1    0    0    0  501  0.00000000000E+00  0.00000000000E+00  0.15245689285E+04  0.15245689318E+04  0.10100000352E+00 0.  1.
        3   -1    0    0  501    0  0.00000000000E+00  0.00000000000E+00 -0.11846311405E+04  0.11846311448E+04  0.10100000352E+00 0. -1.
    10030    2    1    2    0    0  0.00000000000E+00  0.00000000000E+00  0.33993778800E+03  0.27092000766E+04  0.26877885623E+04 0.  0.
        2    1    3    3  502    0  0.38761103265E+02 -0.28424285273E+03 -0.11534087679E+04  0.11885487825E+04  0.25500000920E-02 0. -1.
       -2    1    3    3    0  502 -0.38761103265E+02  0.28424285273E+03  0.14933465559E+04  0.15206512942E+04  0.25500000920E-02 0.  1.
</event>
<event>
 5   0  0.7812908E-06  0.2686684E+04  0.7818609E-02  0.8339338E-01
       -2   -1    0    0    0  501  0.00000000000E+00  0.00000000000E+00  0.86508824799E+03  0.86508824799E+03  0.25500000920E-02 0. -1.
        2   -1    0    0  501    0  0.00000000000E+00  0.00000000000E+00 -0.20859933016E+04  0.20859933016E+04  0.25500000920E-02 0.  1.
    10030    2    1    2    0    0  0.00000000000E+00  0.00000000000E+00 -0.12209050536E+04  0.29510815496E+04  0.26866844181E+04 0.  0.
        5    1    3    3  502    0 -0.44025646621E+03 -0.12233753525E+04 -0.98143752699E+03  0.16290226268E+04  0.46999998093E+01 0. -1.
       -5    1    3    3    0  502  0.44025646621E+03  0.12233753525E+04 -0.23946752659E+03  0.13220589228E+04  0.46999998093E+01 0.  1.
</event>
<event>
 5   0  0.3089218E-06  0.2761711E+04  0.7818609E-02  0.8315255E-01
       -1   -1    0    0    0  501  0.00000000000E+00  0.00000000000E+00  0.10031806881E+04  0.10031806882E+04  0.50400001928E-02 0. -1.
        1   -1    0    0  501    0  0.00000000000E+00  0.00000000000E+00 -0.19007168060E+04  0.19007168060E+04  0.50400001928E-02 0.  1.
    10030    2    1    2    0    0  0.00000000000E+00  0.00000000000E+00 -0.89753611787E+03  0.29038974942E+04  0.27617113487E+04 0.  0.
        5    1    3    3  502    0 -0.13131367005E+04 -0.32733483100E+03 -0.16030030506E+03  0.13627891853E+04  0.46999998093E+01 0. -1.
       -5    1    3    3    0  502  0.13131367005E+04  0.32733483100E+03 -0.73723581281E+03  0.15411083088E+04  0.46999998093E+01 0.  1.
</event>
<event>
 5   0  0.7729970E-06  0.2702990E+04  0.7818609E-02  0.8334036E-01
       -2   -1    0    0    0  501  0.00000000000E+00  0.00000000000E+00  0.10959822362E+04  0.10959822362E+04  0.25500000920E-02 0.  1.
        2   -1    0    0  501    0  0.00000000000E+00  0.00000000000E+00 -0.16665768504E+04  0.16665768504E+04  0.25500000920E-02 0. -1.
    10030    2    1    2    0    0  0.00000000000E+00  0.00000000000E+00 -0.57059461418E+03  0.27625590866E+04  0.27029899174E+04 0.  0.
        4    1    3    3  502    0 -0.76732040878E+03 -0.11078552250E+04 -0.18100331812E+03  0.13597380716E+04  0.12699999809E+01 0.  1.
       -4    1    3    3    0  502  0.76732040878E+03  0.11078552250E+04 -0.38959129605E+03  0.14028210150E+04  0.12699999809E+01 0. -1.
</event>
<event>
 5   0  0.3013407E-06  0.2731892E+04  0.7818609E-02  0.8324731E-01
        1   -1    0    0  501    0  0.00000000000E+00  0.00000000000E+00  0.15775474041E+04  0.15775474041E+04  0.50400001928E-02 0.  1.
       -1   -1    0    0    0  501  0.00000000000E+00  0.00000000000E+00 -0.11827277771E+04  0.11827277772E+04  0.50400001928E-02 0. -1.
    10030    2    1    2    0    0  0.00000000000E+00  0.00000000000E+00  0.39481962693E+03  0.27602751812E+04  0.27318924829E+04 0.  0.
        4    1    3    3  502    0  0.32608033093E+03  0.75295342326E+03  0.13007903180E+04  0.15379610867E+04  0.12699999809E+01 0.  1.
       -4    1    3    3    0  502 -0.32608033093E+03 -0.75295342326E+03 -0.90597069106E+03  0.12223140946E+04  0.12699999809E+01 0. -1.
</event>
<event>
 5   0  0.3046300E-06  0.2848531E+04  0.7818609E-02  0.8288358E-01
        1   -1    0    0  501    0  0.00000000000E+00  0.00000000000E+00  0.10933847902E+04  0.10933847902E+04  0.50400001928E-02 0.  1.
       -1   -1    0    0    0  501  0.00000000000E+00  0.00000000000E+00 -0.18552770935E+04  0.18552770936E+04  0.50400001928E-02 0. -1.
    10030    2    1    2    0    0  0.00000000000E+00  0.00000000000E+00 -0.76189230333E+03  0.29486618838E+04  0.28485306779E+04 0.  0.
        2    1    3    3  502    0 -0.80895619830E+03 -0.11542721047E+04 -0.59252657010E+03  0.15290003135E+04  0.25500000920E-02 0.  1.
       -2    1    3    3    0  502  0.80895619830E+03  0.11542721047E+04 -0.16936573323E+03  0.14196615703E+04  0.25500000920E-02 0. -1.
</event>
<event>
 5   0  0.3028601E-06  0.2699712E+04  0.7818609E-02  0.8335099E-01
        1   -1    0    0  501    0  0.00000000000E+00  0.00000000000E+00  0.20835145308E+04  0.20835145308E+04  0.50400001928E-02 0. -1.
       -1   -1    0    0    0  501  0.00000000000E+00  0.00000000000E+00 -0.87453715453E+03  0.87453715455E+03  0.50400001928E-02 0.  1.
    10030    2    1    2    0    0  0.00000000000E+00  0.00000000000E+00  0.12089773763E+04  0.29580516853E+04  0.26997117396E+04 0.  0.
        3    1    3    3  502    0 -0.59651296994E+03  0.25306830193E+03 -0.69298772706E+03  0.94873773447E+03  0.10100000352E+00 0.  1.
       -3    1    3    3    0  502  0.59651296994E+03 -0.25306830193E+03  0.19019651033E+04  0.20093139509E+04  0.10100000352E+00 0. -1.
</event>
<event>
 5   0  0.8213334E-06  0.2694316E+04  0.7818609E-02  0.8336852E-01
       -2   -1    0    0    0  501  0.00000000000E+00  0.00000000000E+00  0.58231098319E+03  0.58231098320E+03  0.25500000920E-02 0. -1.
        2   -1    0    0  501    0  0.00000000000E+00  0.00000000000E+00 -0.31166066591E+04  0.31166066591E+04  0.25500000920E-02 0.  1.
    10030    2    1    2    0    0  0.00000000000E+00  0.00000000000E+00 -0.25342956759E+04  0.36989176423E+04  0.26943157112E+04 0.  0.
        3    1    3    3  502    0 -0.20171302079E+03 -0.11480826592E+03 -0.30889514741E+04  0.30976588418E+04  0.10100000352E+00 0.  1.
       -3    1    3    3    0  502  0.20171302079E+03  0.11480826592E+03  0.55465579811E+03  0.60125880057E+03  0.10100000352E+00 0. -1.
</event>
<event>
 5   0  0.3046300E-06  0.2702431E+04  0.7818609E-02  0.8334217E-01
        1   -1    0    0  501    0  0.00000000000E+00  0.00000000000E+00  0.17595577748E+04  0.17595577748E+04  0.50400001928E-02 0. -1.
       -1   -1    0    0    0  501  0.00000000000E+00  0.00000000000E+00 -0.10376374576E+04  0.10376374576E+04  0.50400001928E-02 0.  1.
    10030    2    1    2    0    0  0.00000000000E+00  0.00000000000E+00  0.72192031719E+03  0.27971952324E+04  0.27024307991E+04 0.  0.
        2    1    3    3  502    0  0.10237412742E+04 -0.30159922911E+03 -0.49681874690E+03  0.11772158505E+04  0.25500000920E-02 0.  1.
       -2    1    3    3    0  502 -0.10237412742E+04  0.30159922911E+03  0.12187390641E+04  0.16199793819E+04  0.25500000920E-02 0. -1.
</event>
<event>
 5   0  0.3046300E-06  0.2700280E+04  0.7818609E-02  0.8334914E-01
       -1   -1    0    0    0  501  0.00000000000E+00  0.00000000000E+00  0.12018518411E+04  0.12018518411E+04  0.50400001928E-02 0. -1.
        1   -1    0    0  501    0  0.00000000000E+00  0.00000000000E+00 -0.15167238737E+04  0.15167238737E+04  0.50400001928E-02 0.  1.
    10030    2    1    2    0    0  0.00000000000E+00  0.00000000000E+00 -0.31487203263E+03  0.27185757148E+04  0.27002795263E+04 0.  0.
        2    1    3    3  502    0 -0.70485891823E+03 -0.43291692840E+03 -0.12317341593E+04  0.14837156738E+04  0.25500000920E-02 0.  1.
       -2    1    3    3    0  502  0.70485891823E+03  0.43291692840E+03  0.91686212667E+03  0.12348600410E+04  0.25500000920E-02 0. -1.
</event>
<event>
 5   0  0.7812908E-06  0.2699765E+04  0.7818609E-02  0.8335081E-01
       -2   -1    0    0    0  501  0.00000000000E+00  0.00000000000E+00  0.55162280960E+03  0.55162280961E+03  0.25500000920E-02 0. -1.
        2   -1    0    0  501    0  0.00000000000E+00  0.00000000000E+00 -0.33033139513E+04  0.33033139513E+04  0.25500000920E-02 0.  1.
    10030    2    1    2    0    0  0.00000000000E+00  0.00000000000E+00 -0.27516911417E+04  0.38549367609E+04  0.26997654141E+04 0.  0.
        5    1    3    3  502    0  0.10137940437E+04 -0.10288186901E+03 -0.11171085864E+03  0.10251167972E+04  0.46999998093E+01 0. -1.
       -5    1    3    3    0  502 -0.10137940437E+04  0.10288186901E+03 -0.26399802830E+04  0.28298199637E+04  0.46999998093E+01 0.  1.
</event>
<event>
 5   0  0.7729970E-06  0.2722346E+04  0.7818609E-02  0.8327791E-01
       -2   -1    0    0    0  501  0.00000000000E+00  0.00000000000E+00  0.91106238032E+03  0.91106238033E+03  0.25500000920E-02 0.  1.
        2   -1    0    0  501    0  0.00000000000E+00  0.00000000000E+00 -0.20336605446E+04  0.20336605446E+04  0.25500000920E-02 0. -1.
    10030    2    1    2    0    0  0.00000000000E+00  0.00000000000E+00 -0.11225981642E+04  0.29447229249E+04  0.27223457653E+04 0.  0.
        4    1    3    3  502    0 -0.10680624267E+04  0.17604924315E+03 -0.14539614914E+04  0.18126655276E+04  0.12699999809E+01 0. -1.
       -4    1    3    3    0  502  0.10680624267E+04 -0.17604924315E+03  0.33136332720E+03  0.11320573973E+04  0.12699999809E+01 0.  1.
</event>
<event>
 5   0  0.3046300E-06  0.2699037E+04  0.7818609E-02  0.8335318E-01
        1   -1    0    0  501    0  0.00000000000E+00  0.00000000000E+00  0.22278417239E+04  0.22278417239E+04  0.50400001928E-02 0. -1.
       -1   -1    0    0    0  501  0.00000000000E+00  0.00000000000E+00 -0.81747276596E+03  0.81747276597E+03  0.50400001928E-02 0.  1.
    10030    2    1    2    0    0  0.00000000000E+00  0.00000000000E+00  0.14103689579E+04  0.30453144899E+04  0.26990368180E+04 0.  0.
        2    1    3    3  502    0  0.39622816486E+03 -0.12750006063E+04  0.48357644996E+03  0.14200244673E+04  0.25500000920E-02 0. -1.
       -2    1    3    3    0  502 -0.39622816486E+03  0.12750006063E+04  0.92679250798E+03  0.16252900226E+04  0.25500000920E-02 0.  1.
</event>
<event>
 5   0  0.3028601E-06  0.2698093E+04  0.7818609E-02  0.8335624E-01
        1   -1    0    0  501    0  0.00000000000E+00  0.00000000000E+00  0.12432069830E+04  0.12432069830E+04  0.50400001928E-02 0.  1.
       -1   -1    0    0    0  501  0.00000000000E+00  0.00000000000E+00 -0.14638967966E+04  0.14638967966E+04  0.50400001928E-02 0. -1.
    10030    2    1    2    0    0  0.00000000000E+00  0.00000000000E+00 -0.22068981355E+03  0.27071037796E+04  0.26980931933E+04 0.  0.
        3    1    3    3  502    0 -0.94736179502E+03 -0.52594956310E+03  0.69596155198E+03  0.12878197877E+04  0.10100000352E+00 0. -1.
       -3    1    3    3    0  502  0.94736179502E+03  0.52594956310E+03 -0.91665136554E+03  0.14192839919E+04  0.10100000352E+00 0.  1.
</event>
<event>
 5   0  0.3028601E-06  0.2752804E+04  0.7818609E-02  0.8318072E-01
       -1   -1    0    0    0  501  0.00000000000E+00  0.00000000000E+00  0.68596983740E+03  0.68596983742E+03  0.50400001928E-02 0.  1.
        1   -1    0    0  501    0  0.00000000000E+00  0.00000000000E+00 -0.27617583236E+04  0.27617583236E+04  0.50400001928E-02 0. -1.
    10030    2    1    2    0    0  0.00000000000E+00  0.00000000000E+00 -0.20757884862E+04  0.34477281610E+04  0.27528043216E+04 0.  0.
        3    1    3    3  502    0  0.22435529156E+03 -0.86043795085E+03  0.27794161005E+03  0.93163314288E+03  0.10100000352E+00 0.  1.
       -3    1    3    3    0  502 -0.22435529156E+03  0.86043795085E+03 -0.23537300963E+04  0.25160950181E+04  0.10100000352E+00 0. -1.
</event>
<event>
 5   0  0.7838364E-06  0.2696029E+04  0.7818609E-02  0.8336295E-01
        2   -1    0    0  501    0  0.00000000000E+00  0.00000000000E+00  0.15618429298E+04  0.15618429298E+04  0.25500000920E-02 0. -1.
       -2   -1    0    0    0  501  0.00000000000E+00  0.00000000000E+00 -0.11634608918E+04  0.11634608918E+04  0.25500000920E-02 0.  1.
    10030    2    1    2    0    0  0.00000000000E+00  0.00000000000E+00  0.39838203801E+03  0.27253038217E+04  0.26960290563E+04 0.  0.
        2    1    3    3  502    0  0.11277592348E+04 -0.52139789793E+03 -0.32940823751E+03  0.12853818291E+04  0.25500000920E-02 0.  1.
       -2    1    3    3    0  502 -0.11277592348E+04  0.52139789793E+03  0.72779027552E+03  0.14399219926E+04  0.25500000920E-02 0. -1.
</event>
<event>
 5   0  0.3199840E-06  0.2635901E+04  0.7818609E-02  0.8356108E-01
        1   -1    0    0  501    0  0.00000000000E+00  0.00000000000E+00  0.19283589090E+04  0.19283589090E+04  0.50400001928E-02 0.  1.
       -1   -1    0    0    0  501  0.00000000000E+00  0.00000000000E+00 -0.90076285414E+03  0.90076285416E+03  0.50400001928E-02 0. -1.
    10030    2    1    2    0    0  0.00000000000E+00  0.00000000000E+00  0.10275960548E+04  0.28291217631E+04  0.26359014205E+04 0.  0.
        1    1    3    3  502    0  0.16706262088E+03 -0.19789853021E+03 -0.87318245906E+03  0.91078062913E+03  0.50400001928E-02 0. -1.
       -1    1    3    3    0  502 -0.16706262088E+03  0.19789853021E+03  0.19007785139E+04  0.19183411340E+04  0.50400001928E-02 0.  1.
</event>
<event>
 5   0  0.7812908E-06  0.2681986E+04  0.7818609E-02  0.8340874E-01
       -2   -1    0    0    0  501  0.00000000000E+00  0.00000000000E+00  0.15904054394E+04  0.15904054394E+04  0.25500000920E-02 0. -1.
        2   -1    0    0  501    0  0.00000000000E+00  0.00000000000E+00 -0.11306938873E+04  0.11306938873E+04  0.25500000920E-02 0.  1.
    10030    2    1    2    0    0  0.00000000000E+00  0.00000000000E+00  0.45971155206E+03  0.27210993267E+04  0.26819856142E+04 0.  0.
        5    1    3    3  502    0  0.91972037253E+03  0.87953665726E+03  0.65883321218E+03  0.14330225353E+04  0.46999998093E+01 0. -1.
       -5    1    3    3    0  502 -0.91972037253E+03 -0.87953665726E+03 -0.19912166011E+03  0.12880767914E+04  0.46999998093E+01 0.  1.
</event>
<event>
 5   0  0.3028601E-06  0.2732107E+04  0.7818609E-02  0.8324662E-01
       -1   -1    0    0    0  501  0.00000000000E+00  0.00000000000E+00  0.12546324606E+04  0.12546324606E+04  0.50400001928E-02 0. -1.
        1   -1    0    0  501    0  0.00000000000E+00  0.00000000000E+00 -0.14873694361E+04  0.14873694361E+04  0.50400001928E-02 0.  1.
    10030    2    1    2    0    0  0.00000000000E+00  0.00000000000E+00 -0.23273697556E+03  0.27420018967E+04  0.27321068613E+04 0.  0.
        3    1    3    3  502    0  0.97815778457E+03 -0.89653992191E+03 -0.44239186466E+03  0.13986733197E+04  0.10100000352E+00 0. -1.
       -3    1    3    3    0  502 -0.97815778457E+03  0.89653992191E+03  0.20965488910E+03  0.13433285770E+04  0.10100000352E+00 0.  1.
</event>
<event>
 5   0  0.7838364E-06  0.2699441E+04  0.7818609E-02  0.8335186E-01
       -2   -1    0    0    0  501  0.00000000000E+00  0.00000000000E+00  0.91348909131E+03  0.91348909131E+03  0.25500000920E-02 0.  1.
        2   -1    0    0  501    0  0.00000000000E+00  0.00000000000E+00 -0.19942724151E+04  0.19942724151E+04  0.25500000920E-02 0. -1.
    10030    2    1    2    0    0  0.00000000000E+00  0.00000000000E+00 -0.10807833238E+04  0.29077615065E+04  0.26994414951E+04 0.  0.
        2    1    3    3  502    0  0.12945522467E+04  0.34389861062E+03 -0.71939126206E+03  0.15204129576E+04  0.25500000920E-02 0.  1.
       -2    1    3    3    0  502 -0.12945522467E+04 -0.34389861062E+03 -0.36139206178E+03  0.13873485489E+04  0.25500000920E-02 0. -1.
</event>
<event>
 5   0  0.7812908E-06  0.2669319E+04  0.7818609E-02  0.8345029E-01
       -2   -1    0    0    0  501  0.00000000000E+00  0.00000000000E+00  0.21320475137E+04  0.21320475137E+04  0.25500000920E-02 0. -1.
        2   -1    0    0  501    0  0.00000000000E+00  0.00000000000E+00 -0.83549567390E+03  0.83549567390E+03  0.25500000920E-02 0.  1.
    10030    2    1    2    0    0  0.00000000000E+00  0.00000000000E+00  0.12965518398E+04  0.29675431876E+04  0.26693193696E+04 0.  0.
        5    1    3    3  502    0 -0.66542438318E+03  0.10605693095E+04  0.13435506047E+03  0.12592339902E+04  0.46999998093E+01 0.  1.
       -5    1    3    3    0  502  0.66542438318E+03 -0.10605693095E+04  0.11621967794E+04  0.17083091974E+04  0.46999998093E+01 0. -1.
</event>
<event>
 5   0  0.3199840E-06  0.2694878E+04  0.7818609E-02  0.8336669E-01
        1   -1    0    0  501    0  0.00000000000E+00  0.00000000000E+00  0.14162864524E+04  0.14162864525E+04  0.50400001928E-02 0.  1.
       -1   -1    0    0    0  501  0.00000000000E+00  0.00000000000E+00 -0.12819384632E+04  0.12819384632E+04  0.50400001928E-02 0. -1.
    10030    2    1    2    0    0  0.00000000000E+00  0.00000000000E+00  0.13434798927E+03  0.26982249156E+04  0.26948781630E+04 0.  0.
        1    1    3    3  502    0  0.47349047482E+03 -0.10079446484E+04 -0.69234994086E+03  0.13112948122E+04  0.50400001928E-02 0. -1.
       -1    1    3    3    0  502 -0.47349047482E+03  0.10079446484E+04  0.82669793013E+03  0.13869301034E+04  0.50400001928E-02 0.  1.
</event>
<event>
 5   0  0.3013407E-06  0.2704290E+04  0.7818609E-02  0.8333614E-01
       -1   -1    0    0    0  501  0.00000000000E+00  0.00000000000E+00  0.11928636820E+04  0.11928636820E+04  0.50400001928E-02 0. -1.
        1   -1    0    0  501    0  0.00000000000E+00  0.00000000000E+00 -0.15326946761E+04  0.15326946761E+04  0.50400001928E-02 0.  1.
    10030    2    1    2    0    0  0.00000000000E+00  0.00000000000E+00 -0.33983099408E+03  0.27255583581E+04  0.27042897882E+04 0.  0.
        4    1    3    3  502    0  0.22011569042E+03  0.11178602606E+04  0.56398149981E+03  0.12712746456E+04  0.12699999809E+01 0. -1.
       -4    1    3    3    0  502 -0.22011569042E+03 -0.11178602606E+04 -0.90381249390E+03  0.14542837125E+04  0.12699999809E+01 0.  1.
</event>
<event>
 5   0  0.8213334E-06  0.2703492E+04  0.7818609E-02  0.8333873E-01
        2   -1    0    0  501    0  0.00000000000E+00  0.00000000000E+00  0.19370058386E+04  0.19370058386E+04  0.25500000920E-02 0.  1.
       -2   -1    0    0    0  501  0.00000000000E+00  0.00000000000E+00 -0.94332080053E+03  0.94332080053E+03  0.25500000920E-02 0. -1.
    10030    2    1    2    0    0  0.00000000000E+00  0.00000000000E+00  0.99368503811E+03  0.28803266392E+04  0.27034924807E+04 0.  0.
        3    1    3    3  502    0 -0.28997005197E+03 -0.64382900141E+03 -0.73120983502E+03  0.10164970473E+04  0.10100000352E+00 0. -1.
       -3    1    3    3    0  502  0.28997005197E+03  0.64382900141E+03  0.17248948731E+04  0.18638295919E+04  0.10100000352E+00 0.  1.
</event>
<event>
 5   0  0.3089218E-06  0.2698172E+04  0.7818609E-02  0.8335598E-01
       -1   -1    0    0    0  501  0.00000000000E+00  0.00000000000E+00  0.16157856473E+04  0.16157856473E+04  0.50400001928E-02 0. -1.
        1   -1    0    0  501    0  0.00000000000E+00  0.00000000000E+00 -0.11264071528E+04  0.11264071528E+04  0.50400001928E-02 0.  1.
    10030    2    1    2    0    0  0.00000000000E+00  0.00000000000E+00  0.48937849448E+03  0.27421928001E+04  0.26981716109E+04 0.  0.
        5    1    3    3  502    0  0.38226231955E+03  0.10070582902E+04  0.10701721665E+04  0.15184141190E+04  0.46999998093E+01 0.  1.
       -5    1    3    3    0  502 -0.38226231955E+03 -0.10070582902E+04 -0.58079367202E+03  0.12237786811E+04  0.46999998093E+01 0. -1.
</event>
<event>
 5   0  0.8407622E-06  0.2731606E+04  0.7818609E-02  0.8324822E-01
        2   -1    0    0  501    0  0.00000000000E+00  0.00000000000E+00  0.15267676754E+04  0.15267676754E+04  0.25500000920E-02 0.  1.
       -2   -1    0    0    0  501  0.00000000000E+00  0.00000000000E+00 -0.12218081847E+04  0.12218081847E+04  0.25500000920E-02 0. -1.
    10030    2    1    2    0    0  0.00000000000E+00  0.00000000000E+00  0.30495949064E+03  0.27485758601E+04  0.27316055659E+04 0.  0.
        1    1    3    3  502    0  0.11799946960E+03 -0.70590837193E+03  0.13229721644E+04  0.15041561928E+04  0.50400001928E-02 0.  1.
       -1    1    3    3    0  502 -0.11799946960E+03  0.70590837193E+03 -0.10180126738E+04  0.12444196673E+04  0.50400001928E-02 0. -1.
</event>
<event>
 5   0  0.3199840E-06  0.2383426E+04  0.7818609E-02  0.8445735E-01
        1   -1    0    0  501    0  0.00000000000E+00  0.00000000000E+00  0.15729216298E+04  0.15729216299E+04  0.50400001928E-02 0.  1.
       -1   -1    0    0    0  501  0.00000000000E+00  0.00000000000E+00 -0.90289308921E+03  0.90289308922E+03  0.50400001928E-02 0. -1.
    10030    2    1    2    0    0  0.00000000000E+00  0.00000000000E+00  0.67002854064E+03  0.24758147191E+04  0.23834261637E+04 0.  0.
        1    1    3    3  502    0 -0.75698030590E+03  0.62964983630E+03 -0.36235236638E+03  0.10491793637E+04  0.50400001928E-02 0. -1.
       -1    1    3    3    0  502  0.75698030590E+03 -0.62964983630E+03  0.10323809070E+04  0.14266353553E+04  0.50400001928E-02 0.  1.
</event>
<event>
 5   0  0.7838364E-06  0.2700444E+04  0.7818609E-02  0.8334861E-01
        2   -1    0    0  501    0  0.00000000000E+00  0.00000000000E+00  0.17024673366E+04  0.17024673366E+04  0.25500000920E-02 0. -1.
       -2   -1    0    0    0  501  0.00000000000E+00  0.00000000000E+00 -0.10708569555E+04  0.10708569555E+04  0.25500000920E-02 0.  1.
    10030    2    1    2    0    0  0.00000000000E+00  0.00000000000E+00  0.63161038114E+03  0.27733242921E+04  0.27004436591E+04 0.  0.
        2    1    3    3  502    0  0.13325969703E+04 -0.13541268260E+03  0.49053726589E+03  0.14264564799E+04  0.25500000920E-02 0. -1.
       -2    1    3    3    0  502 -0.13325969703E+04  0.13541268260E+03  0.14107311525E+03  0.13468678122E+04  0.25500000920E-02 0.  1.
</event>
<event>
 5   0  0.3028601E-06  0.2697326E+04  0.7818609E-02  0.8335873E-01
        1   -1    0    0  501    0  0.00000000000E+00  0.00000000000E+00  0.14769432604E+04  0.14769432604E+04  0.50400001928E-02 0.  1.
       -1   -1    0    0    0  501  0.00000000000E+00  0.00000000000E+00 -0.12315250036E+04  0.12315250036E+04  0.50400001928E-02 0. -1.
    10030    2    1    2    0    0  0.00000000000E+00  0.00000000000E+00  0.24541825681E+03  0.27084682640E+04  0.26973264942E+04 0.  0.
        3    1    3    3  502    0 -0.97273534336E+03 -0.92555104635E+03 -0.44383849267E+01  0.13427131105E+04  0.10100000352E+00 0.  1.
       -3    1    3    3    0  502  0.97273534336E+03  0.92555104635E+03  0.24985664174E+03  0.13657551535E+04  0.10100000352E+00 0. -1.
</event>
<event>
 5   0  0.7729970E-06  0.2733635E+04  0.7818609E-02  0.8324173E-01
       -2   -1    0    0    0  501  0.00000000000E+00  0.00000000000E+00  0.13329669539E+04  0.13329669539E+04  0.25500000920E-02 0.  1.
        2   -1    0    0  501    0  0.00000000000E+00  0.00000000000E+00 -0.14015280792E+04  0.14015280792E+04  0.25500000920E-02 0. -1.
    10030    2    1    2    0    0  0.00000000000E+00  0.00000000000E+00 -0.68561125337E+02  0.27344950332E+04  0.27336353924E+04 0.  0.
        4    1    3    3  502    0 -0.47769369819E+03 -0.36854638140E+03 -0.12611128549E+04  0.13980074929E+04  0.12699999809E+01 0. -1.
       -4    1    3    3    0  502  0.47769369819E+03  0.36854638140E+03  0.11925517296E+04  0.13364875402E+04  0.12699999809E+01 0.  1.
</event>
<event>
 5   0  0.8407622E-06  0.2511046E+04  0.7818609E-02  0.8399061E-01
       -2   -1    0    0    0  501  0.00000000000E+00  0.00000000000E+00  0.11028278341E+04  0.11028278341E+04  0.25500000920E-02 0. -1.
        2   -1    0    0  501    0  0.00000000000E+00  0.00000000000E+00 -0.14293601366E+04  0.14293601366E+04  0.25500000920E-02 0.  1.
    10030    2    1    2    0    0  0.00000000000E+00  0.00000000000E+00 -0.32653230247E+03  0.25321879707E+04  0.25110461115E+04 0.  0.
        1    1    3    3  502    0  0.49353443888E+03  0.23831134802E+03 -0.13023650120E+04  0.14129837811E+04  0.50400001928E-02 0.  1.
       -1    1    3    3    0  502 -0.49353443888E+03 -0.23831134802E+03  0.97583270956E+03  0.11192041896E+04  0.50400001928E-02 0. -1.
</event>
<event>
 5   0  0.3028601E-06  0.2702801E+04  0.7818609E-02  0.8334097E-01
        1   -1    0    0  501    0  0.00000000000E+00  0.00000000000E+00  0.22308471641E+04  0.22308471641E+04  0.50400001928E-02 0. -1.
       -1   -1    0    0    0  501  0.00000000000E+00  0.00000000000E+00 -0.81864990291E+03  0.81864990293E+03  0.50400001928E-02 0.  1.
    10030    2    1    2    0    0  0.00000000000E+00  0.00000000000E+00  0.14121972612E+04  0.30494970670E+04  0.27028006322E+04 0.  0.
        3    1    3    3  502    0  0.49153464993E+03 -0.11074541941E+04  0.13813883738E+04  0.18374697151E+04  0.10100000352E+00 0. -1.
       -3    1    3    3    0  502 -0.49153464993E+03  0.11074541941E+04  0.30808887332E+02  0.12120273520E+04  0.10100000352E+00 0.  1.
</event>
<event>
 5   0  0.3089218E-06  0.2686919E+04  0.7818609E-02  0.8339262E-01
       -1   -1    0    0    0  501  0.00000000000E+00  0.00000000000E+00  0.18369439722E+04  0.18369439722E+04  0.50400001928E-02 0.  1.
        1   -1    0    0  501    0  0.00000000000E+00  0.00000000000E+00 -0.98254689677E+03  0.98254689678E+03  0.50400001928E-02 0. -1.
    10030    2    1    2    0    0  0.00000000000E+00  0.00000000000E+00  0.85439707543E+03  0.28194908690E+04  0.26869191275E+04 0.  0.
        5    1    3    3  502    0  0.32018372295E+03  0.56554093046E+03  0.16610129011E+04  0.17836311581E+04  0.46999998093E+01 0.  1.
       -5    1    3    3    0  502 -0.32018372295E+03 -0.56554093046E+03 -0.80661582567E+03  0.10358597109E+04  0.46999998093E+01 0. -1.
</event>
<event>
 5   0  0.3028601E-06  0.2673773E+04  0.7818609E-02  0.8343565E-01
       -1   -1    0    0    0  501  0.00000000000E+00  0.00000000000E+00  0.10731398556E+04  0.10731398556E+04  0.50400001928E-02 0.  1.
        1   -1    0    0  501    0  0.00000000000E+00  0.00000000000E+00 -0.16654546692E+04  0.16654546692E+04  0.50400001928E-02 0. -1.
    10030    2    1    2    0    0  0.00000000000E+00  0.00000000000E+00 -0.59231481360E+03  0.27385945248E+04  0.26737732014E+04 0.  0.
        3    1    3    3  502    0 -0.88014818206E+03  0.74715412375E+03  0.39425076430E+03  0.12199728613E+04  0.10100000352E+00 0.  1.
       -3    1    3    3    0  502  0.88014818206E+03 -0.74715412375E+03 -0.98656557790E+03  0.15186216635E+04  0.10100000352E+00 0. -1.
</event>
<event>
 5   0  0.2654625E-06  0.2690062E+04  0.7818609E-02  0.8338237E-01
        3   -1    0    0  501    0  0.00000000000E+00  0.00000000000E+00  0.77220505588E+03  0.77220506248E+03  0.10100000352E+00 0.  1.
       -3   -1    0    0    0  501  0.00000000000E+00  0.00000000000E+00 -0.23427817764E+04  0.23427817786E+04  0.10100000352E+00 0. -1.
    10030    2    1    2    0    0  0.00000000000E+00  0.00000000000E+00 -0.15705767205E+04  0.31149868411E+04  0.26900616694E+04 0.  0.
        2    1    3    3  502    0  0.30072798428E+03  0.97946451434E+03  0.22374695972E+03  0.10487376971E+04  0.25500000920E-02 0.  1.
       -2    1    3    3    0  502 -0.30072798428E+03 -0.97946451434E+03 -0.17943236803E+04  0.20662491440E+04  0.25500000920E-02 0. -1.
</event>
<event>
 5   0  0.7838364E-06  0.2746178E+04  0.7818609E-02  0.8320175E-01
       -2   -1    0    0    0  501  0.00000000000E+00  0.00000000000E+00  0.64831598614E+03  0.64831598615E+03  0.25500000920E-02 0.  1.
        2   -1    0    0  501    0  0.00000000000E+00  0.00000000000E+00 -0.29081086833E+04  0.29081086833E+04  0.25500000920E-02 0. -1.
    10030    2    1    2    0    0  0.00000000000E+00  0.00000000000E+00 -0.22597926971E+04  0.35564246694E+04  0.27461779613E+04 0.  0.
        2    1    3    3  502    0 -0.97107292647E+02 -0.10204871703E+04  0.53175107365E+02  0.10264752716E+04  0.25500000920E-02 0.  1.
       -2    1    3    3    0  502  0.97107292647E+02  0.10204871703E+04 -0.23129678045E+04  0.25299493979E+04  0.25500000920E-02 0. -1.
</event>
<event>
 5   0  0.3028601E-06  0.2703503E+04  0.7818609E-02  0.8333869E-01
        1   -1    0    0  501    0  0.00000000000E+00  0.00000000000E+00  0.16369157991E+04  0.16369157991E+04  0.50400001928E-02 0. -1.
       -1   -1    0    0    0  501  0.00000000000E+00  0.00000000000E+00 -0.11162650441E+04  0.11162650441E+04  0.50400001928E-02 0.  1.
    10030    2    1    2    0    0  0.00000000000E+00  0.00000000000E+00  0.52065075503E+03  0.27531808432E+04  0.27035028291E+04 0.  0.
        3    1    3    3  502    0  0.14811915052E+03 -0.13353334838E+04  0.41198155287E+03  0.14052699406E+04  0.10100000352E+00 0. -1.
       -3    1    3    3    0  502 -0.14811915052E+03  0.13353334838E+04  0.10866920216E+03  0.13479109027E+04  0.10100000352E+00 0.  1.
</event>
<event>
 5   0  0.8407622E-06  0.2693357E+04  0.7818609E-02  0.8337164E-01
       -2   -1    0    0    0  501  0.00000000000E+00  0.00000000000E+00  0.10114742747E+04  0.10114742747E+04  0.25500000920E-02 0.  1.
        2   -1    0    0  501    0  0.00000000000E+00  0.00000000000E+00 -0.17929693921E+04  0.17929693921E+04  0.25500000920E-02 0. -1.
    10030    2    1    2    0    0  0.00000000000E+00  0.00000000000E+00 -0.78149511739E+03  0.28044436667E+04  0.26933565789E+04 0.  0.
        1    1    3    3  502    0 -0.11616463904E+04  0.52041360161E+03  0.67032944514E+02  0.12746552745E+04  0.50400001928E-02 0.  1.
       -1    1    3    3    0  502  0.11616463904E+04 -0.52041360161E+03 -0.84852806191E+03  0.15297883922E+04  0.50400001928E-02 0. -1.
</event>
<event>
 5   0  0.7729970E-06  0.2404032E+04  0.7818609E-02  0.8437995E-01
       -2   -1    0    0    0  501  0.00000000000E+00  0.00000000000E+00  0.15639500205E+04  0.15639500205E+04  0.25500000920E-02 0. -1.
        2   -1    0    0  501    0  0.00000000000E+00  0.00000000000E+00 -0.92384219251E+03  0.92384219251E+03  0.25500000920E-02 0.  1.
    10030    2    1    2    0    0  0.00000000000E+00  0.00000000000E+00  0.64010782801E+03  0.24877922130E+04  0.24040324590E+04 0.  0.
        4    1    3    3  502    0 -0.36385136269E+03 -0.22936695000E+03 -0.84148089780E+03  0.94503371694E+03  0.12699999809E+01 0.  1.
       -4    1    3    3    0  502  0.36385136269E+03  0.22936695000E+03  0.14815887258E+04  0.15427584961E+04  0.12699999809E+01 0. -1.
</event>
<event>
 5   0  0.3089218E-06  0.2561442E+04  0.7818609E-02  0.8381418E-01
       -1   -1    0    0    0  501  0.00000000000E+00  0.00000000000E+00  0.58300433186E+03  0.58300433188E+03  0.50400001928E-02 0. -1.
        1   -1    0    0  501    0  0.00000000000E+00  0.00000000000E+00 -0.28134378364E+04  0.28134378364E+04  0.50400001928E-02 0.  1.
    10030    2    1    2    0    0  0.00000000000E+00  0.00000000000E+00 -0.22304335045E+04  0.33964421683E+04  0.25614421298E+04 0.  0.
        5    1    3    3  502    0  0.47285598340E+03  0.24582484294E+03  0.42897710844E+03  0.68415355295E+03  0.46999998093E+01 0. -1.
       -5    1    3    3    0  502 -0.47285598340E+03 -0.24582484294E+03 -0.26594106130E+04  0.27122886153E+04  0.46999998093E+01 0.  1.
</event>
<event>
 5   0  0.8213334E-06  0.2680521E+04  0.7818609E-02  0.8341353E-01
        2   -1    0    0  501    0  0.00000000000E+00  0.00000000000E+00  0.21489068995E+04  0.21489068995E+04  0.25500000920E-02 0.  1.
       -2   -1    0    0    0  501  0.00000000000E+00  0.00000000000E+00 -0.83591263991E+03  0.83591263992E+03  0.25500000920E-02 0. -1.
    10030    2    1    2    0    0  0.00000000000E+00  0.00000000000E+00  0.13129942596E+04  0.29848195395E+04  0.26805211727E+04 0.  0.
        3    1    3    3  502    0 -0.66052986027E+03 -0.43088180355E+03  0.18631870664E+04  0.20232214114E+04  0.10100000352E+00 0.  1.
       -3    1    3    3    0  502  0.66052986027E+03  0.43088180355E+03 -0.55019280682E+03  0.96159812802E+03  0.10100000352E+00 0. -1.
</event>
<event>
 5   0  0.8213334E-06  0.2736414E+04  0.7818609E-02  0.8323286E-01
       -2   -1    0    0    0  501  0.00000000000E+00  0.00000000000E+00  0.12123921033E+04  0.12123921033E+04  0.25500000920E-02 0. -1.
        2   -1    0    0  501    0  0.00000000000E+00  0.00000000000E+00 -0.15440468229E+04  0.15440468229E+04  0.25500000920E-02 0.  1.
    10030    2    1    2    0    0  0.00000000000E+00  0.00000000000E+00 -0.33165471954E+03  0.27564389262E+04  0.27364138395E+04 0.  0.
        3    1    3    3  502    0  0.62592080543E+03  0.92991480029E+03  0.62443385309E+03  0.12831352374E+04  0.10100000352E+00 0. -1.
       -3    1    3    3    0  502 -0.62592080543E+03 -0.92991480029E+03 -0.95608857263E+03  0.14733036888E+04  0.10100000352E+00 0.  1.
</event>
<event>
 5   0  0.3046300E-06  0.2709105E+04  0.7818609E-02  0.8332057E-01
       -1   -1    0    0    0  501  0.00000000000E+00  0.00000000000E+00  0.14981872994E+04  0.14981872994E+04  0.50400001928E-02 0.  1.
        1   -1    0    0  501    0  0.00000000000E+00  0.00000000000E+00 -0.12246885533E+04  0.12246885533E+04  0.50400001928E-02 0. -1.
    10030    2    1    2    0    0  0.00000000000E+00  0.00000000000E+00  0.27349874605E+03  0.27228758527E+04  0.27091052665E+04 0.  0.
        2    1    3    3  502    0  0.30781100701E+03  0.86099196867E+03 -0.86770937702E+03  0.12605452587E+04  0.25500000920E-02 0. -1.
       -2    1    3    3    0  502 -0.30781100701E+03 -0.86099196867E+03  0.11412081231E+04  0.14623305941E+04  0.25500000920E-02 0.  1.
</event>
<event>
 5   0  0.3089218E-06  0.2700686E+04  0.7818609E-02  0.8334782E-01
        1   -1    0    0  501    0  0.00000000000E+00  0.00000000000E+00  0.65547724624E+03  0.65547724626E+03  0.50400001928E-02 0. -1.
       -1   -1    0    0    0  501  0.00000000000E+00  0.00000000000E+00 -0.27818306510E+04  0.27818306510E+04  0.50400001928E-02 0.  1.
    10030    2    1    2    0    0  0.00000000000E+00  0.00000000000E+00 -0.21263534048E+04  0.34373078973E+04  0.27006863533E+04 0.  0.
        5    1    3    3  502    0  0.23489528929E+03  0.10042879861E+04  0.46117163920E+02  0.10324335517E+04  0.46999998093E+01 0. -1.
       -5    1    3    3    0  502 -0.23489528929E+03 -0.10042879861E+04 -0.21724705687E+04  0.24048743456E+04  0.46999998093E+01 0.  1.
</event>
<event>
 5   0  0.3199840E-06  0.2716125E+04  0.7818609E-02  0.8329792E-01
       -1   -1    0    0    0  501  0.00000000000E+00  0.00000000000E+00  0.99714224955E+03  0.99714224956E+03  0.50400001928E-02 0.  1.
        1   -1    0    0  501    0  0.00000000000E+00  0.00000000000E+00 -0.18496194782E+04  0.18496194782E+04  0.50400001928E-02 0. -1.
    10030    2    1    2    0    0  0.00000000000E+00  0.00000000000E+00 -0.85247722861E+03  0.28467617277E+04  0.27161249804E+04 0.  0.
        1    1    3    3  502    0  0.21789524737E+03 -0.13205557829E+04 -0.18497636930E+03  0.13511336617E+04  0.50400001928E-02 0.  1.
       -1    1    3    3    0  502 -0.21789524737E+03  0.13205557829E+04 -0.66750085932E+03  0.14956280660E+04  0.50400001928E-02 0. -1.
</event>
<event>
 5   0  0.7812908E-06  0.2700336E+04  0.7818609E-02  0.8334896E-01
       -2   -1    0    0    0  501  0.00000000000E+00  0.00000000000E+00  0.67999699573E+03  0.67999699574E+03  0.25500000920E-02 0.  1.
        2   -1    0    0  501    0  0.00000000000E+00  0.00000000000E+00 -0.26808265648E+04  0.26808265648E+04  0.25500000920E-02 0. -1.
    10030    2    1    2    0    0  0.00000000000E+00  0.00000000000E+00 -0.20008295691E+04  0.33608235605E+04  0.27003362829E+04 0.  0.
        5    1    3    3  502    0 -0.18134842009E+03 -0.13239251216E+04 -0.12406793614E+04  0.18234506697E+04  0.46999998093E+01 0. -1.
       -5    1    3    3    0  502  0.18134842009E+03  0.13239251216E+04 -0.76015020769E+03  0.15373728908E+04  0.46999998093E+01 0.  1.
</event>
<event>
 5   0  0.8213334E-06  0.2693140E+04  0.7818609E-02  0.8337234E-01
        2   -1    0    0  501    0  0.00000000000E+00  0.00000000000E+00  0.17979994499E+04  0.17979994499E+04  0.25500000920E-02 0.  1.
       -2   -1    0    0    0  501  0.00000000000E+00  0.00000000000E+00 -0.10084827187E+04  0.10084827187E+04  0.25500000920E-02 0. -1.
    10030    2    1    2    0    0  0.00000000000E+00  0.00000000000E+00  0.78951673115E+03  0.28064821686E+04  0.26931404520E+04 0.  0.
        3    1    3    3  502    0  0.38125573427E+03 -0.62926609283E+03 -0.78049936366E+03  0.10726187661E+04  0.10100000352E+00 0. -1.
       -3    1    3    3    0  502 -0.38125573427E+03  0.62926609283E+03  0.15700160948E+04  0.17338634025E+04  0.10100000352E+00 0.  1.
</event>
<event>
 5   0  0.7729970E-06  0.2691798E+04  0.7818609E-02  0.8337671E-01
        2   -1    0    0  501    0  0.00000000000E+00  0.00000000000E+00  0.11959174391E+04  0.11959174391E+04  0.25500000920E-02 0. -1.
       -2   -1    0    0    0  501  0.00000000000E+00  0.00000000000E+00 -0.15146902067E+04  0.15146902067E+04  0.25500000920E-02 0.  1.
    10030    2    1    2    0    0  0.00000000000E+00  0.00000000000E+00 -0.31877276764E+03  0.27106076458E+04  0.26917982339E+04 0.  0.
        4    1    3    3  502    0 -0.11478959791E+04  0.62710650079E+03  0.15987012628E+03  0.13177586321E+04  0.12699999809E+01 0. -1.
       -4    1    3    3    0  502  0.11478959791E+04 -0.62710650079E+03 -0.47864289392E+03  0.13928490137E+04  0.12699999809E+01 0.  1.
</event>
<event>
 5   0  0.8213334E-06  0.2705351E+04  0.7818609E-02  0.8333271E-01
       -2   -1    0    0    0  501  0.00000000000E+00  0.00000000000E+00  0.89487408536E+03  0.89487408536E+03  0.25500000920E-02 0. -1.
        2   -1    0    0  501    0  0.00000000000E+00  0.00000000000E+00 -0.20446797039E+04  0.20446797039E+04  0.25500000920E-02 0.  1.
    10030    2    1    2    0    0  0.00000000000E+00  0.00000000000E+00 -0.11498056186E+04  0.29395537893E+04  0.27053509051E+04 0.  0.
        3    1    3    3  502    0 -0.99990638422E+03 -0.24859029980E+03  0.37739462391E+03  0.10972860278E+04  0.10100000352E+00 0. -1.
       -3    1    3    3    0  502  0.99990638422E+03  0.24859029980E+03 -0.15272002425E+04  0.18422677615E+04  0.10100000352E+00 0.  1.
</event>
<event>
 5   0  0.3089218E-06  0.2697059E+04  0.7818609E-02  0.8335960E-01
       -1   -1    0    0    0  501  0.00000000000E+00  0.00000000000E+00  0.10088894656E+04  0.10088894656E+04  0.50400001928E-02 0. -1.
        1   -1    0    0  501    0  0.00000000000E+00  0.00000000000E+00 -0.18025080508E+04  0.18025080508E+04  0.50400001928E-02 0.  1.
    10030    2    1    2    0    0  0.00000000000E+00  0.00000000000E+00 -0.79361858519E+03  0.28113975164E+04  0.26970586825E+04 0.  0.
        5    1    3    3  502    0  0.79096218035E+03  0.48052909287E+03 -0.14191952201E+04  0.16943041470E+04  0.46999998093E+01 0.  1.
       -5    1    3    3    0  502 -0.79096218035E+03 -0.48052909287E+03  0.62557663491E+03  0.11170933694E+04  0.46999998093E+01 0. -1.
</event>
<event>
 5   0  0.3013407E-06  0.2651154E+04  0.7818609E-02  0.8351030E-01
        1   -1    0    0  501    0  0.00000000000E+00  0.00000000000E+00  0.12694066932E+04  0.12694066932E+04  0.50400001928E-02 0.  1.
       -1   -1    0    0    0  501  0.00000000000E+00  0.00000000000E+00 -0.13842323087E+04  0.13842323087E+04  0.50400001928E-02 0. -1.
    10030    2    1    2    0    0  0.00000000000E+00  0.00000000000E+00 -0.11482561548E+03  0.26536390020E+04  0.26511535283E+04 0.  0.
        4    1    3    3  502    0  0.12190706854E+04 -0.20969032617E+03  0.41953026513E+03  0.13061816969E+04  0.12699999809E+01 0. -1.
       -4    1    3    3    0  502 -0.12190706854E+04  0.20969032617E+03 -0.53435588061E+03  0.13474573051E+04  0.12699999809E+01 0.  1.
</event>
<event>
 5   0  0.3089218E-06  0.2685542E+04  0.7818609E-02  0.8339711E-01
       -1   -1    0    0    0  501  0.00000000000E+00  0.00000000000E+00  0.97600285524E+03  0.97600285526E+03  0.50400001928E-02 0.  1.
        1   -1    0    0  501    0  0.00000000000E+00  0.00000000000E+00 -0.18473661076E+04  0.18473661076E+04  0.50400001928E-02 0. -1.
    10030    2    1    2    0    0  0.00000000000E+00  0.00000000000E+00 -0.87136325231E+03  0.28233689628E+04  0.26855424746E+04 0.  0.
        5    1    3    3  502    0 -0.75734310334E+03 -0.93951107721E+03 -0.10547689363E+04  0.16027505231E+04  0.46999998093E+01 0.  1.
       -5    1    3    3    0  502  0.75734310334E+03  0.93951107721E+03  0.18340568402E+03  0.12206184397E+04  0.46999998093E+01 0. -1.
</event>
<event>
 5   0  0.3013407E-06  0.2707932E+04  0.7818609E-02  0.8332436E-01
        1   -1    0    0  501    0  0.00000000000E+00  0.00000000000E+00  0.22571723559E+04  0.22571723559E+04  0.50400001928E-02 0.  1.
       -1   -1    0    0    0  501  0.00000000000E+00  0.00000000000E+00 -0.81217720757E+03  0.81217720758E+03  0.50400001928E-02 0. -1.
    10030    2    1    2    0    0  0.00000000000E+00  0.00000000000E+00  0.14449951484E+04  0.30693495635E+04  0.27079320088E+04 0.  0.
        4    1    3    3  502    0 -0.10763593552E+04 -0.11153358542E+03  0.16448864298E+04  0.19689190389E+04  0.12699999809E+01 0.  1.
       -4    1    3    3    0  502  0.10763593552E+04  0.11153358542E+03 -0.19989128140E+03  0.11004305246E+04  0.12699999809E+01 0. -1.
</event>
<event>
 5   0  0.8213334E-06  0.2717068E+04  0.7818609E-02  0.8329488E-01
        2   -1    0    0  501    0  0.00000000000E+00  0.00000000000E+00  0.10475600141E+04  0.10475600141E+04  0.25500000920E-02 0.  1.
       -2   -1    0    0    0  501  0.00000000000E+00  0.00000000000E+00 -0.17618227392E+04  0.17618227392E+04  0.25500000920E-02 0. -1.
    10030    2    1    2    0    0  0.00000000000E+00  0.00000000000E+00 -0.71426272512E+03  0.28093827533E+04  0.27170683124E+04 0.  0.
        3    1    3    3  502    0  0.46589944021E+03 -0.83565611013E+03 -0.13543856300E+04  0.16582351666E+04  0.10100000352E+00 0. -1.
       -3    1    3    3    0  502 -0.46589944021E+03  0.83565611013E+03  0.64012290492E+03  0.11511475867E+04  0.10100000352E+00 0.  1.
</event>
<event>
 5   0  0.3028601E-06  0.2765088E+04  0.7818609E-02  0.8314190E-01
       -1   -1    0    0    0  501  0.00000000000E+00  0.00000000000E+00  0.14008235038E+04  0.14008235038E+04  0.50400001928E-02 0. -1.
        1   -1    0    0  501    0  0.00000000000E+00  0.00000000000E+00 -0.13645029872E+04  0.13645029872E+04  0.50400001928E-02 0.  1.
    10030    2    1    2    0    0  0.00000000000E+00  0.00000000000E+00  0.36320516538E+02  0.27653264910E+04  0.27650879591E+04 0.  0.
        3    1    3    3  502    0  0.25617702313E+03 -0.58097470634E+01 -0.13405471756E+04  0.13648176291E+04  0.10100000352E+00 0.  1.
       -3    1    3    3    0  502 -0.25617702313E+03  0.58097470634E+01  0.13768676922E+04  0.14005088619E+04  0.10100000352E+00 0. -1.
</event>
<event>
 5   0  0.2654625E-06  0.2703768E+04  0.7818609E-02  0.8333784E-01
       -4   -1    0    0    0  501  0.00000000000E+00  0.00000000000E+00  0.14705016458E+04  0.14705021942E+04  0.12699999809E+01 0.  1.
        4   -1    0    0  501    0  0.00000000000E+00  0.00000000000E+00 -0.12428331297E+04  0.12428337786E+04  0.12699999809E+01 0. -1.
    10030    2    1    2    0    0  0.00000000000E+00  0.00000000000E+00  0.22766851610E+03  0.27133359729E+04  0.27037675840E+04 0.  0.
        1    1    3    3  502    0 -0.42522258083E+03  0.19062284726E+03 -0.11596872514E+04  0.12498103193E+04  0.50400001928E-02 0. -1.
       -1    1    3    3    0  502  0.42522258083E+03 -0.19062284726E+03  0.13873557675E+04  0.14635256536E+04  0.50400001928E-02 0.  1.
</event>
<event>
 5   0  0.8213334E-06  0.2702136E+04  0.7818609E-02  0.8334312E-01
       -2   -1    0    0    0  501  0.00000000000E+00  0.00000000000E+00  0.62318423233E+03  0.62318423234E+03  0.25500000920E-02 0. -1.
        2   -1    0    0  501    0  0.00000000000E+00  0.00000000000E+00 -0.29291250106E+04  0.29291250106E+04  0.25500000920E-02 0.  1.
    10030    2    1    2    0    0  0.00000000000E+00  0.00000000000E+00 -0.23059407783E+04  0.35523092430E+04  0.27021358376E+04 0.  0.
        3    1    3    3  502    0 -0.88739172172E+03  0.22731614657E+03  0.15258894752E+03  0.92866576085E+03  0.10100000352E+00 0. -1.
       -3    1    3    3    0  502  0.88739172172E+03 -0.22731614657E+03 -0.24585297258E+04  0.26236434821E+04  0.10100000352E+00 0.  1.
</event>
<event>
 5   0  0.3028601E-06  0.2713239E+04  0.7818609E-02  0.8330722E-01
        1   -1    0    0  501    0  0.00000000000E+00  0.00000000000E+00  0.17363291176E+04  0.17363291176E+04  0.50400001928E-02 0. -1.
       -1   -1    0    0    0  501  0.00000000000E+00  0.00000000000E+00 -0.10599467563E+04  0.10599467563E+04  0.50400001928E-02 0.  1.
    10030    2    1    2    0    0  0.00000000000E+00  0.00000000000E+00  0.67638236135E+03  0.27962758739E+04  0.27132389618E+04 0.  0.
        3    1    3    3  502    0 -0.29233103133E+02  0.12413170598E+04  0.90144619481E+03  0.15343819177E+04  0.10100000352E+00 0. -1.
       -3    1    3    3    0  502  0.29233103133E+02 -0.12413170598E+04 -0.22506383346E+03  0.12618939561E+04  0.10100000352E+00 0.  1.
</event>
<event>
 5   0  0.7729970E-06  0.2706491E+04  0.7818609E-02  0.8332902E-01
        2   -1    0    0  501    0  0.00000000000E+00  0.00000000000E+00  0.21577037059E+04  0.21577037059E+04  0.25500000920E-02 0. -1.
       -2   -1    0    0    0  501  0.00000000000E+00  0.00000000000E+00 -0.84871408582E+03  0.84871408582E+03  0.25500000920E-02 0.  1.
    10030    2    1    2    0    0  0.00000000000E+00  0.00000000000E+00  0.13089896200E+04  0.30064177917E+04  0.27064911071E+04 0.  0.
        4    1    3    3  502    0  0.34693464136E+03 -0.24064928460E+03  0.20826606957E+04  0.21250300962E+04  0.12699999809E+01 0. -1.
       -4    1    3    3    0  502 -0.34693464136E+03  0.24064928460E+03 -0.77367107564E+03  0.88138769547E+03  0.12699999809E+01 0.  1.
</event>
<event>
 5   0  0.2654625E-06  0.2675058E+04  0.7818609E-02  0.8343143E-01
       -4   -1    0    0    0  501  0.00000000000E+00  0.00000000000E+00  0.18021448934E+04  0.18021453409E+04  0.12699999809E+01 0. -1.
        4   -1    0    0  501    0  0.00000000000E+00  0.00000000000E+00 -0.99269610192E+03  0.99269691431E+03  0.12699999809E+01 0.  1.
    10030    2    1    2    0    0  0.00000000000E+00  0.00000000000E+00  0.80944879149E+03  0.27948422552E+04  0.26750581088E+04 0.  0.
        5    1    3    3  502    0  0.13358629710E+03  0.13196572431E+04  0.58453961855E+03  0.14494996356E+04  0.46999998093E+01 0.  1.
       -5    1    3    3    0  502 -0.13358629710E+03 -0.13196572431E+04  0.22490917294E+03  0.13453426196E+04  0.46999998093E+01 0. -1.
</event>
<event>
 5   0  0.3046300E-06  0.2697250E+04  0.7818609E-02  0.8335898E-01
       -1   -1    0    0    0  501  0.00000000000E+00  0.00000000000E+00  0.16913122064E+04  0.16913122064E+04  0.50400001928E-02 0. -1.
        1   -1    0    0  501    0  0.00000000000E+00  0.00000000000E+00 -0.10753718958E+04  0.10753718958E+04  0.50400001928E-02 0.  1.
    10030    2    1    2    0    0  0.00000000000E+00  0.00000000000E+00  0.61594031062E+03  0.27666841022E+04  0.26972501654E+04 0.  0.
        2    1    3    3  502    0 -0.39490073790E+03  0.10161296181E+04  0.11223370997E+04  0.15646426297E+04  0.25500000920E-02 0. -1.
       -2    1    3    3    0  502  0.39490073790E+03 -0.10161296181E+04 -0.50639678905E+03  0.12020414724E+04  0.25500000920E-02 0.  1.
</event>
<event>
 5   0  0.3013407E-06  0.2687553E+04  0.7818609E-02  0.8339055E-01
       -1   -1    0    0    0  501  0.00000000000E+00  0.00000000000E+00  0.10167772232E+04  0.10167772233E+04  0.50400001928E-02 0.  1.
        1   -1    0    0  501    0  0.00000000000E+00  0.00000000000E+00 -0.17759403990E+04  0.17759403990E+04  0.50400001928E-02 0. -1.
    10030    2    1    2    0    0  0.00000000000E+00  0.00000000000E+00 -0.75916317572E+03  0.27927176222E+04  0.26875533465E+04 0.  0.
        4    1    3    3  502    0  0.41245802535E+03 -0.47148470274E+03 -0.16149297345E+04  0.17321717894E+04  0.12699999809E+01 0. -1.
       -4    1    3    3    0  502 -0.41245802535E+03  0.47148470274E+03  0.85576655878E+03  0.10605458329E+04  0.12699999809E+01 0.  1.
</event>
<event>
 5   0  0.3028601E-06  0.2694516E+04  0.7818609E-02  0.8336786E-01
        1   -1    0    0  501    0  0.00000000000E+00  0.00000000000E+00  0.17879234163E+04  0.17879234163E+04  0.50400001928E-02 0.  1.
       -1   -1    0    0    0  501  0.00000000000E+00  0.00000000000E+00 -0.10152025923E+04  0.10152025923E+04  0.50400001928E-02 0. -1.
    10030    2    1    2    0    0  0.00000000000E+00  0.00000000000E+00  0.77272082404E+03  0.28031260086E+04  0.26945162735E+04 0.  0.
        3    1    3    3  502    0 -0.96286933032E+03 -0.23489193249E+03  0.13357304788E+04  0.16632701192E+04  0.10100000352E+00 0.  1.
       -3    1    3    3    0  502  0.96286933032E+03  0.23489193249E+03 -0.56300965471E+03  0.11398558895E+04  0.10100000352E+00 0. -1.
</event>
<event>
 5   0  0.3089218E-06  0.2693795E+04  0.7818609E-02  0.8337021E-01
       -1   -1    0    0    0  501  0.00000000000E+00  0.00000000000E+00  0.87574148358E+03  0.87574148359E+03  0.50400001928E-02 0. -1.
        1   -1    0    0  501    0  0.00000000000E+00  0.00000000000E+00 -0.20715398842E+04  0.20715398842E+04  0.50400001928E-02 0.  1.
    10030    2    1    2    0    0  0.00000000000E+00  0.00000000000E+00 -0.11957984006E+04  0.29472813678E+04  0.26937953979E+04 0.  0.
        5    1    3    3  502    0 -0.27661831921E+02 -0.13025010427E+04 -0.97187846387E+03  0.16253750280E+04  0.46999998093E+01 0.  1.
       -5    1    3    3    0  502  0.27661831921E+02  0.13025010427E+04 -0.22391993672E+03  0.13219063398E+04  0.46999998093E+01 0. -1.
</event>
<event>
 5   0  0.8213334E-06  0.2689657E+04  0.7818609E-02  0.8338369E-01
       -2   -1    0    0    0  501  0.00000000000E+00  0.00000000000E+00  0.72198443269E+03  0.72198443269E+03  0.25500000920E-02 0. -1.
        2   -1    0    0  501    0  0.00000000000E+00  0.00000000000E+00 -0.25049906948E+04  0.25049906948E+04  0.25500000920E-02 0.  1.
    10030    2    1    2    0    0  0.00000000000E+00  0.00000000000E+00 -0.17830062621E+04  0.32269751274E+04  0.26896574396E+04 0.  0.
        3    1    3    3  502    0 -0.13084351883E+03  0.49107644540E+03  0.60233955182E+03  0.78809202986E+03  0.10100000352E+00 0. -1.
       -3    1    3    3    0  502  0.13084351883E+03 -0.49107644540E+03 -0.23853458139E+04  0.24388830976E+04  0.10100000352E+00 0.  1.
</event>
<event>
 5   0  0.3199840E-06  0.2711127E+04  0.7818609E-02  0.8331404E-01
       -1   -1    0    0    0  501  0.00000000000E+00  0.00000000000E+00  0.11821792411E+04  0.11821792411E+04  0.50400001928E-02 0. -1.
        1   -1    0    0  501    0  0.00000000000E+00  0.00000000000E+00 -0.15543770808E+04  0.15543770809E+04  0.50400001928E-02 0.  1.
    10030    2    1    2    0    0  0.00000000000E+00  0.00000000000E+00 -0.37219783975E+03  0.27365563220E+04  0.27111269375E+04 0.  0.
        1    1    3    3  502    0 -0.48745689335E+03 -0.98918214427E+03 -0.98181842555E+03  0.14765036262E+04  0.50400001928E-02 0.  1.
       -1    1    3    3    0  502  0.48745689335E+03  0.98918214427E+03  0.60962058580E+03  0.12600526958E+04  0.50400001928E-02 0. -1.
</event>
<event>
 5   0  0.8407622E-06  0.2721260E+04  0.7818609E-02  0.8328140E-01
       -2   -1    0    0    0  501  0.00000000000E+00  0.00000000000E+00  0.12988723952E+04  0.12988723952E+04  0.25500000920E-02 0. -1.
        2   -1    0    0  501    0  0.00000000000E+00  0.00000000000E+00 -0.14253235090E+04  0.14253235090E+04  0.25500000920E-02 0.  1.
    10030    2    1    2    0    0  0.00000000000E+00  0.00000000000E+00 -0.12645111383E+03  0.27241959041E+04  0.27212595319E+04 0.  0.
        1    1    3    3  502    0 -0.10580101713E+04 -0.72788680703E+03  0.38682448382E+03  0.13412076303E+04  0.50400001928E-02 0. -1.
       -1    1    3    3    0  502  0.10580101713E+04  0.72788680703E+03 -0.51327559765E+03  0.13829882738E+04  0.50400001928E-02 0.  1.
</event>
<event>
 5   0  0.3028601E-06  0.2694476E+04  0.7818609E-02  0.8336799E-01
       -1   -1    0    0    0  501  0.00000000000E+00  0.00000000000E+00  0.81593397867E+03  0.81593397868E+03  0.50400001928E-02 0.  1.
        1   -1    0    0  501    0  0.00000000000E+00  0.00000000000E+00 -0.22245070255E+04  0.22245070255E+04  0.50400001928E-02 0. -1.
    10030    2    1    2    0    0  0.00000000000E+00  0.00000000000E+00 -0.14085730468E+04  0.30404410042E+04  0.26944764745E+04 0.  0.
        3    1    3    3  502    0 -0.32652959366E+03 -0.19243611481E+02  0.77044720976E+03  0.83700705215E+03  0.10100000352E+00 0.  1.
       -3    1    3    3    0  502  0.32652959366E+03  0.19243611481E+02 -0.21790202566E+04  0.22034339520E+04  0.10100000352E+00 0. -1.
</event>
<event>
 5   0  0.3046300E-06  0.2706021E+04  0.7818609E-02  0.8333054E-01
        1   -1    0    0  501    0  0.00000000000E+00  0.00000000000E+00  0.18147378313E+04  0.18147378313E+04  0.50400001928E-02 0.  1.
       -1   -1    0    0    0  501  0.00000000000E+00  0.00000000000E+00 -0.10087614168E+04  0.10087614168E+04  0.50400001928E-02 0. -1.
    10030    2    1    2    0    0  0.00000000000E+00  0.00000000000E+00  0.80597641448E+03  0.28234992481E+04  0.27060210686E+04 0.  0.
        2    1    3    3  502    0 -0.11681987632E+03  0.19365774310E+03 -0.98889869895E+03  0.10144312898E+04  0.25500000920E-02 0. -1.
       -2    1    3    3    0  502  0.11681987632E+03 -0.19365774310E+03  0.17948751134E+04  0.18090679583E+04  0.25500000920E-02 0.  1.
</event>
<event>
 5   0  0.3089218E-06  0.2698701E+04  0.7818609E-02  0.8335426E-01
       -1   -1    0    0    0  501  0.00000000000E+00  0.00000000000E+00  0.10296202880E+04  0.10296202880E+04  0.50400001928E-02 0.  1.
        1   -1    0    0  501    0  0.00000000000E+00  0.00000000000E+00 -0.17683677894E+04  0.17683677894E+04  0.50400001928E-02 0. -1.
    10030    2    1    2    0    0  0.00000000000E+00  0.00000000000E+00 -0.73874750138E+03  0.27979880774E+04  0.26987014304E+04 0.  0.
        5    1    3    3  502    0 -0.64631415805E+03  0.45349194642E+03 -0.15038653283E+04  0.16985317047E+04  0.46999998093E+01 0. -1.
       -5    1    3    3    0  502  0.64631415805E+03 -0.45349194642E+03  0.76511782688E+03  0.10994563727E+04  0.46999998093E+01 0.  1.
</event>
<event>
 5   0  0.7812908E-06  0.2691764E+04  0.7818609E-02  0.8337682E-01
       -2   -1    0    0    0  501  0.00000000000E+00  0.00000000000E+00  0.15217733852E+04  0.15217733852E+04  0.25500000920E-02 0. -1.
        2   -1    0    0  501    0  0.00000000000E+00  0.00000000000E+00 -0.11903203490E+04  0.11903203490E+04  0.25500000920E-02 0.  1.
    10030    2    1    2    0    0  0.00000000000E+00  0.00000000000E+00  0.33145303622E+03  0.27120937342E+04  0.26917636055E+04 0.  0.
        5    1    3    3  502    0  0.96857753902E+03 -0.54919108200E+03 -0.59604093703E+03  0.12629490022E+04  0.46999998093E+01 0.  1.
       -5    1    3    3    0  502 -0.96857753902E+03  0.54919108200E+03  0.92749397326E+03  0.14491447319E+04  0.46999998093E+01 0. -1.
</event>
<event>
 5   0  0.7812908E-06  0.2713667E+04  0.7818609E-02  0.8330584E-01
        2   -1    0    0  501    0  0.00000000000E+00  0.00000000000E+00  0.27387402051E+04  0.27387402051E+04  0.25500000920E-02 0.  1.
       -2   -1    0    0    0  501  0.00000000000E+00  0.00000000000E+00 -0.67220595254E+03  0.67220595254E+03  0.25500000920E-02 0. -1.
    10030    2    1    2    0    0  0.00000000000E+00  0.00000000000E+00  0.20665342526E+04  0.34109461577E+04  0.27136672370E+04 0.  0.
        5    1    3    3  502    0  0.60419936002E+03  0.43183350992E+02  0.25593387845E+04  0.26300491958E+04  0.46999998093E+01 0.  1.
       -5    1    3    3    0  502 -0.60419936002E+03 -0.43183350992E+02 -0.49280453189E+03  0.78089696189E+03  0.46999998093E+01 0. -1.
</event>
<event>
 5   0  0.7812908E-06  0.2705654E+04  0.7818609E-02  0.8333173E-01
       -2   -1    0    0    0  501  0.00000000000E+00  0.00000000000E+00  0.87060009813E+03  0.87060009813E+03  0.25500000920E-02 0.  1.
        2   -1    0    0  501    0  0.00000000000E+00  0.00000000000E+00 -0.21021608608E+04  0.21021608608E+04  0.25500000920E-02 0. -1.
    10030    2    1    2    0    0  0.00000000000E+00  0.00000000000E+00 -0.12315607627E+04  0.29727609589E+04  0.27056544138E+04 0.  0.
        5    1    3    3  502    0  0.80739246378E+01 -0.13328321336E+04 -0.36137785992E+03  0.13809861448E+04  0.46999998093E+01 0.  1.
       -5    1    3    3    0  502 -0.80739246378E+01  0.13328321336E+04 -0.87018290277E+03  0.15917748141E+04  0.46999998093E+01 0. -1.
</event>
<event>
 5   0  0.3013407E-06  0.2674334E+04  0.7818609E-02  0.8343381E-01
       -1   -1    0    0    0  501  0.00000000000E+00  0.00000000000E+00  0.12816343112E+04  0.12816343112E+04  0.50400001928E-02 0.  1.
        1   -1    0    0  501    0  0.00000000000E+00  0.00000000000E+00 -0.13951063731E+04  0.13951063731E+04  0.50400001928E-02 0. -1.
    10030    2    1    2    0    0  0.00000000000E+00  0.00000000000E+00 -0.11347206189E+03  0.26767406843E+04  0.26743344560E+04 0.  0.
        4    1    3    3  502    0 -0.62230847119E+03 -0.85278572027E+03 -0.87814687639E+03  0.13731914897E+04  0.12699999809E+01 0. -1.
       -4    1    3    3    0  502  0.62230847119E+03  0.85278572027E+03  0.76467481450E+03  0.13035491946E+04  0.12699999809E+01 0.  1.
</event>
<event>
 5   0  0.7838364E-06  0.2700386E+04  0.7818609E-02  0.8334880E-01
        2   -1    0    0  501    0  0.00000000000E+00  0.00000000000E+00  0.11522895641E+04  0.11522895641E+04  0.25500000920E-02 0.  1.
       -2   -1    0    0    0  501  0.00000000000E+00  0.00000000000E+00 -0.15820860176E+04  0.15820860176E+04  0.25500000920E-02 0. -1.
    10030    2    1    2    0    0  0.00000000000E+00  0.00000000000E+00 -0.42979645355E+03  0.27343755817E+04  0.27003860521E+04 0.  0.
        2    1    3    3  502    0  0.50012952486E+03  0.12485782349E+03  0.10487283693E+04  0.11685675891E+04  0.25500000920E-02 0.  1.
       -2    1    3    3    0  502 -0.50012952486E+03 -0.12485782349E+03 -0.14785248229E+04  0.15658079926E+04  0.25500000920E-02 0. -1.
</event>
<event>
 5   0  0.8213334E-06  0.2685304E+04  0.7818609E-02  0.8339789E-01
       -2   -1    0    0    0  501  0.00000000000E+00  0.00000000000E+00  0.15932530609E+04  0.15932530609E+04  0.25500000920E-02 0.  1.
        2   -1    0    0  501    0  0.00000000000E+00  0.00000000000E+00 -0.11314678087E+04  0.11314678087E+04  0.25500000920E-02 0. -1.
    10030    2    1    2    0    0  0.00000000000E+00  0.00000000000E+00  0.46178525226E+03  0.27247208696E+04  0.26853041165E+04 0.  0.
        3    1    3    3  502    0  0.94601641444E+03  0.87673248107E+03 -0.14755347150E+03  0.12982214514E+04  0.10100000352E+00 0. -1.
       -3    1    3    3    0  502 -0.94601641444E+03 -0.87673248107E+03  0.60933872376E+03  0.14264994182E+04  0.10100000352E+00 0.  1.
</event>
<event>
 5   0  0.3028601E-06  0.2720021E+04  0.7818609E-02  0.8328538E-01
        1   -1    0    0  501    0  0.00000000000E+00  0.00000000000E+00  0.20315250898E+04  0.20315250898E+04  0.50400001928E-02 0. -1.
       -1   -1    0    0    0  501  0.00000000000E+00  0.00000000000E+00 -0.91046282827E+03  0.91046282829E+03  0.50400001928E-02 0.  1.
    10030    2    1    2    0    0  0.00000000000E+00  0.00000000000E+00  0.11210622615E+04  0.29419879181E+04  0.27200206462E+04 0.  0.
        3    1    3    3  502    0 -0.48994787988E+02  0.46985811272E+03  0.19399320226E+04  0.19966229984E+04  0.10100000352E+00 0. -1.
       -3    1    3    3    0  502  0.48994787988E+02 -0.46985811272E+03 -0.81886976113E+03  0.94536491961E+03  0.10100000352E+00 0.  1.
</event>
<event>
 5   0  0.8213334E-06  0.2706055E+04  0.7818609E-02  0.8333043E-01
        2   -1    0    0  501    0  0.00000000000E+00  0.00000000000E+00  0.14850356286E+04  0.14850356286E+04  0.25500000920E-02 0. -1.
       -2   -1    0    0    0  501  0.00000000000E+00  0.00000000000E+00 -0.12327535857E+04  0.12327535857E+04  0.25500000920E-02 0.  1.
    10030    2    1    2    0    0  0.00000000000E+00  0.00000000000E+00  0.25228204291E+03  0.27177892143E+04  0.27060546898E+04 0.  0.
        3    1    3    3  502    0  0.72733761923E+03 -0.50790072696E+03  0.11521874349E+04  0.14541385959E+04  0.10100000352E+00 0. -1.
       -3    1    3    3    0  502 -0.72733761923E+03  0.50790072696E+03 -0.89990539196E+03  0.12636506184E+04  0.10100000352E+00 0.  1.
</event>
<event>
 5   0  0.3013407E-06  0.2670237E+04  0.7818609E-02  0.8344727E-01
        1   -1    0    0  501    0  0.00000000000E+00  0.00000000000E+00  0.27669349032E+04  0.27669349032E+04  0.50400001928E-02 0.  1.
       -1   -1    0    0    0  501  0.00000000000E+00  0.00000000000E+00 -0.64422967040E+03  0.64422967042E+03  0.50400001928E-02 0. -1.
    10030    2    1    2    0    0  0.00000000000E+00  0.00000000000E+00  0.21227052328E+04  0.34111645736E+04  0.26702371136E+04 0.  0.
        4    1    3    3  502    0 -0.51632228281E+03 -0.93430419867E+03  0.20857475449E+04  0.23430444873E+04  0.12699999809E+01 0.  1.
       -4    1    3    3    0  502  0.51632228281E+03  0.93430419867E+03  0.36957687955E+02  0.10681200864E+04  0.12699999809E+01 0. -1.
</event>
<event>
 5   0  0.7812908E-06  0.2716220E+04  0.7818609E-02  0.8329761E-01
       -2   -1    0    0    0  501  0.00000000000E+00  0.00000000000E+00  0.13378248118E+04  0.13378248118E+04  0.25500000920E-02 0.  1.
        2   -1    0    0  501    0  0.00000000000E+00  0.00000000000E+00 -0.13787025673E+04  0.13787025673E+04  0.25500000920E-02 0. -1.
    10030    2    1    2    0    0  0.00000000000E+00  0.00000000000E+00 -0.40877755457E+02  0.27165273791E+04  0.27162198016E+04 0.  0.
        5    1    3    3  502    0 -0.67958803239E+03  0.32167111590E+03 -0.11515524523E+04  0.13752844582E+04  0.46999998093E+01 0. -1.
       -5    1    3    3    0  502  0.67958803239E+03 -0.32167111590E+03  0.11106746969E+04  0.13412429209E+04  0.46999998093E+01 0.  1.
</event>
<event>
 5   0  0.3028601E-06  0.2698907E+04  0.7818609E-02  0.8335360E-01
        1   -1    0    0  501    0  0.00000000000E+00  0.00000000000E+00  0.24090708158E+04  0.24090708158E+04  0.50400001928E-02 0.  1.
       -1   -1    0    0    0  501  0.00000000000E+00  0.00000000000E+00 -0.75590322797E+03  0.75590322798E+03  0.50400001928E-02 0. -1.
    10030    2    1    2    0    0  0.00000000000E+00  0.00000000000E+00  0.16531675878E+04  0.31649740438E+04  0.26989067461E+04 0.  0.
        3    1    3    3  502    0 -0.52355965272E+03 -0.22347316489E+02 -0.63170869297E+03  0.82077402218E+03  0.10100000352E+00 0. -1.
       -3    1    3    3    0  502  0.52355965272E+03  0.22347316489E+02  0.22848762808E+04  0.23442000216E+04  0.10100000352E+00 0.  1.
</event>
<event>
 5   0  0.7838364E-06  0.2685928E+04  0.7818609E-02  0.8339585E-01
       -2   -1    0    0    0  501  0.00000000000E+00  0.00000000000E+00  0.15169283221E+04  0.15169283221E+04  0.25500000920E-02 0. -1.
        2   -1    0    0  501    0  0.00000000000E+00  0.00000000000E+00 -0.11889504459E+04  0.11889504459E+04  0.25500000920E-02 0.  1.
    10030    2    1    2    0    0  0.00000000000E+00  0.00000000000E+00  0.32797787614E+03  0.27058787680E+04  0.26859282231E+04 0.  0.
        2    1    3    3  502    0  0.11048752583E+04 -0.67740563553E+03  0.51863339338E+03  0.13959256170E+04  0.25500000920E-02 0. -1.
       -2    1    3    3    0  502 -0.11048752583E+04  0.67740563553E+03 -0.19065551724E+03  0.13099531510E+04  0.25500000920E-02 0.  1.
</event>
<event>
 5   0  0.3089218E-06  0.2833483E+04  0.7818609E-02  0.8292948E-01
        1   -1    0    0  501    0  0.00000000000E+00  0.00000000000E+00  0.18770568033E+04  0.18770568033E+04  0.50400001928E-02 0. -1.
       -1   -1    0    0    0  501  0.00000000000E+00  0.00000000000E+00 -0.10693105054E+04  0.10693105054E+04  0.50400001928E-02 0.  1.
    10030    2    1    2    0    0  0.00000000000E+00  0.00000000000E+00  0.80774629791E+03  0.29463673087E+04  0.28334830573E+04 0.  0.
        5    1    3    3  502    0 -0.47651279615E+03  0.70187713413E+03  0.15837305342E+04  0.17966414365E+04  0.46999998093E+01 0. -1.
       -5    1    3    3    0  502  0.47651279615E+03 -0.70187713413E+03 -0.77598423628E+03  0.11497258722E+04  0.46999998093E+01 0.  1.
</event>
<event>
 5   0  0.3046300E-06  0.2700782E+04  0.7818609E-02  0.8334751E-01
       -1   -1    0    0    0  501  0.00000000000E+00  0.00000000000E+00  0.99534985717E+03  0.99534985719E+03  0.50400001928E-02 0.  1.
        1   -1    0    0  501    0  0.00000000000E+00  0.00000000000E+00 -0.18320750160E+04  0.18320750160E+04  0.50400001928E-02 0. -1.
    10030    2    1    2    0    0  0.00000000000E+00  0.00000000000E+00 -0.83672515881E+03  0.28274248732E+04  0.27007818168E+04 0.  0.
        2    1    3    3  502    0  0.10659477668E+04 -0.34300276287E+03  0.37178727086E+03  0.11798819058E+04  0.25500000920E-02 0.  1.
       -2    1    3    3    0  502 -0.10659477668E+04  0.34300276287E+03 -0.12085124297E+04  0.16475429674E+04  0.25500000920E-02 0. -1.
</event>
<event>
 5   0  0.3089218E-06  0.2708500E+04  0.7818609E-02  0.8332252E-01
        1   -1    0    0  501    0  0.00000000000E+00  0.00000000000E+00  0.13639182824E+04  0.13639182824E+04  0.50400001928E-02 0.  1.
       -1   -1    0    0    0  501  0.00000000000E+00  0.00000000000E+00 -0.13446498122E+04  0.13446498122E+04  0.50400001928E-02 0. -1.
    10030    2    1    2    0    0  0.00000000000E+00  0.00000000000E+00  0.19268470198E+02  0.27085680946E+04  0.27084995568E+04 0.  0.
        5    1    3    3  502    0 -0.96899710769E+03 -0.54235145535E+03  0.78481181898E+03  0.13597985796E+04  0.46999998093E+01 0.  1.
       -5    1    3    3    0  502  0.96899710769E+03  0.54235145535E+03 -0.76554334878E+03  0.13487695150E+04  0.46999998093E+01 0. -1.
</event>
<event>
 5   0  0.7812908E-06  0.2718803E+04  0.7818609E-02  0.8328930E-01
        2   -1    0    0  501    0  0.00000000000E+00  0.00000000000E+00  0.16088438899E+04  0.16088438899E+04  0.25500000920E-02 0. -1.
       -2   -1    0    0    0  501  0.00000000000E+00  0.00000000000E+00 -0.11486334515E+04  0.11486334515E+04  0.25500000920E-02 0.  1.
    10030    2    1    2    0    0  0.00000000000E+00  0.00000000000E+00  0.46021043847E+03  0.27574773414E+04  0.27188026116E+04 0.  0.
        5    1    3    3  502    0  0.97764845255E+03  0.77784071864E+03  0.77356052554E+03  0.14694388919E+04  0.46999998093E+01 0. -1.
       -5    1    3    3    0  502 -0.97764845255E+03 -0.77784071864E+03 -0.31335008706E+03  0.12880384495E+04  0.46999998093E+01 0.  1.
</event>
<event>
 5   0  0.3089218E-06  0.2654575E+04  0.7818609E-02  0.8349896E-01
       -1   -1    0    0    0  501  0.00000000000E+00  0.00000000000E+00  0.11046884477E+04  0.11046884478E+04  0.50400001928E-02 0. -1.
        1   -1    0    0  501    0  0.00000000000E+00  0.00000000000E+00 -0.15947414469E+04  0.15947414469E+04  0.50400001928E-02 0.  1.
    10030    2    1    2    0    0  0.00000000000E+00  0.00000000000E+00 -0.49005299917E+03  0.26994298947E+04  0.26545752606E+04 0.  0.
        5    1    3    3  502    0  0.10007487182E+03  0.87564540512E+03  0.76416408777E+03  0.11665070504E+04  0.46999998093E+01 0. -1.
       -5    1    3    3    0  502 -0.10007487182E+03 -0.87564540512E+03 -0.12542170869E+04  0.15329228443E+04  0.46999998093E+01 0.  1.
</event>
<event>
 5   0  0.8407622E-06  0.2686545E+04  0.7818609E-02  0.8339384E-01
       -2   -1    0    0    0  501  0.00000000000E+00  0.00000000000E+00  0.11921566558E+04  0.11921566558E+04  0.25500000920E-02 0.  1.
        2   -1    0    0  501    0  0.00000000000E+00  0.00000000000E+00 -0.15135431248E+04  0.15135431248E+04  0.25500000920E-02 0. -1.
    10030    2    1    2    0    0  0.00000000000E+00  0.00000000000E+00 -0.32138646897E+03  0.27056997807E+04  0.26865446285E+04 0.  0.
        1    1    3    3  502    0  0.37657680397E+03 -0.84550178562E+03 -0.11411316844E+04  0.14693076192E+04  0.50400001928E-02 0. -1.
       -1    1    3    3    0  502 -0.37657680397E+03  0.84550178562E+03  0.81974521539E+03  0.12363921615E+04  0.50400001928E-02 0.  1.
</event>
<event>
 5   0  0.7812908E-06  0.2742550E+04  0.7818609E-02  0.8321329E-01
       -2   -1    0    0    0  501  0.00000000000E+00  0.00000000000E+00  0.69690133581E+03  0.69690133582E+03  0.25500000920E-02 0. -1.
        2   -1    0    0  501    0  0.00000000000E+00  0.00000000000E+00 -0.26982232584E+04  0.26982232584E+04  0.25500000920E-02 0.  1.
    10030    2    1    2    0    0  0.00000000000E+00  0.00000000000E+00 -0.20013219226E+04  0.33951245943E+04  0.27425501951E+04 0.  0.
        5    1    3    3  502    0  0.11458895541E+04  0.15994984532E+03 -0.19118136563E+04  0.22346588933E+04  0.46999998093E+01 0.  1.
       -5    1    3    3    0  502 -0.11458895541E+04 -0.15994984532E+03 -0.89508266377E+02  0.11604657009E+04  0.46999998093E+01 0. -1.
</event>
<event>
 5   0  0.7812908E-06  0.2688414E+04  0.7818609E-02  0.8338774E-01
        2   -1    0    0  501    0  0.00000000000E+00  0.00000000000E+00  0.13246872203E+04  0.13246872203E+04  0.25500000920E-02 0. -1.
       -2   -1    0    0    0  501  0.00000000000E+00  0.00000000000E+00 -0.13640145140E+04  0.13640145140E+04  0.25500000920E-02 0.  1.
    10030    2    1    2    0    0  0.00000000000E+00  0.00000000000E+00 -0.39327293750E+02  0.26887017343E+04  0.26884141013E+04 0.  0.
        5    1    3    3  502    0 -0.91468947727E+03  0.55419083814E+03  0.79472451280E+03  0.13324389165E+04  0.46999998093E+01 0. -1.
       -5    1    3    3    0  502  0.91468947727E+03 -0.55419083814E+03 -0.83405180655E+03  0.13562628178E+04  0.46999998093E+01 0.  1.
</event>
<event>
 5   0  0.3089218E-06  0.2693202E+04  0.7818609E-02  0.8337214E-01
       -1   -1    0    0    0  501  0.00000000000E+00  0.00000000000E+00  0.12599131691E+04  0.12599131691E+04  0.50400001928E-02 0.  1.
        1   -1    0    0  501    0  0.00000000000E+00  0.00000000000E+00 -0.14392535378E+04  0.14392535378E+04  0.50400001928E-02 0. -1.
    10030    2    1    2    0    0  0.00000000000E+00  0.00000000000E+00 -0.17934036868E+03  0.26991667070E+04  0.26932021729E+04 0.  0.
        5    1    3    3  502    0 -0.40739261093E+03 -0.46226032501E+03 -0.12896769436E+04  0.14293152404E+04  0.46999998093E+01 0. -1.
       -5    1    3    3    0  502  0.40739261093E+03  0.46226032501E+03  0.11103365749E+04  0.12698514666E+04  0.46999998093E+01 0.  1.
</event>
<event>
 5   0  0.3089218E-06  0.2700267E+04  0.7818609E-02  0.8334918E-01
        1   -1    0    0  501    0  0.00000000000E+00  0.00000000000E+00  0.18696793461E+04  0.18696793462E+04  0.50400001928E-02 0. -1.
       -1   -1    0    0    0  501  0.00000000000E+00  0.00000000000E+00 -0.97495869640E+03  0.97495869642E+03  0.50400001928E-02 0.  1.
    10030    2    1    2    0    0  0.00000000000E+00  0.00000000000E+00  0.89472064974E+03  0.28446380426E+04  0.27002667557E+04 0.  0.
        5    1    3    3  502    0  0.93082634640E+03  0.88146960826E+03  0.11437344503E+01  0.12819710432E+04  0.46999998093E+01 0.  1.
       -5    1    3    3    0  502 -0.93082634640E+03 -0.88146960826E+03  0.89357691529E+03  0.15626669994E+04  0.46999998093E+01 0. -1.
</event>
<event>
 5   0  0.7812908E-06  0.2696232E+04  0.7818609E-02  0.8336229E-01
        2   -1    0    0  501    0  0.00000000000E+00  0.00000000000E+00  0.15871747445E+04  0.15871747445E+04  0.25500000920E-02 0.  1.
       -2   -1    0    0    0  501  0.00000000000E+00  0.00000000000E+00 -0.11450636396E+04  0.11450636396E+04  0.25500000920E-02 0. -1.
    10030    2    1    2    0    0  0.00000000000E+00  0.00000000000E+00  0.44211110487E+03  0.27322383841E+04  0.26962315106E+04 0.  0.
        5    1    3    3  502    0 -0.12445707917E+04 -0.51455429057E+03  0.28245702855E+03  0.13760547360E+04  0.46999998093E+01 0.  1.
       -5    1    3    3    0  502  0.12445707917E+04  0.51455429057E+03  0.15965407632E+03  0.13561836481E+04  0.46999998093E+01 0. -1.
</event>
<event>
 5   0  0.3013407E-06  0.2709015E+04  0.7818609E-02  0.8332086E-01
        1   -1    0    0  501    0  0.00000000000E+00  0.00000000000E+00  0.18975272054E+04  0.18975272054E+04  0.50400001928E-02 0.  1.
       -1   -1    0    0    0  501  0.00000000000E+00  0.00000000000E+00 -0.96688484010E+03  0.96688484012E+03  0.50400001928E-02 0. -1.
    10030    2    1    2    0    0  0.00000000000E+00  0.00000000000E+00  0.93064236525E+03  0.28644120455E+04  0.27090147940E+04 0.  0.
        4    1    3    3  502    0 -0.20475127119E+03 -0.19440113851E+03  0.18660673150E+04  0.18873059431E+04  0.12699999809E+01 0.  1.
       -4    1    3    3    0  502  0.20475127119E+03  0.19440113851E+03 -0.93542494979E+03  0.97710610238E+03  0.12699999809E+01 0. -1.
</event>
<event>
 5   0  0.8407622E-06  0.2632752E+04  0.7818609E-02  0.8357161E-01
       -2   -1    0    0    0  501  0.00000000000E+00  0.00000000000E+00  0.62948006842E+03  0.62948006843E+03  0.25500000920E-02 0. -1.
        2   -1    0    0  501    0  0.00000000000E+00  0.00000000000E+00 -0.27528199865E+04  0.27528199865E+04  0.25500000920E-02 0.  1.
    10030    2    1    2    0    0  0.00000000000E+00  0.00000000000E+00 -0.21233399181E+04  0.33823000550E+04  0.26327516506E+04 0.  0.
        1    1    3    3  502    0  0.16324253649E+03 -0.11752550027E+04 -0.17940319379E+04  0.21509121417E+04  0.50400001928E-02 0.  1.
       -1    1    3    3    0  502 -0.16324253649E+03  0.11752550027E+04 -0.32930798019E+03  0.12313879133E+04  0.50400001928E-02 0. -1.
</event>
<event>
 5   0  0.3089218E-06  0.2672238E+04  0.7818609E-02  0.8344069E-01
       -1   -1    0    0    0  501  0.00000000000E+00  0.00000000000E+00  0.93199490114E+03  0.93199490115E+03  0.50400001928E-02 0.  1.
        1   -1    0    0  501    0  0.00000000000E+00  0.00000000000E+00 -0.19154755530E+04  0.19154755530E+04  0.50400001928E-02 0. -1.
    10030    2    1    2    0    0  0.00000000000E+00  0.00000000000E+00 -0.98348065183E+03  0.28474704541E+04  0.26722376007E+04 0.  0.
        5    1    3    3  502    0 -0.14804357397E+03  0.18724831183E+02 -0.19065594814E+04  0.19123960535E+04  0.46999998093E+01 0. -1.
       -5    1    3    3    0  502  0.14804357397E+03 -0.18724831183E+02  0.92307882960E+03  0.93507440065E+03  0.46999998093E+01 0.  1.
</event>
<event>
 5   0  0.3199840E-06  0.2697186E+04  0.7818609E-02  0.8335918E-01
       -1   -1    0    0    0  501  0.00000000000E+00  0.00000000000E+00  0.99519397277E+03  0.99519397278E+03  0.50400001928E-02 0. -1.
        1   -1    0    0  501    0  0.00000000000E+00  0.00000000000E+00 -0.18274864722E+04  0.18274864722E+04  0.50400001928E-02 0.  1.
    10030    2    1    2    0    0  0.00000000000E+00  0.00000000000E+00 -0.83229249946E+03  0.28226804450E+04  0.26971863284E+04 0.  0.
        1    1    3    3  502    0 -0.78617032636E+03  0.28779422776E+03 -0.15226058989E+04  0.17375897165E+04  0.50400001928E-02 0.  1.
       -1    1    3    3    0  502  0.78617032636E+03 -0.28779422776E+03  0.69031339944E+03  0.10850907285E+04  0.50400001928E-02 0. -1.
</event>
<event>
 5   0  0.3199840E-06  0.2631749E+04  0.7818609E-02  0.8357496E-01
       -1   -1    0    0    0  501  0.00000000000E+00  0.00000000000E+00  0.12064587339E+04  0.12064587339E+04  0.50400001928E-02 0. -1.
        1   -1    0    0  501    0  0.00000000000E+00  0.00000000000E+00 -0.14352130165E+04  0.14352130166E+04  0.50400001928E-02 0.  1.
    10030    2    1    2    0    0  0.00000000000E+00  0.00000000000E+00 -0.22875428265E+03  0.26416717505E+04  0.26317486801E+04 0.  0.
        1    1    3    3  502    0 -0.40275948379E+03  0.11186654273E+04  0.45157298021E+03  0.12718276992E+04  0.50400001928E-02 0. -1.
       -1    1    3    3    0  502  0.40275948379E+03 -0.11186654273E+04 -0.68032726286E+03  0.13698440512E+04  0.50400001928E-02 0.  1.
</event>
<event>
 5   0  0.3013407E-06  0.2687951E+04  0.7818609E-02  0.8338925E-01
        1   -1    0    0  501    0  0.00000000000E+00  0.00000000000E+00  0.15037059699E+04  0.15037059700E+04  0.50400001928E-02 0. -1.
       -1   -1    0    0    0  501  0.00000000000E+00  0.00000000000E+00 -0.12012119395E+04  0.12012119395E+04  0.50400001928E-02 0.  1.
    10030    2    1    2    0    0  0.00000000000E+00  0.00000000000E+00  0.30249403048E+03  0.27049179094E+04  0.26879505684E+04 0.  0.
        4    1    3    3  502    0  0.43229878374E+03 -0.12578550192E+04  0.34530220137E+03  0.13741603658E+04  0.12699999809E+01 0. -1.
       -4    1    3    3    0  502 -0.43229878374E+03  0.12578550192E+04 -0.42808170888E+02  0.13307575437E+04  0.12699999809E+01 0.  1.
</event>
<event>
 5   0  0.7729970E-06  0.2719274E+04  0.7818609E-02  0.8328778E-01
        2   -1    0    0  501    0  0.00000000000E+00  0.00000000000E+00  0.14917422390E+04  0.14917422390E+04  0.25500000920E-02 0.  1.
       -2   -1    0    0    0  501  0.00000000000E+00  0.00000000000E+00 -0.12392304210E+04  0.12392304210E+04  0.25500000920E-02 0. -1.
    10030    2    1    2    0    0  0.00000000000E+00  0.00000000000E+00  0.25251181795E+03  0.27309726600E+04  0.27192736993E+04 0.  0.
        4    1    3    3  502    0  0.31437043489E+03 -0.64183780988E+03 -0.10353646225E+04  0.12580803071E+04  0.12699999809E+01 0. -1.
       -4    1    3    3    0  502 -0.31437043489E+03  0.64183780988E+03  0.12878764405E+04  0.14728923529E+04  0.12699999809E+01 0.  1.
</event>
<event>
 5   0  0.8213334E-06  0.2699707E+04  0.7818609E-02  0.8335100E-01
       -2   -1    0    0    0  501  0.00000000000E+00  0.00000000000E+00  0.61569102085E+03  0.61569102085E+03  0.25500000920E-02 0.  1.
        2   -1    0    0  501    0  0.00000000000E+00  0.00000000000E+00 -0.29594452023E+04  0.29594452023E+04  0.25500000920E-02 0. -1.
    10030    2    1    2    0    0  0.00000000000E+00  0.00000000000E+00 -0.23437541815E+04  0.35751362232E+04  0.26997065305E+04 0.  0.
        3    1    3    3  502    0  0.22583550327E+02  0.11216960275E+04 -0.21658654783E+04  0.24391976704E+04  0.10100000352E+00 0. -1.
       -3    1    3    3    0  502 -0.22583550327E+02 -0.11216960275E+04 -0.17788870315E+03  0.11359385528E+04  0.10100000352E+00 0.  1.
</event>
<event>
 5   0  0.3013407E-06  0.2698358E+04  0.7818609E-02  0.8335538E-01
       -1   -1    0    0    0  501  0.00000000000E+00  0.00000000000E+00  0.64077795758E+03  0.64077795760E+03  0.50400001928E-02 0. -1.
        1   -1    0    0  501    0  0.00000000000E+00  0.00000000000E+00 -0.28407405442E+04  0.28407405442E+04  0.50400001928E-02 0.  1.
    10030    2    1    2    0    0  0.00000000000E+00  0.00000000000E+00 -0.21999625866E+04  0.34815185018E+04  0.26983579629E+04 0.  0.
        4    1    3    3  502    0 -0.19840606468E+03 -0.10795258008E+04 -0.87708008386E+02  0.11011063658E+04  0.12699999809E+01 0. -1.
       -4    1    3    3    0  502  0.19840606468E+03  0.10795258008E+04 -0.21122545782E+04  0.23804121360E+04  0.12699999809E+01 0.  1.
</event>
<event>
 5   0  0.7812908E-06  0.2695815E+04  0.7818609E-02  0.8336364E-01
        2   -1    0    0  501    0  0.00000000000E+00  0.00000000000E+00  0.70304200266E+03  0.70304200266E+03  0.25500000920E-02 0.  1.
       -2   -1    0    0    0  501  0.00000000000E+00  0.00000000000E+00 -0.25842758668E+04  0.25842758668E+04  0.25500000920E-02 0. -1.
    10030    2    1    2    0    0  0.00000000000E+00  0.00000000000E+00 -0.18812338641E+04  0.32873178695E+04  0.26958148904E+04 0.  0.
        5    1    3    3  502    0 -0.11911063371E+04  0.56959486434E+03 -0.60966354747E+03  0.14542641943E+04  0.46999998093E+01 0.  1.
       -5    1    3    3    0  502  0.11911063371E+04 -0.56959486434E+03 -0.12715703167E+04  0.18330536751E+04  0.46999998093E+01 0. -1.
</event>
<event>
 5   0  0.8213334E-06  0.2964071E+04  0.7818609E-02  0.8254066E-01
       -2   -1    0    0    0  501  0.00000000000E+00  0.00000000000E+00  0.11978351981E+04  0.11978351981E+04  0.25500000920E-02 0. -1.
        2   -1    0    0  501    0  0.00000000000E+00  0.00000000000E+00 -0.18336653611E+04  0.18336653611E+04  0.25500000920E-02 0.  1.
    10030    2    1    2    0    0  0.00000000000E+00  0.00000000000E+00 -0.63583016308E+03  0.30315005592E+04  0.29640707893E+04 0.  0.
        3    1    3    3  502    0 -0.27286158570E+03  0.13371306614E+04  0.27321002066E+03  0.13917670697E+04  0.10100000352E+00 0. -1.
       -3    1    3    3    0  502  0.27286158570E+03 -0.13371306614E+04 -0.90904018374E+03  0.16397334895E+04  0.10100000352E+00 0.  1.
</event>
<event>
 5   0  0.7729970E-06  0.2737188E+04  0.7818609E-02  0.8323039E-01
        2   -1    0    0  501    0  0.00000000000E+00  0.00000000000E+00  0.24098125991E+04  0.24098125991E+04  0.25500000920E-02 0. -1.
       -2   -1    0    0    0  501  0.00000000000E+00  0.00000000000E+00 -0.77725958254E+03  0.77725958254E+03  0.25500000920E-02 0.  1.
    10030    2    1    2    0    0  0.00000000000E+00  0.00000000000E+00  0.16325530165E+04  0.31870721816E+04  0.27371882907E+04 0.  0.
        4    1    3    3  502    0 -0.54412101245E+03  0.12251118500E+04  0.49511236892E+03  0.14290222503E+04  0.12699999809E+01 0. -1.
       -4    1    3    3    0  502  0.54412101245E+03 -0.12251118500E+04  0.11374406476E+04  0.17580499313E+04  0.12699999809E+01 0.  1.
</event>
<event>
 5   0  0.7838364E-06  0.2692974E+04  0.7818609E-02  0.8337288E-01
       -2   -1    0    0    0  501  0.00000000000E+00  0.00000000000E+00  0.10700759942E+04  0.10700759942E+04  0.25500000920E-02 0. -1.
        2   -1    0    0  501    0  0.00000000000E+00  0.00000000000E+00 -0.16942970981E+04  0.16942970981E+04  0.25500000920E-02 0.  1.
    10030    2    1    2    0    0  0.00000000000E+00  0.00000000000E+00 -0.62422110388E+03  0.27643730923E+04  0.26929735623E+04 0.  0.
        2    1    3    3  502    0 -0.14280658852E+03  0.98192794163E+03  0.62221415992E+03  0.11712073536E+04  0.25500000920E-02 0. -1.
       -2    1    3    3    0  502  0.14280658852E+03 -0.98192794163E+03 -0.12464352638E+04  0.15931657388E+04  0.25500000920E-02 0.  1.
</event>
<event>
 5   0  0.7838364E-06  0.2731648E+04  0.7818609E-02  0.8324809E-01
       -2   -1    0    0    0  501  0.00000000000E+00  0.00000000000E+00  0.68920026584E+03  0.68920026585E+03  0.25500000920E-02 0. -1.
        2   -1    0    0  501    0  0.00000000000E+00  0.00000000000E+00 -0.27067244779E+04  0.27067244779E+04  0.25500000920E-02 0.  1.
    10030    2    1    2    0    0  0.00000000000E+00  0.00000000000E+00 -0.20175242120E+04  0.33959247437E+04  0.27316480225E+04 0.  0.
        2    1    3    3  502    0 -0.46395467370E+03  0.33407017071E+03  0.53328904863E+03  0.78182736432E+03  0.25500000920E-02 0. -1.
       -2    1    3    3    0  502  0.46395467370E+03 -0.33407017071E+03 -0.25508132606E+04  0.26140973794E+04  0.25500000920E-02 0.  1.
</event>
<event>
 5   0  0.7838364E-06  0.2689956E+04  0.7818609E-02  0.8338271E-01
        2   -1    0    0  501    0  0.00000000000E+00  0.00000000000E+00  0.19647403201E+04  0.19647403201E+04  0.25500000920E-02 0. -1.
       -2   -1    0    0    0  501  0.00000000000E+00  0.00000000000E+00 -0.92071514199E+03  0.92071514199E+03  0.25500000920E-02 0.  1.
    10030    2    1    2    0    0  0.00000000000E+00  0.00000000000E+00  0.10440251781E+04  0.28854554621E+04  0.26899562545E+04 0.  0.
        2    1    3    3  502    0 -0.76151834978E+03 -0.11078189400E+04  0.47658926594E+03  0.14262925118E+04  0.25500000920E-02 0.  1.
       -2    1    3    3    0  502  0.76151834978E+03  0.11078189400E+04  0.56743591218E+03  0.14591629502E+04  0.25500000920E-02 0. -1.
</event>
<event>
 5   0  0.8213334E-06  0.2695482E+04  0.7818609E-02  0.8336472E-01
        2   -1    0    0  501    0  0.00000000000E+00  0.00000000000E+00  0.15798777731E+04  0.15798777731E+04  0.25500000920E-02 0. -1.
       -2   -1    0    0    0  501  0.00000000000E+00  0.00000000000E+00 -0.11497129015E+04  0.11497129015E+04  0.25500000920E-02 0.  1.
    10030    2    1    2    0    0  0.00000000000E+00  0.00000000000E+00  0.43016487151E+03  0.27295906746E+04  0.26954820412E+04 0.  0.
        3    1    3    3  502    0  0.36935643264E+03  0.11677686980E+04  0.78460281107E+03  0.14545478637E+04  0.10100000352E+00 0.  1.
       -3    1    3    3    0  502 -0.36935643264E+03 -0.11677686980E+04 -0.35443793956E+03  0.12750428109E+04  0.10100000352E+00 0. -1.
</event>
<event>
 5   0  0.7729970E-06  0.2671818E+04  0.7818609E-02  0.8344207E-01
        2   -1    0    0  501    0  0.00000000000E+00  0.00000000000E+00  0.21972290383E+04  0.21972290383E+04  0.25500000920E-02 0.  1.
       -2   -1    0    0    0  501  0.00000000000E+00  0.00000000000E+00 -0.81222899879E+03  0.81222899880E+03  0.25500000920E-02 0. -1.
    10030    2    1    2    0    0  0.00000000000E+00  0.00000000000E+00  0.13850000395E+04  0.30094580371E+04  0.26718182138E+04 0.  0.
        4    1    3    3  502    0  0.10246721700E+04 -0.70899999102E+03  0.14994755076E+03  0.12550378178E+04  0.12699999809E+01 0. -1.
       -4    1    3    3    0  502 -0.10246721700E+04  0.70899999102E+03  0.12350524888E+04  0.17544202193E+04  0.12699999809E+01 0.  1.
</event>
<event>
 5   0  0.8407622E-06  0.2716366E+04  0.7818609E-02  0.8329714E-01
        2   -1    0    0  501    0  0.00000000000E+00  0.00000000000E+00  0.17015313678E+04  0.17015313678E+04  0.25500000920E-02 0. -1.
       -2   -1    0    0    0  501  0.00000000000E+00  0.00000000000E+00 -0.10841180409E+04  0.10841180409E+04  0.25500000920E-02 0.  1.
    10030    2    1    2    0    0  0.00000000000E+00  0.00000000000E+00  0.61741332692E+03  0.27856494086E+04  0.27163658464E+04 0.  0.
        1    1    3    3  502    0 -0.79230168659E+03 -0.77900066299E+03 -0.49228956452E+03  0.12152913276E+04  0.50400001928E-02 0.  1.
       -1    1    3    3    0  502  0.79230168659E+03  0.77900066299E+03  0.11097028914E+04  0.15703580811E+04  0.50400001928E-02 0. -1.
</event>
<event>
 5   0  0.3199840E-06  0.2699817E+04  0.7818609E-02  0.8335064E-01
       -1   -1    0    0    0  501  0.00000000000E+00  0.00000000000E+00  0.14227425166E+04  0.14227425166E+04  0.50400001928E-02 0. -1.
        1   -1    0    0  501    0  0.00000000000E+00  0.00000000000E+00 -0.12808029451E+04  0.12808029451E+04  0.50400001928E-02 0.  1.
    10030    2    1    2    0    0  0.00000000000E+00  0.00000000000E+00  0.14193957147E+03  0.27035454617E+04  0.26998168867E+04 0.  0.
        1    1    3    3  502    0  0.30434738418E+03  0.11217064339E+04  0.75850385919E+03  0.13878691432E+04  0.50400001928E-02 0. -1.
       -1    1    3    3    0  502 -0.30434738418E+03 -0.11217064339E+04 -0.61656428772E+03  0.13156763185E+04  0.50400001928E-02 0.  1.
</event>
<event>
 5   0  0.3028601E-06  0.2721257E+04  0.7818609E-02  0.8328141E-01
        1   -1    0    0  501    0  0.00000000000E+00  0.00000000000E+00  0.14497949199E+04  0.14497949199E+04  0.50400001928E-02 0.  1.
       -1   -1    0    0    0  501  0.00000000000E+00  0.00000000000E+00 -0.12769457262E+04  0.12769457262E+04  0.50400001928E-02 0. -1.
    10030    2    1    2    0    0  0.00000000000E+00  0.00000000000E+00  0.17284919370E+03  0.27267406461E+04  0.27212566412E+04 0.  0.
        3    1    3    3  502    0  0.35449909512E+03  0.86340970718E+03 -0.90560262549E+03  0.13004853157E+04  0.10100000352E+00 0. -1.
       -3    1    3    3    0  502 -0.35449909512E+03 -0.86340970718E+03  0.10784518192E+04  0.14262553304E+04  0.10100000352E+00 0.  1.
</event>
<event>
 5   0  0.3199840E-06  0.2708872E+04  0.7818609E-02  0.8332132E-01
       -1   -1    0    0    0  501  0.00000000000E+00  0.00000000000E+00  0.80471471305E+03  0.80471471307E+03  0.50400001928E-02 0. -1.
        1   -1    0    0  501    0  0.00000000000E+00  0.00000000000E+00 -0.22796864910E+04  0.22796864910E+04  0.50400001928E-02 0.  1.
    10030    2    1    2    0    0  0.00000000000E+00  0.00000000000E+00 -0.14749717780E+04  0.30844012041E+04  0.27088722823E+04 0.  0.
        1    1    3    3  502    0 -0.85110755054E+02 -0.78659245795E+03  0.51424302500E+03  0.94361932172E+03  0.50400001928E-02 0. -1.
       -1    1    3    3    0  502  0.85110755054E+02  0.78659245795E+03 -0.19892148030E+04  0.21407818824E+04  0.50400001928E-02 0.  1.
</event>
<event>
 5   0  0.7729970E-06  0.2698451E+04  0.7818609E-02  0.8335508E-01
       -2   -1    0    0    0  501  0.00000000000E+00  0.00000000000E+00  0.15439838738E+04  0.15439838738E+04  0.25500000920E-02 0. -1.
        2   -1    0    0  501    0  0.00000000000E+00  0.00000000000E+00 -0.11790337545E+04  0.11790337545E+04  0.25500000920E-02 0.  1.
    10030    2    1    2    0    0  0.00000000000E+00  0.00000000000E+00  0.36495011935E+03  0.27230176283E+04  0.26984507433E+04 0.  0.
        4    1    3    3  502    0 -0.10801246257E+04 -0.92013343875E+02  0.99307638642E+03  0.14701489668E+04  0.12699999809E+01 0. -1.
       -4    1    3    3    0  502  0.10801246257E+04  0.92013343875E+02 -0.62812626708E+03  0.12528686614E+04  0.12699999809E+01 0.  1.
</event>
<event>
 5   0  0.7838364E-06  0.2789252E+04  0.7818609E-02  0.8306613E-01
       -2   -1    0    0    0  501  0.00000000000E+00  0.00000000000E+00  0.10953872868E+04  0.10953872868E+04  0.25500000920E-02 0. -1.
        2   -1    0    0  501    0  0.00000000000E+00  0.00000000000E+00 -0.17756104570E+04  0.17756104570E+04  0.25500000920E-02 0.  1.
    10030    2    1    2    0    0  0.00000000000E+00  0.00000000000E+00 -0.68022317016E+03  0.28709977438E+04  0.27892515992E+04 0.  0.
        2    1    3    3  502    0  0.12114621460E+04 -0.55887539194E+03 -0.75821687901E+03  0.15345602206E+04  0.25500000920E-02 0.  1.
       -2    1    3    3    0  502 -0.12114621460E+04  0.55887539194E+03  0.77993708850E+02  0.13364375232E+04  0.25500000920E-02 0. -1.
</event>
<event>
 5   0  0.7838364E-06  0.2700348E+04  0.7818609E-02  0.8334892E-01
       -2   -1    0    0    0  501  0.00000000000E+00  0.00000000000E+00  0.11784312977E+04  0.11784312977E+04  0.25500000920E-02 0.  1.
        2   -1    0    0  501    0  0.00000000000E+00  0.00000000000E+00 -0.15469457800E+04  0.15469457800E+04  0.25500000920E-02 0. -1.
    10030    2    1    2    0    0  0.00000000000E+00  0.00000000000E+00 -0.36851448228E+03  0.27253770777E+04  0.27003476242E+04 0.  0.
        2    1    3    3  502    0 -0.50619550424E+03  0.61070478693E+03  0.91847019640E+03  0.12135821880E+04  0.25500000920E-02 0.  1.
       -2    1    3    3    0  502  0.50619550424E+03 -0.61070478693E+03 -0.12869846787E+04  0.15117948897E+04  0.25500000920E-02 0. -1.
</event>
<event>
 5   0  0.8407622E-06  0.2719064E+04  0.7818609E-02  0.8328846E-01
        2   -1    0    0  501    0  0.00000000000E+00  0.00000000000E+00  0.11214275925E+04  0.11214275926E+04  0.25500000920E-02 0.  1.
       -2   -1    0    0    0  501  0.00000000000E+00  0.00000000000E+00 -0.16481917899E+04  0.16481917899E+04  0.25500000920E-02 0. -1.
    10030    2    1    2    0    0  0.00000000000E+00  0.00000000000E+00 -0.52676419738E+03  0.27696193825E+04  0.27190643619E+04 0.  0.
        1    1    3    3  502    0 -0.16457794539E+03  0.11135908156E+04  0.51312864353E+03  0.12371222290E+04  0.50400001928E-02 0.  1.
       -1    1    3    3    0  502  0.16457794539E+03 -0.11135908156E+04 -0.10398928409E+04  0.15324971534E+04  0.50400001928E-02 0. -1.
</event>
<event>
 5   0  0.7812908E-06  0.2725245E+04  0.7818609E-02  0.8326860E-01
       -2   -1    0    0    0  501  0.00000000000E+00  0.00000000000E+00  0.13426587405E+04  0.13426587406E+04  0.25500000920E-02 0.  1.
        2   -1    0    0  501    0  0.00000000000E+00  0.00000000000E+00 -0.13828829138E+04  0.13828829138E+04  0.25500000920E-02 0. -1.
    10030    2    1    2    0    0  0.00000000000E+00  0.00000000000E+00 -0.40224173292E+02  0.27255416544E+04  0.27252448194E+04 0.  0.
        5    1    3    3  502    0 -0.11879146545E+04  0.64277584288E+03  0.15995121548E+03  0.13601134114E+04  0.46999998093E+01 0. -1.
       -5    1    3    3    0  502  0.11879146545E+04 -0.64277584288E+03 -0.20017538877E+03  0.13654282430E+04  0.46999998093E+01 0.  1.
</event>
<event>
 5   0  0.3046300E-06  0.2799712E+04  0.7818609E-02  0.8303358E-01
        1   -1    0    0  501    0  0.00000000000E+00  0.00000000000E+00  0.15643752070E+04  0.15643752070E+04  0.50400001928E-02 0.  1.
       -1   -1    0    0    0  501  0.00000000000E+00  0.00000000000E+00 -0.12526383697E+04  0.12526383697E+04  0.50400001928E-02 0. -1.
    10030    2    1    2    0    0  0.00000000000E+00  0.00000000000E+00  0.31173683730E+03  0.28170135767E+04  0.27997117058E+04 0.  0.
        2    1    3    3  502    0  0.10630824787E+04  0.39161982509E+03  0.98319425524E+03  0.15000604613E+04  0.25500000920E-02 0.  1.
       -2    1    3    3    0  502 -0.10630824787E+04 -0.39161982509E+03 -0.67145741794E+03  0.13169531154E+04  0.25500000920E-02 0. -1.
</event>
<event>
 5   0  0.3028601E-06  0.2698222E+04  0.7818609E-02  0.8335582E-01
       -1   -1    0    0    0  501  0.00000000000E+00  0.00000000000E+00  0.13884425208E+04  0.13884425208E+04  0.50400001928E-02 0. -1.
        1   -1    0    0  501    0  0.00000000000E+00  0.00000000000E+00 -0.13108940552E+04  0.13108940552E+04  0.50400001928E-02 0.  1.
    10030    2    1    2    0    0  0.00000000000E+00  0.00000000000E+00  0.77548465548E+02  0.26993365760E+04  0.26982224123E+04 0.  0.
        3    1    3    3  502    0  0.32726410707E+03 -0.10334740361E+04  0.84218159111E+03  0.13727491474E+04  0.10100000352E+00 0. -1.
       -3    1    3    3    0  502 -0.32726410707E+03  0.10334740361E+04 -0.76463312556E+03  0.13265874287E+04  0.10100000352E+00 0.  1.
</event>
<event>
 5   0  0.3199840E-06  0.2711859E+04  0.7818609E-02  0.8331167E-01
       -1   -1    0    0    0  501  0.00000000000E+00  0.00000000000E+00  0.94716632712E+03  0.94716632713E+03  0.50400001928E-02 0. -1.
        1   -1    0    0  501    0  0.00000000000E+00  0.00000000000E+00 -0.19411007667E+04  0.19411007667E+04  0.50400001928E-02 0.  1.
    10030    2    1    2    0    0  0.00000000000E+00  0.00000000000E+00 -0.99393443961E+03  0.28882670939E+04  0.27118593502E+04 0.  0.
        1    1    3    3  502    0  0.57364783683E+03  0.92869285678E+03 -0.13536565251E+04  0.17389445796E+04  0.50400001928E-02 0.  1.
       -1    1    3    3    0  502 -0.57364783683E+03 -0.92869285678E+03  0.35972208551E+03  0.11493225143E+04  0.50400001928E-02 0. -1.
</event>
<event>
 5   0  0.3046300E-06  0.2685348E+04  0.7818609E-02  0.8339775E-01
       -1   -1    0    0    0  501  0.00000000000E+00  0.00000000000E+00  0.91389153252E+03  0.91389153253E+03  0.50400001928E-02 0. -1.
        1   -1    0    0  501    0  0.00000000000E+00  0.00000000000E+00 -0.19726344162E+04  0.19726344163E+04  0.50400001928E-02 0.  1.
    10030    2    1    2    0    0  0.00000000000E+00  0.00000000000E+00 -0.10587428837E+04  0.28865259488E+04  0.26853483124E+04 0.  0.
        2    1    3    3  502    0  0.72344783965E+03  0.80916052530E+03  0.32019123136E+03  0.11316536383E+04  0.25500000920E-02 0. -1.
       -2    1    3    3    0  502 -0.72344783965E+03 -0.80916052530E+03 -0.13789341151E+04  0.17548723105E+04  0.25500000920E-02 0.  1.
</event>
<event>
 5   0  0.8213334E-06  0.2683291E+04  0.7818609E-02  0.8340447E-01
       -2   -1    0    0    0  501  0.00000000000E+00  0.00000000000E+00  0.13613086805E+04  0.13613086805E+04  0.25500000920E-02 0.  1.
        2   -1    0    0  501    0  0.00000000000E+00  0.00000000000E+00 -0.13222662268E+04  0.13222662268E+04  0.25500000920E-02 0. -1.
    10030    2    1    2    0    0  0.00000000000E+00  0.00000000000E+00  0.39042453691E+02  0.26835749072E+04  0.26832908843E+04 0.  0.
        3    1    3    3  502    0  0.54778786618E+03 -0.11724298065E+04 -0.33456325762E+03  0.13366359943E+04  0.10100000352E+00 0. -1.
       -3    1    3    3    0  502 -0.54778786618E+03  0.11724298065E+04  0.37360571131E+03  0.13469389130E+04  0.10100000352E+00 0.  1.
</event>
<event>
 5   0  0.3046300E-06  0.2706599E+04  0.7818609E-02  0.8332867E-01
        1   -1    0    0  501    0  0.00000000000E+00  0.00000000000E+00  0.12805165412E+04  0.12805165412E+04  0.50400001928E-02 0.  1.
       -1   -1    0    0    0  501  0.00000000000E+00  0.00000000000E+00 -0.14302193808E+04  0.14302193808E+04  0.50400001928E-02 0. -1.
    10030    2    1    2    0    0  0.00000000000E+00  0.00000000000E+00 -0.14970283959E+03  0.27107359220E+04  0.27065990281E+04 0.  0.
        2    1    3    3  502    0  0.49674950410E+03 -0.10128120994E+04 -0.82357090794E+03  0.13967166710E+04  0.25500000920E-02 0. -1.
       -2    1    3    3    0  502 -0.49674950410E+03  0.10128120994E+04  0.67386806835E+03  0.13140192511E+04  0.25500000920E-02 0.  1.
</event>
<event>
 5   0  0.7812908E-06  0.2718280E+04  0.7818609E-02  0.8329098E-01
        2   -1    0    0  501    0  0.00000000000E+00  0.00000000000E+00  0.20185480869E+04  0.20185480869E+04  0.25500000920E-02 0. -1.
       -2   -1    0    0    0  501  0.00000000000E+00  0.00000000000E+00 -0.91514376580E+03  0.91514376581E+03  0.25500000920E-02 0.  1.
    10030    2    1    2    0    0  0.00000000000E+00  0.00000000000E+00  0.11034043211E+04  0.29336918528E+04  0.27182801164E+04 0.  0.
        5    1    3    3  502    0 -0.11261784875E+03 -0.26418188738E+03  0.19854200282E+04  0.20060881406E+04  0.46999998093E+01 0. -1.
       -5    1    3    3    0  502  0.11261784875E+03  0.26418188738E+03 -0.88201570701E+03  0.92760371220E+03  0.46999998093E+01 0.  1.
</event>
<event>
 5   0  0.7729970E-06  0.2683717E+04  0.7818609E-02  0.8340307E-01
       -2   -1    0    0    0  501  0.00000000000E+00  0.00000000000E+00  0.17399882695E+04  0.17399882695E+04  0.25500000920E-02 0. -1.
        2   -1    0    0  501    0  0.00000000000E+00  0.00000000000E+00 -0.10348258572E+04  0.10348258572E+04  0.25500000920E-02 0.  1.
    10030    2    1    2    0    0  0.00000000000E+00  0.00000000000E+00  0.70516241231E+03  0.27748141266E+04  0.26837174608E+04 0.  0.
        4    1    3    3  502    0 -0.44452557822E+03  0.11432261255E+04  0.91512123755E+03  0.15303651381E+04  0.12699999809E+01 0. -1.
       -4    1    3    3    0  502  0.44452557822E+03 -0.11432261255E+04 -0.20995882524E+03  0.12444489885E+04  0.12699999809E+01 0.  1.
</event>
<event>
 5   0  0.3089218E-06  0.2679701E+04  0.7818609E-02  0.8341622E-01
        1   -1    0    0  501    0  0.00000000000E+00  0.00000000000E+00  0.10020928345E+04  0.10020928345E+04  0.50400001928E-02 0. -1.
       -1   -1    0    0    0  501  0.00000000000E+00  0.00000000000E+00 -0.17914499639E+04  0.17914499639E+04  0.50400001928E-02 0.  1.
    10030    2    1    2    0    0  0.00000000000E+00  0.00000000000E+00 -0.78935712945E+03  0.27935427984E+04  0.26797008580E+04 0.  0.
        5    1    3    3  502    0  0.36115076832E+03 -0.12902069353E+04 -0.40577348473E+03  0.13999064341E+04  0.46999998093E+01 0. -1.
       -5    1    3    3    0  502 -0.36115076832E+03  0.12902069353E+04 -0.38358364472E+03  0.13936363643E+04  0.46999998093E+01 0.  1.
</event>
<event>
 5   0  0.3028601E-06  0.2690981E+04  0.7818609E-02  0.8337937E-01
       -1   -1    0    0    0  501  0.00000000000E+00  0.00000000000E+00  0.14970730488E+04  0.14970730488E+04  0.50400001928E-02 0.  1.
        1   -1    0    0  501    0  0.00000000000E+00  0.00000000000E+00 -0.12092562199E+04  0.12092562199E+04  0.50400001928E-02 0. -1.
    10030    2    1    2    0    0  0.00000000000E+00  0.00000000000E+00  0.28781682895E+03  0.27063292687E+04  0.26909811563E+04 0.  0.
        3    1    3    3  502    0  0.12122978180E+04 -0.54856629882E+03  0.34442941309E+03  0.13744899470E+04  0.10100000352E+00 0.  1.
       -3    1    3    3    0  502 -0.12122978180E+04  0.54856629882E+03 -0.56612584145E+02  0.13318393216E+04  0.10100000352E+00 0. -1.
</event>
<event>
 5   0  0.3199840E-06  0.2692422E+04  0.7818609E-02  0.8337468E-01
        1   -1    0    0  501    0  0.00000000000E+00  0.00000000000E+00  0.22102743715E+04  0.22102743715E+04  0.50400001928E-02 0. -1.
       -1   -1    0    0    0  501  0.00000000000E+00  0.00000000000E+00 -0.81993607433E+03  0.81993607434E+03  0.50400001928E-02 0.  1.
    10030    2    1    2    0    0  0.00000000000E+00  0.00000000000E+00  0.13903382972E+04  0.30302104458E+04  0.26924217288E+04 0.  0.
        1    1    3    3  502    0  0.85228618908E+03 -0.42207355579E+02  0.18670041777E+04  0.20527731994E+04  0.50400001928E-02 0. -1.
       -1    1    3    3    0  502 -0.85228618908E+03  0.42207355579E+02 -0.47666588050E+03  0.97743724638E+03  0.50400001928E-02 0.  1.
</event>
<event>
 5   0  0.3089218E-06  0.2675033E+04  0.7818609E-02  0.8343152E-01
        1   -1    0    0  501    0  0.00000000000E+00  0.00000000000E+00  0.16242548301E+04  0.16242548301E+04  0.50400001928E-02 0.  1.
       -1   -1    0    0    0  501  0.00000000000E+00  0.00000000000E+00 -0.11013976570E+04  0.11013976570E+04  0.50400001928E-02 0. -1.
    10030    2    1    2    0    0  0.00000000000E+00  0.00000000000E+00  0.52285717308E+03  0.27256524871E+04  0.26750330572E+04 0.  0.
        5    1    3    3  502    0  0.82786748830E+03  0.10143943567E+04  0.53966709955E+03  0.14162002533E+04  0.46999998093E+01 0. -1.
       -5    1    3    3    0  502 -0.82786748830E+03 -0.10143943567E+04 -0.16809926476E+02  0.13094522338E+04  0.46999998093E+01 0.  1.
</event>
<event>
 5   0  0.7838364E-06  0.2501841E+04  0.7818609E-02  0.8402330E-01
       -2   -1    0    0    0  501  0.00000000000E+00  0.00000000000E+00  0.99284281509E+03  0.99284281510E+03  0.25500000920E-02 0.  1.
        2   -1    0    0  501    0  0.00000000000E+00  0.00000000000E+00 -0.15760824624E+04  0.15760824624E+04  0.25500000920E-02 0. -1.
    10030    2    1    2    0    0  0.00000000000E+00  0.00000000000E+00 -0.58323964730E+03  0.25689252775E+04  0.25018410411E+04 0.  0.
        2    1    3    3  502    0  0.11256453895E+04  0.23957955213E+02 -0.85135175312E+03  0.14115421829E+04  0.25500000920E-02 0. -1.
       -2    1    3    3    0  502 -0.11256453895E+04 -0.23957955213E+02  0.26811210582E+03  0.11573830946E+04  0.25500000920E-02 0.  1.
</event>
<event>
 5   0  0.3046300E-06  0.2777895E+04  0.7818609E-02  0.8310164E-01
        1   -1    0    0  501    0  0.00000000000E+00  0.00000000000E+00  0.10506838920E+04  0.10506838920E+04  0.50400001928E-02 0.  1.
       -1   -1    0    0    0  501  0.00000000000E+00  0.00000000000E+00 -0.18361136366E+04  0.18361136366E+04  0.50400001928E-02 0. -1.
    10030    2    1    2    0    0  0.00000000000E+00  0.00000000000E+00 -0.78542974455E+03  0.28867975286E+04  0.27778949022E+04 0.  0.
        2    1    3    3  502    0 -0.10879943776E+04 -0.12193996864E+03  0.49552975765E+03  0.12017282814E+04  0.25500000920E-02 0.  1.
       -2    1    3    3    0  502  0.10879943776E+04  0.12193996864E+03 -0.12809595022E+04  0.16850692472E+04  0.25500000920E-02 0. -1.
</event>
<event>
 5   0  0.7812908E-06  0.2703417E+04  0.7818609E-02  0.8333897E-01
        2   -1    0    0  501    0  0.00000000000E+00  0.00000000000E+00  0.12833584177E+04  0.12833584177E+04  0.25500000920E-02 0. -1.
       -2   -1    0    0    0  501  0.00000000000E+00  0.00000000000E+00 -0.14236991191E+04  0.14236991191E+04  0.25500000920E-02 0.  1.
    10030    2    1    2    0    0  0.00000000000E+00  0.00000000000E+00 -0.14034070140E+03  0.27070575368E+04  0.27034172810E+04 0.  0.
        5    1    3    3  502    0 -0.53998565815E+03  0.12382840984E+04 -0.11673177289E+03  0.13559426301E+04  0.46999998093E+01 0.  1.
       -5    1    3    3    0  502  0.53998565815E+03 -0.12382840984E+04 -0.23608928507E+02  0.13511149066E+04  0.46999998093E+01 0. -1.
</event>
<event>
 5   0  0.3199840E-06  0.2409105E+04  0.7818609E-02  0.8436103E-01
        1   -1    0    0  501    0  0.00000000000E+00  0.00000000000E+00  0.19321908896E+04  0.19321908896E+04  0.50400001928E-02 0.  1.
       -1   -1    0    0    0  501  0.00000000000E+00  0.00000000000E+00 -0.75093319509E+03  0.75093319510E+03  0.50400001928E-02 0. -1.
    10030    2    1    2    0    0  0.00000000000E+00  0.00000000000E+00  0.11812576945E+04  0.26831240847E+04  0.24091046289E+04 0.  0.
        1    1    3    3  502    0 -0.55074319026E+03  0.79371867843E+03  0.13919351125E+04  0.16943408038E+04  0.50400001928E-02 0.  1.
       -1    1    3    3    0  502  0.55074319026E+03 -0.79371867843E+03 -0.21067741797E+03  0.98878328089E+03  0.50400001928E-02 0. -1.
</event>
<event>
 5   0  0.8213334E-06  0.2672826E+04  0.7818609E-02  0.8343876E-01
        2   -1    0    0  501    0  0.00000000000E+00  0.00000000000E+00  0.13270868354E+04  0.13270868354E+04  0.25500000920E-02 0.  1.
       -2   -1    0    0    0  501  0.00000000000E+00  0.00000000000E+00 -0.13458047367E+04  0.13458047367E+04  0.25500000920E-02 0. -1.
    10030    2    1    2    0    0  0.00000000000E+00  0.00000000000E+00 -0.18717901280E+02  0.26728915721E+04  0.26728260319E+04 0.  0.
        3    1    3    3  502    0 -0.10277972578E+04 -0.22797267996E+03 -0.83258080850E+03  0.13422106984E+04  0.10100000352E+00 0. -1.
       -3    1    3    3    0  502  0.10277972578E+04  0.22797267996E+03  0.81386290722E+03  0.13306808738E+04  0.10100000352E+00 0.  1.
</event>
<event>
 5   0  0.7812908E-06  0.2712135E+04  0.7818609E-02  0.8331078E-01
        2   -1    0    0  501    0  0.00000000000E+00  0.00000000000E+00  0.13867287678E+04  0.13867287678E+04  0.25500000920E-02 0. -1.
       -2   -1    0    0    0  501  0.00000000000E+00  0.00000000000E+00 -0.13260844515E+04  0.13260844515E+04  0.25500000920E-02 0.  1.
    10030    2    1    2    0    0  0.00000000000E+00  0.00000000000E+00  0.60644316310E+02  0.27128132194E+04  0.27121352898E+04 0.  0.
        5    1    3    3  502    0 -0.33023184484E+03  0.10033926959E+04  0.88085664146E+03  0.13754201127E+04  0.46999998093E+01 0. -1.
       -5    1    3    3    0  502  0.33023184484E+03 -0.10033926959E+04 -0.82021232515E+03  0.13373931067E+04  0.46999998093E+01 0.  1.
</event>
<event>
 5   0  0.7812908E-06  0.2714869E+04  0.7818609E-02  0.8330197E-01
       -2   -1    0    0    0  501  0.00000000000E+00  0.00000000000E+00  0.86102636362E+03  0.86102636363E+03  0.25500000920E-02 0. -1.
        2   -1    0    0  501    0  0.00000000000E+00  0.00000000000E+00 -0.21400365847E+04  0.21400365847E+04  0.25500000920E-02 0.  1.
    10030    2    1    2    0    0  0.00000000000E+00  0.00000000000E+00 -0.12790102211E+04  0.30010629484E+04  0.27148686293E+04 0.  0.
        5    1    3    3  502    0  0.25126278136E+03  0.13217861665E+04 -0.44067074914E+03  0.14157911055E+04  0.46999998093E+01 0. -1.
       -5    1    3    3    0  502 -0.25126278136E+03 -0.13217861665E+04 -0.83833947197E+03  0.15852718428E+04  0.46999998093E+01 0.  1.
</event>
<event>
 5   0  0.8213334E-06  0.2709786E+04  0.7818609E-02  0.8331837E-01
       -2   -1    0    0    0  501  0.00000000000E+00  0.00000000000E+00  0.15165433938E+04  0.15165433938E+04  0.25500000920E-02 0.  1.
        2   -1    0    0  501    0  0.00000000000E+00  0.00000000000E+00 -0.12104735573E+04  0.12104735573E+04  0.25500000920E-02 0. -1.
    10030    2    1    2    0    0  0.00000000000E+00  0.00000000000E+00  0.30606983643E+03  0.27270169511E+04  0.27097864689E+04 0.  0.
        3    1    3    3  502    0  0.10067912479E+04 -0.12956654304E+03  0.10561371003E+04  0.14648691719E+04  0.10100000352E+00 0.  1.
       -3    1    3    3    0  502 -0.10067912479E+04  0.12956654304E+03 -0.75006726392E+03  0.12621477792E+04  0.10100000352E+00 0. -1.
</event>
<event>
 5   0  0.3199840E-06  0.2714943E+04  0.7818609E-02  0.8330173E-01
        1   -1    0    0  501    0  0.00000000000E+00  0.00000000000E+00  0.14779011431E+04  0.14779011431E+04  0.50400001928E-02 0. -1.
       -1   -1    0    0    0  501  0.00000000000E+00  0.00000000000E+00 -0.12468557128E+04  0.12468557128E+04  0.50400001928E-02 0.  1.
    10030    2    1    2    0    0  0.00000000000E+00  0.00000000000E+00  0.23104543031E+03  0.27247568560E+04  0.27149434494E+04 0.  0.
        1    1    3    3  502    0  0.27159200280E+03  0.17023019415E+03 -0.12083316477E+04  0.12501223563E+04  0.50400001928E-02 0.  1.
       -1    1    3    3    0  502 -0.27159200280E+03 -0.17023019415E+03  0.14393770780E+04  0.14746344997E+04  0.50400001928E-02 0. -1.
</event>
<event>
 5   0  0.3013407E-06  0.2674080E+04  0.7818609E-02  0.8343464E-01
        1   -1    0    0  501    0  0.00000000000E+00  0.00000000000E+00  0.14333106162E+04  0.14333106162E+04  0.50400001928E-02 0. -1.
       -1   -1    0    0    0  501  0.00000000000E+00  0.00000000000E+00 -0.12472358576E+04  0.12472358576E+04  0.50400001928E-02 0.  1.
    10030    2    1    2    0    0  0.00000000000E+00  0.00000000000E+00  0.18607475856E+03  0.26805464738E+04  0.26740803247E+04 0.  0.
        4    1    3    3  502    0 -0.57332130367E+03  0.11982596575E+04 -0.59485921737E+02  0.13296855688E+04  0.12699999809E+01 0. -1.
       -4    1    3    3    0  502  0.57332130367E+03 -0.11982596575E+04  0.24556068029E+03  0.13508609050E+04  0.12699999809E+01 0.  1.
</event>
<event>
 5   0  0.3089218E-06  0.2691603E+04  0.7818609E-02  0.8337735E-01
       -1   -1    0    0    0  501  0.00000000000E+00  0.00000000000E+00  0.12300831145E+04  0.12300831145E+04  0.50400001928E-02 0. -1.
        1   -1    0    0  501    0  0.00000000000E+00  0.00000000000E+00 -0.14724060242E+04  0.14724060242E+04  0.50400001928E-02 0.  1.
    10030    2    1    2    0    0  0.00000000000E+00  0.00000000000E+00 -0.24232290975E+03  0.27024891387E+04  0.26916030822E+04 0.  0.
        5    1    3    3  502    0  0.10845495535E+04 -0.79037935856E+03 -0.22262675950E+03  0.13603426144E+04  0.46999998093E+01 0.  1.
       -5    1    3    3    0  502 -0.10845495535E+04  0.79037935856E+03 -0.19696150256E+02  0.13421465243E+04  0.46999998093E+01 0. -1.
</event>
<event>
 5   0  0.7838364E-06  0.2694067E+04  0.7818609E-02  0.8336933E-01
        2   -1    0    0  501    0  0.00000000000E+00  0.00000000000E+00  0.20037946458E+04  0.20037946458E+04  0.25500000920E-02 0. -1.
       -2   -1    0    0    0  501  0.00000000000E+00  0.00000000000E+00 -0.90553165333E+03  0.90553165333E+03  0.25500000920E-02 0.  1.
    10030    2    1    2    0    0  0.00000000000E+00  0.00000000000E+00  0.10982629925E+04  0.29093262991E+04  0.26940671696E+04 0.  0.
        2    1    3    3  502    0 -0.94404576717E+02  0.13242590641E+04  0.30305335268E+03  0.13617693004E+04  0.25500000920E-02 0.  1.
       -2    1    3    3    0  502  0.94404576717E+02 -0.13242590641E+04  0.79520963980E+03  0.15475569987E+04  0.25500000920E-02 0. -1.
</event>
<event>
 5   0  0.3028601E-06  0.2705563E+04  0.7818609E-02  0.8333202E-01
        1   -1    0    0  501    0  0.00000000000E+00  0.00000000000E+00  0.78749758713E+03  0.78749758715E+03  0.50400001928E-02 0. -1.
       -1   -1    0    0    0  501  0.00000000000E+00  0.00000000000E+00 -0.23238387910E+04  0.23238387910E+04  0.50400001928E-02 0.  1.
    10030    2    1    2    0    0  0.00000000000E+00  0.00000000000E+00 -0.15363412039E+04  0.31113363782E+04  0.27055627443E+04 0.  0.
        3    1    3    3  502    0 -0.10522636946E+04  0.57129245412E+03 -0.44156325921E+02  0.11981584797E+04  0.10100000352E+00 0. -1.
       -3    1    3    3    0  502  0.10522636946E+04 -0.57129245412E+03 -0.14921848780E+04  0.19131778985E+04  0.10100000352E+00 0.  1.
</event>
<event>
 5   0  0.3013407E-06  0.2702259E+04  0.7818609E-02  0.8334272E-01
        1   -1    0    0  501    0  0.00000000000E+00  0.00000000000E+00  0.13717984084E+04  0.13717984085E+04  0.50400001928E-02 0. -1.
       -1   -1    0    0    0  501  0.00000000000E+00  0.00000000000E+00 -0.13307722972E+04  0.13307722972E+04  0.50400001928E-02 0.  1.
    10030    2    1    2    0    0  0.00000000000E+00  0.00000000000E+00  0.41026111247E+02  0.27025707057E+04  0.27022592913E+04 0.  0.
        4    1    3    3  502    0  0.10632953289E+03 -0.33110253520E+03 -0.12852464008E+04  0.13314633986E+04  0.12699999809E+01 0.  1.
       -4    1    3    3    0  502 -0.10632953289E+03  0.33110253520E+03  0.13262725120E+04  0.13711073070E+04  0.12699999809E+01 0. -1.
</event>
<event>
 5   0  0.7729970E-06  0.2709053E+04  0.7818609E-02  0.8332073E-01
       -2   -1    0    0    0  501  0.00000000000E+00  0.00000000000E+00  0.11043610122E+04  0.11043610122E+04  0.25500000920E-02 0. -1.
        2   -1    0    0  501    0  0.00000000000E+00  0.00000000000E+00 -0.16613612908E+04  0.16613612908E+04  0.25500000920E-02 0.  1.
    10030    2    1    2    0    0  0.00000000000E+00  0.00000000000E+00 -0.55700027861E+03  0.27657223031E+04  0.27090534412E+04 0.  0.
        4    1    3    3  502    0  0.10152863218E+03  0.44399433611E+03 -0.15808422314E+04  0.16451452237E+04  0.12699999809E+01 0.  1.
       -4    1    3    3    0  502 -0.10152863218E+03 -0.44399433611E+03  0.10238419528E+04  0.11205770794E+04  0.12699999809E+01 0. -1.
</event>
<event>
 5   0  0.3013407E-06  0.2676875E+04  0.7818609E-02  0.8342547E-01
       -1   -1    0    0    0  501  0.00000000000E+00  0.00000000000E+00  0.11056097186E+04  0.11056097186E+04  0.50400001928E-02 0.  1.
        1   -1    0    0  501    0  0.00000000000E+00  0.00000000000E+00 -0.16202956746E+04  0.16202956746E+04  0.50400001928E-02 0. -1.
    10030    2    1    2    0    0  0.00000000000E+00  0.00000000000E+00 -0.51468595593E+03  0.27259053932E+04  0.26768747784E+04 0.  0.
        4    1    3    3  502    0  0.23597954138E+03 -0.49617851997E+03 -0.15001619378E+04  0.15976128818E+04  0.12699999809E+01 0. -1.
       -4    1    3    3    0  502 -0.23597954138E+03  0.49617851997E+03  0.98547598184E+03  0.11282925114E+04  0.12699999809E+01 0.  1.
</event>
<event>
 5   0  0.3013407E-06  0.2706854E+04  0.7818609E-02  0.8332785E-01
       -1   -1    0    0    0  501  0.00000000000E+00  0.00000000000E+00  0.98113613657E+03  0.98113613658E+03  0.50400001928E-02 0.  1.
        1   -1    0    0  501    0  0.00000000000E+00  0.00000000000E+00 -0.18669824899E+04  0.18669824899E+04  0.50400001928E-02 0. -1.
    10030    2    1    2    0    0  0.00000000000E+00  0.00000000000E+00 -0.88584635332E+03  0.28481186265E+04  0.27068535145E+04 0.  0.
        4    1    3    3  502    0  0.13215032164E+04  0.14842966755E+03 -0.70777427948E+03  0.15064355814E+04  0.12699999809E+01 0. -1.
       -4    1    3    3    0  502 -0.13215032164E+04 -0.14842966755E+03 -0.17807207384E+03  0.13416830451E+04  0.12699999809E+01 0.  1.
</event>
<event>
 5   0  0.3199840E-06  0.2612320E+04  0.7818609E-02  0.8364028E-01
       -1   -1    0    0    0  501  0.00000000000E+00  0.00000000000E+00  0.99933562424E+03  0.99933562425E+03  0.50400001928E-02 0.  1.
        1   -1    0    0  501    0  0.00000000000E+00  0.00000000000E+00 -0.17071880744E+04  0.17071880744E+04  0.50400001928E-02 0. -1.
    10030    2    1    2    0    0  0.00000000000E+00  0.00000000000E+00 -0.70785245017E+03  0.27065236987E+04  0.26123199345E+04 0.  0.
        1    1    3    3  502    0 -0.43223728818E+03  0.12198161666E+04 -0.17070643995E+03  0.13053433427E+04  0.50400001928E-02 0.  1.
       -1    1    3    3    0  502  0.43223728818E+03 -0.12198161666E+04 -0.53714601022E+03  0.14011803560E+04  0.50400001928E-02 0. -1.
</event>
<event>
 5   0  0.8407622E-06  0.2695061E+04  0.7818609E-02  0.8336609E-01
       -2   -1    0    0    0  501  0.00000000000E+00  0.00000000000E+00  0.11938942408E+04  0.11938942408E+04  0.25500000920E-02 0. -1.
        2   -1    0    0  501    0  0.00000000000E+00  0.00000000000E+00 -0.15209370107E+04  0.15209370107E+04  0.25500000920E-02 0.  1.
    10030    2    1    2    0    0  0.00000000000E+00  0.00000000000E+00 -0.32704276988E+03  0.27148312515E+04  0.26950606210E+04 0.  0.
        1    1    3    3  502    0 -0.56688715054E+03  0.46262138371E+03 -0.13033958635E+04  0.14947308665E+04  0.50400001928E-02 0.  1.
       -1    1    3    3    0  502  0.56688715054E+03 -0.46262138371E+03  0.97635309365E+03  0.12201003851E+04  0.50400001928E-02 0. -1.
</event>
<event>
 5   0  0.3028601E-06  0.2727394E+04  0.7818609E-02  0.8326171E-01
        1   -1    0    0  501    0  0.00000000000E+00  0.00000000000E+00  0.20862675519E+04  0.20862675519E+04  0.50400001928E-02 0. -1.
       -1   -1    0    0    0  501  0.00000000000E+00  0.00000000000E+00 -0.89138623244E+03  0.89138623245E+03  0.50400001928E-02 0.  1.
    10030    2    1    2    0    0  0.00000000000E+00  0.00000000000E+00  0.11948813195E+04  0.29776537844E+04  0.27273944878E+04 0.  0.
        3    1    3    3  502    0  0.13013248649E+04  0.40337463839E+03  0.66214662121E+03  0.15147922831E+04  0.10100000352E+00 0.  1.
       -3    1    3    3    0  502 -0.13013248649E+04 -0.40337463839E+03  0.53273469826E+03  0.14628615012E+04  0.10100000352E+00 0. -1.
</event>
<event>
 5   0  0.7838364E-06  0.2697246E+04  0.7818609E-02  0.8335899E-01
       -2   -1    0    0    0  501  0.00000000000E+00  0.00000000000E+00  0.10477224278E+04  0.10477224278E+04  0.25500000920E-02 0.  1.
        2   -1    0    0  501    0  0.00000000000E+00  0.00000000000E+00 -0.17359407818E+04  0.17359407818E+04  0.25500000920E-02 0. -1.
    10030    2    1    2    0    0  0.00000000000E+00  0.00000000000E+00 -0.68821835401E+03  0.27836632097E+04  0.26972460700E+04 0.  0.
        2    1    3    3  502    0 -0.10867629151E+03  0.92148040975E+03  0.66594410686E+03  0.11421113060E+04  0.25500000920E-02 0.  1.
       -2    1    3    3    0  502  0.10867629151E+03 -0.92148040975E+03 -0.13541624609E+04  0.16415519036E+04  0.25500000920E-02 0. -1.
</event>
<event>
 5   0  0.8213334E-06  0.2651071E+04  0.7818609E-02  0.8351057E-01
       -2   -1    0    0    0  501  0.00000000000E+00  0.00000000000E+00  0.19307417150E+04  0.19307417150E+04  0.25500000920E-02 0. -1.
        2   -1    0    0  501    0  0.00000000000E+00  0.00000000000E+00 -0.91003623215E+03  0.91003623215E+03  0.25500000920E-02 0.  1.
    10030    2    1    2    0    0  0.00000000000E+00  0.00000000000E+00  0.10207054828E+04  0.28407779471E+04  0.26510714178E+04 0.  0.
        3    1    3    3  502    0 -0.40583990816E+03 -0.59297889311E+03 -0.68322815863E+03  0.99152948805E+03  0.10100000352E+00 0.  1.
       -3    1    3    3    0  502  0.40583990816E+03  0.59297889311E+03  0.17039336415E+04  0.18492484591E+04  0.10100000352E+00 0. -1.
</event>
<event>
 5   0  0.3089218E-06  0.2696005E+04  0.7818609E-02  0.8336302E-01
       -1   -1    0    0    0  501  0.00000000000E+00  0.00000000000E+00  0.11031952644E+04  0.11031952644E+04  0.50400001928E-02 0. -1.
        1   -1    0    0  501    0  0.00000000000E+00  0.00000000000E+00 -0.16471344672E+04  0.16471344673E+04  0.50400001928E-02 0.  1.
    10030    2    1    2    0    0  0.00000000000E+00  0.00000000000E+00 -0.54393920289E+03  0.27503297316E+04  0.26960051514E+04 0.  0.
        5    1    3    3  502    0 -0.90928751326E+03  0.65941853606E+03  0.48833464764E+03  0.12247976998E+04  0.46999998093E+01 0. -1.
       -5    1    3    3    0  502  0.90928751326E+03 -0.65941853606E+03 -0.10322738505E+04  0.15255320318E+04  0.46999998093E+01 0.  1.
</event>
<event>
 5   0  0.7729970E-06  0.2717354E+04  0.7818609E-02  0.8329396E-01
       -2   -1    0    0    0  501  0.00000000000E+00  0.00000000000E+00  0.10072431832E+04  0.10072431832E+04  0.25500000920E-02 0. -1.
        2   -1    0    0  501    0  0.00000000000E+00  0.00000000000E+00 -0.18327288125E+04  0.18327288125E+04  0.25500000920E-02 0.  1.
    10030    2    1    2    0    0  0.00000000000E+00  0.00000000000E+00 -0.82548562928E+03  0.28399719956E+04  0.27173543037E+04 0.  0.
        4    1    3    3  502    0 -0.95470646819E+03 -0.31750957585E+03 -0.13670303670E+04  0.16973657262E+04  0.12699999809E+01 0.  1.
       -4    1    3    3    0  502  0.95470646819E+03  0.31750957585E+03  0.54154473773E+03  0.11426062695E+04  0.12699999809E+01 0. -1.
</event>
<event>
 5   0  0.7729970E-06  0.2689134E+04  0.7818609E-02  0.8338539E-01
       -2   -1    0    0    0  501  0.00000000000E+00  0.00000000000E+00  0.13905515847E+04  0.13905515847E+04  0.25500000920E-02 0.  1.
        2   -1    0    0  501    0  0.00000000000E+00  0.00000000000E+00 -0.13001032189E+04  0.13001032189E+04  0.25500000920E-02 0. -1.
    10030    2    1    2    0    0  0.00000000000E+00  0.00000000000E+00  0.90448365856E+02  0.26906548036E+04  0.26891341292E+04 0.  0.
        4    1    3    3  502    0  0.38742259925E+03 -0.15651842343E+03  0.13239393185E+04  0.13883123638E+04  0.12699999809E+01 0.  1.
       -4    1    3    3    0  502 -0.38742259925E+03  0.15651842343E+03 -0.12334909527E+04  0.13023424398E+04  0.12699999809E+01 0. -1.
</event>
<event>
 5   0  0.7838364E-06  0.2584910E+04  0.7818609E-02  0.8373345E-01
        2   -1    0    0  501    0  0.00000000000E+00  0.00000000000E+00  0.28482536353E+04  0.28482536353E+04  0.25500000920E-02 0. -1.
       -2   -1    0    0    0  501  0.00000000000E+00  0.00000000000E+00 -0.58647865084E+03  0.58647865085E+03  0.25500000920E-02 0.  1.
    10030    2    1    2    0    0  0.00000000000E+00  0.00000000000E+00  0.22617749844E+04  0.34347322861E+04  0.25849100172E+04 0.  0.
        2    1    3    3  502    0  0.10785953451E+04 -0.56272979791E+03  0.55107288506E+03  0.13355575872E+04  0.25500000920E-02 0.  1.
       -2    1    3    3    0  502 -0.10785953451E+04  0.56272979791E+03  0.17107020994E+04  0.20991746990E+04  0.25500000920E-02 0. -1.
</event>
<event>
 5   0  0.3089218E-06  0.2649575E+04  0.7818609E-02  0.8351554E-01
        1   -1    0    0  501    0  0.00000000000E+00  0.00000000000E+00  0.14532564955E+04  0.14532564956E+04  0.50400001928E-02 0. -1.
       -1   -1    0    0    0  501  0.00000000000E+00  0.00000000000E+00 -0.12076750894E+04  0.12076750894E+04  0.50400001928E-02 0.  1.
    10030    2    1    2    0    0  0.00000000000E+00  0.00000000000E+00  0.24558140615E+03  0.26609315850E+04  0.26495748098E+04 0.  0.
        5    1    3    3  502    0 -0.18406457761E+03 -0.50539938072E+03  0.13386538632E+04  0.14426796450E+04  0.46999998093E+01 0. -1.
       -5    1    3    3    0  502  0.18406457761E+03  0.50539938072E+03 -0.10930724571E+04  0.12182519399E+04  0.46999998093E+01 0.  1.
</event>
<event>
 5   0  0.8213334E-06  0.2690775E+04  0.7818609E-02  0.8338004E-01
       -2   -1    0    0    0  501  0.00000000000E+00  0.00000000000E+00  0.69456723832E+03  0.69456723833E+03  0.25500000920E-02 0. -1.
        2   -1    0    0  501    0  0.00000000000E+00  0.00000000000E+00 -0.26060368878E+04  0.26060368878E+04  0.25500000920E-02 0.  1.
    10030    2    1    2    0    0  0.00000000000E+00  0.00000000000E+00 -0.19114696494E+04  0.33006041261E+04  0.26907752371E+04 0.  0.
        3    1    3    3  502    0  0.80317435842E+02 -0.15509996779E+03 -0.25920706877E+04  0.25979486814E+04  0.10100000352E+00 0.  1.
       -3    1    3    3    0  502 -0.80317435842E+02  0.15509996779E+03  0.68060103829E+03  0.70265544475E+03  0.10100000352E+00 0. -1.
</event>
<event>
 5   0  0.2654625E-06  0.2738448E+04  0.7818609E-02  0.8322637E-01
        3   -1    0    0  501    0  0.00000000000E+00  0.00000000000E+00  0.16492257606E+04  0.16492257637E+04  0.10100000352E+00 0. -1.
       -3   -1    0    0    0  501  0.00000000000E+00  0.00000000000E+00 -0.11367601464E+04  0.11367601509E+04  0.10100000352E+00 0.  1.
    10030    2    1    2    0    0  0.00000000000E+00  0.00000000000E+00  0.51246561418E+03  0.27859859146E+04  0.27384478287E+04 0.  0.
        1    1    3    3  502    0 -0.10917397820E+03 -0.49935424570E+03  0.15485198745E+04  0.16307015122E+04  0.50400001928E-02 0. -1.
       -1    1    3    3    0  502  0.10917397820E+03  0.49935424570E+03 -0.10360542603E+04  0.11552844024E+04  0.50400001928E-02 0.  1.
</event>
<event>
 5   0  0.3028601E-06  0.2702713E+04  0.7818609E-02  0.8334125E-01
        1   -1    0    0  501    0  0.00000000000E+00  0.00000000000E+00  0.12233800474E+04  0.12233800474E+04  0.50400001928E-02 0. -1.
       -1   -1    0    0    0  501  0.00000000000E+00  0.00000000000E+00 -0.14927208502E+04  0.14927208502E+04  0.50400001928E-02 0.  1.
    10030    2    1    2    0    0  0.00000000000E+00  0.00000000000E+00 -0.26934080286E+03  0.27161008976E+04  0.27027133807E+04 0.  0.
        3    1    3    3  502    0  0.22754365996E+03  0.71671466291E+03 -0.12630450270E+04  0.14699451608E+04  0.10100000352E+00 0.  1.
       -3    1    3    3    0  502 -0.22754365996E+03 -0.71671466291E+03  0.99370422414E+03  0.12461557369E+04  0.10100000352E+00 0. -1.
</event>
<event>
 5   0  0.2654625E-06  0.2742396E+04  0.7818609E-02  0.8321378E-01
       -3   -1    0    0    0  501  0.00000000000E+00  0.00000000000E+00  0.26550604023E+04  0.26550604043E+04  0.10100000352E+00 0. -1.
        3   -1    0    0  501    0  0.00000000000E+00  0.00000000000E+00 -0.70815127339E+03  0.70815128059E+03  0.10100000352E+00 0.  1.
    10030    2    1    2    0    0  0.00000000000E+00  0.00000000000E+00  0.19469091289E+04  0.33632116848E+04  0.27423963391E+04 0.  0.
        5    1    3    3  502    0  0.33084027984E+03  0.10047100757E+04 -0.96565273791E+02  0.10621885751E+04  0.46999998093E+01 0.  1.
       -5    1    3    3    0  502 -0.33084027984E+03 -0.10047100757E+04  0.20434744027E+04  0.23010231097E+04  0.46999998093E+01 0. -1.
</event>
<event>
 5   0  0.7729970E-06  0.2692278E+04  0.7818609E-02  0.8337515E-01
       -2   -1    0    0    0  501  0.00000000000E+00  0.00000000000E+00  0.18391806543E+04  0.18391806543E+04  0.25500000920E-02 0. -1.
        2   -1    0    0  501    0  0.00000000000E+00  0.00000000000E+00 -0.98527000974E+03  0.98527000975E+03  0.25500000920E-02 0.  1.
    10030    2    1    2    0    0  0.00000000000E+00  0.00000000000E+00  0.85391064455E+03  0.28244506640E+04  0.26922775052E+04 0.  0.
        4    1    3    3  502    0  0.72383276240E+03  0.11242408652E+04  0.26363152905E+03  0.13628479691E+04  0.12699999809E+01 0.  1.
       -4    1    3    3    0  502 -0.72383276240E+03 -0.11242408652E+04  0.59027911550E+03  0.14616026950E+04  0.12699999809E+01 0. -1.
</event>
<event>
 5   0  0.3013407E-06  0.2685515E+04  0.7818609E-02  0.8339720E-01
       -1   -1    0    0    0  501  0.00000000000E+00  0.00000000000E+00  0.14602485919E+04  0.14602485919E+04  0.50400001928E-02 0. -1.
        1   -1    0    0  501    0  0.00000000000E+00  0.00000000000E+00 -0.12347193536E+04  0.12347193536E+04  0.50400001928E-02 0.  1.
    10030    2    1    2    0    0  0.00000000000E+00  0.00000000000E+00  0.22552923830E+03  0.26949679455E+04  0.26855146229E+04 0.  0.
        4    1    3    3  502    0  0.11173111991E+04  0.42134754494E+03  0.72899258095E+03  0.13990532031E+04  0.12699999809E+01 0. -1.
       -4    1    3    3    0  502 -0.11173111991E+04 -0.42134754494E+03 -0.50346334265E+03  0.12959147424E+04  0.12699999809E+01 0.  1.
</event>
<event>
 5   0  0.3028601E-06  0.2430748E+04  0.7818609E-02  0.8428081E-01
        1   -1    0    0  501    0  0.00000000000E+00  0.00000000000E+00  0.17794258253E+04  0.17794258253E+04  0.50400001928E-02 0. -1.
       -1   -1    0    0    0  501  0.00000000000E+00  0.00000000000E+00 -0.83011863471E+03  0.83011863473E+03  0.50400001928E-02 0.  1.
    10030    2    1    2    0    0  0.00000000000E+00  0.00000000000E+00  0.94930719055E+03  0.26095444600E+04  0.24307484746E+04 0.  0.
        3    1    3    3  502    0 -0.10001594206E+04  0.41842756354E+03  0.10643613354E+04  0.15192977177E+04  0.10100000352E+00 0. -1.
       -3    1    3    3    0  502  0.10001594206E+04 -0.41842756354E+03 -0.11505414483E+03  0.10902467423E+04  0.10100000352E+00 0.  1.
</event>
<event>
 5   0  0.7838364E-06  0.2681999E+04  0.7818609E-02  0.8340869E-01
       -2   -1    0    0    0  501  0.00000000000E+00  0.00000000000E+00  0.14903605408E+04  0.14903605408E+04  0.25500000920E-02 0.  1.
        2   -1    0    0  501    0  0.00000000000E+00  0.00000000000E+00 -0.12066071931E+04  0.12066071931E+04  0.25500000920E-02 0. -1.
    10030    2    1    2    0    0  0.00000000000E+00  0.00000000000E+00  0.28375334770E+03  0.26969677339E+04  0.26819990670E+04 0.  0.
        2    1    3    3  502    0  0.44204482865E+03 -0.11664811650E+04  0.63675933068E+03  0.14005514571E+04  0.25500000920E-02 0.  1.
       -2    1    3    3    0  502 -0.44204482865E+03  0.11664811650E+04 -0.35300598298E+03  0.12964162768E+04  0.25500000920E-02 0. -1.
</event>
<event>
 5   0  0.3028601E-06  0.2667928E+04  0.7818609E-02  0.8345487E-01
        1   -1    0    0  501    0  0.00000000000E+00  0.00000000000E+00  0.24201413343E+04  0.24201413343E+04  0.50400001928E-02 0.  1.
       -1   -1    0    0    0  501  0.00000000000E+00  0.00000000000E+00 -0.73527128253E+03  0.73527128255E+03  0.50400001928E-02 0. -1.
    10030    2    1    2    0    0  0.00000000000E+00  0.00000000000E+00  0.16848700517E+04  0.31554126168E+04  0.26679283520E+04 0.  0.
        3    1    3    3  502    0  0.12371713539E+04  0.25067285182E+03  0.13525571503E+04  0.18500920768E+04  0.10100000352E+00 0.  1.
       -3    1    3    3    0  502 -0.12371713539E+04 -0.25067285182E+03  0.33231290144E+03  0.13053205400E+04  0.10100000352E+00 0. -1.
</event>
<event>
 5   0  0.7729970E-06  0.2717125E+04  0.7818609E-02  0.8329470E-01
       -2   -1    0    0    0  501  0.00000000000E+00  0.00000000000E+00  0.13690661721E+04  0.13690661722E+04  0.25500000920E-02 0.  1.
        2   -1    0    0  501    0  0.00000000000E+00  0.00000000000E+00 -0.13481397544E+04  0.13481397544E+04  0.25500000920E-02 0. -1.
    10030    2    1    2    0    0  0.00000000000E+00  0.00000000000E+00  0.20926417705E+02  0.27172059266E+04  0.27171253436E+04 0.  0.
        4    1    3    3  502    0 -0.56590008287E+03  0.78662711991E+03 -0.94175502784E+03  0.13512695049E+04  0.12699999809E+01 0. -1.
       -4    1    3    3    0  502  0.56590008287E+03 -0.78662711991E+03  0.96268144555E+03  0.13659364217E+04  0.12699999809E+01 0.  1.
</event>
<event>
 5   0  0.8407622E-06  0.2685710E+04  0.7818609E-02  0.8339657E-01
        2   -1    0    0  501    0  0.00000000000E+00  0.00000000000E+00  0.17568240499E+04  0.17568240499E+04  0.25500000920E-02 0. -1.
       -2   -1    0    0    0  501  0.00000000000E+00  0.00000000000E+00 -0.10264313439E+04  0.10264313439E+04  0.25500000920E-02 0.  1.
    10030    2    1    2    0    0  0.00000000000E+00  0.00000000000E+00  0.73039270602E+03  0.27832553938E+04  0.26857097911E+04 0.  0.
        1    1    3    3  502    0 -0.10094961312E+04  0.61058879371E+03  0.10298632251E+04  0.15660521627E+04  0.50400001928E-02 0. -1.
       -1    1    3    3    0  502  0.10094961312E+04 -0.61058879371E+03 -0.29947051909E+03  0.12172032311E+04  0.50400001928E-02 0.  1.
</event>
<event>
 5   0  0.8213334E-06  0.2699360E+04  0.7818609E-02  0.8335213E-01
       -2   -1    0    0    0  501  0.00000000000E+00  0.00000000000E+00  0.14298369331E+04  0.14298369331E+04  0.25500000920E-02 0. -1.
        2   -1    0    0  501    0  0.00000000000E+00  0.00000000000E+00 -0.12740169261E+04  0.12740169261E+04  0.25500000920E-02 0.  1.
    10030    2    1    2    0    0  0.00000000000E+00  0.00000000000E+00  0.15582000698E+03  0.27038538592E+04  0.26993602608E+04 0.  0.
        3    1    3    3  502    0 -0.99008644842E+03 -0.73390374158E+02  0.99375100001E+03  0.14047057993E+04  0.10100000352E+00 0. -1.
       -3    1    3    3    0  502  0.99008644842E+03  0.73390374158E+02 -0.83793099303E+03  0.12991480599E+04  0.10100000352E+00 0.  1.
</event>
<event>
 5   0  0.8213334E-06  0.2683773E+04  0.7818609E-02  0.8340289E-01
       -2   -1    0    0    0  501  0.00000000000E+00  0.00000000000E+00  0.82710374261E+03  0.82710374262E+03  0.25500000920E-02 0. -1.
        2   -1    0    0  501    0  0.00000000000E+00  0.00000000000E+00 -0.21770661150E+04  0.21770661150E+04  0.25500000920E-02 0.  1.
    10030    2    1    2    0    0  0.00000000000E+00  0.00000000000E+00 -0.13499623723E+04  0.30041698576E+04  0.26837731138E+04 0.  0.
        3    1    3    3  502    0 -0.10333468680E+04 -0.41782836802E+03 -0.15113581966E+04  0.18779216979E+04  0.10100000352E+00 0.  1.
       -3    1    3    3    0  502  0.10333468680E+04  0.41782836802E+03  0.16139582430E+03  0.11262481596E+04  0.10100000352E+00 0. -1.
</event>
<event>
 5   0  0.7812908E-06  0.2727234E+04  0.7818609E-02  0.8326222E-01
       -2   -1    0    0    0  501  0.00000000000E+00  0.00000000000E+00  0.13267001274E+04  0.13267001274E+04  0.25500000920E-02 0.  1.
        2   -1    0    0  501    0  0.00000000000E+00  0.00000000000E+00 -0.14015608261E+04  0.14015608261E+04  0.25500000920E-02 0. -1.
    10030    2    1    2    0    0  0.00000000000E+00  0.00000000000E+00 -0.74860698758E+02  0.27282609535E+04  0.27272337095E+04 0.  0.
        5    1    3    3  502    0 -0.97377675119E+03  0.91988373911E+03 -0.29248045884E+03  0.13711287917E+04  0.46999998093E+01 0.  1.
       -5    1    3    3    0  502  0.97377675119E+03 -0.91988373911E+03  0.21761976008E+03  0.13571321618E+04  0.46999998093E+01 0. -1.
</event>
<event>
 5   0  0.3028601E-06  0.2671218E+04  0.7818609E-02  0.8344405E-01
        1   -1    0    0  501    0  0.00000000000E+00  0.00000000000E+00  0.13216159690E+04  0.13216159690E+04  0.50400001928E-02 0.  1.
       -1   -1    0    0    0  501  0.00000000000E+00  0.00000000000E+00 -0.13497501434E+04  0.13497501434E+04  0.50400001928E-02 0. -1.
    10030    2    1    2    0    0  0.00000000000E+00  0.00000000000E+00 -0.28134174397E+02  0.26713661123E+04  0.26712179571E+04 0.  0.
        3    1    3    3  502    0  0.96865446631E+03  0.91474608755E+03 -0.10787769278E+03  0.13366710465E+04  0.10100000352E+00 0. -1.
       -3    1    3    3    0  502 -0.96865446631E+03 -0.91474608755E+03  0.79743518378E+02  0.13346950658E+04  0.10100000352E+00 0.  1.
</event>
<event>
 5   0  0.3013407E-06  0.2709391E+04  0.7818609E-02  0.8331964E-01
       -1   -1    0    0    0  501  0.00000000000E+00  0.00000000000E+00  0.79081396937E+03  0.79081396938E+03  0.50400001928E-02 0.  1.
        1   -1    0    0  501    0  0.00000000000E+00  0.00000000000E+00 -0.23206474186E+04  0.23206474186E+04  0.50400001928E-02 0. -1.
    10030    2    1    2    0    0  0.00000000000E+00  0.00000000000E+00 -0.15298334493E+04  0.31114613880E+04  0.27093913683E+04 0.  0.
        4    1    3    3  502    0 -0.12301044567E+04  0.54476376219E+03 -0.58234570724E+03  0.14659647563E+04  0.12699999809E+01 0.  1.
       -4    1    3    3    0  502  0.12301044567E+04 -0.54476376219E+03 -0.94748774203E+03  0.16454966318E+04  0.12699999809E+01 0. -1.
</event>
<event>
 5   0  0.7729970E-06  0.2702465E+04  0.7818609E-02  0.8334206E-01
       -2   -1    0    0    0  501  0.00000000000E+00  0.00000000000E+00  0.17441208283E+04  0.17441208283E+04  0.25500000920E-02 0. -1.
        2   -1    0    0  501    0  0.00000000000E+00  0.00000000000E+00 -0.10468476684E+04  0.10468476684E+04  0.25500000920E-02 0.  1.
    10030    2    1    2    0    0  0.00000000000E+00  0.00000000000E+00  0.69727315988E+03  0.27909684967E+04  0.27024646695E+04 0.  0.
        4    1    3    3  502    0 -0.58855416641E+02 -0.19090583296E+03  0.17287846819E+04  0.17402893686E+04  0.12699999809E+01 0. -1.
       -4    1    3    3    0  502  0.58855416641E+02  0.19090583296E+03 -0.10315115221E+04  0.10506791281E+04  0.12699999809E+01 0.  1.
</event>
<event>
 5   0  0.3028601E-06  0.2711836E+04  0.7818609E-02  0.8331175E-01
       -1   -1    0    0    0  501  0.00000000000E+00  0.00000000000E+00  0.16033712576E+04  0.16033712577E+04  0.50400001928E-02 0. -1.
        1   -1    0    0  501    0  0.00000000000E+00  0.00000000000E+00 -0.11466553055E+04  0.11466553055E+04  0.50400001928E-02 0.  1.
    10030    2    1    2    0    0  0.00000000000E+00  0.00000000000E+00  0.45671595218E+03  0.27500265631E+04  0.27118363957E+04 0.  0.
        3    1    3    3  502    0 -0.38160506301E+03 -0.10866639194E+04  0.95401427212E+03  0.14955280470E+04  0.10100000352E+00 0. -1.
       -3    1    3    3    0  502  0.38160506301E+03  0.10866639194E+04 -0.49729831994E+03  0.12544985161E+04  0.10100000352E+00 0.  1.
</event>
<event>
 5   0  0.3046300E-06  0.2709601E+04  0.7818609E-02  0.8331897E-01
       -1   -1    0    0    0  501  0.00000000000E+00  0.00000000000E+00  0.18315679862E+04  0.18315679862E+04  0.50400001928E-02 0. -1.
        1   -1    0    0  501    0  0.00000000000E+00  0.00000000000E+00 -0.10021379728E+04  0.10021379728E+04  0.50400001928E-02 0.  1.
    10030    2    1    2    0    0  0.00000000000E+00  0.00000000000E+00  0.82943001344E+03  0.28337059590E+04  0.27096005822E+04 0.  0.
        2    1    3    3  502    0 -0.84990640537E+02  0.25157675126E+03 -0.97465562973E+03  0.10101820961E+04  0.25500000920E-02 0.  1.
       -2    1    3    3    0  502  0.84990640537E+02 -0.25157675126E+03  0.18040856432E+04  0.18235238629E+04  0.25500000920E-02 0. -1.
</event>
<event>
 5   0  0.3089218E-06  0.2708888E+04  0.7818609E-02  0.8332127E-01
        1   -1    0    0  501    0  0.00000000000E+00  0.00000000000E+00  0.12288051982E+04  0.12288051982E+04  0.50400001928E-02 0.  1.
       -1   -1    0    0    0  501  0.00000000000E+00  0.00000000000E+00 -0.14929286676E+04  0.14929286676E+04  0.50400001928E-02 0. -1.
    10030    2    1    2    0    0  0.00000000000E+00  0.00000000000E+00 -0.26412346934E+03  0.27217338658E+04  0.27088879691E+04 0.  0.
        5    1    3    3  502    0  0.31718520984E+03 -0.57910080226E+03 -0.13202652996E+04  0.14761730074E+04  0.46999998093E+01 0. -1.
       -5    1    3    3    0  502 -0.31718520984E+03  0.57910080226E+03  0.10561418302E+04  0.12455608584E+04  0.46999998093E+01 0.  1.
</event>
<event>
 5   0  0.3028601E-06  0.2657568E+04  0.7818609E-02  0.8348905E-01
        1   -1    0    0  501    0  0.00000000000E+00  0.00000000000E+00  0.21442777911E+04  0.21442777911E+04  0.50400001928E-02 0. -1.
       -1   -1    0    0    0  501  0.00000000000E+00  0.00000000000E+00 -0.82343203600E+03  0.82343203602E+03  0.50400001928E-02 0.  1.
    10030    2    1    2    0    0  0.00000000000E+00  0.00000000000E+00  0.13208457551E+04  0.29677098271E+04  0.26575680818E+04 0.  0.
        3    1    3    3  502    0 -0.34353075991E+02  0.71187412129E+03  0.19127834458E+04  0.20412460457E+04  0.10100000352E+00 0. -1.
       -3    1    3    3    0  502  0.34353075991E+02 -0.71187412129E+03 -0.59193769070E+03  0.92646378142E+03  0.10100000352E+00 0.  1.
</event>
<event>
 5   0  0.3089218E-06  0.2711586E+04  0.7818609E-02  0.8331256E-01
        1   -1    0    0  501    0  0.00000000000E+00  0.00000000000E+00  0.11715107967E+04  0.11715107967E+04  0.50400001928E-02 0. -1.
       -1   -1    0    0    0  501  0.00000000000E+00  0.00000000000E+00 -0.15690632588E+04  0.15690632588E+04  0.50400001928E-02 0.  1.
    10030    2    1    2    0    0  0.00000000000E+00  0.00000000000E+00 -0.39755246207E+03  0.27405740555E+04  0.27115859185E+04 0.  0.
        5    1    3    3  502    0 -0.47464757601E+03 -0.12434697459E+04  0.62140768105E+02  0.13324379519E+04  0.46999998093E+01 0. -1.
       -5    1    3    3    0  502  0.47464757601E+03  0.12434697459E+04 -0.45969323018E+03  0.14081361036E+04  0.46999998093E+01 0.  1.
</event>
<event>
 5   0  0.3046300E-06  0.2712852E+04  0.7818609E-02  0.8330847E-01
       -1   -1    0    0    0  501  0.00000000000E+00  0.00000000000E+00  0.76590071433E+03  0.76590071435E+03  0.50400001928E-02 0.  1.
        1   -1    0    0  501    0  0.00000000000E+00  0.00000000000E+00 -0.24022589965E+04  0.24022589965E+04  0.50400001928E-02 0. -1.
    10030    2    1    2    0    0  0.00000000000E+00  0.00000000000E+00 -0.16363582822E+04  0.31681597109E+04  0.27128522860E+04 0.  0.
        2    1    3    3  502    0 -0.46691029693E+03 -0.11967986744E+04 -0.30972264677E+03  0.13214614676E+04  0.25500000920E-02 0.  1.
       -2    1    3    3    0  502  0.46691029693E+03  0.11967986744E+04 -0.13266356354E+04  0.18466982432E+04  0.25500000920E-02 0. -1.
</event>
<event>
 5   0  0.3046300E-06  0.2710808E+04  0.7818609E-02  0.8331507E-01
       -1   -1    0    0    0  501  0.00000000000E+00  0.00000000000E+00  0.11503345662E+04  0.11503345662E+04  0.50400001928E-02 0.  1.
        1   -1    0    0  501    0  0.00000000000E+00  0.00000000000E+00 -0.15970308402E+04  0.15970308402E+04  0.50400001928E-02 0. -1.
    10030    2    1    2    0    0  0.00000000000E+00  0.00000000000E+00 -0.44669627394E+03  0.27473654064E+04  0.27108078344E+04 0.  0.
        2    1    3    3  502    0  0.86956646358E+03  0.94670610155E+03  0.21224037615E+03  0.13028600288E+04  0.25500000920E-02 0.  1.
       -2    1    3    3    0  502 -0.86956646358E+03 -0.94670610155E+03 -0.65893665008E+03  0.14445053777E+04  0.25500000920E-02 0. -1.
</event>
<event>
 5   0  0.7812908E-06  0.2695632E+04  0.7818609E-02  0.8336424E-01
        2   -1    0    0  501    0  0.00000000000E+00  0.00000000000E+00  0.11704081633E+04  0.11704081633E+04  0.25500000920E-02 0. -1.
       -2   -1    0    0    0  501  0.00000000000E+00  0.00000000000E+00 -0.15521146962E+04  0.15521146962E+04  0.25500000920E-02 0.  1.
    10030    2    1    2    0    0  0.00000000000E+00  0.00000000000E+00 -0.38170653290E+03  0.27225228595E+04  0.26956318078E+04 0.  0.
        5    1    3    3  502    0 -0.48859723538E+02  0.72648739875E+03 -0.13363699280E+04  0.15218665801E+04  0.46999998093E+01 0.  1.
       -5    1    3    3    0  502  0.48859723538E+02 -0.72648739875E+03  0.95466339513E+03  0.12006562793E+04  0.46999998093E+01 0. -1.
</event>
<event>
 5   0  0.3028601E-06  0.2677248E+04  0.7818609E-02  0.8342425E-01
       -1   -1    0    0    0  501  0.00000000000E+00  0.00000000000E+00  0.15496553041E+04  0.15496553042E+04  0.50400001928E-02 0.  1.
        1   -1    0    0  501    0  0.00000000000E+00  0.00000000000E+00 -0.11563305777E+04  0.11563305777E+04  0.50400001928E-02 0. -1.
    10030    2    1    2    0    0  0.00000000000E+00  0.00000000000E+00  0.39332472647E+03  0.27059858818E+04  0.26772477010E+04 0.  0.
        3    1    3    3  502    0 -0.69489649064E+03 -0.89344554169E+03  0.91902820584E+03  0.14579913998E+04  0.10100000352E+00 0.  1.
       -3    1    3    3    0  502  0.69489649064E+03  0.89344554169E+03 -0.52570347937E+03  0.12479944820E+04  0.10100000352E+00 0. -1.
</event>
<event>
 5   0  0.7812908E-06  0.2672783E+04  0.7818609E-02  0.8343890E-01
       -2   -1    0    0    0  501  0.00000000000E+00  0.00000000000E+00  0.15300918870E+04  0.15300918870E+04  0.25500000920E-02 0. -1.
        2   -1    0    0  501    0  0.00000000000E+00  0.00000000000E+00 -0.11672121860E+04  0.11672121860E+04  0.25500000920E-02 0.  1.
    10030    2    1    2    0    0  0.00000000000E+00  0.00000000000E+00  0.36287970101E+03  0.26973040730E+04  0.26727827418E+04 0.  0.
        5    1    3    3  502    0  0.56711866730E+02 -0.13019707938E+04  0.48008665104E+03  0.13888302510E+04  0.46999998093E+01 0. -1.
       -5    1    3    3    0  502 -0.56711866730E+02  0.13019707938E+04 -0.11720695003E+03  0.13084738220E+04  0.46999998093E+01 0.  1.
</event>
<event>
 5   0  0.3028601E-06  0.2691642E+04  0.7818609E-02  0.8337722E-01
        1   -1    0    0  501    0  0.00000000000E+00  0.00000000000E+00  0.98989589745E+03  0.98989589746E+03  0.50400001928E-02 0. -1.
       -1   -1    0    0    0  501  0.00000000000E+00  0.00000000000E+00 -0.18297213803E+04  0.18297213803E+04  0.50400001928E-02 0.  1.
    10030    2    1    2    0    0  0.00000000000E+00  0.00000000000E+00 -0.83982548287E+03  0.28196172778E+04  0.26916416462E+04 0.  0.
        3    1    3    3  502    0 -0.91836793825E+03  0.92862129246E+03 -0.79667581862E+02  0.13084663193E+04  0.10100000352E+00 0. -1.
       -3    1    3    3    0  502  0.91836793825E+03 -0.92862129246E+03 -0.76015790101E+03  0.15111509585E+04  0.10100000352E+00 0.  1.
</event>
<event>
 5   0  0.7729970E-06  0.2755682E+04  0.7818609E-02  0.8317161E-01
        2   -1    0    0  501    0  0.00000000000E+00  0.00000000000E+00  0.12391141936E+04  0.12391141936E+04  0.25500000920E-02 0.  1.
       -2   -1    0    0    0  501  0.00000000000E+00  0.00000000000E+00 -0.15320994601E+04  0.15320994601E+04  0.25500000920E-02 0. -1.
    10030    2    1    2    0    0  0.00000000000E+00  0.00000000000E+00 -0.29298526651E+03  0.27712136537E+04  0.27556822655E+04 0.  0.
        4    1    3    3  502    0 -0.51249376319E+03  0.12014665517E+04 -0.58745328882E+03  0.14322271858E+04  0.12699999809E+01 0.  1.
       -4    1    3    3    0  502  0.51249376319E+03 -0.12014665517E+04  0.29446802231E+03  0.13389864679E+04  0.12699999809E+01 0. -1.
</event>
<event>
 5   0  0.3013407E-06  0.2703860E+04  0.7818609E-02  0.8333753E-01
       -1   -1    0    0    0  501  0.00000000000E+00  0.00000000000E+00  0.25186529021E+04  0.25186529021E+04  0.50400001928E-02 0.  1.
        1   -1    0    0  501    0  0.00000000000E+00  0.00000000000E+00 -0.72567179079E+03  0.72567179081E+03  0.50400001928E-02 0. -1.
    10030    2    1    2    0    0  0.00000000000E+00  0.00000000000E+00  0.17929811113E+04  0.32443246929E+04  0.27038604712E+04 0.  0.
        4    1    3    3  502    0 -0.10085044529E+04 -0.89854840521E+03  0.96482384365E+03  0.16599268448E+04  0.12699999809E+01 0.  1.
       -4    1    3    3    0  502  0.10085044529E+04  0.89854840521E+03  0.82815726765E+03  0.15843978481E+04  0.12699999809E+01 0. -1.
</event>
<event>
 5   0  0.7729970E-06  0.2656915E+04  0.7818609E-02  0.8349122E-01
        2   -1    0    0  501    0  0.00000000000E+00  0.00000000000E+00  0.10986225049E+04  0.10986225049E+04  0.25500000920E-02 0.  1.
       -2   -1    0    0    0  501  0.00000000000E+00  0.00000000000E+00 -0.16063742807E+04  0.16063742807E+04  0.25500000920E-02 0. -1.
    10030    2    1    2    0    0  0.00000000000E+00  0.00000000000E+00 -0.50775177583E+03  0.27049967857E+04  0.26569147040E+04 0.  0.
        4    1    3    3  502    0 -0.27792300778E+03 -0.12985527690E+04 -0.29082076136E+03  0.13594332717E+04  0.12699999809E+01 0.  1.
       -4    1    3    3    0  502  0.27792300778E+03  0.12985527690E+04 -0.21693101448E+03  0.13455635139E+04  0.12699999809E+01 0. -1.
</event>
<event>
 5   0  0.7838364E-06  0.2704479E+04  0.7818609E-02  0.8333553E-01
       -2   -1    0    0    0  501  0.00000000000E+00  0.00000000000E+00  0.11804094869E+04  0.11804094869E+04  0.25500000920E-02 0.  1.
        2   -1    0    0  501    0  0.00000000000E+00  0.00000000000E+00 -0.15490823171E+04  0.15490823171E+04  0.25500000920E-02 0. -1.
    10030    2    1    2    0    0  0.00000000000E+00  0.00000000000E+00 -0.36867283013E+03  0.27294918040E+04  0.27044788504E+04 0.  0.
        2    1    3    3  502    0 -0.88870988809E+03  0.49906071275E+03  0.71252438063E+03  0.12436067920E+04  0.25500000920E-02 0.  1.
       -2    1    3    3    0  502  0.88870988809E+03 -0.49906071275E+03 -0.10811972108E+04  0.14858850120E+04  0.25500000920E-02 0. -1.
</event>
<event>
 5   0  0.3199840E-06  0.2696570E+04  0.7818609E-02  0.8336119E-01
       -1   -1    0    0    0  501  0.00000000000E+00  0.00000000000E+00  0.92921163393E+03  0.92921163395E+03  0.50400001928E-02 0.  1.
        1   -1    0    0  501    0  0.00000000000E+00  0.00000000000E+00 -0.19563600017E+04  0.19563600018E+04  0.50400001928E-02 0. -1.
    10030    2    1    2    0    0  0.00000000000E+00  0.00000000000E+00 -0.10271483678E+04  0.28855716357E+04  0.26965700242E+04 0.  0.
        1    1    3    3  502    0  0.12777710018E+04  0.42307320305E+03 -0.59771620766E+03  0.14727370210E+04  0.50400001928E-02 0. -1.
       -1    1    3    3    0  502 -0.12777710018E+04 -0.42307320305E+03 -0.42943216015E+03  0.14128346147E+04  0.50400001928E-02 0.  1.
</event>
<event>
 5   0  0.2654625E-06  0.2720271E+04  0.7818609E-02  0.8328458E-01
       -3   -1    0    0    0  501  0.00000000000E+00  0.00000000000E+00  0.78860164168E+03  0.78860164814E+03  0.10100000352E+00 0.  1.
        3   -1    0    0  501    0  0.00000000000E+00  0.00000000000E+00 -0.23458850980E+04  0.23458851002E+04  0.10100000352E+00 0. -1.
    10030    2    1    2    0    0  0.00000000000E+00  0.00000000000E+00 -0.15572834563E+04  0.31344867483E+04  0.27202712019E+04 0.  0.
        5    1    3    3  502    0  0.31688572703E+03 -0.88441364452E+03  0.35465703426E+03  0.10041950809E+04  0.46999998093E+01 0.  1.
       -5    1    3    3    0  502 -0.31688572703E+03  0.88441364452E+03 -0.19119404906E+04  0.21302916674E+04  0.46999998093E+01 0. -1.
</event>
<event>
 5   0  0.3199840E-06  0.2697143E+04  0.7818609E-02  0.8335933E-01
        1   -1    0    0  501    0  0.00000000000E+00  0.00000000000E+00  0.23082862671E+04  0.23082862671E+04  0.50400001928E-02 0.  1.
       -1   -1    0    0    0  501  0.00000000000E+00  0.00000000000E+00 -0.78787646841E+03  0.78787646843E+03  0.50400001928E-02 0. -1.
    10030    2    1    2    0    0  0.00000000000E+00  0.00000000000E+00  0.15204097987E+04  0.30961627356E+04  0.26971425118E+04 0.  0.
        1    1    3    3  502    0 -0.10485836575E+04  0.35387615694E+03  0.16448565869E+04  0.19825007472E+04  0.50400001928E-02 0.  1.
       -1    1    3    3    0  502  0.10485836575E+04 -0.35387615694E+03 -0.12444678813E+03  0.11136619884E+04  0.50400001928E-02 0. -1.
</event>
<event>
 5   0  0.7812908E-06  0.2663447E+04  0.7818609E-02  0.8346964E-01
        2   -1    0    0  501    0  0.00000000000E+00  0.00000000000E+00  0.14952795170E+04  0.14952795170E+04  0.25500000920E-02 0.  1.
       -2   -1    0    0    0  501  0.00000000000E+00  0.00000000000E+00 -0.11860573149E+04  0.11860573149E+04  0.25500000920E-02 0. -1.
    10030    2    1    2    0    0  0.00000000000E+00  0.00000000000E+00  0.30922220210E+03  0.26813368319E+04  0.26634467961E+04 0.  0.
        5    1    3    3  502    0  0.43464269328E+03 -0.11934079080E+04 -0.24848871040E+03  0.12941813764E+04  0.46999998093E+01 0.  1.
       -5    1    3    3    0  502 -0.43464269328E+03  0.11934079080E+04  0.55771091250E+03  0.13871554555E+04  0.46999998093E+01 0. -1.
</event>
<event>
 5   0  0.8213334E-06  0.2699933E+04  0.7818609E-02  0.8335027E-01
       -2   -1    0    0    0  501  0.00000000000E+00  0.00000000000E+00  0.90627376899E+03  0.90627376899E+03  0.25500000920E-02 0.  1.
        2   -1    0    0  501    0  0.00000000000E+00  0.00000000000E+00 -0.20108819682E+04  0.20108819682E+04  0.25500000920E-02 0. -1.
    10030    2    1    2    0    0  0.00000000000E+00  0.00000000000E+00 -0.11046081992E+04  0.29171557372E+04  0.26999330216E+04 0.  0.
        3    1    3    3  502    0  0.72668288115E+02  0.14029936740E+03 -0.20008572238E+04  0.20070860053E+04  0.10100000352E+00 0. -1.
       -3    1    3    3    0  502 -0.72668288115E+02 -0.14029936740E+03  0.89624902458E+03  0.91006973186E+03  0.10100000352E+00 0.  1.
</event>
<event>
 5   0  0.7812908E-06  0.2666537E+04  0.7818609E-02  0.8345945E-01
       -2   -1    0    0    0  501  0.00000000000E+00  0.00000000000E+00  0.92935950593E+03  0.92935950593E+03  0.25500000920E-02 0.  1.
        2   -1    0    0  501    0  0.00000000000E+00  0.00000000000E+00 -0.19127204573E+04  0.19127204573E+04  0.25500000920E-02 0. -1.
    10030    2    1    2    0    0  0.00000000000E+00  0.00000000000E+00 -0.98336095132E+03  0.28420799632E+04  0.26665370345E+04 0.  0.
        5    1    3    3  502    0  0.11222147800E+04 -0.16966224566E+03 -0.12373298501E+04  0.16790350020E+04  0.46999998093E+01 0. -1.
       -5    1    3    3    0  502 -0.11222147800E+04  0.16966224566E+03  0.25396889880E+03  0.11630449611E+04  0.46999998093E+01 0.  1.
</event>
<event>
 5   0  0.3046300E-06  0.2665747E+04  0.7818609E-02  0.8346205E-01
        1   -1    0    0  501    0  0.00000000000E+00  0.00000000000E+00  0.16059807131E+04  0.16059807131E+04  0.50400001928E-02 0. -1.
       -1   -1    0    0    0  501  0.00000000000E+00  0.00000000000E+00 -0.11062100662E+04  0.11062100662E+04  0.50400001928E-02 0.  1.
    10030    2    1    2    0    0  0.00000000000E+00  0.00000000000E+00  0.49977064690E+03  0.27121907793E+04  0.26657471980E+04 0.  0.
        2    1    3    3  502    0 -0.92811839641E+03  0.87906681236E+03  0.63380531992E+03  0.14268396553E+04  0.25500000920E-02 0.  1.
       -2    1    3    3    0  502  0.92811839641E+03 -0.87906681236E+03 -0.13403467301E+03  0.12853511240E+04  0.25500000920E-02 0. -1.
</event>
<event>
 5   0  0.7729970E-06  0.2693623E+04  0.7818609E-02  0.8337077E-01
       -2   -1    0    0    0  501  0.00000000000E+00  0.00000000000E+00  0.77541922418E+03  0.77541922419E+03  0.25500000920E-02 0.  1.
        2   -1    0    0  501    0  0.00000000000E+00  0.00000000000E+00 -0.23392514871E+04  0.23392514871E+04  0.25500000920E-02 0. -1.
    10030    2    1    2    0    0  0.00000000000E+00  0.00000000000E+00 -0.15638322629E+04  0.31146707113E+04  0.26936225224E+04 0.  0.
        4    1    3    3  502    0 -0.84628945677E+03 -0.10463633625E+04 -0.84328606872E+03  0.15881483361E+04  0.12699999809E+01 0.  1.
       -4    1    3    3    0  502  0.84628945677E+03  0.10463633625E+04 -0.72054619419E+03  0.15265223751E+04  0.12699999809E+01 0. -1.
</event>
<event>
 5   0  0.3028601E-06  0.2700415E+04  0.7818609E-02  0.8334870E-01
       -1   -1    0    0    0  501  0.00000000000E+00  0.00000000000E+00  0.14454582211E+04  0.14454582211E+04  0.50400001928E-02 0.  1.
        1   -1    0    0  501    0  0.00000000000E+00  0.00000000000E+00 -0.12612330410E+04  0.12612330410E+04  0.50400001928E-02 0. -1.
    10030    2    1    2    0    0  0.00000000000E+00  0.00000000000E+00  0.18422518011E+03  0.27066912620E+04  0.27004145369E+04 0.  0.
        3    1    3    3  502    0  0.66261002032E+03 -0.74576629599E+02 -0.10846887486E+04  0.12732491525E+04  0.10100000352E+00 0. -1.
       -3    1    3    3    0  502 -0.66261002032E+03  0.74576629599E+02  0.12689139287E+04  0.14334421096E+04  0.10100000352E+00 0.  1.
</event>
<event>
 5   0  0.8213334E-06  0.2701480E+04  0.7818609E-02  0.8334525E-01
       -2   -1    0    0    0  501  0.00000000000E+00  0.00000000000E+00  0.17179316955E+04  0.17179316955E+04  0.25500000920E-02 0.  1.
        2   -1    0    0  501    0  0.00000000000E+00  0.00000000000E+00 -0.10620323569E+04  0.10620323570E+04  0.25500000920E-02 0. -1.
    10030    2    1    2    0    0  0.00000000000E+00  0.00000000000E+00  0.65589933855E+03  0.27799640525E+04  0.27014803702E+04 0.  0.
        3    1    3    3  502    0  0.75464596599E+03 -0.97642669618E+03 -0.23718585538E+03  0.12566450442E+04  0.10100000352E+00 0. -1.
       -3    1    3    3    0  502 -0.75464596599E+03  0.97642669618E+03  0.89308519393E+03  0.15233190082E+04  0.10100000352E+00 0.  1.
</event>
<event>
 5   0  0.3199840E-06  0.2717983E+04  0.7818609E-02  0.8329194E-01
       -1   -1    0    0    0  501  0.00000000000E+00  0.00000000000E+00  0.14368541323E+04  0.14368541323E+04  0.50400001928E-02 0. -1.
        1   -1    0    0  501    0  0.00000000000E+00  0.00000000000E+00 -0.12853480880E+04  0.12853480880E+04  0.50400001928E-02 0.  1.
    10030    2    1    2    0    0  0.00000000000E+00  0.00000000000E+00  0.15150604428E+03  0.27222022204E+04  0.27179828636E+04 0.  0.
        1    1    3    3  502    0  0.12959492423E+04 -0.14007835066E+03 -0.30922804068E+03  0.13396747233E+04  0.50400001928E-02 0.  1.
       -1    1    3    3    0  502 -0.12959492423E+04  0.14007835066E+03  0.46073408496E+03  0.13825274971E+04  0.50400001928E-02 0. -1.
</event>
<event>
 5   0  0.7812908E-06  0.2694989E+04  0.7818609E-02  0.8336633E-01
        2   -1    0    0  501    0  0.00000000000E+00  0.00000000000E+00  0.15839533464E+04  0.15839533464E+04  0.25500000920E-02 0.  1.
       -2   -1    0    0    0  501  0.00000000000E+00  0.00000000000E+00 -0.11463349939E+04  0.11463349939E+04  0.25500000920E-02 0. -1.
    10030    2    1    2    0    0  0.00000000000E+00  0.00000000000E+00  0.43761835250E+03  0.27302883404E+04  0.26949887939E+04 0.  0.
        5    1    3    3  502    0 -0.91478811145E+03 -0.63492550685E+03 -0.54991234786E+03  0.12419313058E+04  0.46999998093E+01 0. -1.
       -5    1    3    3    0  502  0.91478811145E+03  0.63492550685E+03  0.98753070036E+03  0.14883570345E+04  0.46999998093E+01 0.  1.
</event>
<event>
 5   0  0.3013407E-06  0.2584394E+04  0.7818609E-02  0.8373522E-01
       -1   -1    0    0    0  501  0.00000000000E+00  0.00000000000E+00  0.82816969375E+03  0.82816969377E+03  0.50400001928E-02 0. -1.
        1   -1    0    0  501    0  0.00000000000E+00  0.00000000000E+00 -0.20162206129E+04  0.20162206129E+04  0.50400001928E-02 0.  1.
    10030    2    1    2    0    0  0.00000000000E+00  0.00000000000E+00 -0.11880509192E+04  0.28443903067E+04  0.25843937839E+04 0.  0.
        4    1    3    3  502    0 -0.25960645556E+03  0.12423924801E+04 -0.32706046630E+03  0.13106886541E+04  0.12699999809E+01 0.  1.
       -4    1    3    3    0  502  0.25960645556E+03 -0.12423924801E+04 -0.86099045288E+03  0.15337016526E+04  0.12699999809E+01 0. -1.
</event>
<event>
 5   0  0.7838364E-06  0.2686375E+04  0.7818609E-02  0.8339439E-01
       -2   -1    0    0    0  501  0.00000000000E+00  0.00000000000E+00  0.91365170854E+03  0.91365170855E+03  0.25500000920E-02 0. -1.
        2   -1    0    0  501    0  0.00000000000E+00  0.00000000000E+00 -0.19746607328E+04  0.19746607328E+04  0.25500000920E-02 0.  1.
    10030    2    1    2    0    0  0.00000000000E+00  0.00000000000E+00 -0.10610090243E+04  0.28883124414E+04  0.26863746219E+04 0.  0.
        2    1    3    3  502    0 -0.80250270920E+03  0.10730205600E+04 -0.63118343472E+03  0.14811401854E+04  0.25500000920E-02 0.  1.
       -2    1    3    3    0  502  0.80250270920E+03 -0.10730205600E+04 -0.42982558956E+03  0.14071722560E+04  0.25500000920E-02 0. -1.
</event>
<event>
 5   0  0.8213334E-06  0.2686568E+04  0.7818609E-02  0.8339377E-01
        2   -1    0    0  501    0  0.00000000000E+00  0.00000000000E+00  0.19169170040E+04  0.19169170040E+04  0.25500000920E-02 0. -1.
       -2   -1    0    0    0  501  0.00000000000E+00  0.00000000000E+00 -0.94130901033E+03  0.94130901034E+03  0.25500000920E-02 0.  1.
    10030    2    1    2    0    0  0.00000000000E+00  0.00000000000E+00  0.97560799364E+03  0.28582260143E+04  0.26865675111E+04 0.  0.
        3    1    3    3  502    0 -0.48569626513E+03  0.71605884109E+03  0.15809633898E+04  0.18022448158E+04  0.10100000352E+00 0. -1.
       -3    1    3    3    0  502  0.48569626513E+03 -0.71605884109E+03 -0.60535539615E+03  0.10559811986E+04  0.10100000352E+00 0.  1.
</event>
<event>
 5   0  0.3089218E-06  0.2757545E+04  0.7818609E-02  0.8316572E-01
       -1   -1    0    0    0  501  0.00000000000E+00  0.00000000000E+00  0.80656009670E+03  0.80656009672E+03  0.50400001928E-02 0.  1.
        1   -1    0    0  501    0  0.00000000000E+00  0.00000000000E+00 -0.23569392453E+04  0.23569392453E+04  0.50400001928E-02 0. -1.
    10030    2    1    2    0    0  0.00000000000E+00  0.00000000000E+00 -0.15503791486E+04  0.31634993420E+04  0.27575446656E+04 0.  0.
        5    1    3    3  502    0 -0.72022731807E+02 -0.94248835028E+03 -0.19267107297E+04  0.21460913052E+04  0.46999998093E+01 0. -1.
       -5    1    3    3    0  502  0.72022731807E+02  0.94248835028E+03  0.37633158116E+03  0.10174080368E+04  0.46999998093E+01 0.  1.
</event>
<event>
 5   0  0.3046300E-06  0.2700745E+04  0.7818609E-02  0.8334763E-01
       -1   -1    0    0    0  501  0.00000000000E+00  0.00000000000E+00  0.12672079540E+04  0.12672079540E+04  0.50400001928E-02 0.  1.
        1   -1    0    0  501    0  0.00000000000E+00  0.00000000000E+00 -0.14389946333E+04  0.14389946333E+04  0.50400001928E-02 0. -1.
    10030    2    1    2    0    0  0.00000000000E+00  0.00000000000E+00 -0.17178667925E+03  0.27062025873E+04  0.27007446715E+04 0.  0.
        2    1    3    3  502    0  0.12021067558E+04  0.30574293217E+03  0.44900757433E+03  0.13191463887E+04  0.25500000920E-02 0.  1.
       -2    1    3    3    0  502 -0.12021067558E+04 -0.30574293217E+03 -0.62079425358E+03  0.13870561986E+04  0.25500000920E-02 0. -1.
</event>
<event>
 5   0  0.7729970E-06  0.2668718E+04  0.7818609E-02  0.8345227E-01
       -2   -1    0    0    0  501  0.00000000000E+00  0.00000000000E+00  0.12885345052E+04  0.12885345052E+04  0.25500000920E-02 0. -1.
        2   -1    0    0  501    0  0.00000000000E+00  0.00000000000E+00 -0.13818132387E+04  0.13818132387E+04  0.25500000920E-02 0.  1.
    10030    2    1    2    0    0  0.00000000000E+00  0.00000000000E+00 -0.93278733491E+02  0.26703477440E+04  0.26687180727E+04 0.  0.
        4    1    3    3  502    0  0.11421468276E+04  0.23177867839E+03  0.60359720686E+03  0.13124602594E+04  0.12699999809E+01 0. -1.
       -4    1    3    3    0  502 -0.11421468276E+04 -0.23177867839E+03 -0.69687594035E+03  0.13578874845E+04  0.12699999809E+01 0.  1.
</event>
<event>
 5   0  0.7838364E-06  0.2707629E+04  0.7818609E-02  0.8332534E-01
       -2   -1    0    0    0  501  0.00000000000E+00  0.00000000000E+00  0.12390998327E+04  0.12390998327E+04  0.25500000920E-02 0.  1.
        2   -1    0    0  501    0  0.00000000000E+00  0.00000000000E+00 -0.14791490977E+04  0.14791490977E+04  0.25500000920E-02 0. -1.
    10030    2    1    2    0    0  0.00000000000E+00  0.00000000000E+00 -0.24004926506E+03  0.27182489304E+04  0.27076287777E+04 0.  0.
        2    1    3    3  502    0  0.11129828151E+04 -0.27186861754E+03 -0.84408170515E+03  0.14230661323E+04  0.25500000920E-02 0. -1.
       -2    1    3    3    0  502 -0.11129828151E+04  0.27186861754E+03  0.60403244008E+03  0.12951827981E+04  0.25500000920E-02 0.  1.
</event>
<event>
 5   0  0.3046300E-06  0.2729887E+04  0.7818609E-02  0.8325372E-01
        1   -1    0    0  501    0  0.00000000000E+00  0.00000000000E+00  0.11469920211E+04  0.11469920211E+04  0.50400001928E-02 0. -1.
       -1   -1    0    0    0  501  0.00000000000E+00  0.00000000000E+00 -0.16243098007E+04  0.16243098007E+04  0.50400001928E-02 0.  1.
    10030    2    1    2    0    0  0.00000000000E+00  0.00000000000E+00 -0.47731777955E+03  0.27713018218E+04  0.27298867238E+04 0.  0.
        2    1    3    3  502    0  0.70974433059E+03  0.11631404914E+04 -0.15720722479E+03  0.13716220067E+04  0.25500000920E-02 0.  1.
       -2    1    3    3    0  502 -0.70974433059E+03 -0.11631404914E+04 -0.32011055477E+03  0.13996798151E+04  0.25500000920E-02 0. -1.
</event>
<event>
 5   0  0.7838364E-06  0.2702945E+04  0.7818609E-02  0.8334050E-01
        2   -1    0    0  501    0  0.00000000000E+00  0.00000000000E+00  0.10840774032E+04  0.10840774032E+04  0.25500000920E-02 0. -1.
       -2   -1    0    0    0  501  0.00000000000E+00  0.00000000000E+00 -0.16848228088E+04  0.16848228088E+04  0.25500000920E-02 0.  1.
    10030    2    1    2    0    0  0.00000000000E+00  0.00000000000E+00 -0.60074540559E+03  0.27689002120E+04  0.27029453087E+04 0.  0.
        2    1    3    3  502    0 -0.10114371683E+04  0.59728751703E+03  0.38430808114E+03  0.12359005724E+04  0.25500000920E-02 0. -1.
       -2    1    3    3    0  502  0.10114371683E+04 -0.59728751703E+03 -0.98505348673E+03  0.15329996397E+04  0.25500000920E-02 0.  1.
</event>
<event>
 5   0  0.7812908E-06  0.2697015E+04  0.7818609E-02  0.8335974E-01
        2   -1    0    0  501    0  0.00000000000E+00  0.00000000000E+00  0.11758431820E+04  0.11758431820E+04  0.25500000920E-02 0. -1.
       -2   -1    0    0    0  501  0.00000000000E+00  0.00000000000E+00 -0.15465268999E+04  0.15465268999E+04  0.25500000920E-02 0.  1.
    10030    2    1    2    0    0  0.00000000000E+00  0.00000000000E+00 -0.37068371793E+03  0.27223700820E+04  0.26970154698E+04 0.  0.
        5    1    3    3  502    0  0.78427450567E+03 -0.83585171324E+03 -0.90245461685E+03  0.14588286439E+04  0.46999998093E+01 0.  1.
       -5    1    3    3    0  502 -0.78427450567E+03  0.83585171324E+03  0.53177089892E+03  0.12635414381E+04  0.46999998093E+01 0. -1.
</event>
<event>
 5   0  0.7729970E-06  0.2705898E+04  0.7818609E-02  0.8333094E-01
        2   -1    0    0  501    0  0.00000000000E+00  0.00000000000E+00  0.16626128303E+04  0.16626128303E+04  0.25500000920E-02 0. -1.
       -2   -1    0    0    0  501  0.00000000000E+00  0.00000000000E+00 -0.11009606442E+04  0.11009606442E+04  0.25500000920E-02 0.  1.
    10030    2    1    2    0    0  0.00000000000E+00  0.00000000000E+00  0.56165218608E+03  0.27635734746E+04  0.27058982189E+04 0.  0.
        4    1    3    3  502    0 -0.12976241268E+04  0.11966409742E+03 -0.90687983681E+02  0.13062824327E+04  0.12699999809E+01 0.  1.
       -4    1    3    3    0  502  0.12976241268E+04 -0.11966409742E+03  0.65234016976E+03  0.14572910419E+04  0.12699999809E+01 0. -1.
</event>
<event>
 5   0  0.7838364E-06  0.2710072E+04  0.7818609E-02  0.8331744E-01
       -2   -1    0    0    0  501  0.00000000000E+00  0.00000000000E+00  0.70344331074E+03  0.70344331075E+03  0.25500000920E-02 0.  1.
        2   -1    0    0  501    0  0.00000000000E+00  0.00000000000E+00 -0.26101930010E+04  0.26101930010E+04  0.25500000920E-02 0. -1.
    10030    2    1    2    0    0  0.00000000000E+00  0.00000000000E+00 -0.19067496903E+04  0.33136363118E+04  0.27100721808E+04 0.  0.
        2    1    3    3  502    0  0.77771990621E+03 -0.10577739981E+04 -0.54346783044E+03  0.14209473482E+04  0.25500000920E-02 0. -1.
       -2    1    3    3    0  502 -0.77771990621E+03  0.10577739981E+04 -0.13632818598E+04  0.18926889636E+04  0.25500000920E-02 0.  1.
</event>
<event>
 5   0  0.2654625E-06  0.2702142E+04  0.7818609E-02  0.8334310E-01
        4   -1    0    0  501    0  0.00000000000E+00  0.00000000000E+00  0.18830404480E+04  0.18830408763E+04  0.12699999809E+01 0. -1.
       -4   -1    0    0    0  501  0.00000000000E+00  0.00000000000E+00 -0.96938526836E+03  0.96938610028E+03  0.12699999809E+01 0.  1.
    10030    2    1    2    0    0  0.00000000000E+00  0.00000000000E+00  0.91365517963E+03  0.28524269765E+04  0.27021424591E+04 0.  0.
        2    1    3    3  502    0  0.93399010065E+03 -0.94501795391E+03  0.71539343387E+03  0.15090341966E+04  0.25500000920E-02 0. -1.
       -2    1    3    3    0  502 -0.93399010065E+03  0.94501795391E+03  0.19826174576E+03  0.13433927799E+04  0.25500000920E-02 0.  1.
</event>
<event>
 5   0  0.3199840E-06  0.2781844E+04  0.7818609E-02  0.8308927E-01
        1   -1    0    0  501    0  0.00000000000E+00  0.00000000000E+00  0.21673881538E+04  0.21673881538E+04  0.50400001928E-02 0. -1.
       -1   -1    0    0    0  501  0.00000000000E+00  0.00000000000E+00 -0.89262453914E+03  0.89262453916E+03  0.50400001928E-02 0.  1.
    10030    2    1    2    0    0  0.00000000000E+00  0.00000000000E+00  0.12747636147E+04  0.30600126930E+04  0.27818438863E+04 0.  0.
        1    1    3    3  502    0  0.26897260658E+03  0.10181790107E+04  0.16368821956E+04  0.19463859029E+04  0.50400001928E-02 0. -1.
       -1    1    3    3    0  502 -0.26897260658E+03 -0.10181790107E+04 -0.36211858090E+03  0.11136267901E+04  0.50400001928E-02 0.  1.
</event>
<event>
 5   0  0.8213334E-06  0.2732574E+04  0.7818609E-02  0.8324513E-01
        2   -1    0    0  501    0  0.00000000000E+00  0.00000000000E+00  0.18228086573E+04  0.18228086573E+04  0.25500000920E-02 0. -1.
       -2   -1    0    0    0  501  0.00000000000E+00  0.00000000000E+00 -0.10241007796E+04  0.10241007796E+04  0.25500000920E-02 0.  1.
    10030    2    1    2    0    0  0.00000000000E+00  0.00000000000E+00  0.79870787771E+03  0.28469094368E+04  0.27325737076E+04 0.  0.
        3    1    3    3  502    0 -0.98269371531E+03  0.68827367450E+03  0.10804126616E+04  0.16145275218E+04  0.10100000352E+00 0. -1.
       -3    1    3    3    0  502  0.98269371531E+03 -0.68827367450E+03 -0.28170478385E+03  0.12323819151E+04  0.10100000352E+00 0.  1.
</event>
<event>
 5   0  0.3199840E-06  0.2695192E+04  0.7818609E-02  0.8336567E-01
       -1   -1    0    0    0  501  0.00000000000E+00  0.00000000000E+00  0.78130216455E+03  0.78130216457E+03  0.50400001928E-02 0.  1.
        1   -1    0    0  501    0  0.00000000000E+00  0.00000000000E+00 -0.23243431853E+04  0.23243431853E+04  0.50400001928E-02 0. -1.
    10030    2    1    2    0    0  0.00000000000E+00  0.00000000000E+00 -0.15430410208E+04  0.31056453499E+04  0.26951915419E+04 0.  0.
        1    1    3    3  502    0 -0.22221619400E+03 -0.10905288315E+03  0.75488116762E+03  0.79442944650E+03  0.50400001928E-02 0.  1.
       -1    1    3    3    0  502  0.22221619400E+03  0.10905288315E+03 -0.22979221884E+04  0.23112159034E+04  0.50400001928E-02 0. -1.
</event>
<event>
 5   0  0.7838364E-06  0.2669969E+04  0.7818609E-02  0.8344815E-01
       -2   -1    0    0    0  501  0.00000000000E+00  0.00000000000E+00  0.12624059213E+04  0.12624059213E+04  0.25500000920E-02 0. -1.
        2   -1    0    0  501    0  0.00000000000E+00  0.00000000000E+00 -0.14117360948E+04  0.14117360948E+04  0.25500000920E-02 0.  1.
    10030    2    1    2    0    0  0.00000000000E+00  0.00000000000E+00 -0.14933017356E+03  0.26741420161E+04  0.26699692922E+04 0.  0.
        2    1    3    3  502    0  0.14606973125E+03 -0.22305672423E+03  0.12354669036E+04  0.12639102573E+04  0.25500000920E-02 0. -1.
       -2    1    3    3    0  502 -0.14606973125E+03  0.22305672423E+03 -0.13847970771E+04  0.14102317588E+04  0.25500000920E-02 0.  1.
</event>
<event>
 5   0  0.7812908E-06  0.2659866E+04  0.7818609E-02  0.8348146E-01
       -2   -1    0    0    0  501  0.00000000000E+00  0.00000000000E+00  0.10658471286E+04  0.10658471287E+04  0.25500000920E-02 0.  1.
        2   -1    0    0  501    0  0.00000000000E+00  0.00000000000E+00 -0.16594511872E+04  0.16594511872E+04  0.25500000920E-02 0. -1.
    10030    2    1    2    0    0  0.00000000000E+00  0.00000000000E+00 -0.59360405858E+03  0.27252983159E+04  0.26598656230E+04 0.  0.
        5    1    3    3  502    0  0.17506814402E+03  0.49470724511E+03  0.95527219954E+03  0.10899317312E+04  0.46999998093E+01 0.  1.
       -5    1    3    3    0  502 -0.17506814402E+03 -0.49470724511E+03 -0.15488762581E+04  0.16353665847E+04  0.46999998093E+01 0. -1.
</event>
<event>
 5   0  0.3028601E-06  0.2691991E+04  0.7818609E-02  0.8337608E-01
        1   -1    0    0  501    0  0.00000000000E+00  0.00000000000E+00  0.14587114711E+04  0.14587114711E+04  0.50400001928E-02 0.  1.
       -1   -1    0    0    0  501  0.00000000000E+00  0.00000000000E+00 -0.12419895166E+04  0.12419895166E+04  0.50400001928E-02 0. -1.
    10030    2    1    2    0    0  0.00000000000E+00  0.00000000000E+00  0.21672195450E+03  0.27007009878E+04  0.26919913484E+04 0.  0.
        3    1    3    3  502    0 -0.60035752618E+03  0.21932563795E+03 -0.10800269010E+04  0.12549864588E+04  0.10100000352E+00 0. -1.
       -3    1    3    3    0  502  0.60035752618E+03 -0.21932563795E+03  0.12967488555E+04  0.14457145289E+04  0.10100000352E+00 0.  1.
</event>
<event>
 5   0  0.3199840E-06  0.2692981E+04  0.7818609E-02  0.8337286E-01
       -1   -1    0    0    0  501  0.00000000000E+00  0.00000000000E+00  0.16596633625E+04  0.16596633626E+04  0.50400001928E-02 0. -1.
        1   -1    0    0  501    0  0.00000000000E+00  0.00000000000E+00 -0.10924124474E+04  0.10924124474E+04  0.50400001928E-02 0.  1.
    10030    2    1    2    0    0  0.00000000000E+00  0.00000000000E+00  0.56725091518E+03  0.27520758099E+04  0.26929811850E+04 0.  0.
        1    1    3    3  502    0 -0.51871638344E+03  0.12312562066E+04  0.45456336311E+03  0.14112711943E+04  0.50400001928E-02 0.  1.
       -1    1    3    3    0  502  0.51871638344E+03 -0.12312562066E+04  0.11268755207E+03  0.13408046156E+04  0.50400001928E-02 0. -1.
</event>
<event>
 5   0  0.3089218E-06  0.2689649E+04  0.7818609E-02  0.8338371E-01
        1   -1    0    0  501    0  0.00000000000E+00  0.00000000000E+00  0.20839344027E+04  0.20839344027E+04  0.50400001928E-02 0.  1.
       -1   -1    0    0    0  501  0.00000000000E+00  0.00000000000E+00 -0.86785473255E+03  0.86785473256E+03  0.50400001928E-02 0. -1.
    10030    2    1    2    0    0  0.00000000000E+00  0.00000000000E+00  0.12160796702E+04  0.29517891353E+04  0.26896485523E+04 0.  0.
        5    1    3    3  502    0  0.27785595863E+03  0.25363404727E+03  0.20249981803E+04  0.20596538262E+04  0.46999998093E+01 0.  1.
       -5    1    3    3    0  502 -0.27785595863E+03 -0.25363404727E+03 -0.80891851011E+03  0.89213530907E+03  0.46999998093E+01 0. -1.
</event>
<event>
 5   0  0.2654625E-06  0.2726166E+04  0.7818609E-02  0.8326565E-01
       -3   -1    0    0    0  501  0.00000000000E+00  0.00000000000E+00  0.22845695587E+04  0.22845695609E+04  0.10100000352E+00 0. -1.
        3   -1    0    0  501    0  0.00000000000E+00  0.00000000000E+00 -0.81328007099E+03  0.81328007726E+03  0.10100000352E+00 0.  1.
    10030    2    1    2    0    0  0.00000000000E+00  0.00000000000E+00  0.14712894877E+04  0.30978496382E+04  0.27261657367E+04 0.  0.
        1    1    3    3  502    0  0.11957134617E+04  0.59402561204E+03  0.10476683157E+04  0.16971169700E+04  0.50400001928E-02 0. -1.
       -1    1    3    3    0  502 -0.11957134617E+04 -0.59402561204E+03  0.42362117194E+03  0.14007326681E+04  0.50400001928E-02 0.  1.
</event>
<event>
 5   0  0.3028601E-06  0.2696004E+04  0.7818609E-02  0.8336303E-01
        1   -1    0    0  501    0  0.00000000000E+00  0.00000000000E+00  0.12545648296E+04  0.12545648296E+04  0.50400001928E-02 0.  1.
       -1   -1    0    0    0  501  0.00000000000E+00  0.00000000000E+00 -0.14483979943E+04  0.14483979943E+04  0.50400001928E-02 0. -1.
    10030    2    1    2    0    0  0.00000000000E+00  0.00000000000E+00 -0.19383316473E+03  0.27029628239E+04  0.26960038449E+04 0.  0.
        3    1    3    3  502    0 -0.64009891260E+03 -0.49919854526E+03 -0.11758837440E+04  0.14288556243E+04  0.10100000352E+00 0. -1.
       -3    1    3    3    0  502  0.64009891260E+03  0.49919854526E+03  0.98205057931E+03  0.12741071996E+04  0.10100000352E+00 0.  1.
</event>
<event>
 5   0  0.7812908E-06  0.2726750E+04  0.7818609E-02  0.8326378E-01
       -2   -1    0    0    0  501  0.00000000000E+00  0.00000000000E+00  0.10813952107E+04  0.10813952107E+04  0.25500000920E-02 0.  1.
        2   -1    0    0  501    0  0.00000000000E+00  0.00000000000E+00 -0.17188821051E+04  0.17188821051E+04  0.25500000920E-02 0. -1.
    10030    2    1    2    0    0  0.00000000000E+00  0.00000000000E+00 -0.63748689443E+03  0.28002773158E+04  0.27267496227E+04 0.  0.
        5    1    3    3  502    0 -0.30846215692E+02  0.10410209152E+04  0.58480674151E+03  0.11944442431E+04  0.46999998093E+01 0.  1.
       -5    1    3    3    0  502  0.30846215692E+02 -0.10410209152E+04 -0.12222936359E+04  0.16058330727E+04  0.46999998093E+01 0. -1.
</event>
<event>
 5   0  0.2654625E-06  0.2665521E+04  0.7818609E-02  0.8346280E-01
        3   -1    0    0  501    0  0.00000000000E+00  0.00000000000E+00  0.11987554718E+04  0.11987554760E+04  0.10100000352E+00 0. -1.
       -3   -1    0    0    0  501  0.00000000000E+00  0.00000000000E+00 -0.14817452851E+04  0.14817452886E+04  0.10100000352E+00 0.  1.
    10030    2    1    2    0    0  0.00000000000E+00  0.00000000000E+00 -0.28298981338E+03  0.26805007646E+04  0.26655207961E+04 0.  0.
        1    1    3    3  502    0  0.82712106215E+03  0.71416274082E+03 -0.90873254863E+03  0.14212503357E+04  0.50400001928E-02 0. -1.
       -1    1    3    3    0  502 -0.82712106215E+03 -0.71416274082E+03  0.62574273524E+03  0.12592504289E+04  0.50400001928E-02 0.  1.
</event>
<event>
 5   0  0.7812908E-06  0.2674053E+04  0.7818609E-02  0.8343473E-01
       -2   -1    0    0    0  501  0.00000000000E+00  0.00000000000E+00  0.14739836516E+04  0.14739836516E+04  0.25500000920E-02 0.  1.
        2   -1    0    0  501    0  0.00000000000E+00  0.00000000000E+00 -0.12127950790E+04  0.12127950790E+04  0.25500000920E-02 0. -1.
    10030    2    1    2    0    0  0.00000000000E+00  0.00000000000E+00  0.26118857262E+03  0.26867787306E+04  0.26740531926E+04 0.  0.
        5    1    3    3  502    0 -0.34965232950E+01 -0.10756983475E+04 -0.66721139970E+03  0.12658326518E+04  0.46999998093E+01 0. -1.
       -5    1    3    3    0  502  0.34965232950E+01  0.10756983475E+04  0.92839997232E+03  0.14209460789E+04  0.46999998093E+01 0.  1.
</event>
<event>
 5   0  0.3199840E-06  0.2706263E+04  0.7818609E-02  0.8332976E-01
        1   -1    0    0  501    0  0.00000000000E+00  0.00000000000E+00  0.30133172181E+04  0.30133172181E+04  0.50400001928E-02 0.  1.
       -1   -1    0    0    0  501  0.00000000000E+00  0.00000000000E+00 -0.60762434105E+03  0.60762434107E+03  0.50400001928E-02 0. -1.
    10030    2    1    2    0    0  0.00000000000E+00  0.00000000000E+00  0.24056928770E+04  0.36209415591E+04  0.27062630242E+04 0.  0.
        1    1    3    3  502    0 -0.60269090428E+03  0.25610873325E+03  0.27871803496E+04  0.28630756732E+04  0.50400001928E-02 0.  1.
       -1    1    3    3    0  502  0.60269090428E+03 -0.25610873325E+03 -0.38148747256E+03  0.75786588596E+03  0.50400001928E-02 0. -1.
</event>
<event>
 5   0  0.3089218E-06  0.2690983E+04  0.7818609E-02  0.8337937E-01
       -1   -1    0    0    0  501  0.00000000000E+00  0.00000000000E+00  0.14391844413E+04  0.14391844413E+04  0.50400001928E-02 0.  1.
        1   -1    0    0  501    0  0.00000000000E+00  0.00000000000E+00 -0.12578976546E+04  0.12578976546E+04  0.50400001928E-02 0. -1.
    10030    2    1    2    0    0  0.00000000000E+00  0.00000000000E+00  0.18128678671E+03  0.26970820960E+04  0.26909825219E+04 0.  0.
        5    1    3    3  502    0 -0.14023512700E+03  0.11787600698E+04  0.72546952216E+03  0.13912114543E+04  0.46999998093E+01 0.  1.
       -5    1    3    3    0  502  0.14023512700E+03 -0.11787600698E+04 -0.54418273545E+03  0.13058706416E+04  0.46999998093E+01 0. -1.
</event>
<event>
 5   0  0.8213334E-06  0.2694437E+04  0.7818609E-02  0.8336812E-01
        2   -1    0    0  501    0  0.00000000000E+00  0.00000000000E+00  0.22827089033E+04  0.22827089033E+04  0.25500000920E-02 0. -1.
       -2   -1    0    0    0  501  0.00000000000E+00  0.00000000000E+00 -0.79510667992E+03  0.79510667992E+03  0.25500000920E-02 0.  1.
    10030    2    1    2    0    0  0.00000000000E+00  0.00000000000E+00  0.14876022234E+04  0.30778155833E+04  0.26944365625E+04 0.  0.
        3    1    3    3  502    0  0.40959847546E+03  0.11686137613E+04  0.13499318657E+04  0.18318692875E+04  0.10100000352E+00 0. -1.
       -3    1    3    3    0  502 -0.40959847546E+03 -0.11686137613E+04  0.13767035773E+03  0.12459462958E+04  0.10100000352E+00 0.  1.
</event>
<event>
 5   0  0.7812908E-06  0.2729346E+04  0.7818609E-02  0.8325545E-01
        2   -1    0    0  501    0  0.00000000000E+00  0.00000000000E+00  0.96132204264E+03  0.96132204264E+03  0.25500000920E-02 0. -1.
       -2   -1    0    0    0  501  0.00000000000E+00  0.00000000000E+00 -0.19372624225E+04  0.19372624225E+04  0.25500000920E-02 0.  1.
    10030    2    1    2    0    0  0.00000000000E+00  0.00000000000E+00 -0.97594037988E+03  0.28985844652E+04  0.27293464926E+04 0.  0.
        5    1    3    3  502    0  0.93129014548E+03  0.15836173860E+03  0.55794808849E+03  0.10971362426E+04  0.46999998093E+01 0. -1.
       -5    1    3    3    0  502 -0.93129014548E+03 -0.15836173860E+03 -0.15338884684E+04  0.18014482226E+04  0.46999998093E+01 0.  1.
</event>
<event>
 5   0  0.2654625E-06  0.2709726E+04  0.7818609E-02  0.8331856E-01
        3   -1    0    0  501    0  0.00000000000E+00  0.00000000000E+00  0.16935203248E+04  0.16935203278E+04  0.10100000352E+00 0.  1.
       -3   -1    0    0    0  501  0.00000000000E+00  0.00000000000E+00 -0.10839274736E+04  0.10839274783E+04  0.10100000352E+00 0. -1.
    10030    2    1    2    0    0  0.00000000000E+00  0.00000000000E+00  0.60959285114E+03  0.27774478061E+04  0.27097256082E+04 0.  0.
        5    1    3    3  502    0  0.16415983988E+02  0.85716822406E+03 -0.77052954615E+03  0.11527118982E+04  0.46999998093E+01 0. -1.
       -5    1    3    3    0  502 -0.16415983988E+02 -0.85716822406E+03  0.13801223973E+04  0.16247359079E+04  0.46999998093E+01 0.  1.
</event>
<event>
 5   0  0.7729970E-06  0.2705365E+04  0.7818609E-02  0.8333266E-01
        2   -1    0    0  501    0  0.00000000000E+00  0.00000000000E+00  0.28545106302E+04  0.28545106302E+04  0.25500000920E-02 0. -1.
       -2   -1    0    0    0  501  0.00000000000E+00  0.00000000000E+00 -0.64100319040E+03  0.64100319040E+03  0.25500000920E-02 0.  1.
    10030    2    1    2    0    0  0.00000000000E+00  0.00000000000E+00  0.22135074398E+04  0.34955138206E+04  0.27053653513E+04 0.  0.
        4    1    3    3  502    0  0.57466351545E+03 -0.10996131507E+04  0.41052061618E+03  0.13068726129E+04  0.12699999809E+01 0.  1.
       -4    1    3    3    0  502 -0.57466351545E+03  0.10996131507E+04  0.18029868236E+04  0.21886412077E+04  0.12699999809E+01 0. -1.
</event>
<event>
 5   0  0.3028601E-06  0.2571968E+04  0.7818609E-02  0.8377786E-01
       -1   -1    0    0    0  501  0.00000000000E+00  0.00000000000E+00  0.77340760949E+03  0.77340760950E+03  0.50400001928E-02 0.  1.
        1   -1    0    0  501    0  0.00000000000E+00  0.00000000000E+00 -0.21382710722E+04  0.21382710722E+04  0.50400001928E-02 0. -1.
    10030    2    1    2    0    0  0.00000000000E+00  0.00000000000E+00 -0.13648634627E+04  0.29116786817E+04  0.25719682101E+04 0.  0.
        3    1    3    3  502    0  0.12028832538E+04 -0.88162020864E+02 -0.11875159385E+04  0.16926000055E+04  0.10100000352E+00 0. -1.
       -3    1    3    3    0  502 -0.12028832538E+04  0.88162020864E+02 -0.17734752427E+03  0.12190786762E+04  0.10100000352E+00 0.  1.
</event>
<event>
 5   0  0.3013407E-06  0.2693898E+04  0.7818609E-02  0.8336988E-01
        1   -1    0    0  501    0  0.00000000000E+00  0.00000000000E+00  0.15193952846E+04  0.15193952846E+04  0.50400001928E-02 0.  1.
       -1   -1    0    0    0  501  0.00000000000E+00  0.00000000000E+00 -0.11940745493E+04  0.11940745493E+04  0.50400001928E-02 0. -1.
    10030    2    1    2    0    0  0.00000000000E+00  0.00000000000E+00  0.32532073528E+03  0.27134698339E+04  0.26938977261E+04 0.  0.
        4    1    3    3  502    0 -0.40982392575E+03 -0.94761537162E+03  0.10340113159E+04  0.14612020931E+04  0.12699999809E+01 0.  1.
       -4    1    3    3    0  502  0.40982392575E+03  0.94761537162E+03 -0.70869058062E+03  0.12522677408E+04  0.12699999809E+01 0. -1.
</event>
<event>
 5   0  0.3013407E-06  0.2695275E+04  0.7818609E-02  0.8336540E-01
        1   -1    0    0  501    0  0.00000000000E+00  0.00000000000E+00  0.14938717091E+04  0.14938717091E+04  0.50400001928E-02 0.  1.
       -1   -1    0    0    0  501  0.00000000000E+00  0.00000000000E+00 -0.12157178910E+04  0.12157178910E+04  0.50400001928E-02 0. -1.
    10030    2    1    2    0    0  0.00000000000E+00  0.00000000000E+00  0.27815381805E+03  0.27095896001E+04  0.26952748013E+04 0.  0.
        4    1    3    3  502    0 -0.16099927928E+03  0.93441561565E+03 -0.82364775333E+03  0.12559659809E+04  0.12699999809E+01 0. -1.
       -4    1    3    3    0  502  0.16099927928E+03 -0.93441561565E+03  0.11018015714E+04  0.14536236192E+04  0.12699999809E+01 0.  1.
</event>
<event>
 5   0  0.3013407E-06  0.2706526E+04  0.7818609E-02  0.8332891E-01
       -1   -1    0    0    0  501  0.00000000000E+00  0.00000000000E+00  0.20208458808E+04  0.20208458808E+04  0.50400001928E-02 0.  1.
        1   -1    0    0  501    0  0.00000000000E+00  0.00000000000E+00 -0.90621479848E+03  0.90621479850E+03  0.50400001928E-02 0. -1.
    10030    2    1    2    0    0  0.00000000000E+00  0.00000000000E+00  0.11146310823E+04  0.29270606793E+04  0.27065257750E+04 0.  0.
        4    1    3    3  502    0 -0.12066350875E+04 -0.59984408084E+03  0.69212257801E+03  0.15148651529E+04  0.12699999809E+01 0.  1.
       -4    1    3    3    0  502  0.12066350875E+04  0.59984408084E+03  0.42250850426E+03  0.14121955264E+04  0.12699999809E+01 0. -1.
</event>
<event>
 5   0  0.3199840E-06  0.2677109E+04  0.7818609E-02  0.8342471E-01
       -1   -1    0    0    0  501  0.00000000000E+00  0.00000000000E+00  0.10589100025E+04  0.10589100025E+04  0.50400001928E-02 0.  1.
        1   -1    0    0  501    0  0.00000000000E+00  0.00000000000E+00 -0.16920500344E+04  0.16920500344E+04  0.50400001928E-02 0. -1.
    10030    2    1    2    0    0  0.00000000000E+00  0.00000000000E+00 -0.63314003190E+03  0.27509600370E+04  0.26771094159E+04 0.  0.
        1    1    3    3  502    0 -0.61500807308E+03 -0.18788388678E+03 -0.15229197871E+04  0.16531243035E+04  0.50400001928E-02 0. -1.
       -1    1    3    3    0  502  0.61500807308E+03  0.18788388678E+03  0.88977975520E+03  0.10978357335E+04  0.50400001928E-02 0.  1.
</event>
<event>
 5   0  0.3089218E-06  0.2688541E+04  0.7818609E-02  0.8338733E-01
        1   -1    0    0  501    0  0.00000000000E+00  0.00000000000E+00  0.15900952140E+04  0.15900952141E+04  0.50400001928E-02 0.  1.
       -1   -1    0    0    0  501  0.00000000000E+00  0.00000000000E+00 -0.11364498190E+04  0.11364498190E+04  0.50400001928E-02 0. -1.
    10030    2    1    2    0    0  0.00000000000E+00  0.00000000000E+00  0.45364539504E+03  0.27265450331E+04  0.26885411793E+04 0.  0.
        5    1    3    3  502    0  0.39361104966E+03  0.11168291987E+03 -0.10717613056E+04  0.11472127611E+04  0.46999998093E+01 0. -1.
       -5    1    3    3    0  502 -0.39361104966E+03 -0.11168291987E+03  0.15254067006E+04  0.15793322720E+04  0.46999998093E+01 0.  1.
</event>
<event>
 5   0  0.7729970E-06  0.2688017E+04  0.7818609E-02  0.8338903E-01
       -2   -1    0    0    0  501  0.00000000000E+00  0.00000000000E+00  0.65459449204E+03  0.65459449204E+03  0.25500000920E-02 0.  1.
        2   -1    0    0  501    0  0.00000000000E+00  0.00000000000E+00 -0.27595083733E+04  0.27595083733E+04  0.25500000920E-02 0. -1.
    10030    2    1    2    0    0  0.00000000000E+00  0.00000000000E+00 -0.21049138813E+04  0.34141028654E+04  0.26880170996E+04 0.  0.
        4    1    3    3  502    0  0.86266934135E+03  0.50131958898E+03 -0.21961553763E+04  0.24121815381E+04  0.12699999809E+01 0. -1.
       -4    1    3    3    0  502 -0.86266934135E+03 -0.50131958898E+03  0.91241495025E+02  0.10019213273E+04  0.12699999809E+01 0.  1.
</event>
<event>
 5   0  0.3089218E-06  0.2718903E+04  0.7818609E-02  0.8328898E-01
       -1   -1    0    0    0  501  0.00000000000E+00  0.00000000000E+00  0.78155325651E+03  0.78155325653E+03  0.50400001928E-02 0. -1.
        1   -1    0    0  501    0  0.00000000000E+00  0.00000000000E+00 -0.23646605453E+04  0.23646605454E+04  0.50400001928E-02 0.  1.
    10030    2    1    2    0    0  0.00000000000E+00  0.00000000000E+00 -0.15831072888E+04  0.31462138019E+04  0.27189028300E+04 0.  0.
        5    1    3    3  502    0  0.42160557765E+02  0.13326045769E+04 -0.10987441150E+04  0.17276785555E+04  0.46999998093E+01 0.  1.
       -5    1    3    3    0  502 -0.42160557765E+02 -0.13326045769E+04 -0.48436317387E+03  0.14185352464E+04  0.46999998093E+01 0. -1.
</event>
<event>
 5   0  0.7729970E-06  0.2701483E+04  0.7818609E-02  0.8334524E-01
        2   -1    0    0  501    0  0.00000000000E+00  0.00000000000E+00  0.18391700854E+04  0.18391700854E+04  0.25500000920E-02 0. -1.
       -2   -1    0    0    0  501  0.00000000000E+00  0.00000000000E+00 -0.99202488652E+03  0.99202488652E+03  0.25500000920E-02 0.  1.
    10030    2    1    2    0    0  0.00000000000E+00  0.00000000000E+00  0.84714519884E+03  0.28311949719E+04  0.27014829226E+04 0.  0.
        4    1    3    3  502    0  0.13872059180E+03  0.11322318073E+03 -0.97953062283E+03  0.99576339821E+03  0.12699999809E+01 0.  1.
       -4    1    3    3    0  502 -0.13872059180E+03 -0.11322318073E+03  0.18266758217E+04  0.18354315737E+04  0.12699999809E+01 0. -1.
</event>
<event>
 5   0  0.3199840E-06  0.2875524E+04  0.7818609E-02  0.8280197E-01
        1   -1    0    0  501    0  0.00000000000E+00  0.00000000000E+00  0.22654224340E+04  0.22654224340E+04  0.50400001928E-02 0.  1.
       -1   -1    0    0    0  501  0.00000000000E+00  0.00000000000E+00 -0.91248305703E+03  0.91248305704E+03  0.50400001928E-02 0. -1.
    10030    2    1    2    0    0  0.00000000000E+00  0.00000000000E+00  0.13529393770E+04  0.31779054911E+04  0.28755240135E+04 0.  0.
        1    1    3    3  502    0  0.54620746167E+03 -0.85211113839E+03 -0.45204854709E+03  0.11085052423E+04  0.50400001928E-02 0. -1.
       -1    1    3    3    0  502 -0.54620746167E+03  0.85211113839E+03  0.18049879241E+04  0.20694002487E+04  0.50400001928E-02 0.  1.
</event>
<event>
 5   0  0.8407622E-06  0.2659309E+04  0.7818609E-02  0.8348330E-01
       -2   -1    0    0    0  501  0.00000000000E+00  0.00000000000E+00  0.87767137449E+03  0.87767137449E+03  0.25500000920E-02 0. -1.
        2   -1    0    0  501    0  0.00000000000E+00  0.00000000000E+00 -0.20143997738E+04  0.20143997738E+04  0.25500000920E-02 0.  1.
    10030    2    1    2    0    0  0.00000000000E+00  0.00000000000E+00 -0.11367283993E+04  0.28920711483E+04  0.26593089465E+04 0.  0.
        1    1    3    3  502    0 -0.59775105346E+03 -0.11725225979E+04 -0.77432204677E+03  0.15269872942E+04  0.50400001928E-02 0. -1.
       -1    1    3    3    0  502  0.59775105346E+03  0.11725225979E+04 -0.36240635254E+03  0.13650838541E+04  0.50400001928E-02 0.  1.
</event>
<event>
 5   0  0.3028601E-06  0.2695443E+04  0.7818609E-02  0.8336485E-01
        1   -1    0    0  501    0  0.00000000000E+00  0.00000000000E+00  0.21524842069E+04  0.21524842069E+04  0.50400001928E-02 0. -1.
       -1   -1    0    0    0  501  0.00000000000E+00  0.00000000000E+00 -0.84384023837E+03  0.84384023838E+03  0.50400001928E-02 0.  1.
    10030    2    1    2    0    0  0.00000000000E+00  0.00000000000E+00  0.13086439685E+04  0.29963244453E+04  0.26954426621E+04 0.  0.
        3    1    3    3  502    0 -0.75659533332E+03 -0.11116325025E+04  0.55372469214E+03  0.14542263799E+04  0.10100000352E+00 0. -1.
       -3    1    3    3    0  502  0.75659533332E+03  0.11116325025E+04  0.75491927636E+03  0.15420980653E+04  0.10100000352E+00 0.  1.
</event>
<event>
 5   0  0.7838364E-06  0.2691668E+04  0.7818609E-02  0.8337714E-01
       -2   -1    0    0    0  501  0.00000000000E+00  0.00000000000E+00  0.15436425946E+04  0.15436425946E+04  0.25500000920E-02 0.  1.
        2   -1    0    0  501    0  0.00000000000E+00  0.00000000000E+00 -0.11733732660E+04  0.11733732660E+04  0.25500000920E-02 0. -1.
    10030    2    1    2    0    0  0.00000000000E+00  0.00000000000E+00  0.37026932858E+03  0.27170158607E+04  0.26916678494E+04 0.  0.
        2    1    3    3  502    0  0.72693209729E+03  0.76392801947E+03 -0.65895342101E+03  0.12434773436E+04  0.25500000920E-02 0. -1.
       -2    1    3    3    0  502 -0.72693209729E+03 -0.76392801947E+03  0.10292227496E+04  0.14735385171E+04  0.25500000920E-02 0.  1.
</event>
<event>
 5   0  0.3199840E-06  0.2695927E+04  0.7818609E-02  0.8336328E-01
       -1   -1    0    0    0  501  0.00000000000E+00  0.00000000000E+00  0.11537043258E+04  0.11537043258E+04  0.50400001928E-02 0.  1.
        1   -1    0    0  501    0  0.00000000000E+00  0.00000000000E+00 -0.15749317086E+04  0.15749317087E+04  0.50400001928E-02 0. -1.
    10030    2    1    2    0    0  0.00000000000E+00  0.00000000000E+00 -0.42122738284E+03  0.27286360345E+04  0.26959269464E+04 0.  0.
        1    1    3    3  502    0  0.81364181284E+03  0.66199499217E+03  0.64627202459E+03  0.12320381078E+04  0.50400001928E-02 0.  1.
       -1    1    3    3    0  502 -0.81364181284E+03 -0.66199499217E+03 -0.10674994074E+04  0.14965979267E+04  0.50400001928E-02 0. -1.
</event>
<event>
 5   0  0.3028601E-06  0.2687765E+04  0.7818609E-02  0.8338986E-01
        1   -1    0    0  501    0  0.00000000000E+00  0.00000000000E+00  0.16993238318E+04  0.16993238318E+04  0.50400001928E-02 0. -1.
       -1   -1    0    0    0  501  0.00000000000E+00  0.00000000000E+00 -0.10627878487E+04  0.10627878488E+04  0.50400001928E-02 0.  1.
    10030    2    1    2    0    0  0.00000000000E+00  0.00000000000E+00  0.63653598303E+03  0.27621116805E+04  0.26877654061E+04 0.  0.
        3    1    3    3  502    0 -0.10867413746E+04  0.25420502623E+03  0.10875693444E+04  0.15583433831E+04  0.10100000352E+00 0. -1.
       -3    1    3    3    0  502  0.10867413746E+04 -0.25420502623E+03 -0.45103336135E+03  0.12037682974E+04  0.10100000352E+00 0.  1.
</event>
<event>
 5   0  0.3199840E-06  0.2660589E+04  0.7818609E-02  0.8347907E-01
        1   -1    0    0  501    0  0.00000000000E+00  0.00000000000E+00  0.18259018299E+04  0.18259018299E+04  0.50400001928E-02 0. -1.
       -1   -1    0    0    0  501  0.00000000000E+00  0.00000000000E+00 -0.96921051013E+03  0.96921051014E+03  0.50400001928E-02 0.  1.
    10030    2    1    2    0    0  0.00000000000E+00  0.00000000000E+00  0.85669131978E+03  0.27951123401E+04  0.26605888401E+04 0.  0.
        1    1    3    3  502    0 -0.51495598771E+03  0.98819066573E+03 -0.33501782677E+03  0.11635881597E+04  0.50400001928E-02 0.  1.
       -1    1    3    3    0  502  0.51495598771E+03 -0.98819066573E+03  0.11917091465E+04  0.16315241804E+04  0.50400001928E-02 0. -1.
</event>
<event>
 5   0  0.7812908E-06  0.2706975E+04  0.7818609E-02  0.8332745E-01
        2   -1    0    0  501    0  0.00000000000E+00  0.00000000000E+00  0.17506842055E+04  0.17506842055E+04  0.25500000920E-02 0. -1.
       -2   -1    0    0    0  501  0.00000000000E+00  0.00000000000E+00 -0.10464072797E+04  0.10464072797E+04  0.25500000920E-02 0.  1.
    10030    2    1    2    0    0  0.00000000000E+00  0.00000000000E+00  0.70427692579E+03  0.27970914852E+04  0.27069752102E+04 0.  0.
        5    1    3    3  502    0  0.68685593279E+03  0.36613897821E+03  0.14962843509E+04  0.16866291152E+04  0.46999998093E+01 0. -1.
       -5    1    3    3    0  502 -0.68685593279E+03 -0.36613897821E+03 -0.79200742506E+03  0.11104623700E+04  0.46999998093E+01 0.  1.
</event>
<event>
 5   0  0.8213334E-06  0.2711943E+04  0.7818609E-02  0.8331140E-01
        2   -1    0    0  501    0  0.00000000000E+00  0.00000000000E+00  0.90876019493E+03  0.90876019494E+03  0.25500000920E-02 0. -1.
       -2   -1    0    0    0  501  0.00000000000E+00  0.00000000000E+00 -0.20232611723E+04  0.20232611723E+04  0.25500000920E-02 0.  1.
    10030    2    1    2    0    0  0.00000000000E+00  0.00000000000E+00 -0.11145009774E+04  0.29320213672E+04  0.27119433750E+04 0.  0.
        3    1    3    3  502    0  0.16747558906E+03 -0.11330173412E+04  0.22752158525E+03  0.11677082043E+04  0.10100000352E+00 0. -1.
       -3    1    3    3    0  502 -0.16747558906E+03  0.11330173412E+04 -0.13420225626E+04  0.17643131630E+04  0.10100000352E+00 0.  1.
</event>
<event>
 5   0  0.8407622E-06  0.2700247E+04  0.7818609E-02  0.8334925E-01
        2   -1    0    0  501    0  0.00000000000E+00  0.00000000000E+00  0.16143741411E+04  0.16143741411E+04  0.25500000920E-02 0.  1.
       -2   -1    0    0    0  501  0.00000000000E+00  0.00000000000E+00 -0.11291271810E+04  0.11291271810E+04  0.25500000920E-02 0. -1.
    10030    2    1    2    0    0  0.00000000000E+00  0.00000000000E+00  0.48524696010E+03  0.27435013220E+04  0.27002471908E+04 0.  0.
        1    1    3    3  502    0 -0.98350721543E+03 -0.39891725970E+03  0.10905044098E+04  0.15217165606E+04  0.50400001928E-02 0.  1.
       -1    1    3    3    0  502  0.98350721543E+03  0.39891725970E+03 -0.60525744970E+03  0.12217847615E+04  0.50400001928E-02 0. -1.
</event>
<event>
 5   0  0.3046300E-06  0.2406571E+04  0.7818609E-02  0.8437048E-01
        1   -1    0    0  501    0  0.00000000000E+00  0.00000000000E+00  0.11089206865E+04  0.11089206866E+04  0.50400001928E-02 0.  1.
       -1   -1    0    0    0  501  0.00000000000E+00  0.00000000000E+00 -0.13056798687E+04  0.13056798687E+04  0.50400001928E-02 0. -1.
    10030    2    1    2    0    0  0.00000000000E+00  0.00000000000E+00 -0.19675918215E+03  0.24146005553E+04  0.24065705196E+04 0.  0.
        2    1    3    3  502    0 -0.14922699528E+03 -0.99540882681E+03  0.56320513838E+03  0.11533895511E+04  0.25500000920E-02 0.  1.
       -2    1    3    3    0  502  0.14922699528E+03  0.99540882681E+03 -0.75996432053E+03  0.12612110042E+04  0.25500000920E-02 0. -1.
</event>
<event>
 5   0  0.3199840E-06  0.2685603E+04  0.7818609E-02  0.8339692E-01
       -1   -1    0    0    0  501  0.00000000000E+00  0.00000000000E+00  0.79586342504E+03  0.79586342506E+03  0.50400001928E-02 0. -1.
        1   -1    0    0  501    0  0.00000000000E+00  0.00000000000E+00 -0.22656089621E+04  0.22656089621E+04  0.50400001928E-02 0.  1.
    10030    2    1    2    0    0  0.00000000000E+00  0.00000000000E+00 -0.14697455370E+04  0.30614723871E+04  0.26856025829E+04 0.  0.
        1    1    3    3  502    0  0.84004788270E+03 -0.83045646948E+03 -0.14628200340E+04  0.18802076600E+04  0.50400001928E-02 0.  1.
       -1    1    3    3    0  502 -0.84004788270E+03  0.83045646948E+03 -0.69255030525E+01  0.11812647271E+04  0.50400001928E-02 0. -1.
</event>
<event>
 5   0  0.7812908E-06  0.2704472E+04  0.7818609E-02  0.8333555E-01
        2   -1    0    0  501    0  0.00000000000E+00  0.00000000000E+00  0.12994077998E+04  0.12994077998E+04  0.25500000920E-02 0. -1.
       -2   -1    0    0    0  501  0.00000000000E+00  0.00000000000E+00 -0.14072124096E+04  0.14072124096E+04  0.25500000920E-02 0.  1.
    10030    2    1    2    0    0  0.00000000000E+00  0.00000000000E+00 -0.10780460977E+03  0.27066202094E+04  0.27044724299E+04 0.  0.
        5    1    3    3  502    0  0.16283980479E+03  0.68085069733E+03  0.11039288304E+04  0.13071937219E+04  0.46999998093E+01 0. -1.
       -5    1    3    3    0  502 -0.16283980479E+03 -0.68085069733E+03 -0.12117334401E+04  0.13994264875E+04  0.46999998093E+01 0.  1.
</event>
<event>
 5   0  0.3089218E-06  0.2724100E+04  0.7818609E-02  0.8327227E-01
        1   -1    0    0  501    0  0.00000000000E+00  0.00000000000E+00  0.16276461861E+04  0.16276461861E+04  0.50400001928E-02 0.  1.
       -1   -1    0    0    0  501  0.00000000000E+00  0.00000000000E+00 -0.11397932633E+04  0.11397932633E+04  0.50400001928E-02 0. -1.
    10030    2    1    2    0    0  0.00000000000E+00  0.00000000000E+00  0.48785292273E+03  0.27674394494E+04  0.27240999673E+04 0.  0.
        5    1    3    3  502    0 -0.11468493170E+04  0.71814832863E+03  0.86026221646E+02  0.13558845743E+04  0.46999998093E+01 0. -1.
       -5    1    3    3    0  502  0.11468493170E+04 -0.71814832863E+03  0.40182670109E+03  0.14115548752E+04  0.46999998093E+01 0.  1.
</event>
<event>
 5   0  0.3013407E-06  0.2735359E+04  0.7818609E-02  0.8323622E-01
       -1   -1    0    0    0  501  0.00000000000E+00  0.00000000000E+00  0.10555298124E+04  0.10555298124E+04  0.50400001928E-02 0.  1.
        1   -1    0    0  501    0  0.00000000000E+00  0.00000000000E+00 -0.17721409142E+04  0.17721409142E+04  0.50400001928E-02 0. -1.
    10030    2    1    2    0    0  0.00000000000E+00  0.00000000000E+00 -0.71661110181E+03  0.28276707266E+04  0.27353592574E+04 0.  0.
        4    1    3    3  502    0 -0.11680795317E+04  0.64120714709E+03 -0.39700694995E+02  0.13330919533E+04  0.12699999809E+01 0.  1.
       -4    1    3    3    0  502  0.11680795317E+04 -0.64120714709E+03 -0.67691040681E+03  0.14945787733E+04  0.12699999809E+01 0. -1.
</event>
<event>
 5   0  0.7812908E-06  0.2686410E+04  0.7818609E-02  0.8339428E-01
        2   -1    0    0  501    0  0.00000000000E+00  0.00000000000E+00  0.15069458412E+04  0.15069458412E+04  0.25500000920E-02 0. -1.
       -2   -1    0    0    0  501  0.00000000000E+00  0.00000000000E+00 -0.11972558407E+04  0.11972558407E+04  0.25500000920E-02 0.  1.
    10030    2    1    2    0    0  0.00000000000E+00  0.00000000000E+00  0.30969000044E+03  0.27042016819E+04  0.26864100283E+04 0.  0.
        5    1    3    3  502    0  0.11647717991E+04 -0.25306020093E+03  0.77817526081E+03  0.14234857343E+04  0.46999998093E+01 0. -1.
       -5    1    3    3    0  502 -0.11647717991E+04  0.25306020093E+03 -0.46848526037E+03  0.12807159476E+04  0.46999998093E+01 0.  1.
</event>
<event>
 5   0  0.2654625E-06  0.2706663E+04  0.7818609E-02  0.8332846E-01
       -3   -1    0    0    0  501  0.00000000000E+00  0.00000000000E+00  0.98050576808E+03  0.98050577328E+03  0.10100000352E+00 0. -1.
        3   -1    0    0  501    0  0.00000000000E+00  0.00000000000E+00 -0.18679202638E+04  0.18679202666E+04  0.10100000352E+00 0.  1.
    10030    2    1    2    0    0  0.00000000000E+00  0.00000000000E+00 -0.88741449577E+03  0.28484260399E+04  0.27066633365E+04 0.  0.
        4    1    3    3  502    0 -0.16532179225E+03  0.56214546439E+03 -0.17275044400E+04  0.18241743396E+04  0.12699999809E+01 0.  1.
       -4    1    3    3    0  502  0.16532179225E+03 -0.56214546439E+03  0.84008994425E+03  0.10242517002E+04  0.12699999809E+01 0. -1.
</event>
<event>
 5   0  0.7812908E-06  0.2655976E+04  0.7818609E-02  0.8349432E-01
        2   -1    0    0  501    0  0.00000000000E+00  0.00000000000E+00  0.18357141237E+04  0.18357141237E+04  0.25500000920E-02 0.  1.
       -2   -1    0    0    0  501  0.00000000000E+00  0.00000000000E+00 -0.96069009087E+03  0.96069009087E+03  0.25500000920E-02 0. -1.
    10030    2    1    2    0    0  0.00000000000E+00  0.00000000000E+00  0.87502403280E+03  0.27964042145E+04  0.26559761808E+04 0.  0.
        5    1    3    3  502    0  0.11029889243E+04  0.33961488262E+03  0.11292159328E+04  0.16146434741E+04  0.46999998093E+01 0. -1.
       -5    1    3    3    0  502 -0.11029889243E+04 -0.33961488262E+03 -0.25419189996E+03  0.11817607404E+04  0.46999998093E+01 0.  1.
</event>
<event>
 5   0  0.7729970E-06  0.2709480E+04  0.7818609E-02  0.8331935E-01
       -2   -1    0    0    0  501  0.00000000000E+00  0.00000000000E+00  0.10844647505E+04  0.10844647505E+04  0.25500000920E-02 0.  1.
        2   -1    0    0  501    0  0.00000000000E+00  0.00000000000E+00 -0.16923749782E+04  0.16923749782E+04  0.25500000920E-02 0. -1.
    10030    2    1    2    0    0  0.00000000000E+00  0.00000000000E+00 -0.60791022768E+03  0.27768397287E+04  0.27094803993E+04 0.  0.
        4    1    3    3  502    0 -0.14577664588E+03 -0.12993018062E+04 -0.66757615076E+03  0.14680243677E+04  0.12699999809E+01 0. -1.
       -4    1    3    3    0  502  0.14577664588E+03  0.12993018062E+04  0.59665923088E+02  0.13088153611E+04  0.12699999809E+01 0.  1.
</event>
<event>
 5   0  0.8407622E-06  0.2669453E+04  0.7818609E-02  0.8344985E-01
       -2   -1    0    0    0  501  0.00000000000E+00  0.00000000000E+00  0.65944536374E+03  0.65944536374E+03  0.25500000920E-02 0. -1.
        2   -1    0    0  501    0  0.00000000000E+00  0.00000000000E+00 -0.27015047241E+04  0.27015047241E+04  0.25500000920E-02 0.  1.
    10030    2    1    2    0    0  0.00000000000E+00  0.00000000000E+00 -0.20420593603E+04  0.33609500878E+04  0.26694529518E+04 0.  0.
        1    1    3    3  502    0 -0.97740072255E+03  0.90894277836E+03 -0.10180453026E+04  0.16786617840E+04  0.50400001928E-02 0.  1.
       -1    1    3    3    0  502  0.97740072255E+03 -0.90894277836E+03 -0.10240140577E+04  0.16822883038E+04  0.50400001928E-02 0. -1.
</event>
<event>
 5   0  0.8407622E-06  0.2683508E+04  0.7818609E-02  0.8340376E-01
        2   -1    0    0  501    0  0.00000000000E+00  0.00000000000E+00  0.10482162491E+04  0.10482162491E+04  0.25500000920E-02 0. -1.
       -2   -1    0    0    0  501  0.00000000000E+00  0.00000000000E+00 -0.17174921367E+04  0.17174921367E+04  0.25500000920E-02 0.  1.
    10030    2    1    2    0    0  0.00000000000E+00  0.00000000000E+00 -0.66927588758E+03  0.27657083858E+04  0.26835075296E+04 0.  0.
        1    1    3    3  502    0 -0.26078468422E+03  0.64142393402E+03 -0.15191338988E+04  0.16694912750E+04  0.50400001928E-02 0.  1.
       -1    1    3    3    0  502  0.26078468422E+03 -0.64142393402E+03  0.84985801125E+03  0.10962171108E+04  0.50400001928E-02 0. -1.
</event>
<event>
 5   0  0.3046300E-06  0.2669393E+04  0.7818609E-02  0.8345005E-01
       -1   -1    0    0    0  501  0.00000000000E+00  0.00000000000E+00  0.83451344429E+03  0.83451344430E+03  0.50400001928E-02 0. -1.
        1   -1    0    0  501    0  0.00000000000E+00  0.00000000000E+00 -0.21346740593E+04  0.21346740593E+04  0.50400001928E-02 0.  1.
    10030    2    1    2    0    0  0.00000000000E+00  0.00000000000E+00 -0.13001606150E+04  0.29691875036E+04  0.26693925913E+04 0.  0.
        2    1    3    3  502    0  0.92800675419E+03  0.85760744046E+03 -0.17201136481E+03  0.12752548637E+04  0.25500000920E-02 0. -1.
       -2    1    3    3    0  502 -0.92800675419E+03 -0.85760744046E+03 -0.11281492502E+04  0.16939326399E+04  0.25500000920E-02 0.  1.
</event>
<event>
 5   0  0.8407622E-06  0.2686990E+04  0.7818609E-02  0.8339239E-01
        2   -1    0    0  501    0  0.00000000000E+00  0.00000000000E+00  0.19464042451E+04  0.19464042451E+04  0.25500000920E-02 0. -1.
       -2   -1    0    0    0  501  0.00000000000E+00  0.00000000000E+00 -0.92734027254E+03  0.92734027254E+03  0.25500000920E-02 0.  1.
    10030    2    1    2    0    0  0.00000000000E+00  0.00000000000E+00  0.10190639726E+04  0.28737445176E+04  0.26869901698E+04 0.  0.
        1    1    3    3  502    0 -0.30036049330E+03  0.54215632669E+03 -0.76530015694E+03  0.98480162406E+03  0.50400001928E-02 0.  1.
       -1    1    3    3    0  502  0.30036049330E+03 -0.54215632669E+03  0.17843641295E+04  0.18889428936E+04  0.50400001928E-02 0. -1.
</event>
<event>
 5   0  0.3089218E-06  0.2703800E+04  0.7818609E-02  0.8333773E-01
       -1   -1    0    0    0  501  0.00000000000E+00  0.00000000000E+00  0.15409248332E+04  0.15409248332E+04  0.50400001928E-02 0. -1.
        1   -1    0    0  501    0  0.00000000000E+00  0.00000000000E+00 -0.11860631697E+04  0.11860631697E+04  0.50400001928E-02 0.  1.
    10030    2    1    2    0    0  0.00000000000E+00  0.00000000000E+00  0.35486166349E+03  0.27269880030E+04  0.27038004305E+04 0.  0.
        5    1    3    3  502    0 -0.47215441756E+03 -0.19193384900E+03  0.14403047031E+04  0.15278311831E+04  0.46999998093E+01 0. -1.
       -5    1    3    3    0  502  0.47215441756E+03  0.19193384900E+03 -0.10854430396E+04  0.11991568199E+04  0.46999998093E+01 0.  1.
</event>
<event>
 5   0  0.3028601E-06  0.2754696E+04  0.7818609E-02  0.8317473E-01
       -1   -1    0    0    0  501  0.00000000000E+00  0.00000000000E+00  0.14302499533E+04  0.14302499533E+04  0.50400001928E-02 0.  1.
        1   -1    0    0  501    0  0.00000000000E+00  0.00000000000E+00 -0.13264026713E+04  0.13264026713E+04  0.50400001928E-02 0. -1.
    10030    2    1    2    0    0  0.00000000000E+00  0.00000000000E+00  0.10384728203E+03  0.27566526246E+04  0.27546958879E+04 0.  0.
        3    1    3    3  502    0 -0.38654063965E+03  0.11761632146E+04 -0.55208920919E+03  0.13555722329E+04  0.10100000352E+00 0. -1.
       -3    1    3    3    0  502  0.38654063965E+03 -0.11761632146E+04  0.65593649121E+03  0.14010803918E+04  0.10100000352E+00 0.  1.
</event>
<event>
 5   0  0.7729970E-06  0.2669731E+04  0.7818609E-02  0.8344894E-01
       -2   -1    0    0    0  501  0.00000000000E+00  0.00000000000E+00  0.95444630749E+03  0.95444630749E+03  0.25500000920E-02 0.  1.
        2   -1    0    0  501    0  0.00000000000E+00  0.00000000000E+00 -0.18669101061E+04  0.18669101061E+04  0.25500000920E-02 0. -1.
    10030    2    1    2    0    0  0.00000000000E+00  0.00000000000E+00 -0.91246379862E+03  0.28213564136E+04  0.26697306660E+04 0.  0.
        4    1    3    3  502    0  0.82115131535E+03  0.47896913430E+03  0.53409380801E+03  0.10903938385E+04  0.12699999809E+01 0.  1.
       -4    1    3    3    0  502 -0.82115131535E+03 -0.47896913430E+03 -0.14465576066E+04  0.17309625751E+04  0.12699999809E+01 0. -1.
</event>
<event>
 5   0  0.3199840E-06  0.2697499E+04  0.7818609E-02  0.8335817E-01
       -1   -1    0    0    0  501  0.00000000000E+00  0.00000000000E+00  0.19470344089E+04  0.19470344089E+04  0.50400001928E-02 0.  1.
        1   -1    0    0  501    0  0.00000000000E+00  0.00000000000E+00 -0.93430570236E+03  0.93430570237E+03  0.50400001928E-02 0. -1.
    10030    2    1    2    0    0  0.00000000000E+00  0.00000000000E+00  0.10127287065E+04  0.28813401113E+04  0.26974991017E+04 0.  0.
        1    1    3    3  502    0  0.28517604870E+03  0.38117093180E+03  0.18543154059E+04  0.19144456855E+04  0.50400001928E-02 0.  1.
       -1    1    3    3    0  502 -0.28517604870E+03 -0.38117093180E+03 -0.84158669939E+03  0.96689442579E+03  0.50400001928E-02 0. -1.
</event>
<event>
 5   0  0.8213334E-06  0.2704232E+04  0.7818609E-02  0.8333633E-01
        2   -1    0    0  501    0  0.00000000000E+00  0.00000000000E+00  0.21570288840E+04  0.21570288840E+04  0.25500000920E-02 0. -1.
       -2   -1    0    0    0  501  0.00000000000E+00  0.00000000000E+00 -0.84756302836E+03  0.84756302837E+03  0.25500000920E-02 0.  1.
    10030    2    1    2    0    0  0.00000000000E+00  0.00000000000E+00  0.13094658557E+04  0.30045919124E+04  0.27042321892E+04 0.  0.
        3    1    3    3  502    0  0.11021454039E+04 -0.77415041338E+03  0.52240558546E+03  0.14446248509E+04  0.10100000352E+00 0.  1.
       -3    1    3    3    0  502 -0.11021454039E+04  0.77415041338E+03  0.78706027019E+03  0.15599670615E+04  0.10100000352E+00 0. -1.
</event>
<event>
 5   0  0.8213334E-06  0.2659261E+04  0.7818609E-02  0.8348346E-01
        2   -1    0    0  501    0  0.00000000000E+00  0.00000000000E+00  0.30107786912E+04  0.30107786912E+04  0.25500000920E-02 0. -1.
       -2   -1    0    0    0  501  0.00000000000E+00  0.00000000000E+00 -0.58719598037E+03  0.58719598037E+03  0.25500000920E-02 0.  1.
    10030    2    1    2    0    0  0.00000000000E+00  0.00000000000E+00  0.24235827108E+04  0.35979746715E+04  0.26592609088E+04 0.  0.
        3    1    3    3  502    0  0.11397803435E+04  0.43171279028E+03  0.49273692180E+03  0.13146348729E+04  0.10100000352E+00 0.  1.
       -3    1    3    3    0  502 -0.11397803435E+04 -0.43171279028E+03  0.19308457890E+04  0.22833397986E+04  0.10100000352E+00 0. -1.
</event>
<event>
 5   0  0.8213334E-06  0.2734213E+04  0.7818609E-02  0.8323989E-01
        2   -1    0    0  501    0  0.00000000000E+00  0.00000000000E+00  0.18032383473E+04  0.18032383473E+04  0.25500000920E-02 0.  1.
       -2   -1    0    0    0  501  0.00000000000E+00  0.00000000000E+00 -0.10364578716E+04  0.10364578716E+04  0.25500000920E-02 0. -1.
    10030    2    1    2    0    0  0.00000000000E+00  0.00000000000E+00  0.76678047572E+03  0.28396962189E+04  0.27342132904E+04 0.  0.
        3    1    3    3  502    0  0.11104223986E+04 -0.79562508733E+03  0.43954448303E+03  0.14350109915E+04  0.10100000352E+00 0. -1.
       -3    1    3    3    0  502 -0.11104223986E+04  0.79562508733E+03  0.32723599269E+03  0.14046852274E+04  0.10100000352E+00 0.  1.
</event>
<event>
 5   0  0.3046300E-06  0.2749808E+04  0.7818609E-02  0.8319023E-01
       -1   -1    0    0    0  501  0.00000000000E+00  0.00000000000E+00  0.82070497544E+03  0.82070497546E+03  0.50400001928E-02 0. -1.
        1   -1    0    0  501    0  0.00000000000E+00  0.00000000000E+00 -0.23033377105E+04  0.23033377105E+04  0.50400001928E-02 0.  1.
    10030    2    1    2    0    0  0.00000000000E+00  0.00000000000E+00 -0.14826327350E+04  0.31240426859E+04  0.27498077890E+04 0.  0.
        2    1    3    3  502    0  0.34444259020E+02 -0.21692658477E+03  0.80064412542E+03  0.83022561135E+03  0.25500000920E-02 0. -1.
       -2    1    3    3    0  502 -0.34444259020E+02  0.21692658477E+03 -0.22832768605E+04  0.22938170746E+04  0.25500000920E-02 0.  1.
</event>
<event>
 5   0  0.7812908E-06  0.2703776E+04  0.7818609E-02  0.8333781E-01
       -2   -1    0    0    0  501  0.00000000000E+00  0.00000000000E+00  0.23215044448E+04  0.23215044448E+04  0.25500000920E-02 0. -1.
        2   -1    0    0  501    0  0.00000000000E+00  0.00000000000E+00 -0.78724853976E+03  0.78724853976E+03  0.25500000920E-02 0.  1.
    10030    2    1    2    0    0  0.00000000000E+00  0.00000000000E+00  0.15342559050E+04  0.31087529846E+04  0.27037758666E+04 0.  0.
        5    1    3    3  502    0 -0.20550020559E+03  0.44180658078E+03  0.22170188604E+04  0.22699379081E+04  0.46999998093E+01 0. -1.
       -5    1    3    3    0  502  0.20550020559E+03 -0.44180658078E+03 -0.68276295534E+03  0.83881507647E+03  0.46999998093E+01 0.  1.
</event>
<event>
 5   0  0.7812908E-06  0.2714059E+04  0.7818609E-02  0.8330458E-01
        2   -1    0    0  501    0  0.00000000000E+00  0.00000000000E+00  0.24807294956E+04  0.24807294956E+04  0.25500000920E-02 0. -1.
       -2   -1    0    0    0  501  0.00000000000E+00  0.00000000000E+00 -0.74233380931E+03  0.74233380932E+03  0.25500000920E-02 0.  1.
    10030    2    1    2    0    0  0.00000000000E+00  0.00000000000E+00  0.17383956862E+04  0.32230633049E+04  0.27140592303E+04 0.  0.
        5    1    3    3  502    0  0.90632258385E+03  0.56253310775E+03  0.18653501626E+04  0.21488176848E+04  0.46999998093E+01 0. -1.
       -5    1    3    3    0  502 -0.90632258385E+03 -0.56253310775E+03 -0.12695447632E+03  0.10742456201E+04  0.46999998093E+01 0.  1.
</event>
<event>
 5   0  0.7729970E-06  0.2727283E+04  0.7818609E-02  0.8326207E-01
        2   -1    0    0  501    0  0.00000000000E+00  0.00000000000E+00  0.85416446201E+03  0.85416446201E+03  0.25500000920E-02 0.  1.
       -2   -1    0    0    0  501  0.00000000000E+00  0.00000000000E+00 -0.21770021836E+04  0.21770021836E+04  0.25500000920E-02 0. -1.
    10030    2    1    2    0    0  0.00000000000E+00  0.00000000000E+00 -0.13228377216E+04  0.30311666456E+04  0.27272828228E+04 0.  0.
        4    1    3    3  502    0 -0.11334559337E+04 -0.74288417971E+03 -0.49316742331E+03  0.14421563641E+04  0.12699999809E+01 0.  1.
       -4    1    3    3    0  502  0.11334559337E+04  0.74288417971E+03 -0.82967029827E+03  0.15890102815E+04  0.12699999809E+01 0. -1.
</event>
<event>
 5   0  0.7729970E-06  0.2412553E+04  0.7818609E-02  0.8434819E-01
       -2   -1    0    0    0  501  0.00000000000E+00  0.00000000000E+00  0.64052407747E+03  0.64052407747E+03  0.25500000920E-02 0.  1.
        2   -1    0    0  501    0  0.00000000000E+00  0.00000000000E+00 -0.22717378131E+04  0.22717378131E+04  0.25500000920E-02 0. -1.
    10030    2    1    2    0    0  0.00000000000E+00  0.00000000000E+00 -0.16312137356E+04  0.29122618906E+04  0.24125528114E+04 0.  0.
        4    1    3    3  502    0 -0.87196522622E+03 -0.38257468467E+03 -0.17095461600E+04  0.19568434866E+04  0.12699999809E+01 0. -1.
       -4    1    3    3    0  502  0.87196522622E+03  0.38257468467E+03  0.78332424315E+02  0.95541840399E+03  0.12699999809E+01 0.  1.
</event>
<event>
 5   0  0.3013407E-06  0.2714301E+04  0.7818609E-02  0.8330380E-01
        1   -1    0    0  501    0  0.00000000000E+00  0.00000000000E+00  0.11854779087E+04  0.11854779087E+04  0.50400001928E-02 0.  1.
       -1   -1    0    0    0  501  0.00000000000E+00  0.00000000000E+00 -0.15536839893E+04  0.15536839893E+04  0.50400001928E-02 0. -1.
    10030    2    1    2    0    0  0.00000000000E+00  0.00000000000E+00 -0.36820608061E+03  0.27391618980E+04  0.27143014177E+04 0.  0.
        4    1    3    3  502    0 -0.20807491390E+03  0.76579279418E+02 -0.15352825775E+04  0.15512104182E+04  0.12699999809E+01 0. -1.
       -4    1    3    3    0  502  0.20807491390E+03 -0.76579279418E+02  0.11670764969E+04  0.11879514798E+04  0.12699999809E+01 0.  1.
</event>
<event>
 5   0  0.8213334E-06  0.2705860E+04  0.7818609E-02  0.8333106E-01
        2   -1    0    0  501    0  0.00000000000E+00  0.00000000000E+00  0.22828533393E+04  0.22828533393E+04  0.25500000920E-02 0.  1.
       -2   -1    0    0    0  501  0.00000000000E+00  0.00000000000E+00 -0.80181198192E+03  0.80181198192E+03  0.25500000920E-02 0. -1.
    10030    2    1    2    0    0  0.00000000000E+00  0.00000000000E+00  0.14810413574E+04  0.30846653212E+04  0.27058596862E+04 0.  0.
        3    1    3    3  502    0 -0.91601605793E+03 -0.35363917015E+03  0.18015568398E+04  0.20517682955E+04  0.10100000352E+00 0.  1.
       -3    1    3    3    0  502  0.91601605793E+03  0.35363917015E+03 -0.32051548246E+03  0.10328970257E+04  0.10100000352E+00 0. -1.
</event>
<event>
 5   0  0.3013407E-06  0.2699726E+04  0.7818609E-02  0.8335094E-01
        1   -1    0    0  501    0  0.00000000000E+00  0.00000000000E+00  0.16408711497E+04  0.16408711497E+04  0.50400001928E-02 0.  1.
       -1   -1    0    0    0  501  0.00000000000E+00  0.00000000000E+00 -0.11104652124E+04  0.11104652124E+04  0.50400001928E-02 0. -1.
    10030    2    1    2    0    0  0.00000000000E+00  0.00000000000E+00  0.53040593735E+03  0.27513363621E+04  0.26997261563E+04 0.  0.
        4    1    3    3  502    0 -0.22068231784E+03  0.47342840303E+03 -0.10032980903E+04  0.11311250192E+04  0.12699999809E+01 0. -1.
       -4    1    3    3    0  502  0.22068231784E+03 -0.47342840303E+03  0.15337040277E+04  0.16202113429E+04  0.12699999809E+01 0.  1.
</event>
<event>
 5   0  0.8407622E-06  0.2702873E+04  0.7818609E-02  0.8334073E-01
       -2   -1    0    0    0  501  0.00000000000E+00  0.00000000000E+00  0.69301836394E+03  0.69301836394E+03  0.25500000920E-02 0.  1.
        2   -1    0    0  501    0  0.00000000000E+00  0.00000000000E+00 -0.26354006333E+04  0.26354006333E+04  0.25500000920E-02 0. -1.
    10030    2    1    2    0    0  0.00000000000E+00  0.00000000000E+00 -0.19423822694E+04  0.33284189972E+04  0.27028733120E+04 0.  0.
        1    1    3    3  502    0  0.36008213975E+02 -0.10761394245E+04 -0.19769131294E+04  0.22511237579E+04  0.50400001928E-02 0. -1.
       -1    1    3    3    0  502 -0.36008213975E+02  0.10761394245E+04  0.34530860009E+02  0.10772952393E+04  0.50400001928E-02 0.  1.
</event>
<event>
 5   0  0.7838364E-06  0.2662827E+04  0.7818609E-02  0.8347168E-01
       -2   -1    0    0    0  501  0.00000000000E+00  0.00000000000E+00  0.10182355682E+04  0.10182355682E+04  0.25500000920E-02 0. -1.
        2   -1    0    0  501    0  0.00000000000E+00  0.00000000000E+00 -0.17409155993E+04  0.17409155993E+04  0.25500000920E-02 0.  1.
    10030    2    1    2    0    0  0.00000000000E+00  0.00000000000E+00 -0.72268003114E+03  0.27591511676E+04  0.26628272077E+04 0.  0.
        2    1    3    3  502    0  0.49221769439E+03  0.46589191884E+03  0.82612060977E+03  0.10685545380E+04  0.25500000920E-02 0. -1.
       -2    1    3    3    0  502 -0.49221769439E+03 -0.46589191884E+03 -0.15488006409E+04  0.16905966296E+04  0.25500000920E-02 0.  1.
</event>
<event>
 5   0  0.3013407E-06  0.2693297E+04  0.7818609E-02  0.8337183E-01
       -1   -1    0    0    0  501  0.00000000000E+00  0.00000000000E+00  0.17509319553E+04  0.17509319553E+04  0.50400001928E-02 0. -1.
        1   -1    0    0  501    0  0.00000000000E+00  0.00000000000E+00 -0.10357121654E+04  0.10357121655E+04  0.50400001928E-02 0.  1.
    10030    2    1    2    0    0  0.00000000000E+00  0.00000000000E+00  0.71521978988E+03  0.27866441208E+04  0.26932965132E+04 0.  0.
        4    1    3    3  502    0  0.73491711931E+03  0.38679445361E+03 -0.73920053769E+03  0.11118148090E+04  0.12699999809E+01 0.  1.
       -4    1    3    3    0  502 -0.73491711931E+03 -0.38679445361E+03  0.14544203276E+04  0.16748293118E+04  0.12699999809E+01 0. -1.
</event>
<event>
 5   0  0.3046300E-06  0.2672892E+04  0.7818609E-02  0.8343855E-01
        1   -1    0    0  501    0  0.00000000000E+00  0.00000000000E+00  0.14284231574E+04  0.14284231574E+04  0.50400001928E-02 0.  1.
       -1   -1    0    0    0  501  0.00000000000E+00  0.00000000000E+00 -0.12503909023E+04  0.12503909023E+04  0.50400001928E-02 0. -1.
    10030    2    1    2    0    0  0.00000000000E+00  0.00000000000E+00  0.17803225509E+03  0.26788140598E+04  0.26728915584E+04 0.  0.
        2    1    3    3  502    0  0.57026457865E+03  0.76367075901E+03 -0.84991221601E+03  0.12770064576E+04  0.25500000920E-02 0. -1.
       -2    1    3    3    0  502 -0.57026457865E+03 -0.76367075901E+03  0.10279444711E+04  0.14018076022E+04  0.25500000920E-02 0.  1.
</event>
<event>
 5   0  0.7729970E-06  0.2690193E+04  0.7818609E-02  0.8338194E-01
       -2   -1    0    0    0  501  0.00000000000E+00  0.00000000000E+00  0.13330585730E+04  0.13330585730E+04  0.25500000920E-02 0.  1.
        2   -1    0    0  501    0  0.00000000000E+00  0.00000000000E+00 -0.13572431909E+04  0.13572431909E+04  0.25500000920E-02 0. -1.
    10030    2    1    2    0    0  0.00000000000E+00  0.00000000000E+00 -0.24184617950E+02  0.26903017639E+04  0.26901930572E+04 0.  0.
        4    1    3    3  502    0 -0.76955718228E+03 -0.40012002899E+02  0.10904330075E+04  0.13352396691E+04  0.12699999809E+01 0.  1.
       -4    1    3    3    0  502  0.76955718228E+03  0.40012002899E+02 -0.11146176254E+04  0.13550620949E+04  0.12699999809E+01 0. -1.
</event>
<event>
 5   0  0.7729970E-06  0.2699163E+04  0.7818609E-02  0.8335277E-01
       -2   -1    0    0    0  501  0.00000000000E+00  0.00000000000E+00  0.11955931419E+04  0.11955931419E+04  0.25500000920E-02 0. -1.
        2   -1    0    0  501    0  0.00000000000E+00  0.00000000000E+00 -0.15234032191E+04  0.15234032191E+04  0.25500000920E-02 0.  1.
    10030    2    1    2    0    0  0.00000000000E+00  0.00000000000E+00 -0.32781007726E+03  0.27189963610E+04  0.26991631600E+04 0.  0.
        4    1    3    3  502    0  0.31190147989E+03 -0.65521911013E+02 -0.14849500003E+04  0.15187671877E+04  0.12699999809E+01 0.  1.
       -4    1    3    3    0  502 -0.31190147989E+03  0.65521911013E+02  0.11571399231E+04  0.12002291733E+04  0.12699999809E+01 0. -1.
</event>
<event>
 5   0  0.3013407E-06  0.2713623E+04  0.7818609E-02  0.8330598E-01
       -1   -1    0    0    0  501  0.00000000000E+00  0.00000000000E+00  0.15831172842E+04  0.15831172842E+04  0.50400001928E-02 0.  1.
        1   -1    0    0  501    0  0.00000000000E+00  0.00000000000E+00 -0.11628560621E+04  0.11628560621E+04  0.50400001928E-02 0. -1.
    10030    2    1    2    0    0  0.00000000000E+00  0.00000000000E+00  0.42026122209E+03  0.27459733464E+04  0.27136230623E+04 0.  0.
        4    1    3    3  502    0 -0.21920479857E+03  0.12925561966E+04 -0.14358428432E+03  0.13188518964E+04  0.12699999809E+01 0.  1.
       -4    1    3    3    0  502  0.21920479857E+03 -0.12925561966E+04  0.56384550642E+03  0.14271214500E+04  0.12699999809E+01 0. -1.
</event>
<event>
 5   0  0.3046300E-06  0.2708954E+04  0.7818609E-02  0.8332106E-01
       -1   -1    0    0    0  501  0.00000000000E+00  0.00000000000E+00  0.14624476960E+04  0.14624476960E+04  0.50400001928E-02 0. -1.
        1   -1    0    0  501    0  0.00000000000E+00  0.00000000000E+00 -0.12544778064E+04  0.12544778064E+04  0.50400001928E-02 0.  1.
    10030    2    1    2    0    0  0.00000000000E+00  0.00000000000E+00  0.20796988961E+03  0.27169255024E+04  0.27089541728E+04 0.  0.
        2    1    3    3  502    0  0.93078535312E+03  0.15065650114E+03 -0.87127006302E+03  0.12838108418E+04  0.25500000920E-02 0.  1.
       -2    1    3    3    0  502 -0.93078535312E+03 -0.15065650114E+03  0.10792399526E+04  0.14331146606E+04  0.25500000920E-02 0. -1.
</event>
<event>
 5   0  0.7812908E-06  0.2738808E+04  0.7818609E-02  0.8322522E-01
        2   -1    0    0  501    0  0.00000000000E+00  0.00000000000E+00  0.16008409625E+04  0.16008409625E+04  0.25500000920E-02 0.  1.
       -2   -1    0    0    0  501  0.00000000000E+00  0.00000000000E+00 -0.11714266286E+04  0.11714266286E+04  0.25500000920E-02 0. -1.
    10030    2    1    2    0    0  0.00000000000E+00  0.00000000000E+00  0.42941433391E+03  0.27722675912E+04  0.27388083042E+04 0.  0.
        5    1    3    3  502    0 -0.36187929260E+03  0.89248863984E+03 -0.77071222995E+03  0.12334958557E+04  0.46999998093E+01 0. -1.
       -5    1    3    3    0  502  0.36187929260E+03 -0.89248863984E+03  0.12001265639E+04  0.15387717355E+04  0.46999998093E+01 0.  1.
</event>
<event>
 5   0  0.2654625E-06  0.2707405E+04  0.7818609E-02  0.8332606E-01
       -4   -1    0    0    0  501  0.00000000000E+00  0.00000000000E+00  0.94814489854E+03  0.94814574910E+03  0.12699999809E+01 0.  1.
        4   -1    0    0  501    0  0.00000000000E+00  0.00000000000E+00 -0.19327307496E+04  0.19327311668E+04  0.12699999809E+01 0. -1.
    10030    2    1    2    0    0  0.00000000000E+00  0.00000000000E+00 -0.98458585105E+03  0.28808769159E+04  0.27074051242E+04 0.  0.
        4    1    3    3  502    0 -0.42546075566E+03 -0.31219999630E+03  0.83418559872E+03  0.98709316597E+03  0.12699999809E+01 0.  1.
       -4    1    3    3    0  502  0.42546075566E+03  0.31219999630E+03 -0.18187714498E+04  0.18937837500E+04  0.12699999809E+01 0. -1.
</event>
<event>
 5   0  0.3089218E-06  0.2713552E+04  0.7818609E-02  0.8330621E-01
       -1   -1    0    0    0  501  0.00000000000E+00  0.00000000000E+00  0.85439133797E+03  0.85439133798E+03  0.50400001928E-02 0. -1.
        1   -1    0    0  501    0  0.00000000000E+00  0.00000000000E+00 -0.21545637742E+04  0.21545637742E+04  0.50400001928E-02 0.  1.
    10030    2    1    2    0    0  0.00000000000E+00  0.00000000000E+00 -0.13001724362E+04  0.30089551122E+04  0.27135516400E+04 0.  0.
        5    1    3    3  502    0 -0.15545820604E+03  0.51290975124E+03 -0.20321997270E+04  0.21016901502E+04  0.46999998093E+01 0.  1.
       -5    1    3    3    0  502  0.15545820604E+03 -0.51290975124E+03  0.73202729083E+03  0.90726496199E+03  0.46999998093E+01 0. -1.
</event>
<event>
 5   0  0.7838364E-06  0.2733579E+04  0.7818609E-02  0.8324191E-01
        2   -1    0    0  501    0  0.00000000000E+00  0.00000000000E+00  0.20886361094E+04  0.20886361094E+04  0.25500000920E-02 0.  1.
       -2   -1    0    0    0  501  0.00000000000E+00  0.00000000000E+00 -0.89441787106E+03  0.89441787106E+03  0.25500000920E-02 0. -1.
    10030    2    1    2    0    0  0.00000000000E+00  0.00000000000E+00  0.11942182384E+04  0.29830539805E+04  0.27335789452E+04 0.  0.
        2    1    3    3  502    0 -0.11786750529E+04 -0.45510655986E+03  0.28272458245E+02  0.12638022760E+04  0.25500000920E-02 0. -1.
       -2    1    3    3    0  502  0.11786750529E+04  0.45510655986E+03  0.11659457801E+04  0.17192517044E+04  0.25500000920E-02 0.  1.
</event>
<event>
 5   0  0.3013407E-06  0.2685897E+04  0.7818609E-02  0.8339595E-01
        1   -1    0    0  501    0  0.00000000000E+00  0.00000000000E+00  0.16702137932E+04  0.16702137932E+04  0.50400001928E-02 0. -1.
       -1   -1    0    0    0  501  0.00000000000E+00  0.00000000000E+00 -0.10798084789E+04  0.10798084789E+04  0.50400001928E-02 0.  1.
    10030    2    1    2    0    0  0.00000000000E+00  0.00000000000E+00  0.59040531434E+03  0.27500222721E+04  0.26858972545E+04 0.  0.
        4    1    3    3  502    0  0.11303961017E+04  0.18426149964E+03 -0.42279692435E+03  0.12208630141E+04  0.12699999809E+01 0.  1.
       -4    1    3    3    0  502 -0.11303961017E+04 -0.18426149964E+03  0.10132022387E+04  0.15291592580E+04  0.12699999809E+01 0. -1.
</event>
<event>
 5   0  0.8213334E-06  0.2749976E+04  0.7818609E-02  0.8318969E-01
        2   -1    0    0  501    0  0.00000000000E+00  0.00000000000E+00  0.12320393008E+04  0.12320393008E+04  0.25500000920E-02 0.  1.
       -2   -1    0    0    0  501  0.00000000000E+00  0.00000000000E+00 -0.15345229224E+04  0.15345229224E+04  0.25500000920E-02 0. -1.
    10030    2    1    2    0    0  0.00000000000E+00  0.00000000000E+00 -0.30248362160E+03  0.27665622232E+04  0.27499763988E+04 0.  0.
        3    1    3    3  502    0 -0.53743388624E+03 -0.50621139660E+03  0.10157142869E+04  0.12556913167E+04  0.10100000352E+00 0.  1.
       -3    1    3    3    0  502  0.53743388624E+03  0.50621139660E+03 -0.13181979085E+04  0.15108709065E+04  0.10100000352E+00 0. -1.
</event>
<event>
 5   0  0.3046300E-06  0.2699159E+04  0.7818609E-02  0.8335278E-01
       -1   -1    0    0    0  501  0.00000000000E+00  0.00000000000E+00  0.88188098688E+03  0.88188098690E+03  0.50400001928E-02 0.  1.
        1   -1    0    0  501    0  0.00000000000E+00  0.00000000000E+00 -0.20653182622E+04  0.20653182622E+04  0.50400001928E-02 0. -1.
    10030    2    1    2    0    0  0.00000000000E+00  0.00000000000E+00 -0.11834372754E+04  0.29471992491E+04  0.26991590597E+04 0.  0.
        2    1    3    3  502    0 -0.13190332193E+04 -0.28483940816E+03 -0.61308146323E+03  0.14821777905E+04  0.25500000920E-02 0. -1.
       -2    1    3    3    0  502  0.13190332193E+04  0.28483940816E+03 -0.57035581213E+03  0.14650214587E+04  0.25500000920E-02 0.  1.
</event>
<event>
 5   0  0.7838364E-06  0.2688654E+04  0.7818609E-02  0.8338696E-01
        2   -1    0    0  501    0  0.00000000000E+00  0.00000000000E+00  0.14122061122E+04  0.14122061122E+04  0.25500000920E-02 0. -1.
       -2   -1    0    0    0  501  0.00000000000E+00  0.00000000000E+00 -0.12797105206E+04  0.12797105206E+04  0.25500000920E-02 0.  1.
    10030    2    1    2    0    0  0.00000000000E+00  0.00000000000E+00  0.13249559162E+03  0.26919166329E+04  0.26886539525E+04 0.  0.
        2    1    3    3  502    0  0.81554942508E+03  0.40869059935E+03  0.10549004491E+04  0.13946195998E+04  0.25500000920E-02 0. -1.
       -2    1    3    3    0  502 -0.81554942508E+03 -0.40869059935E+03 -0.92240485748E+03  0.12972970330E+04  0.25500000920E-02 0.  1.
</event>
<event>
 5   0  0.3028601E-06  0.2723659E+04  0.7818609E-02  0.8327369E-01
       -1   -1    0    0    0  501  0.00000000000E+00  0.00000000000E+00  0.71579862988E+03  0.71579862990E+03  0.50400001928E-02 0. -1.
        1   -1    0    0  501    0  0.00000000000E+00  0.00000000000E+00 -0.25909227595E+04  0.25909227595E+04  0.50400001928E-02 0.  1.
    10030    2    1    2    0    0  0.00000000000E+00  0.00000000000E+00 -0.18751241296E+04  0.33067213894E+04  0.27236585406E+04 0.  0.
        3    1    3    3  502    0  0.68818304448E+03 -0.23894147611E+03 -0.23344800170E+04  0.24455031980E+04  0.10100000352E+00 0.  1.
       -3    1    3    3    0  502 -0.68818304448E+03  0.23894147611E+03  0.45935588735E+03  0.86121819138E+03  0.10100000352E+00 0. -1.
</event>
<event>
 5   0  0.7838364E-06  0.2676338E+04  0.7818609E-02  0.8342723E-01
       -2   -1    0    0    0  501  0.00000000000E+00  0.00000000000E+00  0.15799611717E+04  0.15799611717E+04  0.25500000920E-02 0.  1.
        2   -1    0    0  501    0  0.00000000000E+00  0.00000000000E+00 -0.11333800717E+04  0.11333800717E+04  0.25500000920E-02 0. -1.
    10030    2    1    2    0    0  0.00000000000E+00  0.00000000000E+00  0.44658110000E+03  0.27133412434E+04  0.26763381744E+04 0.  0.
        2    1    3    3  502    0 -0.45515274302E+03  0.55886980698E+03  0.13663527452E+04  0.15448039697E+04  0.25500000920E-02 0.  1.
       -2    1    3    3    0  502  0.45515274302E+03 -0.55886980698E+03 -0.91977164516E+03  0.11685372736E+04  0.25500000920E-02 0. -1.
</event>
<event>
 5   0  0.3089218E-06  0.2693139E+04  0.7818609E-02  0.8337235E-01
        1   -1    0    0  501    0  0.00000000000E+00  0.00000000000E+00  0.17348238494E+04  0.17348238494E+04  0.50400001928E-02 0.  1.
       -1   -1    0    0    0  501  0.00000000000E+00  0.00000000000E+00 -0.10452063041E+04  0.10452063041E+04  0.50400001928E-02 0. -1.
    10030    2    1    2    0    0  0.00000000000E+00  0.00000000000E+00  0.68961754535E+03  0.27800301535E+04  0.26931385585E+04 0.  0.
        5    1    3    3  502    0 -0.11792225973E+03  0.82187348987E+02 -0.10372560849E+04  0.10471784448E+04  0.46999998093E+01 0. -1.
       -5    1    3    3    0  502  0.11792225973E+03 -0.82187348987E+02  0.17268736302E+04  0.17328517087E+04  0.46999998093E+01 0.  1.
</event>
<event>
 5   0  0.3013407E-06  0.2707316E+04  0.7818609E-02  0.8332635E-01
       -1   -1    0    0    0  501  0.00000000000E+00  0.00000000000E+00  0.71112847954E+03  0.71112847956E+03  0.50400001928E-02 0.  1.
        1   -1    0    0  501    0  0.00000000000E+00  0.00000000000E+00 -0.25767362722E+04  0.25767362722E+04  0.50400001928E-02 0. -1.
    10030    2    1    2    0    0  0.00000000000E+00  0.00000000000E+00 -0.18656077926E+04  0.32878647517E+04  0.27073164185E+04 0.  0.
        4    1    3    3  502    0 -0.11956658684E+04 -0.55542799148E+03 -0.13056811182E+04  0.18555112282E+04  0.12699999809E+01 0. -1.
       -4    1    3    3    0  502  0.11956658684E+04  0.55542799148E+03 -0.55992667439E+03  0.14323535235E+04  0.12699999809E+01 0.  1.
</event>
<event>
 5   0  0.8213334E-06  0.2702139E+04  0.7818609E-02  0.8334311E-01
        2   -1    0    0  501    0  0.00000000000E+00  0.00000000000E+00  0.76368876130E+03  0.76368876130E+03  0.25500000920E-02 0.  1.
       -2   -1    0    0    0  501  0.00000000000E+00  0.00000000000E+00 -0.23902253313E+04  0.23902253313E+04  0.25500000920E-02 0. -1.
    10030    2    1    2    0    0  0.00000000000E+00  0.00000000000E+00 -0.16265365700E+04  0.31539140926E+04  0.27021385771E+04 0.  0.
        3    1    3    3  502    0 -0.26547117477E+03  0.50485042495E+03  0.61626266678E+03  0.83971934649E+03  0.10100000352E+00 0.  1.
       -3    1    3    3    0  502  0.26547117477E+03 -0.50485042495E+03 -0.22427992368E+04  0.23141947461E+04  0.10100000352E+00 0. -1.
</event>
<event>
 5   0  0.3028601E-06  0.2673807E+04  0.7818609E-02  0.8343554E-01
        1   -1    0    0  501    0  0.00000000000E+00  0.00000000000E+00  0.11261857130E+04  0.11261857131E+04  0.50400001928E-02 0. -1.
       -1   -1    0    0    0  501  0.00000000000E+00  0.00000000000E+00 -0.15870478722E+04  0.15870478722E+04  0.50400001928E-02 0.  1.
    10030    2    1    2    0    0  0.00000000000E+00  0.00000000000E+00 -0.46086215913E+03  0.27132335852E+04  0.26738067541E+04 0.  0.
        3    1    3    3  502    0  0.55731632541E+02  0.34904231202E+03  0.10779117165E+04  0.11343853971E+04  0.10100000352E+00 0. -1.
       -3    1    3    3    0  502 -0.55731632541E+02 -0.34904231202E+03 -0.15387738756E+04  0.15788481881E+04  0.10100000352E+00 0.  1.
</event>
<event>
 5   0  0.3046300E-06  0.2697623E+04  0.7818609E-02  0.8335776E-01
        1   -1    0    0  501    0  0.00000000000E+00  0.00000000000E+00  0.16387126065E+04  0.16387126065E+04  0.50400001928E-02 0. -1.
       -1   -1    0    0    0  501  0.00000000000E+00  0.00000000000E+00 -0.11101965747E+04  0.11101965747E+04  0.50400001928E-02 0.  1.
    10030    2    1    2    0    0  0.00000000000E+00  0.00000000000E+00  0.52851603178E+03  0.27489091812E+04  0.26976234894E+04 0.  0.
        2    1    3    3  502    0 -0.11857784559E+04 -0.46171024510E+03  0.72002644479E+03  0.14620824115E+04  0.25500000920E-02 0.  1.
       -2    1    3    3    0  502  0.11857784559E+04  0.46171024510E+03 -0.19151041300E+03  0.12868267697E+04  0.25500000920E-02 0. -1.
</event>
<event>
 5   0  0.3046300E-06  0.2687955E+04  0.7818609E-02  0.8338924E-01
       -1   -1    0    0    0  501  0.00000000000E+00  0.00000000000E+00  0.96093046184E+03  0.96093046185E+03  0.50400001928E-02 0.  1.
        1   -1    0    0  501    0  0.00000000000E+00  0.00000000000E+00 -0.18797147611E+04  0.18797147611E+04  0.50400001928E-02 0. -1.
    10030    2    1    2    0    0  0.00000000000E+00  0.00000000000E+00 -0.91878429930E+03  0.28406452230E+04  0.26879547419E+04 0.  0.
        2    1    3    3  502    0  0.11399329250E+04  0.27270179941E+03 -0.11543667538E+04  0.16451066674E+04  0.25500000920E-02 0. -1.
       -2    1    3    3    0  502 -0.11399329250E+04 -0.27270179941E+03  0.23558245447E+03  0.11955385556E+04  0.25500000920E-02 0.  1.
</event>
<event>
 5   0  0.7729970E-06  0.2687258E+04  0.7818609E-02  0.8339151E-01
       -2   -1    0    0    0  501  0.00000000000E+00  0.00000000000E+00  0.10924500122E+04  0.10924500122E+04  0.25500000920E-02 0.  1.
        2   -1    0    0  501    0  0.00000000000E+00  0.00000000000E+00 -0.16525599984E+04  0.16525599984E+04  0.25500000920E-02 0. -1.
    10030    2    1    2    0    0  0.00000000000E+00  0.00000000000E+00 -0.56010998615E+03  0.27450100106E+04  0.26872582239E+04 0.  0.
        4    1    3    3  502    0  0.37380053108E+03  0.18252889058E+03  0.10250147370E+04  0.11062099515E+04  0.12699999809E+01 0.  1.
       -4    1    3    3    0  502 -0.37380053108E+03 -0.18252889058E+03 -0.15851247231E+04  0.16388000591E+04  0.12699999809E+01 0. -1.
</event>
<event>
 5   0  0.3199840E-06  0.2707092E+04  0.7818609E-02  0.8332708E-01
        1   -1    0    0  501    0  0.00000000000E+00  0.00000000000E+00  0.12866299291E+04  0.12866299291E+04  0.50400001928E-02 0. -1.
       -1   -1    0    0    0  501  0.00000000000E+00  0.00000000000E+00 -0.14239418874E+04  0.14239418874E+04  0.50400001928E-02 0.  1.
    10030    2    1    2    0    0  0.00000000000E+00  0.00000000000E+00 -0.13731195830E+03  0.27105718164E+04  0.27070916124E+04 0.  0.
        1    1    3    3  502    0 -0.96644596719E+03  0.53368503333E+03 -0.85276471583E+03  0.13950072340E+04  0.50400001928E-02 0.  1.
       -1    1    3    3    0  502  0.96644596719E+03 -0.53368503333E+03  0.71545275754E+03  0.13155645824E+04  0.50400001928E-02 0. -1.
</event>
<event>
 5   0  0.3199840E-06  0.2788934E+04  0.7818609E-02  0.8306712E-01
       -1   -1    0    0    0  501  0.00000000000E+00  0.00000000000E+00  0.11989034375E+04  0.11989034375E+04  0.50400001928E-02 0.  1.
        1   -1    0    0  501    0  0.00000000000E+00  0.00000000000E+00 -0.16219311209E+04  0.16219311209E+04  0.50400001928E-02 0. -1.
    10030    2    1    2    0    0  0.00000000000E+00  0.00000000000E+00 -0.42302768339E+03  0.28208345585E+04  0.27889344175E+04 0.  0.
        1    1    3    3  502    0 -0.80521228604E+03 -0.42418372072E+02 -0.13622320311E+04  0.15829852338E+04  0.50400001928E-02 0. -1.
       -1    1    3    3    0  502  0.80521228604E+03  0.42418372072E+02  0.93920434768E+03  0.12378493247E+04  0.50400001928E-02 0.  1.
</event>
<event>
 5   0  0.7812908E-06  0.2701210E+04  0.7818609E-02  0.8334613E-01
        2   -1    0    0  501    0  0.00000000000E+00  0.00000000000E+00  0.11745608129E+04  0.11745608129E+04  0.25500000920E-02 0.  1.
       -2   -1    0    0    0  501  0.00000000000E+00  0.00000000000E+00 -0.15530342833E+04  0.15530342833E+04  0.25500000920E-02 0. -1.
    10030    2    1    2    0    0  0.00000000000E+00  0.00000000000E+00 -0.37847347038E+03  0.27275950962E+04  0.27012095144E+04 0.  0.
        5    1    3    3  502    0  0.10905615893E+04 -0.39375367725E+03 -0.88863841247E+03  0.14608445696E+04  0.46999998093E+01 0.  1.
       -5    1    3    3    0  502 -0.10905615893E+04  0.39375367725E+03  0.51016494208E+03  0.12667505266E+04  0.46999998093E+01 0. -1.
</event>
<event>
 5   0  0.8407622E-06  0.2685747E+04  0.7818609E-02  0.8339645E-01
       -2   -1    0    0    0  501  0.00000000000E+00  0.00000000000E+00  0.13053450690E+04  0.13053450690E+04  0.25500000920E-02 0.  1.
        2   -1    0    0  501    0  0.00000000000E+00  0.00000000000E+00 -0.13814804693E+04  0.13814804693E+04  0.25500000920E-02 0. -1.
    10030    2    1    2    0    0  0.00000000000E+00  0.00000000000E+00 -0.76135400270E+02  0.26868255383E+04  0.26857466139E+04 0.  0.
        1    1    3    3  502    0  0.10187278377E+04 -0.87135614561E+03  0.40962635116E+02  0.13411733211E+04  0.50400001928E-02 0. -1.
       -1    1    3    3    0  502 -0.10187278377E+04  0.87135614561E+03 -0.11709803539E+03  0.13456522172E+04  0.50400001928E-02 0.  1.
</event>
<event>
 5   0  0.8407622E-06  0.2709956E+04  0.7818609E-02  0.8331782E-01
        2   -1    0    0  501    0  0.00000000000E+00  0.00000000000E+00  0.11023537890E+04  0.11023537890E+04  0.25500000920E-02 0. -1.
       -2   -1    0    0    0  501  0.00000000000E+00  0.00000000000E+00 -0.16654952967E+04  0.16654952967E+04  0.25500000920E-02 0.  1.
    10030    2    1    2    0    0  0.00000000000E+00  0.00000000000E+00 -0.56314150772E+03  0.27678490856E+04  0.27099557567E+04 0.  0.
        1    1    3    3  502    0 -0.52250326852E+02 -0.76152137202E+03 -0.14250050600E+04  0.16165655934E+04  0.50400001928E-02 0.  1.
       -1    1    3    3    0  502  0.52250326852E+02  0.76152137202E+03  0.86186355229E+03  0.11512834922E+04  0.50400001928E-02 0. -1.
</event>
<event>
 5   0  0.3028601E-06  0.2712599E+04  0.7818609E-02  0.8330929E-01
        1   -1    0    0  501    0  0.00000000000E+00  0.00000000000E+00  0.13571812512E+04  0.13571812512E+04  0.50400001928E-02 0. -1.
       -1   -1    0    0    0  501  0.00000000000E+00  0.00000000000E+00 -0.13554184065E+04  0.13554184066E+04  0.50400001928E-02 0.  1.
    10030    2    1    2    0    0  0.00000000000E+00  0.00000000000E+00  0.17628446523E+01  0.27125996578E+04  0.27125990850E+04 0.  0.
        3    1    3    3  502    0 -0.59313309399E+03 -0.11736328360E+04 -0.33127454155E+03  0.13560839698E+04  0.10100000352E+00 0.  1.
       -3    1    3    3    0  502  0.59313309399E+03  0.11736328360E+04  0.33303738620E+03  0.13565156880E+04  0.10100000352E+00 0. -1.
</event>
<event>
 5   0  0.7812908E-06  0.2677961E+04  0.7818609E-02  0.8342192E-01
       -2   -1    0    0    0  501  0.00000000000E+00  0.00000000000E+00  0.11990723547E+04  0.11990723547E+04  0.25500000920E-02 0.  1.
        2   -1    0    0  501    0  0.00000000000E+00  0.00000000000E+00 -0.14952127513E+04  0.14952127513E+04  0.25500000920E-02 0. -1.
    10030    2    1    2    0    0  0.00000000000E+00  0.00000000000E+00 -0.29614039662E+03  0.26942851060E+04  0.26779606229E+04 0.  0.
        5    1    3    3  502    0 -0.95710074201E+03 -0.30142140883E+03 -0.10400123354E+04  0.14451797272E+04  0.46999998093E+01 0. -1.
       -5    1    3    3    0  502  0.95710074201E+03  0.30142140883E+03  0.74387193881E+03  0.12491053788E+04  0.46999998093E+01 0.  1.
</event>
<event>
 5   0  0.7838364E-06  0.2719291E+04  0.7818609E-02  0.8328773E-01
        2   -1    0    0  501    0  0.00000000000E+00  0.00000000000E+00  0.93869449348E+03  0.93869449348E+03  0.25500000920E-02 0.  1.
       -2   -1    0    0    0  501  0.00000000000E+00  0.00000000000E+00 -0.19693691815E+04  0.19693691815E+04  0.25500000920E-02 0. -1.
    10030    2    1    2    0    0  0.00000000000E+00  0.00000000000E+00 -0.10306746880E+04  0.29080636750E+04  0.27192910887E+04 0.  0.
        2    1    3    3  502    0 -0.61668674202E+03 -0.11931694507E+04 -0.74138782139E+03  0.15341485513E+04  0.25500000920E-02 0.  1.
       -2    1    3    3    0  502  0.61668674202E+03  0.11931694507E+04 -0.28928686664E+03  0.13739151237E+04  0.25500000920E-02 0. -1.
</event>
<event>
 5   0  0.3089218E-06  0.2685376E+04  0.7818609E-02  0.8339766E-01
        1   -1    0    0  501    0  0.00000000000E+00  0.00000000000E+00  0.13797322503E+04  0.13797322503E+04  0.50400001928E-02 0. -1.
       -1   -1    0    0    0  501  0.00000000000E+00  0.00000000000E+00 -0.13066384804E+04  0.13066384804E+04  0.50400001928E-02 0.  1.
    10030    2    1    2    0    0  0.00000000000E+00  0.00000000000E+00  0.73093769917E+02  0.26863707307E+04  0.26853761382E+04 0.  0.
        5    1    3    3  502    0  0.38656150096E+03  0.11620043815E+04  0.58730068660E+03  0.13581708888E+04  0.46999998093E+01 0.  1.
       -5    1    3    3    0  502 -0.38656150096E+03 -0.11620043815E+04 -0.51420691668E+03  0.13281998419E+04  0.46999998093E+01 0. -1.
</event>
<event>
 5   0  0.8407622E-06  0.2701723E+04  0.7818609E-02  0.8334446E-01
        2   -1    0    0  501    0  0.00000000000E+00  0.00000000000E+00  0.19513058422E+04  0.19513058422E+04  0.25500000920E-02 0. -1.
       -2   -1    0    0    0  501  0.00000000000E+00  0.00000000000E+00 -0.93518257359E+03  0.93518257359E+03  0.25500000920E-02 0.  1.
    10030    2    1    2    0    0  0.00000000000E+00  0.00000000000E+00  0.10161232686E+04  0.28864884158E+04  0.27017233162E+04 0.  0.
        1    1    3    3  502    0  0.15371494237E+03 -0.13152794125E+04  0.79322114729E+03  0.15436281952E+04  0.50400001928E-02 0. -1.
       -1    1    3    3    0  502 -0.15371494237E+03  0.13152794125E+04  0.22290212130E+03  0.13428602206E+04  0.50400001928E-02 0.  1.
</event>
<event>
 5   0  0.7729970E-06  0.2702693E+04  0.7818609E-02  0.8334132E-01
       -2   -1    0    0    0  501  0.00000000000E+00  0.00000000000E+00  0.18407033309E+04  0.18407033309E+04  0.25500000920E-02 0. -1.
        2   -1    0    0  501    0  0.00000000000E+00  0.00000000000E+00 -0.99208669198E+03  0.99208669198E+03  0.25500000920E-02 0.  1.
    10030    2    1    2    0    0  0.00000000000E+00  0.00000000000E+00  0.84861663890E+03  0.28327900229E+04  0.27026929374E+04 0.  0.
        4    1    3    3  502    0 -0.76387092576E+03  0.32909851326E+03 -0.69200880297E+03  0.10819807849E+04  0.12699999809E+01 0.  1.
       -4    1    3    3    0  502  0.76387092576E+03 -0.32909851326E+03  0.15406254419E+04  0.17508092379E+04  0.12699999809E+01 0. -1.
</event>
<event>
 5   0  0.8407622E-06  0.2686990E+04  0.7818609E-02  0.8339239E-01
       -2   -1    0    0    0  501  0.00000000000E+00  0.00000000000E+00  0.12920955381E+04  0.12920955381E+04  0.25500000920E-02 0. -1.
        2   -1    0    0  501    0  0.00000000000E+00  0.00000000000E+00 -0.13969392599E+04  0.13969392599E+04  0.25500000920E-02 0.  1.
    10030    2    1    2    0    0  0.00000000000E+00  0.00000000000E+00 -0.10484372172E+03  0.26890347980E+04  0.26869901263E+04 0.  0.
        1    1    3    3  502    0 -0.98749333210E+02 -0.57097825350E+03 -0.12654545227E+04  0.13918127553E+04  0.50400001928E-02 0.  1.
       -1    1    3    3    0  502  0.98749333210E+02  0.57097825350E+03  0.11606108010E+04  0.12972220427E+04  0.50400001928E-02 0. -1.
</event>
<event>
 5   0  0.7838364E-06  0.2709849E+04  0.7818609E-02  0.8331816E-01
        2   -1    0    0  501    0  0.00000000000E+00  0.00000000000E+00  0.96441748211E+03  0.96441748211E+03  0.25500000920E-02 0. -1.
       -2   -1    0    0    0  501  0.00000000000E+00  0.00000000000E+00 -0.19035539311E+04  0.19035539311E+04  0.25500000920E-02 0.  1.
    10030    2    1    2    0    0  0.00000000000E+00  0.00000000000E+00 -0.93913644896E+03  0.28679714132E+04  0.27098492130E+04 0.  0.
        2    1    3    3  502    0  0.17081437277E+03  0.12215869512E+04  0.12383400850E+03  0.12396721708E+04  0.25500000920E-02 0. -1.
       -2    1    3    3    0  502 -0.17081437277E+03 -0.12215869512E+04 -0.10629704575E+04  0.16282992424E+04  0.25500000920E-02 0.  1.
</event>
<event>
 5   0  0.3046300E-06  0.2713177E+04  0.7818609E-02  0.8330742E-01
        1   -1    0    0  501    0  0.00000000000E+00  0.00000000000E+00  0.15809029866E+04  0.15809029866E+04  0.50400001928E-02 0.  1.
       -1   -1    0    0    0  501  0.00000000000E+00  0.00000000000E+00 -0.11641018381E+04  0.11641018382E+04  0.50400001928E-02 0. -1.
    10030    2    1    2    0    0  0.00000000000E+00  0.00000000000E+00  0.41680114848E+03  0.27450048248E+04  0.27131767894E+04 0.  0.
        2    1    3    3  502    0 -0.52328089118E+03 -0.46012973791E+03  0.13860092026E+04  0.15513103417E+04  0.25500000920E-02 0.  1.
       -2    1    3    3    0  502  0.52328089118E+03  0.46012973791E+03 -0.96920805407E+03  0.11936944831E+04  0.25500000920E-02 0. -1.
</event>
<event>
 5   0  0.3046300E-06  0.2696515E+04  0.7818609E-02  0.8336137E-01
       -1   -1    0    0    0  501  0.00000000000E+00  0.00000000000E+00  0.90862427862E+03  0.90862427863E+03  0.50400001928E-02 0.  1.
        1   -1    0    0  501    0  0.00000000000E+00  0.00000000000E+00 -0.20006053323E+04  0.20006053323E+04  0.50400001928E-02 0. -1.
    10030    2    1    2    0    0  0.00000000000E+00  0.00000000000E+00 -0.10919810537E+04  0.29092296110E+04  0.26965152155E+04 0.  0.
        2    1    3    3  502    0 -0.25289034324E+03 -0.12712972492E+04 -0.94626752822E+03  0.16048590145E+04  0.25500000920E-02 0. -1.
       -2    1    3    3    0  502  0.25289034324E+03  0.12712972492E+04 -0.14571352548E+03  0.13043705965E+04  0.25500000920E-02 0.  1.
</event>
<event>
 5   0  0.8407622E-06  0.2713782E+04  0.7818609E-02  0.8330547E-01
        2   -1    0    0  501    0  0.00000000000E+00  0.00000000000E+00  0.22396550302E+04  0.22396550302E+04  0.25500000920E-02 0.  1.
       -2   -1    0    0    0  501  0.00000000000E+00  0.00000000000E+00 -0.82207016620E+03  0.82207016620E+03  0.25500000920E-02 0. -1.
    10030    2    1    2    0    0  0.00000000000E+00  0.00000000000E+00  0.14175848640E+04  0.30617251964E+04  0.27137822926E+04 0.  0.
        1    1    3    3  502    0  0.33693780861E+03 -0.36203922211E+03  0.21343442991E+04  0.21908959520E+04  0.50400001928E-02 0.  1.
       -1    1    3    3    0  502 -0.33693780861E+03  0.36203922211E+03 -0.71675943507E+03  0.87082924446E+03  0.50400001928E-02 0. -1.
</event>
<event>
 5   0  0.3199840E-06  0.2700513E+04  0.7818609E-02  0.8334839E-01
       -1   -1    0    0    0  501  0.00000000000E+00  0.00000000000E+00  0.14706279716E+04  0.14706279716E+04  0.50400001928E-02 0.  1.
        1   -1    0    0  501    0  0.00000000000E+00  0.00000000000E+00 -0.12397371346E+04  0.12397371346E+04  0.50400001928E-02 0. -1.
    10030    2    1    2    0    0  0.00000000000E+00  0.00000000000E+00  0.23089083702E+03  0.27103651063E+04  0.27005126237E+04 0.  0.
        1    1    3    3  502    0  0.78267661136E+03 -0.53018005245E+03  0.10830782923E+04  0.14376133532E+04  0.50400001928E-02 0.  1.
       -1    1    3    3    0  502 -0.78267661136E+03  0.53018005245E+03 -0.85218745528E+03  0.12727517531E+04  0.50400001928E-02 0. -1.
</event>
<event>
 5   0  0.3089218E-06  0.2704124E+04  0.7818609E-02  0.8333668E-01
        1   -1    0    0  501    0  0.00000000000E+00  0.00000000000E+00  0.20168170225E+04  0.20168170225E+04  0.50400001928E-02 0. -1.
       -1   -1    0    0    0  501  0.00000000000E+00  0.00000000000E+00 -0.90641445331E+03  0.90641445332E+03  0.50400001928E-02 0.  1.
    10030    2    1    2    0    0  0.00000000000E+00  0.00000000000E+00  0.11104025692E+04  0.29232314758E+04  0.27041243306E+04 0.  0.
        5    1    3    3  502    0  0.74168822412E+03 -0.29921380485E+03 -0.62327668736E+03  0.10139656019E+04  0.46999998093E+01 0.  1.
       -5    1    3    3    0  502 -0.74168822412E+03  0.29921380485E+03  0.17336792566E+04  0.19092658739E+04  0.46999998093E+01 0. -1.
</event>
<event>
 5   0  0.8213334E-06  0.2705503E+04  0.7818609E-02  0.8333222E-01
        2   -1    0    0  501    0  0.00000000000E+00  0.00000000000E+00  0.18246144173E+04  0.18246144173E+04  0.25500000920E-02 0.  1.
       -2   -1    0    0    0  501  0.00000000000E+00  0.00000000000E+00 -0.10029169986E+04  0.10029169986E+04  0.25500000920E-02 0. -1.
    10030    2    1    2    0    0  0.00000000000E+00  0.00000000000E+00  0.82169741870E+03  0.28275314159E+04  0.27055031435E+04 0.  0.
        3    1    3    3  502    0 -0.63751876857E+03  0.11883490435E+04  0.29958969766E+03  0.13814331785E+04  0.10100000352E+00 0. -1.
       -3    1    3    3    0  502  0.63751876857E+03 -0.11883490435E+04  0.52210772105E+03  0.14460982374E+04  0.10100000352E+00 0.  1.
</event>
<event>
 5   0  0.3013407E-06  0.2690095E+04  0.7818609E-02  0.8338226E-01
        1   -1    0    0  501    0  0.00000000000E+00  0.00000000000E+00  0.11267895245E+04  0.11267895245E+04  0.50400001928E-02 0. -1.
       -1   -1    0    0    0  501  0.00000000000E+00  0.00000000000E+00 -0.16055812660E+04  0.16055812660E+04  0.50400001928E-02 0.  1.
    10030    2    1    2    0    0  0.00000000000E+00  0.00000000000E+00 -0.47879174151E+03  0.27323707905E+04  0.26900945346E+04 0.  0.
        4    1    3    3  502    0  0.18818164975E+03 -0.30084395350E+03  0.10783873333E+04  0.11352710122E+04  0.12699999809E+01 0. -1.
       -4    1    3    3    0  502 -0.18818164975E+03  0.30084395350E+03 -0.15571790748E+04  0.15970997782E+04  0.12699999809E+01 0.  1.
</event>
<event>
 5   0  0.7838364E-06  0.2671137E+04  0.7818609E-02  0.8344431E-01
        2   -1    0    0  501    0  0.00000000000E+00  0.00000000000E+00  0.18968167929E+04  0.18968167929E+04  0.25500000920E-02 0.  1.
       -2   -1    0    0    0  501  0.00000000000E+00  0.00000000000E+00 -0.94038795958E+03  0.94038795958E+03  0.25500000920E-02 0. -1.
    10030    2    1    2    0    0  0.00000000000E+00  0.00000000000E+00  0.95642883335E+03  0.28372047525E+04  0.26711373410E+04 0.  0.
        2    1    3    3  502    0  0.24828471141E+03  0.17137913024E+03 -0.90372178492E+03  0.95274821896E+03  0.25500000920E-02 0. -1.
       -2    1    3    3    0  502 -0.24828471141E+03 -0.17137913024E+03  0.18601506183E+04  0.18844565336E+04  0.25500000920E-02 0.  1.
</event>
<event>
 5   0  0.3013407E-06  0.2709940E+04  0.7818609E-02  0.8331787E-01
        1   -1    0    0  501    0  0.00000000000E+00  0.00000000000E+00  0.16153732458E+04  0.16153732458E+04  0.50400001928E-02 0.  1.
       -1   -1    0    0    0  501  0.00000000000E+00  0.00000000000E+00 -0.11365442204E+04  0.11365442204E+04  0.50400001928E-02 0. -1.
    10030    2    1    2    0    0  0.00000000000E+00  0.00000000000E+00  0.47882902537E+03  0.27519174662E+04  0.27099395760E+04 0.  0.
        4    1    3    3  502    0 -0.53254158232E+03  0.95023034149E+03 -0.57892408274E+03  0.12335691895E+04  0.12699999809E+01 0. -1.
       -4    1    3    3    0  502  0.53254158232E+03 -0.95023034149E+03  0.10577531081E+04  0.15183482767E+04  0.12699999809E+01 0.  1.
</event>
<event>
 5   0  0.3199840E-06  0.2673777E+04  0.7818609E-02  0.8343564E-01
        1   -1    0    0  501    0  0.00000000000E+00  0.00000000000E+00  0.19563705148E+04  0.19563705148E+04  0.50400001928E-02 0. -1.
       -1   -1    0    0    0  501  0.00000000000E+00  0.00000000000E+00 -0.91356478545E+03  0.91356478547E+03  0.50400001928E-02 0.  1.
    10030    2    1    2    0    0  0.00000000000E+00  0.00000000000E+00  0.10428057293E+04  0.28699353003E+04  0.26737772605E+04 0.  0.
        1    1    3    3  502    0  0.87580754473E+03  0.17451222266E+03  0.15892663672E+04  0.18229813376E+04  0.50400001928E-02 0. -1.
       -1    1    3    3    0  502 -0.87580754473E+03 -0.17451222266E+03 -0.54646063785E+03  0.10469539627E+04  0.50400001928E-02 0.  1.
</event>
<event>
 5   0  0.7812908E-06  0.2702458E+04  0.7818609E-02  0.8334208E-01
       -2   -1    0    0    0  501  0.00000000000E+00  0.00000000000E+00  0.91752122088E+03  0.91752122089E+03  0.25500000920E-02 0.  1.
        2   -1    0    0  501    0  0.00000000000E+00  0.00000000000E+00 -0.19899477610E+04  0.19899477610E+04  0.25500000920E-02 0. -1.
    10030    2    1    2    0    0  0.00000000000E+00  0.00000000000E+00 -0.10724265401E+04  0.29074689819E+04  0.27024576216E+04 0.  0.
        5    1    3    3  502    0 -0.21213130199E+02 -0.65175222344E+03  0.73702014105E+03  0.98409945430E+03  0.46999998093E+01 0.  1.
       -5    1    3    3    0  502  0.21213130199E+02  0.65175222344E+03 -0.18094466811E+04  0.19233695276E+04  0.46999998093E+01 0. -1.
</event>
<event>
 5   0  0.3028601E-06  0.2712070E+04  0.7818609E-02  0.8331099E-01
       -1   -1    0    0    0  501  0.00000000000E+00  0.00000000000E+00  0.11191858377E+04  0.11191858377E+04  0.50400001928E-02 0.  1.
        1   -1    0    0  501    0  0.00000000000E+00  0.00000000000E+00 -0.16430072549E+04  0.16430072549E+04  0.50400001928E-02 0. -1.
    10030    2    1    2    0    0  0.00000000000E+00  0.00000000000E+00 -0.52382141721E+03  0.27621930925E+04  0.27120696531E+04 0.  0.
        3    1    3    3  502    0  0.11114814841E+04  0.68219368023E+03  0.11650850991E+03  0.13093332463E+04  0.10100000352E+00 0.  1.
       -3    1    3    3    0  502 -0.11114814841E+04 -0.68219368023E+03 -0.64032992712E+03  0.14528598462E+04  0.10100000352E+00 0. -1.
</event>
<event>
 5   0  0.3028601E-06  0.2675335E+04  0.7818609E-02  0.8343052E-01
        1   -1    0    0  501    0  0.00000000000E+00  0.00000000000E+00  0.12388046834E+04  0.12388046834E+04  0.50400001928E-02 0.  1.
       -1   -1    0    0    0  501  0.00000000000E+00  0.00000000000E+00 -0.14444204215E+04  0.14444204215E+04  0.50400001928E-02 0. -1.
    10030    2    1    2    0    0  0.00000000000E+00  0.00000000000E+00 -0.20561573805E+03  0.26832251049E+04  0.26753353307E+04 0.  0.
        3    1    3    3  502    0 -0.38335850057E+03  0.11390693521E+04 -0.69183196785E+03  0.13867495127E+04  0.10100000352E+00 0. -1.
       -3    1    3    3    0  502  0.38335850057E+03 -0.11390693521E+04  0.48621622980E+03  0.12964755922E+04  0.10100000352E+00 0.  1.
</event>
<event>
 5   0  0.7838364E-06  0.2689178E+04  0.7818609E-02  0.8338525E-01
       -2   -1    0    0    0  501  0.00000000000E+00  0.00000000000E+00  0.16258501001E+04  0.16258501001E+04  0.25500000920E-02 0.  1.
        2   -1    0    0  501    0  0.00000000000E+00  0.00000000000E+00 -0.11119843075E+04  0.11119843075E+04  0.25500000920E-02 0. -1.
    10030    2    1    2    0    0  0.00000000000E+00  0.00000000000E+00  0.51386579266E+03  0.27378344076E+04  0.26891781627E+04 0.  0.
        2    1    3    3  502    0 -0.30766966988E+03 -0.83157943860E+03  0.12860308058E+04  0.15620692117E+04  0.25500000920E-02 0.  1.
       -2    1    3    3    0  502  0.30766966988E+03  0.83157943860E+03 -0.77216501319E+03  0.11757651960E+04  0.25500000920E-02 0. -1.
</event>
<event>
 5   0  0.7729970E-06  0.2712711E+04  0.7818609E-02  0.8330892E-01
        2   -1    0    0  501    0  0.00000000000E+00  0.00000000000E+00  0.22696785910E+04  0.22696785910E+04  0.25500000920E-02 0.  1.
       -2   -1    0    0    0  501  0.00000000000E+00  0.00000000000E+00 -0.81055553515E+03  0.81055553515E+03  0.25500000920E-02 0. -1.
    10030    2    1    2    0    0  0.00000000000E+00  0.00000000000E+00  0.14591230558E+04  0.30802341261E+04  0.27127112231E+04 0.  0.
        4    1    3    3  502    0  0.43478453987E+03 -0.61721651976E+03  0.20090359154E+04  0.21462107890E+04  0.12699999809E+01 0.  1.
       -4    1    3    3    0  502 -0.43478453987E+03  0.61721651976E+03 -0.54991285957E+03  0.93402333718E+03  0.12699999809E+01 0. -1.
</event>
<event>
 5   0  0.3028601E-06  0.2712147E+04  0.7818609E-02  0.8331075E-01
        1   -1    0    0  501    0  0.00000000000E+00  0.00000000000E+00  0.19218655204E+04  0.19218655204E+04  0.50400001928E-02 0. -1.
       -1   -1    0    0    0  501  0.00000000000E+00  0.00000000000E+00 -0.95684896524E+03  0.95684896525E+03  0.50400001928E-02 0.  1.
    10030    2    1    2    0    0  0.00000000000E+00  0.00000000000E+00  0.96501655512E+03  0.28787144856E+04  0.27121467767E+04 0.  0.
        3    1    3    3  502    0  0.11864879082E+04  0.52307747285E+03  0.61176577157E+02  0.12981163979E+04  0.10100000352E+00 0. -1.
       -3    1    3    3    0  502 -0.11864879082E+04 -0.52307747285E+03  0.90383997797E+03  0.15805980877E+04  0.10100000352E+00 0.  1.
</event>
<event>
 5   0  0.7838364E-06  0.2715449E+04  0.7818609E-02  0.8330010E-01
       -2   -1    0    0    0  501  0.00000000000E+00  0.00000000000E+00  0.10000656091E+04  0.10000656091E+04  0.25500000920E-02 0.  1.
        2   -1    0    0  501    0  0.00000000000E+00  0.00000000000E+00 -0.18432942432E+04  0.18432942432E+04  0.25500000920E-02 0. -1.
    10030    2    1    2    0    0  0.00000000000E+00  0.00000000000E+00 -0.84322863408E+03  0.28433598522E+04  0.27154485302E+04 0.  0.
        2    1    3    3  502    0 -0.90930701936E+03 -0.43729563191E+03  0.52966690246E+03  0.11395673533E+04  0.25500000920E-02 0.  1.
       -2    1    3    3    0  502  0.90930701936E+03  0.43729563191E+03 -0.13728955365E+04  0.17037924989E+04  0.25500000920E-02 0. -1.
</event>
<event>
 5   0  0.7729970E-06  0.2698953E+04  0.7818609E-02  0.8335345E-01
       -2   -1    0    0    0  501  0.00000000000E+00  0.00000000000E+00  0.89454094058E+03  0.89454094058E+03  0.25500000920E-02 0. -1.
        2   -1    0    0  501    0  0.00000000000E+00  0.00000000000E+00 -0.20357787662E+04  0.20357787662E+04  0.25500000920E-02 0.  1.
    10030    2    1    2    0    0  0.00000000000E+00  0.00000000000E+00 -0.11412378256E+04  0.29303197068E+04  0.26989534656E+04 0.  0.
        4    1    3    3  502    0  0.57029933762E+03  0.16550868689E+03 -0.18862962529E+04  0.19775615355E+04  0.12699999809E+01 0.  1.
       -4    1    3    3    0  502 -0.57029933762E+03 -0.16550868689E+03  0.74505842732E+03  0.95275817128E+03  0.12699999809E+01 0. -1.
</event>
<event>
 5   0  0.8213334E-06  0.2704044E+04  0.7818609E-02  0.8333694E-01
       -2   -1    0    0    0  501  0.00000000000E+00  0.00000000000E+00  0.13442399361E+04  0.13442399361E+04  0.25500000920E-02 0. -1.
        2   -1    0    0  501    0  0.00000000000E+00  0.00000000000E+00 -0.13598493881E+04  0.13598493881E+04  0.25500000920E-02 0.  1.
    10030    2    1    2    0    0  0.00000000000E+00  0.00000000000E+00 -0.15609452047E+02  0.27040893242E+04  0.27040442708E+04 0.  0.
        3    1    3    3  502    0  0.82454632694E+03 -0.39304869982E+03  0.98900670483E+03  0.13462905326E+04  0.10100000352E+00 0. -1.
       -3    1    3    3    0  502 -0.82454632694E+03  0.39304869982E+03 -0.10046161569E+04  0.13577987916E+04  0.10100000352E+00 0.  1.
</event>
<event>
 5   0  0.3089218E-06  0.2643267E+04  0.7818609E-02  0.8353651E-01
       -1   -1    0    0    0  501  0.00000000000E+00  0.00000000000E+00  0.10898462826E+04  0.10898462826E+04  0.50400001928E-02 0. -1.
        1   -1    0    0  501    0  0.00000000000E+00  0.00000000000E+00 -0.16027174731E+04  0.16027174731E+04  0.50400001928E-02 0.  1.
    10030    2    1    2    0    0  0.00000000000E+00  0.00000000000E+00 -0.51287119049E+03  0.26925637557E+04  0.26432674327E+04 0.  0.
        5    1    3    3  502    0 -0.24733901955E+03 -0.41823263199E+03 -0.15084214148E+04  0.15847562525E+04  0.46999998093E+01 0.  1.
       -5    1    3    3    0  502  0.24733901955E+03  0.41823263199E+03  0.99555022435E+03  0.11078075033E+04  0.46999998093E+01 0. -1.
</event>
<event>
 5   0  0.7838364E-06  0.2711505E+04  0.7818609E-02  0.8331282E-01
       -2   -1    0    0    0  501  0.00000000000E+00  0.00000000000E+00  0.15091935305E+04  0.15091935305E+04  0.25500000920E-02 0.  1.
        2   -1    0    0  501    0  0.00000000000E+00  0.00000000000E+00 -0.12179123471E+04  0.12179123471E+04  0.25500000920E-02 0. -1.
    10030    2    1    2    0    0  0.00000000000E+00  0.00000000000E+00  0.29128118343E+03  0.27271058777E+04  0.27115054380E+04 0.  0.
        2    1    3    3  502    0  0.24500338769E+03  0.96126322084E+03 -0.78380389191E+03  0.12642793128E+04  0.25500000920E-02 0. -1.
       -2    1    3    3    0  502 -0.24500338769E+03 -0.96126322084E+03  0.10750850753E+04  0.14628265649E+04  0.25500000920E-02 0.  1.
</event>
<event>
 5   0  0.2654625E-06  0.2711592E+04  0.7818609E-02  0.8331254E-01
        3   -1    0    0  501    0  0.00000000000E+00  0.00000000000E+00  0.93081109603E+03  0.93081110151E+03  0.10100000352E+00 0. -1.
       -3   -1    0    0    0  501  0.00000000000E+00  0.00000000000E+00 -0.19748178728E+04  0.19748178754E+04  0.10100000352E+00 0.  1.
    10030    2    1    2    0    0  0.00000000000E+00  0.00000000000E+00 -0.10440067768E+04  0.29056289769E+04  0.27115917099E+04 0.  0.
        4    1    3    3  502    0 -0.22477470339E+03 -0.79470402167E+03 -0.16741667390E+04  0.18667924449E+04  0.12699999809E+01 0.  1.
       -4    1    3    3    0  502  0.22477470339E+03  0.79470402167E+03  0.63015996224E+03  0.10388365320E+04  0.12699999809E+01 0. -1.
</event>
<event>
 5   0  0.3013407E-06  0.2691174E+04  0.7818609E-02  0.8337874E-01
        1   -1    0    0  501    0  0.00000000000E+00  0.00000000000E+00  0.89400712792E+03  0.89400712793E+03  0.50400001928E-02 0. -1.
       -1   -1    0    0    0  501  0.00000000000E+00  0.00000000000E+00 -0.20252684125E+04  0.20252684125E+04  0.50400001928E-02 0.  1.
    10030    2    1    2    0    0  0.00000000000E+00  0.00000000000E+00 -0.11312612846E+04  0.29192755405E+04  0.26911740165E+04 0.  0.
        4    1    3    3  502    0 -0.10442296658E+04  0.39659837728E+03 -0.13794869658E+04  0.17750188082E+04  0.12699999809E+01 0.  1.
       -4    1    3    3    0  502  0.10442296658E+04 -0.39659837728E+03  0.24822568117E+03  0.11442567323E+04  0.12699999809E+01 0. -1.
</event>
<event>
 5   0  0.7838364E-06  0.2680467E+04  0.7818609E-02  0.8341371E-01
       -2   -1    0    0    0  501  0.00000000000E+00  0.00000000000E+00  0.76102024415E+03  0.76102024415E+03  0.25500000920E-02 0. -1.
        2   -1    0    0  501    0  0.00000000000E+00  0.00000000000E+00 -0.23602867068E+04  0.23602867068E+04  0.25500000920E-02 0.  1.
    10030    2    1    2    0    0  0.00000000000E+00  0.00000000000E+00 -0.15992664626E+04  0.31213069509E+04  0.26804670980E+04 0.  0.
        2    1    3    3  502    0  0.11729610087E+04 -0.95302941606E+01 -0.44707097868E+02  0.11738513871E+04  0.25500000920E-02 0. -1.
       -2    1    3    3    0  502 -0.11729610087E+04  0.95302941606E+01 -0.15545593648E+04  0.19474555638E+04  0.25500000920E-02 0.  1.
</event>
<event>
 5   0  0.3089218E-06  0.2694252E+04  0.7818609E-02  0.8336872E-01
        1   -1    0    0  501    0  0.00000000000E+00  0.00000000000E+00  0.17571756596E+04  0.17571756596E+04  0.50400001928E-02 0.  1.
       -1   -1    0    0    0  501  0.00000000000E+00  0.00000000000E+00 -0.10327647280E+04  0.10327647280E+04  0.50400001928E-02 0. -1.
    10030    2    1    2    0    0  0.00000000000E+00  0.00000000000E+00  0.72441093157E+03  0.27899403875E+04  0.26942524322E+04 0.  0.
        5    1    3    3  502    0  0.69316584853E+03  0.58486117730E+03 -0.66925614716E+03  0.11271501101E+04  0.46999998093E+01 0. -1.
       -5    1    3    3    0  502 -0.69316584853E+03 -0.58486117730E+03  0.13936670787E+04  0.16627902774E+04  0.46999998093E+01 0.  1.
</event>
<event>
 5   0  0.3089218E-06  0.2698865E+04  0.7818609E-02  0.8335373E-01
        1   -1    0    0  501    0  0.00000000000E+00  0.00000000000E+00  0.21323172429E+04  0.21323172429E+04  0.50400001928E-02 0. -1.
       -1   -1    0    0    0  501  0.00000000000E+00  0.00000000000E+00 -0.85398537991E+03  0.85398537993E+03  0.50400001928E-02 0.  1.
    10030    2    1    2    0    0  0.00000000000E+00  0.00000000000E+00  0.12783318630E+04  0.29863026228E+04  0.26988647619E+04 0.  0.
        5    1    3    3  502    0 -0.65748908711E+03  0.90475316820E+03  0.14746128628E+04  0.18507769666E+04  0.46999998093E+01 0. -1.
       -5    1    3    3    0  502  0.65748908711E+03 -0.90475316820E+03 -0.19628099982E+03  0.11355256562E+04  0.46999998093E+01 0.  1.
</event>
<event>
 5   0  0.3028601E-06  0.2706613E+04  0.7818609E-02  0.8332862E-01
        1   -1    0    0  501    0  0.00000000000E+00  0.00000000000E+00  0.23135740724E+04  0.23135740724E+04  0.50400001928E-02 0. -1.
       -1   -1    0    0    0  501  0.00000000000E+00  0.00000000000E+00 -0.79160573150E+03  0.79160573151E+03  0.50400001928E-02 0.  1.
    10030    2    1    2    0    0  0.00000000000E+00  0.00000000000E+00  0.15219683409E+04  0.31051798039E+04  0.27066130096E+04 0.  0.
        3    1    3    3  502    0 -0.12251106594E+04 -0.20320874700E+03  0.14396850137E+03  0.12501667337E+04  0.10100000352E+00 0.  1.
       -3    1    3    3    0  502  0.12251106594E+04  0.20320874700E+03  0.13779998395E+04  0.18550130702E+04  0.10100000352E+00 0. -1.
</event>
<event>
 5   0  0.3046300E-06  0.2688086E+04  0.7818609E-02  0.8338881E-01
        1   -1    0    0  501    0  0.00000000000E+00  0.00000000000E+00  0.11950206580E+04  0.11950206580E+04  0.50400001928E-02 0. -1.
       -1   -1    0    0    0  501  0.00000000000E+00  0.00000000000E+00 -0.15116492802E+04  0.15116492802E+04  0.50400001928E-02 0.  1.
    10030    2    1    2    0    0  0.00000000000E+00  0.00000000000E+00 -0.31662862222E+03  0.27066699383E+04  0.26880863956E+04 0.  0.
        2    1    3    3  502    0 -0.79661623365E+03 -0.88881467653E+02 -0.12446402019E+04  0.14804143242E+04  0.25500000920E-02 0.  1.
       -2    1    3    3    0  502  0.79661623365E+03  0.88881467653E+02  0.92801157970E+03  0.12262556141E+04  0.25500000920E-02 0. -1.
</event>
<event>
 5   0  0.7812908E-06  0.2693847E+04  0.7818609E-02  0.8337004E-01
       -2   -1    0    0    0  501  0.00000000000E+00  0.00000000000E+00  0.18586721104E+04  0.18586721104E+04  0.25500000920E-02 0. -1.
        2   -1    0    0  501    0  0.00000000000E+00  0.00000000000E+00 -0.97607502874E+03  0.97607502875E+03  0.25500000920E-02 0.  1.
    10030    2    1    2    0    0  0.00000000000E+00  0.00000000000E+00  0.88259708168E+03  0.28347471392E+04  0.26938473851E+04 0.  0.
        5    1    3    3  502    0  0.38971975294E+03  0.60117198905E+03  0.16415216252E+04  0.17910624172E+04  0.46999998093E+01 0. -1.
       -5    1    3    3    0  502 -0.38971975294E+03 -0.60117198905E+03 -0.75892454349E+03  0.10436847220E+04  0.46999998093E+01 0.  1.
</event>
<event>
 5   0  0.3013407E-06  0.2708447E+04  0.7818609E-02  0.8332269E-01
        1   -1    0    0  501    0  0.00000000000E+00  0.00000000000E+00  0.17275107423E+04  0.17275107423E+04  0.50400001928E-02 0. -1.
       -1   -1    0    0    0  501  0.00000000000E+00  0.00000000000E+00 -0.10615977519E+04  0.10615977519E+04  0.50400001928E-02 0.  1.
    10030    2    1    2    0    0  0.00000000000E+00  0.00000000000E+00  0.66591299038E+03  0.27891084943E+04  0.27084471717E+04 0.  0.
        4    1    3    3  502    0  0.66798158011E+03 -0.59898292051E+03  0.13775325348E+04  0.16439517717E+04  0.12699999809E+01 0. -1.
       -4    1    3    3    0  502 -0.66798158011E+03  0.59898292051E+03 -0.71161954438E+03  0.11451567226E+04  0.12699999809E+01 0.  1.
</event>
<event>
 5   0  0.3089218E-06  0.2705428E+04  0.7818609E-02  0.8333246E-01
        1   -1    0    0  501    0  0.00000000000E+00  0.00000000000E+00  0.17465503244E+04  0.17465503244E+04  0.50400001928E-02 0. -1.
       -1   -1    0    0    0  501  0.00000000000E+00  0.00000000000E+00 -0.10476851847E+04  0.10476851847E+04  0.50400001928E-02 0.  1.
    10030    2    1    2    0    0  0.00000000000E+00  0.00000000000E+00  0.69886513971E+03  0.27942355091E+04  0.27054278029E+04 0.  0.
        5    1    3    3  502    0  0.99245434568E+03  0.47373146757E+03  0.11629595120E+04  0.16005886568E+04  0.46999998093E+01 0. -1.
       -5    1    3    3    0  502 -0.99245434568E+03 -0.47373146757E+03 -0.46409437231E+03  0.11936468523E+04  0.46999998093E+01 0.  1.
</event>
<event>
 5   0  0.7838364E-06  0.2606115E+04  0.7818609E-02  0.8366127E-01
        2   -1    0    0  501    0  0.00000000000E+00  0.00000000000E+00  0.12520060452E+04  0.12520060452E+04  0.25500000920E-02 0.  1.
       -2   -1    0    0    0  501  0.00000000000E+00  0.00000000000E+00 -0.13561908542E+04  0.13561908542E+04  0.25500000920E-02 0. -1.
    10030    2    1    2    0    0  0.00000000000E+00  0.00000000000E+00 -0.10418480903E+03  0.26081968993E+04  0.26061152299E+04 0.  0.
        2    1    3    3  502    0 -0.11219624150E+04 -0.36089383119E+03 -0.60833769844E+03  0.13263177498E+04  0.25500000920E-02 0. -1.
       -2    1    3    3    0  502  0.11219624150E+04  0.36089383119E+03  0.50415288942E+03  0.12818791495E+04  0.25500000920E-02 0.  1.
</event>
<event>
 5   0  0.3046300E-06  0.2691790E+04  0.7818609E-02  0.8337674E-01
        1   -1    0    0  501    0  0.00000000000E+00  0.00000000000E+00  0.21276030523E+04  0.21276030523E+04  0.50400001928E-02 0.  1.
       -1   -1    0    0    0  501  0.00000000000E+00  0.00000000000E+00 -0.85139638616E+03  0.85139638617E+03  0.50400001928E-02 0. -1.
    10030    2    1    2    0    0  0.00000000000E+00  0.00000000000E+00  0.12762066661E+04  0.29789994385E+04  0.26917901478E+04 0.  0.
        2    1    3    3  502    0  0.47831588507E+03  0.53488235552E+03  0.18982572020E+04  0.20293510354E+04  0.25500000920E-02 0.  1.
       -2    1    3    3    0  502 -0.47831588507E+03 -0.53488235552E+03 -0.62205053587E+03  0.94964840301E+03  0.25500000920E-02 0. -1.
</event>
<event>
 5   0  0.7812908E-06  0.2740203E+04  0.7818609E-02  0.8322077E-01
        2   -1    0    0  501    0  0.00000000000E+00  0.00000000000E+00  0.15833009007E+04  0.15833009007E+04  0.25500000920E-02 0. -1.
       -2   -1    0    0    0  501  0.00000000000E+00  0.00000000000E+00 -0.11856108680E+04  0.11856108680E+04  0.25500000920E-02 0.  1.
    10030    2    1    2    0    0  0.00000000000E+00  0.00000000000E+00  0.39769003270E+03  0.27689117688E+04  0.27402034635E+04 0.  0.
        5    1    3    3  502    0 -0.13008824150E+04  0.42843928256E+03  0.16239230620E+03  0.13792202970E+04  0.46999998093E+01 0. -1.
       -5    1    3    3    0  502  0.13008824150E+04 -0.42843928256E+03  0.23529772650E+03  0.13896914718E+04  0.46999998093E+01 0.  1.
</event>
<event>
 5   0  0.3199840E-06  0.2686025E+04  0.7818609E-02  0.8339554E-01
       -1   -1    0    0    0  501  0.00000000000E+00  0.00000000000E+00  0.83068273218E+03  0.83068273219E+03  0.50400001928E-02 0.  1.
        1   -1    0    0  501    0  0.00000000000E+00  0.00000000000E+00 -0.21713260869E+04  0.21713260869E+04  0.50400001928E-02 0. -1.
    10030    2    1    2    0    0  0.00000000000E+00  0.00000000000E+00 -0.13406433547E+04  0.30020088191E+04  0.26860253806E+04 0.  0.
        1    1    3    3  502    0 -0.89016481874E+03 -0.40624996399E+03 -0.16984595542E+04  0.19601523653E+04  0.50400001928E-02 0. -1.
       -1    1    3    3    0  502  0.89016481874E+03  0.40624996399E+03  0.35781619949E+03  0.10418564538E+04  0.50400001928E-02 0.  1.
</event>
<event>
 5   0  0.8213334E-06  0.2683515E+04  0.7818609E-02  0.8340374E-01
        2   -1    0    0  501    0  0.00000000000E+00  0.00000000000E+00  0.32681616523E+04  0.32681616523E+04  0.25500000920E-02 0.  1.
       -2   -1    0    0    0  501  0.00000000000E+00  0.00000000000E+00 -0.55086406167E+03  0.55086406168E+03  0.25500000920E-02 0. -1.
    10030    2    1    2    0    0  0.00000000000E+00  0.00000000000E+00  0.27172975906E+04  0.38190257140E+04  0.26835147117E+04 0.  0.
        3    1    3    3  502    0  0.12495548287E+04 -0.48221173247E+03  0.12448207622E+04  0.18285223994E+04  0.10100000352E+00 0.  1.
       -3    1    3    3    0  502 -0.12495548287E+04  0.48221173247E+03  0.14724768285E+04  0.19905033146E+04  0.10100000352E+00 0. -1.
</event>
<event>
 5   0  0.7812908E-06  0.2697058E+04  0.7818609E-02  0.8335960E-01
        2   -1    0    0  501    0  0.00000000000E+00  0.00000000000E+00  0.14686781698E+04  0.14686781698E+04  0.25500000920E-02 0. -1.
       -2   -1    0    0    0  501  0.00000000000E+00  0.00000000000E+00 -0.12382084998E+04  0.12382084998E+04  0.25500000920E-02 0.  1.
    10030    2    1    2    0    0  0.00000000000E+00  0.00000000000E+00  0.23046966995E+03  0.27068866696E+04  0.26970575028E+04 0.  0.
        5    1    3    3  502    0 -0.19197667544E+03  0.78033316867E+03 -0.97163967716E+03  0.12609046952E+04  0.46999998093E+01 0.  1.
       -5    1    3    3    0  502  0.19197667544E+03 -0.78033316867E+03  0.12021093471E+04  0.14459819745E+04  0.46999998093E+01 0. -1.
</event>
<event>
 5   0  0.3199840E-06  0.2687839E+04  0.7818609E-02  0.8338962E-01
        1   -1    0    0  501    0  0.00000000000E+00  0.00000000000E+00  0.14196219750E+04  0.14196219750E+04  0.50400001928E-02 0.  1.
       -1   -1    0    0    0  501  0.00000000000E+00  0.00000000000E+00 -0.12722536856E+04  0.12722536856E+04  0.50400001928E-02 0. -1.
    10030    2    1    2    0    0  0.00000000000E+00  0.00000000000E+00  0.14736828941E+03  0.26918756607E+04  0.26878387526E+04 0.  0.
        1    1    3    3  502    0  0.61389554395E+03 -0.26547317687E+03 -0.10937318660E+04  0.12820269659E+04  0.50400001928E-02 0. -1.
       -1    1    3    3    0  502 -0.61389554395E+03  0.26547317687E+03  0.12411001554E+04  0.14098486948E+04  0.50400001928E-02 0.  1.
</event>
<event>
 5   0  0.7838364E-06  0.2681081E+04  0.7818609E-02  0.8341170E-01
       -2   -1    0    0    0  501  0.00000000000E+00  0.00000000000E+00  0.13438194949E+04  0.13438194949E+04  0.25500000920E-02 0. -1.
        2   -1    0    0  501    0  0.00000000000E+00  0.00000000000E+00 -0.13372699181E+04  0.13372699181E+04  0.25500000920E-02 0.  1.
    10030    2    1    2    0    0  0.00000000000E+00  0.00000000000E+00  0.65495767822E+01  0.26810894130E+04  0.26810814131E+04 0.  0.
        2    1    3    3  502    0  0.78535809369E+03 -0.91286925542E+03  0.59228569107E+03  0.13419835888E+04  0.25500000920E-02 0. -1.
       -2    1    3    3    0  502 -0.78535809369E+03  0.91286925542E+03 -0.58573611429E+03  0.13391058242E+04  0.25500000920E-02 0.  1.
</event>
<event>
 5   0  0.7812908E-06  0.2723764E+04  0.7818609E-02  0.8327335E-01
        2   -1    0    0  501    0  0.00000000000E+00  0.00000000000E+00  0.10511464327E+04  0.10511464327E+04  0.25500000920E-02 0.  1.
       -2   -1    0    0    0  501  0.00000000000E+00  0.00000000000E+00 -0.17644758874E+04  0.17644758874E+04  0.25500000920E-02 0. -1.
    10030    2    1    2    0    0  0.00000000000E+00  0.00000000000E+00 -0.71332945468E+03  0.28156223201E+04  0.27237639653E+04 0.  0.
        5    1    3    3  502    0  0.24314802628E+03 -0.16906410823E+03  0.10174494232E+04  0.10596834688E+04  0.46999998093E+01 0.  1.
       -5    1    3    3    0  502 -0.24314802628E+03  0.16906410823E+03 -0.17307788779E+04  0.17559388513E+04  0.46999998093E+01 0. -1.
</event>
<event>
 5   0  0.3046300E-06  0.2682828E+04  0.7818609E-02  0.8340598E-01
        1   -1    0    0  501    0  0.00000000000E+00  0.00000000000E+00  0.21507099269E+04  0.21507099269E+04  0.50400001928E-02 0.  1.
       -1   -1    0    0    0  501  0.00000000000E+00  0.00000000000E+00 -0.83665009266E+03  0.83665009268E+03  0.50400001928E-02 0. -1.
    10030    2    1    2    0    0  0.00000000000E+00  0.00000000000E+00  0.13140598343E+04  0.29873600196E+04  0.26828281046E+04 0.  0.
        2    1    3    3  502    0 -0.11493211154E+03  0.11366615645E+03  0.21398252300E+04  0.21459220396E+04  0.25500000920E-02 0.  1.
       -2    1    3    3    0  502  0.11493211154E+03 -0.11366615645E+03 -0.82576539571E+03  0.84143797997E+03  0.25500000920E-02 0. -1.
</event>
<event>
 5   0  0.7812908E-06  0.2660102E+04  0.7818609E-02  0.8348068E-01
        2   -1    0    0  501    0  0.00000000000E+00  0.00000000000E+00  0.21038700524E+04  0.21038700524E+04  0.25500000920E-02 0. -1.
       -2   -1    0    0    0  501  0.00000000000E+00  0.00000000000E+00 -0.84084831831E+03  0.84084831832E+03  0.25500000920E-02 0.  1.
    10030    2    1    2    0    0  0.00000000000E+00  0.00000000000E+00  0.12630217341E+04  0.29447183707E+04  0.26601019496E+04 0.  0.
        5    1    3    3  502    0 -0.57754213710E+03  0.37465234859E+03 -0.62827335258E+03  0.93202403295E+03  0.46999998093E+01 0.  1.
       -5    1    3    3    0  502  0.57754213710E+03 -0.37465234859E+03  0.18912950867E+04  0.20126943378E+04  0.46999998093E+01 0. -1.
</event>
<event>
 5   0  0.3013407E-06  0.2702896E+04  0.7818609E-02  0.8334066E-01
       -1   -1    0    0    0  501  0.00000000000E+00  0.00000000000E+00  0.10683614047E+04  0.10683614047E+04  0.50400001928E-02 0.  1.
        1   -1    0    0  501    0  0.00000000000E+00  0.00000000000E+00 -0.17095449606E+04  0.17095449607E+04  0.50400001928E-02 0. -1.
    10030    2    1    2    0    0  0.00000000000E+00  0.00000000000E+00 -0.64118355593E+03  0.27779063654E+04  0.27028961176E+04 0.  0.
        4    1    3    3  502    0 -0.32807456356E+03  0.77933363948E+03 -0.14040861237E+04  0.16390403585E+04  0.12699999809E+01 0. -1.
       -4    1    3    3    0  502  0.32807456356E+03 -0.77933363948E+03  0.76290256781E+03  0.11388660069E+04  0.12699999809E+01 0.  1.
</event>
<event>
 5   0  0.3089218E-06  0.2710234E+04  0.7818609E-02  0.8331692E-01
        1   -1    0    0  501    0  0.00000000000E+00  0.00000000000E+00  0.11482862584E+04  0.11482862584E+04  0.50400001928E-02 0. -1.
       -1   -1    0    0    0  501  0.00000000000E+00  0.00000000000E+00 -0.15992022467E+04  0.15992022467E+04  0.50400001928E-02 0.  1.
    10030    2    1    2    0    0  0.00000000000E+00  0.00000000000E+00 -0.45091598824E+03  0.27474885051E+04  0.27102339119E+04 0.  0.
        5    1    3    3  502    0 -0.72793231184E+03 -0.11344358011E+04 -0.36698300988E+03  0.13969712441E+04  0.46999998093E+01 0.  1.
       -5    1    3    3    0  502  0.72793231184E+03  0.11344358011E+04 -0.83932978356E+02  0.13505172610E+04  0.46999998093E+01 0. -1.
</event>
<event>
 5   0  0.3089218E-06  0.2701031E+04  0.7818609E-02  0.8334671E-01
       -1   -1    0    0    0  501  0.00000000000E+00  0.00000000000E+00  0.12590871901E+04  0.12590871901E+04  0.50400001928E-02 0. -1.
        1   -1    0    0  501    0  0.00000000000E+00  0.00000000000E+00 -0.14485824327E+04  0.14485824327E+04  0.50400001928E-02 0.  1.
    10030    2    1    2    0    0  0.00000000000E+00  0.00000000000E+00 -0.18949524266E+03  0.27076696228E+04  0.27010306069E+04 0.  0.
        5    1    3    3  502    0  0.90574585547E+03  0.43759704899E+03 -0.99807447447E+03  0.14170538023E+04  0.46999998093E+01 0.  1.
       -5    1    3    3    0  502 -0.90574585547E+03 -0.43759704899E+03  0.80857923181E+03  0.12906158205E+04  0.46999998093E+01 0. -1.
</event>
<event>
 5   0  0.2654625E-06  0.2708929E+04  0.7818609E-02  0.8332114E-01
       -3   -1    0    0    0  501  0.00000000000E+00  0.00000000000E+00  0.27819954969E+04  0.27819954987E+04  0.10100000352E+00 0. -1.
        3   -1    0    0  501    0  0.00000000000E+00  0.00000000000E+00 -0.65944551446E+03  0.65944552219E+03  0.10100000352E+00 0.  1.
    10030    2    1    2    0    0  0.00000000000E+00  0.00000000000E+00  0.21225499824E+04  0.34414410209E+04  0.27089292853E+04 0.  0.
        1    1    3    3  502    0 -0.26258384916E+03 -0.94199055556E+03  0.22518552053E+04  0.24550251222E+04  0.50400001928E-02 0. -1.
       -1    1    3    3    0  502  0.26258384916E+03  0.94199055556E+03 -0.12930522292E+03  0.98641589875E+03  0.50400001928E-02 0.  1.
</event>
<event>
 5   0  0.8213334E-06  0.2682987E+04  0.7818609E-02  0.8340546E-01
        2   -1    0    0  501    0  0.00000000000E+00  0.00000000000E+00  0.15323888303E+04  0.15323888303E+04  0.25500000920E-02 0.  1.
       -2   -1    0    0    0  501  0.00000000000E+00  0.00000000000E+00 -0.11743784617E+04  0.11743784617E+04  0.25500000920E-02 0. -1.
    10030    2    1    2    0    0  0.00000000000E+00  0.00000000000E+00  0.35801036868E+03  0.27067672920E+04  0.26829867217E+04 0.  0.
        3    1    3    3  502    0 -0.88500772617E+03  0.22574569789E+02 -0.83782516853E+03  0.12188926572E+04  0.10100000352E+00 0. -1.
       -3    1    3    3    0  502  0.88500772617E+03 -0.22574569789E+02  0.11958355372E+04  0.14878746348E+04  0.10100000352E+00 0.  1.
</event>
<event>
 5   0  0.3089218E-06  0.2709544E+04  0.7818609E-02  0.8331915E-01
        1   -1    0    0  501    0  0.00000000000E+00  0.00000000000E+00  0.17642445896E+04  0.17642445896E+04  0.50400001928E-02 0.  1.
       -1   -1    0    0    0  501  0.00000000000E+00  0.00000000000E+00 -0.10403363862E+04  0.10403363862E+04  0.50400001928E-02 0. -1.
    10030    2    1    2    0    0  0.00000000000E+00  0.00000000000E+00  0.72390820347E+03  0.28045809758E+04  0.27095444936E+04 0.  0.
        5    1    3    3  502    0  0.63706759281E+01  0.92111373762E+03 -0.66631572835E+03  0.11368772330E+04  0.46999998093E+01 0. -1.
       -5    1    3    3    0  502 -0.63706759281E+01 -0.92111373762E+03  0.13902239318E+04  0.16677037428E+04  0.46999998093E+01 0.  1.
</event>
<event>
 5   0  0.3089218E-06  0.2691430E+04  0.7818609E-02  0.8337791E-01
       -1   -1    0    0    0  501  0.00000000000E+00  0.00000000000E+00  0.90897800265E+03  0.90897800267E+03  0.50400001928E-02 0. -1.
        1   -1    0    0  501    0  0.00000000000E+00  0.00000000000E+00 -0.19922910724E+04  0.19922910724E+04  0.50400001928E-02 0.  1.
    10030    2    1    2    0    0  0.00000000000E+00  0.00000000000E+00 -0.10833130698E+04  0.29012690751E+04  0.26914299246E+04 0.  0.
        5    1    3    3  502    0 -0.65548882720E+02 -0.46611549484E+03  0.81733559058E+03  0.94319662223E+03  0.46999998093E+01 0. -1.
       -5    1    3    3    0  502  0.65548882720E+02  0.46611549484E+03 -0.19006486603E+04  0.19580724528E+04  0.46999998093E+01 0.  1.
</event>
<event>
 5   0  0.8213334E-06  0.2734315E+04  0.7818609E-02  0.8323956E-01
       -2   -1    0    0    0  501  0.00000000000E+00  0.00000000000E+00  0.13008208970E+04  0.13008208970E+04  0.25500000920E-02 0.  1.
        2   -1    0    0  501    0  0.00000000000E+00  0.00000000000E+00 -0.14368765098E+04  0.14368765098E+04  0.25500000920E-02 0. -1.
    10030    2    1    2    0    0  0.00000000000E+00  0.00000000000E+00 -0.13605561277E+03  0.27376974068E+04  0.27343145322E+04 0.  0.
        3    1    3    3  502    0 -0.10216165874E+04  0.83735956895E+03 -0.42095146261E+03  0.13863879844E+04  0.10100000352E+00 0. -1.
       -3    1    3    3    0  502  0.10216165874E+04 -0.83735956895E+03  0.28489584983E+03  0.13513094223E+04  0.10100000352E+00 0.  1.
</event>
<event>
 5   0  0.8407622E-06  0.2713833E+04  0.7818609E-02  0.8330531E-01
       -2   -1    0    0    0  501  0.00000000000E+00  0.00000000000E+00  0.15655347913E+04  0.15655347913E+04  0.25500000920E-02 0. -1.
        2   -1    0    0  501    0  0.00000000000E+00  0.00000000000E+00 -0.11760976090E+04  0.11760976090E+04  0.25500000920E-02 0.  1.
    10030    2    1    2    0    0  0.00000000000E+00  0.00000000000E+00  0.38943718224E+03  0.27416324003E+04  0.27138325113E+04 0.  0.
        1    1    3    3  502    0 -0.15954690919E+03  0.76085162312E+03 -0.92882115877E+03  0.12112221735E+04  0.50400001928E-02 0.  1.
       -1    1    3    3    0  502  0.15954690919E+03 -0.76085162312E+03  0.13182583410E+04  0.15304102268E+04  0.50400001928E-02 0. -1.
</event>
<event>
 5   0  0.7729970E-06  0.2666667E+04  0.7818609E-02  0.8345902E-01
       -2   -1    0    0    0  501  0.00000000000E+00  0.00000000000E+00  0.12891989096E+04  0.12891989096E+04  0.25500000920E-02 0. -1.
        2   -1    0    0  501    0  0.00000000000E+00  0.00000000000E+00 -0.13789787475E+04  0.13789787475E+04  0.25500000920E-02 0.  1.
    10030    2    1    2    0    0  0.00000000000E+00  0.00000000000E+00 -0.89779837886E+02  0.26681776570E+04  0.26666667565E+04 0.  0.
        4    1    3    3  502    0  0.10436098745E+04 -0.82390232637E+03 -0.14414123831E+03  0.13374284740E+04  0.12699999809E+01 0. -1.
       -4    1    3    3    0  502 -0.10436098745E+04  0.82390232637E+03  0.54361400422E+02  0.13307491831E+04  0.12699999809E+01 0.  1.
</event>
<event>
 5   0  0.3046300E-06  0.2810826E+04  0.7818609E-02  0.8299915E-01
        1   -1    0    0  501    0  0.00000000000E+00  0.00000000000E+00  0.99832923226E+03  0.99832923228E+03  0.50400001928E-02 0. -1.
       -1   -1    0    0    0  501  0.00000000000E+00  0.00000000000E+00 -0.19784914339E+04  0.19784914339E+04  0.50400001928E-02 0.  1.
    10030    2    1    2    0    0  0.00000000000E+00  0.00000000000E+00 -0.98016220166E+03  0.29768206662E+04  0.28108260952E+04 0.  0.
        2    1    3    3  502    0 -0.11609493419E+04 -0.45041295506E+03 -0.11801031682E+04  0.17156102973E+04  0.25500000920E-02 0.  1.
       -2    1    3    3    0  502  0.11609493419E+04  0.45041295506E+03  0.19994096657E+03  0.12612103689E+04  0.25500000920E-02 0. -1.
</event>
<event>
 5   0  0.7812908E-06  0.2752225E+04  0.7818609E-02  0.8318256E-01
       -2   -1    0    0    0  501  0.00000000000E+00  0.00000000000E+00  0.15523544266E+04  0.15523544266E+04  0.25500000920E-02 0. -1.
        2   -1    0    0  501    0  0.00000000000E+00  0.00000000000E+00 -0.12198799494E+04  0.12198799494E+04  0.25500000920E-02 0.  1.
    10030    2    1    2    0    0  0.00000000000E+00  0.00000000000E+00  0.33247447714E+03  0.27722343760E+04  0.27522253101E+04 0.  0.
        5    1    3    3  502    0  0.17292406277E+03 -0.10277412723E+04 -0.73891091826E+03  0.12775626362E+04  0.46999998093E+01 0.  1.
       -5    1    3    3    0  502 -0.17292406277E+03  0.10277412723E+04  0.10713853954E+04  0.14946717398E+04  0.46999998093E+01 0. -1.
</event>
<event>
 5   0  0.3013407E-06  0.2701633E+04  0.7818609E-02  0.8334475E-01
       -1   -1    0    0    0  501  0.00000000000E+00  0.00000000000E+00  0.19968067812E+04  0.19968067812E+04  0.50400001928E-02 0.  1.
        1   -1    0    0  501    0  0.00000000000E+00  0.00000000000E+00 -0.91381187797E+03  0.91381187798E+03  0.50400001928E-02 0. -1.
    10030    2    1    2    0    0  0.00000000000E+00  0.00000000000E+00  0.10829949032E+04  0.29106186592E+04  0.27016333983E+04 0.  0.
        4    1    3    3  502    0  0.28808506991E+03  0.89143430693E+03  0.15899450399E+04  0.18454199993E+04  0.12699999809E+01 0.  1.
       -4    1    3    3    0  502 -0.28808506991E+03 -0.89143430693E+03 -0.50695013665E+03  0.10651986599E+04  0.12699999809E+01 0. -1.
</event>
<event>
 5   0  0.8407622E-06  0.2701156E+04  0.7818609E-02  0.8334630E-01
       -2   -1    0    0    0  501  0.00000000000E+00  0.00000000000E+00  0.14780428238E+04  0.14780428238E+04  0.25500000920E-02 0.  1.
        2   -1    0    0  501    0  0.00000000000E+00  0.00000000000E+00 -0.12341058159E+04  0.12341058159E+04  0.25500000920E-02 0. -1.
    10030    2    1    2    0    0  0.00000000000E+00  0.00000000000E+00  0.24393700783E+03  0.27121486397E+04  0.27011562302E+04 0.  0.
        1    1    3    3  502    0 -0.42936109911E+03  0.51036784170E+03  0.13011561259E+04  0.14621332194E+04  0.50400001928E-02 0.  1.
       -1    1    3    3    0  502  0.42936109911E+03 -0.51036784170E+03 -0.10572191181E+04  0.12500154203E+04  0.50400001928E-02 0. -1.
</event>
<event>
 5   0  0.7812908E-06  0.2618492E+04  0.7818609E-02  0.8361947E-01
       -2   -1    0    0    0  501  0.00000000000E+00  0.00000000000E+00  0.67671994749E+03  0.67671994750E+03  0.25500000920E-02 0.  1.
        2   -1    0    0  501    0  0.00000000000E+00  0.00000000000E+00 -0.25329895589E+04  0.25329895589E+04  0.25500000920E-02 0. -1.
    10030    2    1    2    0    0  0.00000000000E+00  0.00000000000E+00 -0.18562696114E+04  0.32097095064E+04  0.26184915973E+04 0.  0.
        5    1    3    3  502    0  0.11340575430E+04 -0.48701947559E+03 -0.14636053465E+04  0.19145331495E+04  0.46999998093E+01 0. -1.
       -5    1    3    3    0  502 -0.11340575430E+04  0.48701947559E+03 -0.39266426497E+03  0.12951763569E+04  0.46999998093E+01 0.  1.
</event>
<event>
 5   0  0.7838364E-06  0.2697012E+04  0.7818609E-02  0.8335975E-01
        2   -1    0    0  501    0  0.00000000000E+00  0.00000000000E+00  0.13310987813E+04  0.13310987813E+04  0.25500000920E-02 0.  1.
       -2   -1    0    0    0  501  0.00000000000E+00  0.00000000000E+00 -0.13661407451E+04  0.13661407451E+04  0.25500000920E-02 0. -1.
    10030    2    1    2    0    0  0.00000000000E+00  0.00000000000E+00 -0.35041963768E+02  0.26972395265E+04  0.26970118880E+04 0.  0.
        2    1    3    3  502    0  0.12532846581E+02  0.19409980481E+02 -0.13659427839E+04  0.13661381732E+04  0.25500000920E-02 0. -1.
       -2    1    3    3    0  502 -0.12532846581E+02 -0.19409980481E+02  0.13309008201E+04  0.13311013532E+04  0.25500000920E-02 0.  1.
</event>
<event>
 5   0  0.3199840E-06  0.2703081E+04  0.7818609E-02  0.8334006E-01
       -1   -1    0    0    0  501  0.00000000000E+00  0.00000000000E+00  0.11638059606E+04  0.11638059606E+04  0.50400001928E-02 0. -1.
        1   -1    0    0  501    0  0.00000000000E+00  0.00000000000E+00 -0.15695582462E+04  0.15695582462E+04  0.50400001928E-02 0.  1.
    10030    2    1    2    0    0  0.00000000000E+00  0.00000000000E+00 -0.40575228561E+03  0.27333642069E+04  0.27030806444E+04 0.  0.
        1    1    3    3  502    0  0.37788221537E+03 -0.54283098128E+03 -0.13947245286E+04  0.15436051807E+04  0.50400001928E-02 0.  1.
       -1    1    3    3    0  502 -0.37788221537E+03  0.54283098128E+03  0.98897224304E+03  0.11897590262E+04  0.50400001928E-02 0. -1.
</event>
<event>
 5   0  0.3013407E-06  0.2660282E+04  0.7818609E-02  0.8348008E-01
       -1   -1    0    0    0  501  0.00000000000E+00  0.00000000000E+00  0.23637783364E+04  0.23637783364E+04  0.50400001928E-02 0. -1.
        1   -1    0    0  501    0  0.00000000000E+00  0.00000000000E+00 -0.74849451429E+03  0.74849451431E+03  0.50400001928E-02 0.  1.
    10030    2    1    2    0    0  0.00000000000E+00  0.00000000000E+00  0.16152838221E+04  0.31122728508E+04  0.26602820286E+04 0.  0.
        4    1    3    3  502    0 -0.32605551167E+03 -0.53674090344E+02  0.23149934363E+04  0.23384587505E+04  0.12699999809E+01 0. -1.
       -4    1    3    3    0  502  0.32605551167E+03  0.53674090344E+02 -0.69970961418E+03  0.77381410025E+03  0.12699999809E+01 0.  1.
</event>
<event>
 5   0  0.7838364E-06  0.2694653E+04  0.7818609E-02  0.8336742E-01
       -2   -1    0    0    0  501  0.00000000000E+00  0.00000000000E+00  0.24413415944E+04  0.24413415944E+04  0.25500000920E-02 0. -1.
        2   -1    0    0  501    0  0.00000000000E+00  0.00000000000E+00 -0.74356220812E+03  0.74356220812E+03  0.25500000920E-02 0.  1.
    10030    2    1    2    0    0  0.00000000000E+00  0.00000000000E+00  0.16977793862E+04  0.31849038025E+04  0.26946534818E+04 0.  0.
        2    1    3    3  502    0 -0.32000349980E+03 -0.14213117784E+03  0.23866249581E+04  0.24121737504E+04  0.25500000920E-02 0. -1.
       -2    1    3    3    0  502  0.32000349980E+03  0.14213117784E+03 -0.68884557182E+03  0.77273005210E+03  0.25500000920E-02 0.  1.
</event>
<event>
 5   0  0.7812908E-06  0.2687362E+04  0.7818609E-02  0.8339117E-01
       -2   -1    0    0    0  501  0.00000000000E+00  0.00000000000E+00  0.11633391961E+04  0.11633391961E+04  0.25500000920E-02 0.  1.
        2   -1    0    0  501    0  0.00000000000E+00  0.00000000000E+00 -0.15519791560E+04  0.15519791560E+04  0.25500000920E-02 0. -1.
    10030    2    1    2    0    0  0.00000000000E+00  0.00000000000E+00 -0.38863995986E+03  0.27153183521E+04  0.26873616680E+04 0.  0.
        5    1    3    3  502    0  0.61063033540E+03  0.29612623337E+03  0.97744085542E+03  0.11899465822E+04  0.46999998093E+01 0.  1.
       -5    1    3    3    0  502 -0.61063033540E+03 -0.29612623337E+03 -0.13660808153E+04  0.15253717699E+04  0.46999998093E+01 0. -1.
</event>
<event>
 5   0  0.3013407E-06  0.2780506E+04  0.7818609E-02  0.8309346E-01
        1   -1    0    0  501    0  0.00000000000E+00  0.00000000000E+00  0.14509686646E+04  0.14509686646E+04  0.50400001928E-02 0.  1.
       -1   -1    0    0    0  501  0.00000000000E+00  0.00000000000E+00 -0.13320775485E+04  0.13320775485E+04  0.50400001928E-02 0. -1.
    10030    2    1    2    0    0  0.00000000000E+00  0.00000000000E+00  0.11889111601E+03  0.27830462131E+04  0.27805055524E+04 0.  0.
        4    1    3    3  502    0 -0.96600641299E+03 -0.80191189117E+03  0.65712609184E+03  0.14170558862E+04  0.12699999809E+01 0.  1.
       -4    1    3    3    0  502  0.96600641299E+03  0.80191189117E+03 -0.53823497582E+03  0.13659903269E+04  0.12699999809E+01 0. -1.
</event>
<event>
 5   0  0.3046300E-06  0.2770835E+04  0.7818609E-02  0.8312381E-01
       -1   -1    0    0    0  501  0.00000000000E+00  0.00000000000E+00  0.10313082312E+04  0.10313082312E+04  0.50400001928E-02 0. -1.
        1   -1    0    0  501    0  0.00000000000E+00  0.00000000000E+00 -0.18611131115E+04  0.18611131115E+04  0.50400001928E-02 0.  1.
    10030    2    1    2    0    0  0.00000000000E+00  0.00000000000E+00 -0.82980488035E+03  0.28924213427E+04  0.27708347270E+04 0.  0.
        2    1    3    3  502    0  0.12225856770E+04 -0.10768653946E+03  0.25600454265E+03  0.12537346028E+04  0.25500000920E-02 0. -1.
       -2    1    3    3    0  502 -0.12225856770E+04  0.10768653946E+03 -0.10858094230E+04  0.16386867399E+04  0.25500000920E-02 0.  1.
</event>
<event>
 5   0  0.7729970E-06  0.2691237E+04  0.7818609E-02  0.8337854E-01
        2   -1    0    0  501    0  0.00000000000E+00  0.00000000000E+00  0.20257142019E+04  0.20257142019E+04  0.25500000920E-02 0.  1.
       -2   -1    0    0    0  501  0.00000000000E+00  0.00000000000E+00 -0.89385237548E+03  0.89385237549E+03  0.25500000920E-02 0. -1.
    10030    2    1    2    0    0  0.00000000000E+00  0.00000000000E+00  0.11318618264E+04  0.29195665774E+04  0.26912372258E+04 0.  0.
        4    1    3    3  502    0  0.25792265510E+03  0.77831428912E+03  0.17234070717E+04  0.19085153330E+04  0.12699999809E+01 0.  1.
       -4    1    3    3    0  502 -0.25792265510E+03 -0.77831428912E+03 -0.59154524527E+03  0.10110512444E+04  0.12699999809E+01 0. -1.
</event>
<event>
 5   0  0.2654625E-06  0.2672991E+04  0.7818609E-02  0.8343822E-01
        3   -1    0    0  501    0  0.00000000000E+00  0.00000000000E+00  0.94318946709E+03  0.94318947250E+03  0.10100000352E+00 0. -1.
       -3   -1    0    0    0  501  0.00000000000E+00  0.00000000000E+00 -0.18938089120E+04  0.18938089147E+04  0.10100000352E+00 0.  1.
    10030    2    1    2    0    0  0.00000000000E+00  0.00000000000E+00 -0.95061944494E+03  0.28369983872E+04  0.26729913056E+04 0.  0.
        2    1    3    3  502    0  0.77618109972E+03  0.74242353580E+03  0.36883346771E+03  0.11356442810E+04  0.25500000920E-02 0. -1.
       -2    1    3    3    0  502 -0.77618109972E+03 -0.74242353580E+03 -0.13194529127E+04  0.17013541062E+04  0.25500000920E-02 0.  1.
</event>
<event>
 5   0  0.7729970E-06  0.2701714E+04  0.7818609E-02  0.8334449E-01
       -2   -1    0    0    0  501  0.00000000000E+00  0.00000000000E+00  0.10807936836E+04  0.10807936836E+04  0.25500000920E-02 0. -1.
        2   -1    0    0  501    0  0.00000000000E+00  0.00000000000E+00 -0.16884023994E+04  0.16884023995E+04  0.25500000920E-02 0.  1.
    10030    2    1    2    0    0  0.00000000000E+00  0.00000000000E+00 -0.60760871587E+03  0.27691960830E+04  0.27017140105E+04 0.  0.
        4    1    3    3  502    0 -0.74591615855E+03 -0.87471790535E+02  0.84708190318E+03  0.11320740229E+04  0.12699999809E+01 0. -1.
       -4    1    3    3    0  502  0.74591615855E+03  0.87471790535E+02 -0.14546906191E+04  0.16371220601E+04  0.12699999809E+01 0.  1.
</event>
<event>
 5   0  0.7729970E-06  0.2698476E+04  0.7818609E-02  0.8335500E-01
        2   -1    0    0  501    0  0.00000000000E+00  0.00000000000E+00  0.17758837767E+04  0.17758837767E+04  0.25500000920E-02 0.  1.
       -2   -1    0    0    0  501  0.00000000000E+00  0.00000000000E+00 -0.10250911013E+04  0.10250911013E+04  0.25500000920E-02 0. -1.
    10030    2    1    2    0    0  0.00000000000E+00  0.00000000000E+00  0.75079267546E+03  0.28009748780E+04  0.26984756115E+04 0.  0.
        4    1    3    3  502    0 -0.41381824894E+03 -0.91826935548E+03 -0.55646654015E+03  0.11507044693E+04  0.12699999809E+01 0. -1.
       -4    1    3    3    0  502  0.41381824894E+03  0.91826935548E+03  0.13072592156E+04  0.16502704088E+04  0.12699999809E+01 0.  1.
</event>
<event>
 5   0  0.7812908E-06  0.2665920E+04  0.7818609E-02  0.8346148E-01
       -2   -1    0    0    0  501  0.00000000000E+00  0.00000000000E+00  0.10403440464E+04  0.10403440464E+04  0.25500000920E-02 0.  1.
        2   -1    0    0  501    0  0.00000000000E+00  0.00000000000E+00 -0.17078793599E+04  0.17078793599E+04  0.25500000920E-02 0. -1.
    10030    2    1    2    0    0  0.00000000000E+00  0.00000000000E+00 -0.66753531350E+03  0.27482234063E+04  0.26659198218E+04 0.  0.
        5    1    3    3  502    0 -0.83299972931E+03  0.25113453393E+03  0.70726194350E+03  0.11212487012E+04  0.46999998093E+01 0.  1.
       -5    1    3    3    0  502  0.83299972931E+03 -0.25113453393E+03 -0.13747972570E+04  0.16269747051E+04  0.46999998093E+01 0. -1.
</event>
<event>
 5   0  0.3046300E-06  0.2700715E+04  0.7818609E-02  0.8334773E-01
       -1   -1    0    0    0  501  0.00000000000E+00  0.00000000000E+00  0.12287673798E+04  0.12287673798E+04  0.50400001928E-02 0.  1.
        1   -1    0    0  501    0  0.00000000000E+00  0.00000000000E+00 -0.14839790643E+04  0.14839790643E+04  0.50400001928E-02 0. -1.
    10030    2    1    2    0    0  0.00000000000E+00  0.00000000000E+00 -0.25521168451E+03  0.27127464441E+04  0.27007147694E+04 0.  0.
        2    1    3    3  502    0  0.80833809763E+03 -0.10587488385E+04  0.94978944688E+02  0.13354327325E+04  0.25500000920E-02 0.  1.
       -2    1    3    3    0  502 -0.80833809763E+03  0.10587488385E+04 -0.35019062920E+03  0.13773137115E+04  0.25500000920E-02 0. -1.
</event>
<event>
 5   0  0.3199840E-06  0.2413150E+04  0.7818609E-02  0.8434597E-01
       -1   -1    0    0    0  501  0.00000000000E+00  0.00000000000E+00  0.11074909857E+04  0.11074909857E+04  0.50400001928E-02 0.  1.
        1   -1    0    0  501    0  0.00000000000E+00  0.00000000000E+00 -0.13145232742E+04  0.13145232742E+04  0.50400001928E-02 0. -1.
    10030    2    1    2    0    0  0.00000000000E+00  0.00000000000E+00 -0.20703228851E+03  0.24220142599E+04  0.24131495409E+04 0.  0.
        1    1    3    3  502    0 -0.59792690328E+03 -0.10193761001E+04  0.14064373171E+03  0.11901364940E+04  0.50400001928E-02 0.  1.
       -1    1    3    3    0  502  0.59792690328E+03  0.10193761001E+04 -0.34767602022E+03  0.12318777659E+04  0.50400001928E-02 0. -1.
</event>
<event>
 5   0  0.3089218E-06  0.2706765E+04  0.7818609E-02  0.8332813E-01
       -1   -1    0    0    0  501  0.00000000000E+00  0.00000000000E+00  0.16433260641E+04  0.16433260641E+04  0.50400001928E-02 0. -1.
        1   -1    0    0  501    0  0.00000000000E+00  0.00000000000E+00 -0.11145957956E+04  0.11145957956E+04  0.50400001928E-02 0.  1.
    10030    2    1    2    0    0  0.00000000000E+00  0.00000000000E+00  0.52873026846E+03  0.27579218597E+04  0.27067650964E+04 0.  0.
        5    1    3    3  502    0  0.28364640335E+03  0.11988810209E+03 -0.10784168897E+04  0.11215317726E+04  0.46999998093E+01 0.  1.
       -5    1    3    3    0  502 -0.28364640335E+03 -0.11988810209E+03  0.16071471581E+04  0.16363900870E+04  0.46999998093E+01 0. -1.
</event>
<event>
 5   0  0.8407622E-06  0.2654423E+04  0.7818609E-02  0.8349946E-01
        2   -1    0    0  501    0  0.00000000000E+00  0.00000000000E+00  0.19849309317E+04  0.19849309317E+04  0.25500000920E-02 0. -1.
       -2   -1    0    0    0  501  0.00000000000E+00  0.00000000000E+00 -0.88743157572E+03  0.88743157572E+03  0.25500000920E-02 0.  1.
    10030    2    1    2    0    0  0.00000000000E+00  0.00000000000E+00  0.10974993560E+04  0.28723625074E+04  0.26544230141E+04 0.  0.
        1    1    3    3  502    0  0.11275992105E+04  0.69271255401E+03  0.65782086430E+03  0.14778562012E+04  0.50400001928E-02 0. -1.
       -1    1    3    3    0  502 -0.11275992105E+04 -0.69271255401E+03  0.43967849167E+03  0.13945063062E+04  0.50400001928E-02 0.  1.
</event>
<event>
 5   0  0.7812908E-06  0.2681824E+04  0.7818609E-02  0.8340927E-01
       -2   -1    0    0    0  501  0.00000000000E+00  0.00000000000E+00  0.15855646362E+04  0.15855646362E+04  0.25500000920E-02 0. -1.
        2   -1    0    0  501    0  0.00000000000E+00  0.00000000000E+00 -0.11340095039E+04  0.11340095039E+04  0.25500000920E-02 0.  1.
    10030    2    1    2    0    0  0.00000000000E+00  0.00000000000E+00  0.45155513235E+03  0.27195741401E+04  0.26818242795E+04 0.  0.
        5    1    3    3  502    0  0.49839768253E+03  0.36208334634E+03  0.14335583450E+04  0.15603256770E+04  0.46999998093E+01 0. -1.
       -5    1    3    3    0  502 -0.49839768253E+03 -0.36208334634E+03 -0.98200321267E+03  0.11592484632E+04  0.46999998093E+01 0.  1.
</event>
<event>
 5   0  0.7729970E-06  0.2623131E+04  0.7818609E-02  0.8360386E-01
        2   -1    0    0  501    0  0.00000000000E+00  0.00000000000E+00  0.11745576292E+04  0.11745576292E+04  0.25500000920E-02 0. -1.
       -2   -1    0    0    0  501  0.00000000000E+00  0.00000000000E+00 -0.14645545492E+04  0.14645545492E+04  0.25500000920E-02 0.  1.
    10030    2    1    2    0    0  0.00000000000E+00  0.00000000000E+00 -0.28999691999E+03  0.26391121784E+04  0.26231307395E+04 0.  0.
        4    1    3    3  502    0  0.11048803316E+04  0.70463683810E+03 -0.90553279300E+02  0.13135734201E+04  0.12699999809E+01 0. -1.
       -4    1    3    3    0  502 -0.11048803316E+04 -0.70463683810E+03 -0.19944364069E+03  0.13255387582E+04  0.12699999809E+01 0.  1.
</event>
<event>
 5   0  0.3089218E-06  0.2721380E+04  0.7818609E-02  0.8328101E-01
        1   -1    0    0  501    0  0.00000000000E+00  0.00000000000E+00  0.19890240534E+04  0.19890240534E+04  0.50400001928E-02 0. -1.
       -1   -1    0    0    0  501  0.00000000000E+00  0.00000000000E+00 -0.93084693449E+03  0.93084693451E+03  0.50400001928E-02 0.  1.
    10030    2    1    2    0    0  0.00000000000E+00  0.00000000000E+00  0.10581771189E+04  0.29198709879E+04  0.27213797550E+04 0.  0.
        5    1    3    3  502    0 -0.69833963366E+03  0.46882710405E+03 -0.61849231877E+03  0.10440459453E+04  0.46999998093E+01 0.  1.
       -5    1    3    3    0  502  0.69833963366E+03 -0.46882710405E+03  0.16766694377E+04  0.18758250427E+04  0.46999998093E+01 0. -1.
</event>
<event>
 5   0  0.3028601E-06  0.2682290E+04  0.7818609E-02  0.8340774E-01
        1   -1    0    0  501    0  0.00000000000E+00  0.00000000000E+00  0.15465045729E+04  0.15465045729E+04  0.50400001928E-02 0. -1.
       -1   -1    0    0    0  501  0.00000000000E+00  0.00000000000E+00 -0.11630546989E+04  0.11630546989E+04  0.50400001928E-02 0.  1.
    10030    2    1    2    0    0  0.00000000000E+00  0.00000000000E+00  0.38344987401E+03  0.27095592718E+04  0.26822896267E+04 0.  0.
        3    1    3    3  502    0  0.24778494663E+03  0.28815970053E+02  0.15228629450E+04  0.15431588704E+04  0.10100000352E+00 0. -1.
       -3    1    3    3    0  502 -0.24778494663E+03 -0.28815970053E+02 -0.11394130710E+04  0.11664004014E+04  0.10100000352E+00 0.  1.
</event>
<event>
 5   0  0.3046300E-06  0.2681817E+04  0.7818609E-02  0.8340929E-01
       -1   -1    0    0    0  501  0.00000000000E+00  0.00000000000E+00  0.14095484121E+04  0.14095484121E+04  0.50400001928E-02 0. -1.
        1   -1    0    0  501    0  0.00000000000E+00  0.00000000000E+00 -0.12756110258E+04  0.12756110258E+04  0.50400001928E-02 0.  1.
    10030    2    1    2    0    0  0.00000000000E+00  0.00000000000E+00  0.13393738634E+03  0.26851594379E+04  0.26818169184E+04 0.  0.
        2    1    3    3  502    0 -0.85588800247E+03  0.56366394537E+03  0.93278584409E+03  0.13857672052E+04  0.25500000920E-02 0. -1.
       -2    1    3    3    0  502  0.85588800247E+03 -0.56366394537E+03 -0.79884845774E+03  0.12993922327E+04  0.25500000920E-02 0.  1.
</event>
<event>
 5   0  0.3046300E-06  0.2692108E+04  0.7818609E-02  0.8337570E-01
       -1   -1    0    0    0  501  0.00000000000E+00  0.00000000000E+00  0.11247178026E+04  0.11247178026E+04  0.50400001928E-02 0. -1.
        1   -1    0    0  501    0  0.00000000000E+00  0.00000000000E+00 -0.16109475734E+04  0.16109475734E+04  0.50400001928E-02 0.  1.
    10030    2    1    2    0    0  0.00000000000E+00  0.00000000000E+00 -0.48622977080E+03  0.27356653760E+04  0.26921080327E+04 0.  0.
        2    1    3    3  502    0 -0.28444642191E+03 -0.83408682030E+03 -0.12770499935E+04  0.15516015199E+04  0.25500000920E-02 0.  1.
       -2    1    3    3    0  502  0.28444642191E+03  0.83408682030E+03  0.79082022268E+03  0.11840638561E+04  0.25500000920E-02 0. -1.
</event>
<event>
 5   0  0.3089218E-06  0.2697211E+04  0.7818609E-02  0.8335911E-01
       -1   -1    0    0    0  501  0.00000000000E+00  0.00000000000E+00  0.82032470774E+03  0.82032470776E+03  0.50400001928E-02 0. -1.
        1   -1    0    0  501    0  0.00000000000E+00  0.00000000000E+00 -0.22170932805E+04  0.22170932805E+04  0.50400001928E-02 0.  1.
    10030    2    1    2    0    0  0.00000000000E+00  0.00000000000E+00 -0.13967685728E+04  0.30374179883E+04  0.26972107055E+04 0.  0.
        5    1    3    3  502    0 -0.30007076685E+03 -0.11807366020E+04 -0.47042237595E+02  0.12191867988E+04  0.46999998093E+01 0. -1.
       -5    1    3    3    0  502  0.30007076685E+03  0.11807366020E+04 -0.13497263352E+04  0.18182311894E+04  0.46999998093E+01 0.  1.
</event>
<event>
 5   0  0.8407622E-06  0.2707322E+04  0.7818609E-02  0.8332633E-01
       -2   -1    0    0    0  501  0.00000000000E+00  0.00000000000E+00  0.97694389873E+03  0.97694389874E+03  0.25500000920E-02 0.  1.
        2   -1    0    0  501    0  0.00000000000E+00  0.00000000000E+00 -0.18756426731E+04  0.18756426731E+04  0.25500000920E-02 0. -1.
    10030    2    1    2    0    0  0.00000000000E+00  0.00000000000E+00 -0.89869877432E+03  0.28525865718E+04  0.27073216770E+04 0.  0.
        1    1    3    3  502    0  0.87080013191E+03 -0.81923807190E+03  0.21949731272E+03  0.12155751554E+04  0.50400001928E-02 0.  1.
       -1    1    3    3    0  502 -0.87080013191E+03  0.81923807190E+03 -0.11181960870E+04  0.16370114164E+04  0.50400001928E-02 0. -1.
</event>
<event>
 5   0  0.3013407E-06  0.2725397E+04  0.7818609E-02  0.8326811E-01
       -1   -1    0    0    0  501  0.00000000000E+00  0.00000000000E+00  0.11117464716E+04  0.11117464716E+04  0.50400001928E-02 0.  1.
        1   -1    0    0  501    0  0.00000000000E+00  0.00000000000E+00 -0.16702976429E+04  0.16702976430E+04  0.50400001928E-02 0. -1.
    10030    2    1    2    0    0  0.00000000000E+00  0.00000000000E+00 -0.55855117134E+03  0.27820441146E+04  0.27253972269E+04 0.  0.
        4    1    3    3  502    0  0.33723608761E+03  0.13198572710E+04 -0.31455553361E+03  0.13981052146E+04  0.12699999809E+01 0.  1.
       -4    1    3    3    0  502 -0.33723608761E+03 -0.13198572710E+04 -0.24399563773E+03  0.13839388999E+04  0.12699999809E+01 0. -1.
</event>
<event>
 5   0  0.3199840E-06  0.2724698E+04  0.7818609E-02  0.8327035E-01
        1   -1    0    0  501    0  0.00000000000E+00  0.00000000000E+00  0.12909270434E+04  0.12909270434E+04  0.50400001928E-02 0.  1.
       -1   -1    0    0    0  501  0.00000000000E+00  0.00000000000E+00 -0.14377226643E+04  0.14377226643E+04  0.50400001928E-02 0. -1.
    10030    2    1    2    0    0  0.00000000000E+00  0.00000000000E+00 -0.14679562088E+03  0.27286497077E+04  0.27246981986E+04 0.  0.
        1    1    3    3  502    0 -0.10832112214E+04  0.57067675876E+03  0.52494383150E+03  0.13321353308E+04  0.50400001928E-02 0.  1.
       -1    1    3    3    0  502  0.10832112214E+04 -0.57067675876E+03 -0.67173945238E+03  0.13965143770E+04  0.50400001928E-02 0. -1.
</event>
<event>
 5   0  0.7729970E-06  0.2706723E+04  0.7818609E-02  0.8332827E-01
        2   -1    0    0  501    0  0.00000000000E+00  0.00000000000E+00  0.15544615405E+04  0.15544615405E+04  0.25500000920E-02 0. -1.
       -2   -1    0    0    0  501  0.00000000000E+00  0.00000000000E+00 -0.11782779611E+04  0.11782779611E+04  0.25500000920E-02 0.  1.
    10030    2    1    2    0    0  0.00000000000E+00  0.00000000000E+00  0.37618357940E+03  0.27327395017E+04  0.27067233140E+04 0.  0.
        4    1    3    3  502    0 -0.77281195926E+03 -0.41260477464E+03  0.12295614932E+04  0.15097364349E+04  0.12699999809E+01 0. -1.
       -4    1    3    3    0  502  0.77281195926E+03  0.41260477464E+03 -0.85337791385E+03  0.12230030667E+04  0.12699999809E+01 0.  1.
</event>
<event>
 5   0  0.3089218E-06  0.2695147E+04  0.7818609E-02  0.8336581E-01
       -1   -1    0    0    0  501  0.00000000000E+00  0.00000000000E+00  0.10069576796E+04  0.10069576796E+04  0.50400001928E-02 0. -1.
        1   -1    0    0  501    0  0.00000000000E+00  0.00000000000E+00 -0.18034068093E+04  0.18034068093E+04  0.50400001928E-02 0.  1.
    10030    2    1    2    0    0  0.00000000000E+00  0.00000000000E+00 -0.79644912978E+03  0.28103644889E+04  0.26951469986E+04 0.  0.
        5    1    3    3  502    0  0.12562378292E+04 -0.20802251662E+03  0.61680661405E+02  0.12748464397E+04  0.46999998093E+01 0. -1.
       -5    1    3    3    0  502 -0.12562378292E+04  0.20802251662E+03 -0.85812979119E+03  0.15355180492E+04  0.46999998093E+01 0.  1.
</event>
<event>
 5   0  0.3089218E-06  0.2711224E+04  0.7818609E-02  0.8331372E-01
        1   -1    0    0  501    0  0.00000000000E+00  0.00000000000E+00  0.21786464014E+04  0.21786464014E+04  0.50400001928E-02 0.  1.
       -1   -1    0    0    0  501  0.00000000000E+00  0.00000000000E+00 -0.84349788242E+03  0.84349788243E+03  0.50400001928E-02 0. -1.
    10030    2    1    2    0    0  0.00000000000E+00  0.00000000000E+00  0.13351485190E+04  0.30221442838E+04  0.27112238020E+04 0.  0.
        5    1    3    3  502    0 -0.10078539964E+04 -0.38507465485E+03 -0.24728415189E+03  0.11068982381E+04  0.46999998093E+01 0. -1.
       -5    1    3    3    0  502  0.10078539964E+04  0.38507465485E+03  0.15824326709E+04  0.19152460457E+04  0.46999998093E+01 0.  1.
</event>
<event>
 5   0  0.3013407E-06  0.2684877E+04  0.7818609E-02  0.8339928E-01
        1   -1    0    0  501    0  0.00000000000E+00  0.00000000000E+00  0.12641617818E+04  0.12641617818E+04  0.50400001928E-02 0. -1.
       -1   -1    0    0    0  501  0.00000000000E+00  0.00000000000E+00 -0.14255624614E+04  0.14255624614E+04  0.50400001928E-02 0.  1.
    10030    2    1    2    0    0  0.00000000000E+00  0.00000000000E+00 -0.16140067961E+03  0.26897242433E+04  0.26848773390E+04 0.  0.
        4    1    3    3  502    0 -0.94621792228E+03  0.93187685947E+03 -0.27705706090E+03  0.13566447824E+04  0.12699999809E+01 0.  1.
       -4    1    3    3    0  502  0.94621792228E+03 -0.93187685947E+03  0.11565638129E+03  0.13330794609E+04  0.12699999809E+01 0. -1.
</event>
<event>
 5   0  0.8407622E-06  0.2695342E+04  0.7818609E-02  0.8336518E-01
       -2   -1    0    0    0  501  0.00000000000E+00  0.00000000000E+00  0.92122752767E+03  0.92122752768E+03  0.25500000920E-02 0. -1.
        2   -1    0    0  501    0  0.00000000000E+00  0.00000000000E+00 -0.19715186952E+04  0.19715186953E+04  0.25500000920E-02 0.  1.
    10030    2    1    2    0    0  0.00000000000E+00  0.00000000000E+00 -0.10502911676E+04  0.28927462229E+04  0.26953421255E+04 0.  0.
        1    1    3    3  502    0  0.74318573448E+03 -0.79507475419E+03 -0.13781838413E+04  0.17560921391E+04  0.50400001928E-02 0.  1.
       -1    1    3    3    0  502 -0.74318573448E+03  0.79507475419E+03  0.32789267373E+03  0.11366540838E+04  0.50400001928E-02 0. -1.
</event>
<event>
 5   0  0.3013407E-06  0.2710378E+04  0.7818609E-02  0.8331646E-01
       -1   -1    0    0    0  501  0.00000000000E+00  0.00000000000E+00  0.13439049083E+04  0.13439049083E+04  0.50400001928E-02 0.  1.
        1   -1    0    0  501    0  0.00000000000E+00  0.00000000000E+00 -0.13665675660E+04  0.13665675660E+04  0.50400001928E-02 0. -1.
    10030    2    1    2    0    0  0.00000000000E+00  0.00000000000E+00 -0.22662657637E+02  0.27104724743E+04  0.27103777298E+04 0.  0.
        4    1    3    3  502    0 -0.21822920251E+03 -0.74429842565E+03 -0.11226447202E+04  0.13645280913E+04  0.12699999809E+01 0. -1.
       -4    1    3    3    0  502  0.21822920251E+03  0.74429842565E+03  0.10999820626E+04  0.13459443830E+04  0.12699999809E+01 0.  1.
</event>
<event>
 5   0  0.8407622E-06  0.2673234E+04  0.7818609E-02  0.8343742E-01
       -2   -1    0    0    0  501  0.00000000000E+00  0.00000000000E+00  0.13196594238E+04  0.13196594238E+04  0.25500000920E-02 0. -1.
        2   -1    0    0  501    0  0.00000000000E+00  0.00000000000E+00 -0.13537927279E+04  0.13537927279E+04  0.25500000920E-02 0.  1.
    10030    2    1    2    0    0  0.00000000000E+00  0.00000000000E+00 -0.34133304062E+02  0.26734521517E+04  0.26732342443E+04 0.  0.
        1    1    3    3  502    0  0.55839656073E+03  0.88010529541E+03  0.81975317992E+03  0.13260419775E+04  0.50400001928E-02 0. -1.
       -1    1    3    3    0  502 -0.55839656073E+03 -0.88010529541E+03 -0.85388648398E+03  0.13474101742E+04  0.50400001928E-02 0.  1.
</event>
<event>
 5   0  0.8213334E-06  0.2659384E+04  0.7818609E-02  0.8348305E-01
       -2   -1    0    0    0  501  0.00000000000E+00  0.00000000000E+00  0.91724356229E+03  0.91724356229E+03  0.25500000920E-02 0. -1.
        2   -1    0    0  501    0  0.00000000000E+00  0.00000000000E+00 -0.19276025659E+04  0.19276025659E+04  0.25500000920E-02 0.  1.
    10030    2    1    2    0    0  0.00000000000E+00  0.00000000000E+00 -0.10103590036E+04  0.28448461281E+04  0.26593841725E+04 0.  0.
        3    1    3    3  502    0  0.67915902452E+03 -0.13328568170E+03 -0.17197258596E+04  0.18537742840E+04  0.10100000352E+00 0.  1.
       -3    1    3    3    0  502 -0.67915902452E+03  0.13328568170E+03  0.70936685608E+03  0.99107184413E+03  0.10100000352E+00 0. -1.
</event>
<event>
 5   0  0.8213334E-06  0.2654589E+04  0.7818609E-02  0.8349892E-01
       -2   -1    0    0    0  501  0.00000000000E+00  0.00000000000E+00  0.11923110883E+04  0.11923110883E+04  0.25500000920E-02 0.  1.
        2   -1    0    0  501    0  0.00000000000E+00  0.00000000000E+00 -0.14775591601E+04  0.14775591601E+04  0.25500000920E-02 0. -1.
    10030    2    1    2    0    0  0.00000000000E+00  0.00000000000E+00 -0.28524807176E+03  0.26698702484E+04  0.26545886086E+04 0.  0.
        3    1    3    3  502    0  0.11846457045E+04 -0.55111720120E+03 -0.37762387008E+03  0.13600424303E+04  0.10100000352E+00 0. -1.
       -3    1    3    3    0  502 -0.11846457045E+04  0.55111720120E+03  0.92375798322E+02  0.13098278181E+04  0.10100000352E+00 0.  1.
</event>
<event>
 5   0  0.3199840E-06  0.2714812E+04  0.7818609E-02  0.8330215E-01
       -1   -1    0    0    0  501  0.00000000000E+00  0.00000000000E+00  0.67274465058E+03  0.67274465060E+03  0.50400001928E-02 0. -1.
        1   -1    0    0  501    0  0.00000000000E+00  0.00000000000E+00 -0.27388573896E+04  0.27388573896E+04  0.50400001928E-02 0.  1.
    10030    2    1    2    0    0  0.00000000000E+00  0.00000000000E+00 -0.20661127391E+04  0.34116020402E+04  0.27148124485E+04 0.  0.
        1    1    3    3  502    0 -0.54432236997E+03  0.53851575719E+03  0.37545146317E+03  0.85278946078E+03  0.50400001928E-02 0. -1.
       -1    1    3    3    0  502  0.54432236997E+03 -0.53851575719E+03 -0.24415642022E+04  0.25588125795E+04  0.50400001928E-02 0.  1.
</event>
<event>
 5   0  0.3089218E-06  0.2694140E+04  0.7818609E-02  0.8336909E-01
       -1   -1    0    0    0  501  0.00000000000E+00  0.00000000000E+00  0.14795547059E+04  0.14795547059E+04  0.50400001928E-02 0.  1.
        1   -1    0    0  501    0  0.00000000000E+00  0.00000000000E+00 -0.12264487388E+04  0.12264487388E+04  0.50400001928E-02 0. -1.
    10030    2    1    2    0    0  0.00000000000E+00  0.00000000000E+00  0.25310596709E+03  0.27060034447E+04  0.26941403104E+04 0.  0.
        5    1    3    3  502    0  0.27842673096E+03 -0.56594341232E+03 -0.10689665189E+04  0.12411788344E+04  0.46999998093E+01 0. -1.
       -5    1    3    3    0  502 -0.27842673096E+03  0.56594341232E+03  0.13220724860E+04  0.14648246102E+04  0.46999998093E+01 0.  1.
</event>
<event>
 5   0  0.8213334E-06  0.2670020E+04  0.7818609E-02  0.8344798E-01
       -2   -1    0    0    0  501  0.00000000000E+00  0.00000000000E+00  0.76495715254E+03  0.76495715254E+03  0.25500000920E-02 0.  1.
        2   -1    0    0  501    0  0.00000000000E+00  0.00000000000E+00 -0.23298720065E+04  0.23298720065E+04  0.25500000920E-02 0. -1.
    10030    2    1    2    0    0  0.00000000000E+00  0.00000000000E+00 -0.15649148540E+04  0.30948291591E+04  0.26700204163E+04 0.  0.
        3    1    3    3  502    0  0.21770691950E+02 -0.13347985147E+04 -0.79352717896E+03  0.15530120514E+04  0.10100000352E+00 0. -1.
       -3    1    3    3    0  502 -0.21770691950E+02  0.13347985147E+04 -0.77138767502E+03  0.15418171076E+04  0.10100000352E+00 0.  1.
</event>
<event>
 5   0  0.3089218E-06  0.2719110E+04  0.7818609E-02  0.8328831E-01
        1   -1    0    0  501    0  0.00000000000E+00  0.00000000000E+00  0.19008810682E+04  0.19008810682E+04  0.50400001928E-02 0. -1.
       -1   -1    0    0    0  501  0.00000000000E+00  0.00000000000E+00 -0.97238598594E+03  0.97238598595E+03  0.50400001928E-02 0.  1.
    10030    2    1    2    0    0  0.00000000000E+00  0.00000000000E+00  0.92849508225E+03  0.28732670541E+04  0.27191102307E+04 0.  0.
        5    1    3    3  502    0 -0.50482291869E+03 -0.68124875250E+03 -0.65874609931E+03  0.10737385880E+04  0.46999998093E+01 0. -1.
       -5    1    3    3    0  502  0.50482291869E+03  0.68124875250E+03  0.15872411816E+04  0.17995284661E+04  0.46999998093E+01 0.  1.
</event>
<event>
 5   0  0.7838364E-06  0.2687602E+04  0.7818609E-02  0.8339039E-01
        2   -1    0    0  501    0  0.00000000000E+00  0.00000000000E+00  0.26426116082E+04  0.26426116082E+04  0.25500000920E-02 0.  1.
       -2   -1    0    0    0  501  0.00000000000E+00  0.00000000000E+00 -0.68333983046E+03  0.68333983046E+03  0.25500000920E-02 0. -1.
    10030    2    1    2    0    0  0.00000000000E+00  0.00000000000E+00  0.19592717778E+04  0.33259514387E+04  0.26876024768E+04 0.  0.
        2    1    3    3  502    0  0.87740830278E+03  0.93686318248E+03  0.14719182158E+04  0.19529723978E+04  0.25500000920E-02 0.  1.
       -2    1    3    3    0  502 -0.87740830278E+03 -0.93686318248E+03  0.48735356201E+03  0.13729790409E+04  0.25500000920E-02 0. -1.
</event>
<event>
 5   0  0.3028601E-06  0.2707220E+04  0.7818609E-02  0.8332666E-01
        1   -1    0    0  501    0  0.00000000000E+00  0.00000000000E+00  0.13810571072E+04  0.13810571073E+04  0.50400001928E-02 0.  1.
       -1   -1    0    0    0  501  0.00000000000E+00  0.00000000000E+00 -0.13267088601E+04  0.13267088602E+04  0.50400001928E-02 0. -1.
    10030    2    1    2    0    0  0.00000000000E+00  0.00000000000E+00  0.54348247101E+02  0.27077659674E+04  0.27072204938E+04 0.  0.
        3    1    3    3  502    0 -0.84251197980E+03 -0.33223715749E+03 -0.97903688828E+03  0.13336870711E+04  0.10100000352E+00 0. -1.
       -3    1    3    3    0  502  0.84251197980E+03  0.33223715749E+03  0.10333851354E+04  0.13740788963E+04  0.10100000352E+00 0.  1.
</event>
<event>
 5   0  0.3199840E-06  0.2711925E+04  0.7818609E-02  0.8331146E-01
        1   -1    0    0  501    0  0.00000000000E+00  0.00000000000E+00  0.16433799620E+04  0.16433799620E+04  0.50400001928E-02 0.  1.
       -1   -1    0    0    0  501  0.00000000000E+00  0.00000000000E+00 -0.11188128824E+04  0.11188128824E+04  0.50400001928E-02 0. -1.
    10030    2    1    2    0    0  0.00000000000E+00  0.00000000000E+00  0.52456707964E+03  0.27621928444E+04  0.27119252734E+04 0.  0.
        1    1    3    3  502    0  0.95857251756E+03 -0.95782613135E+03  0.31158006857E+03  0.13904583088E+04  0.50400001928E-02 0.  1.
       -1    1    3    3    0  502 -0.95857251756E+03  0.95782613135E+03  0.21298701107E+03  0.13717345356E+04  0.50400001928E-02 0. -1.
</event>
<event>
 5   0  0.3013407E-06  0.2705392E+04  0.7818609E-02  0.8333257E-01
       -1   -1    0    0    0  501  0.00000000000E+00  0.00000000000E+00  0.92032731283E+03  0.92032731284E+03  0.50400001928E-02 0. -1.
        1   -1    0    0  501    0  0.00000000000E+00  0.00000000000E+00 -0.19881916666E+04  0.19881916666E+04  0.50400001928E-02 0.  1.
    10030    2    1    2    0    0  0.00000000000E+00  0.00000000000E+00 -0.10678643538E+04  0.29085189794E+04  0.27053924624E+04 0.  0.
        4    1    3    3  502    0 -0.11305589856E+03 -0.13355788188E+03  0.90810766847E+03  0.92481376203E+03  0.12699999809E+01 0. -1.
       -4    1    3    3    0  502  0.11305589856E+03  0.13355788188E+03 -0.19759720222E+04  0.19837052174E+04  0.12699999809E+01 0.  1.
</event>
<event>
 5   0  0.7729970E-06  0.2716919E+04  0.7818609E-02  0.8329536E-01
       -2   -1    0    0    0  501  0.00000000000E+00  0.00000000000E+00  0.12371395674E+04  0.12371395674E+04  0.25500000920E-02 0.  1.
        2   -1    0    0  501    0  0.00000000000E+00  0.00000000000E+00 -0.14916770795E+04  0.14916770795E+04  0.25500000920E-02 0. -1.
    10030    2    1    2    0    0  0.00000000000E+00  0.00000000000E+00 -0.25453751211E+03  0.27288166470E+04  0.27169193856E+04 0.  0.
        4    1    3    3  502    0  0.12223874827E+04 -0.52991881642E+03  0.13915876203E+03  0.13395565997E+04  0.12699999809E+01 0.  1.
       -4    1    3    3    0  502 -0.12223874827E+04  0.52991881642E+03 -0.39369627415E+03  0.13892600473E+04  0.12699999809E+01 0. -1.
</event>
<event>
 5   0  0.3028601E-06  0.2717270E+04  0.7818609E-02  0.8329423E-01
       -1   -1    0    0    0  501  0.00000000000E+00  0.00000000000E+00  0.91670259759E+03  0.91670259760E+03  0.50400001928E-02 0.  1.
        1   -1    0    0  501    0  0.00000000000E+00  0.00000000000E+00 -0.20136179674E+04  0.20136179674E+04  0.50400001928E-02 0. -1.
    10030    2    1    2    0    0  0.00000000000E+00  0.00000000000E+00 -0.10969153698E+04  0.29303205650E+04  0.27172698219E+04 0.  0.
        3    1    3    3  502    0 -0.11501931097E+04  0.10468075098E+03 -0.13200922056E+04  0.17540084637E+04  0.10100000352E+00 0.  1.
       -3    1    3    3    0  502  0.11501931097E+04 -0.10468075098E+03  0.22317683586E+03  0.11763121012E+04  0.10100000352E+00 0. -1.
</event>
<event>
 5   0  0.3089218E-06  0.2699538E+04  0.7818609E-02  0.8335155E-01
        1   -1    0    0  501    0  0.00000000000E+00  0.00000000000E+00  0.10906892265E+04  0.10906892265E+04  0.50400001928E-02 0. -1.
       -1   -1    0    0    0  501  0.00000000000E+00  0.00000000000E+00 -0.16703897828E+04  0.16703897828E+04  0.50400001928E-02 0.  1.
    10030    2    1    2    0    0  0.00000000000E+00  0.00000000000E+00 -0.57970055629E+03  0.27610790093E+04  0.26995378421E+04 0.  0.
        5    1    3    3  502    0  0.77068624849E+03 -0.39212065652E+03 -0.13498835204E+04  0.16030980979E+04  0.46999998093E+01 0.  1.
       -5    1    3    3    0  502 -0.77068624849E+03  0.39212065652E+03  0.77018296416E+03  0.11579809114E+04  0.46999998093E+01 0. -1.
</event>
<event>
 5   0  0.3013407E-06  0.2698187E+04  0.7818609E-02  0.8335594E-01
        1   -1    0    0  501    0  0.00000000000E+00  0.00000000000E+00  0.17143800731E+04  0.17143800731E+04  0.50400001928E-02 0.  1.
       -1   -1    0    0    0  501  0.00000000000E+00  0.00000000000E+00 -0.10616389406E+04  0.10616389406E+04  0.50400001928E-02 0. -1.
    10030    2    1    2    0    0  0.00000000000E+00  0.00000000000E+00  0.65274113250E+03  0.27760190138E+04  0.26981865352E+04 0.  0.
        4    1    3    3  502    0  0.12058758897E+04 -0.49173573670E+03 -0.36084722278E+02  0.13027833343E+04  0.12699999809E+01 0. -1.
       -4    1    3    3    0  502 -0.12058758897E+04  0.49173573670E+03  0.68882585478E+03  0.14732356794E+04  0.12699999809E+01 0.  1.
</event>
<event>
 5   0  0.7838364E-06  0.2676045E+04  0.7818609E-02  0.8342820E-01
       -2   -1    0    0    0  501  0.00000000000E+00  0.00000000000E+00  0.58304417214E+03  0.58304417215E+03  0.25500000920E-02 0. -1.
        2   -1    0    0  501    0  0.00000000000E+00  0.00000000000E+00 -0.30706148615E+04  0.30706148615E+04  0.25500000920E-02 0.  1.
    10030    2    1    2    0    0  0.00000000000E+00  0.00000000000E+00 -0.24875706893E+04  0.36536590336E+04  0.26760449173E+04 0.  0.
        2    1    3    3  502    0 -0.36772958525E+03  0.10595789682E+04 -0.24759575158E+03  0.11485801208E+04  0.25500000920E-02 0. -1.
       -2    1    3    3    0  502  0.36772958525E+03 -0.10595789682E+04 -0.22399749378E+04  0.25050789128E+04  0.25500000920E-02 0.  1.
</event>
<event>
 5   0  0.7729970E-06  0.2623133E+04  0.7818609E-02  0.8360386E-01
        2   -1    0    0  501    0  0.00000000000E+00  0.00000000000E+00  0.19554215969E+04  0.19554215969E+04  0.25500000920E-02 0.  1.
       -2   -1    0    0    0  501  0.00000000000E+00  0.00000000000E+00 -0.87971142007E+03  0.87971142007E+03  0.25500000920E-02 0. -1.
    10030    2    1    2    0    0  0.00000000000E+00  0.00000000000E+00  0.10757101768E+04  0.28351330170E+04  0.26231330198E+04 0.  0.
        4    1    3    3  502    0  0.73328843530E+03 -0.10024569778E+04  0.99330624101E+03  0.15903744286E+04  0.12699999809E+01 0. -1.
       -4    1    3    3    0  502 -0.73328843530E+03  0.10024569778E+04  0.82403935800E+02  0.12447585884E+04  0.12699999809E+01 0.  1.
</event>
<event>
 5   0  0.7729970E-06  0.2687122E+04  0.7818609E-02  0.8339196E-01
        2   -1    0    0  501    0  0.00000000000E+00  0.00000000000E+00  0.19229817365E+04  0.19229817365E+04  0.25500000920E-02 0. -1.
       -2   -1    0    0    0  501  0.00000000000E+00  0.00000000000E+00 -0.93872754933E+03  0.93872754933E+03  0.25500000920E-02 0.  1.
    10030    2    1    2    0    0  0.00000000000E+00  0.00000000000E+00  0.98425418716E+03  0.28617092858E+04  0.26871218304E+04 0.  0.
        4    1    3    3  502    0  0.32529978552E+02  0.86028224802E+03 -0.60640089775E+03  0.10530277335E+04  0.12699999809E+01 0.  1.
       -4    1    3    3    0  502 -0.32529978552E+02 -0.86028224802E+03  0.15906550849E+04  0.18086815523E+04  0.12699999809E+01 0. -1.
</event>
<event>
 5   0  0.3013407E-06  0.2678672E+04  0.7818609E-02  0.8341958E-01
       -1   -1    0    0    0  501  0.00000000000E+00  0.00000000000E+00  0.10951799313E+04  0.10951799313E+04  0.50400001928E-02 0.  1.
        1   -1    0    0  501    0  0.00000000000E+00  0.00000000000E+00 -0.16379238403E+04  0.16379238403E+04  0.50400001928E-02 0. -1.
    10030    2    1    2    0    0  0.00000000000E+00  0.00000000000E+00 -0.54274390896E+03  0.27331037716E+04  0.26786722972E+04 0.  0.
        4    1    3    3  502    0  0.73789172833E+03 -0.59648820720E+03 -0.12358511939E+04  0.15580796419E+04  0.12699999809E+01 0. -1.
       -4    1    3    3    0  502 -0.73789172833E+03  0.59648820720E+03  0.69310728498E+03  0.11750241297E+04  0.12699999809E+01 0.  1.
</event>
<event>
 5   0  0.7838364E-06  0.2677203E+04  0.7818609E-02  0.8342440E-01
       -2   -1    0    0    0  501  0.00000000000E+00  0.00000000000E+00  0.89435747941E+03  0.89435747941E+03  0.25500000920E-02 0.  1.
        2   -1    0    0  501    0  0.00000000000E+00  0.00000000000E+00 -0.20035094531E+04  0.20035094531E+04  0.25500000920E-02 0. -1.
    10030    2    1    2    0    0  0.00000000000E+00  0.00000000000E+00 -0.11091519737E+04  0.28978669325E+04  0.26772027674E+04 0.  0.
        2    1    3    3  502    0  0.97242664290E+03 -0.83534215493E+03 -0.97161614169E+03  0.16085546364E+04  0.25500000920E-02 0.  1.
       -2    1    3    3    0  502 -0.97242664290E+03  0.83534215493E+03 -0.13753583197E+03  0.12893122960E+04  0.25500000920E-02 0. -1.
</event>
<event>
 5   0  0.7729970E-06  0.2709001E+04  0.7818609E-02  0.8332090E-01
       -2   -1    0    0    0  501  0.00000000000E+00  0.00000000000E+00  0.90039059401E+03  0.90039059402E+03  0.25500000920E-02 0.  1.
        2   -1    0    0  501    0  0.00000000000E+00  0.00000000000E+00 -0.20376398903E+04  0.20376398903E+04  0.25500000920E-02 0. -1.
    10030    2    1    2    0    0  0.00000000000E+00  0.00000000000E+00 -0.11372492963E+04  0.29380304843E+04  0.27090011378E+04 0.  0.
        4    1    3    3  502    0  0.51753864681E+03 -0.70322586230E+03 -0.16916891993E+04  0.19037297141E+04  0.12699999809E+01 0. -1.
       -4    1    3    3    0  502 -0.51753864681E+03  0.70322586230E+03  0.55443990302E+03  0.10343007702E+04  0.12699999809E+01 0.  1.
</event>
<event>
 5   0  0.7812908E-06  0.2645829E+04  0.7818609E-02  0.8352799E-01
        2   -1    0    0  501    0  0.00000000000E+00  0.00000000000E+00  0.29643566699E+04  0.29643566699E+04  0.25500000920E-02 0. -1.
       -2   -1    0    0    0  501  0.00000000000E+00  0.00000000000E+00 -0.59038195592E+03  0.59038195592E+03  0.25500000920E-02 0.  1.
    10030    2    1    2    0    0  0.00000000000E+00  0.00000000000E+00  0.23739747140E+04  0.35547386258E+04  0.26458289354E+04 0.  0.
        5    1    3    3  502    0  0.23848823387E+03  0.46183811037E+03  0.28214067009E+04  0.28688898445E+04  0.46999998093E+01 0. -1.
       -5    1    3    3    0  502 -0.23848823387E+03 -0.46183811037E+03 -0.44743198695E+03  0.68584878131E+03  0.46999998093E+01 0.  1.
</event>
<event>
 5   0  0.3046300E-06  0.2569600E+04  0.7818609E-02  0.8378601E-01
        1   -1    0    0  501    0  0.00000000000E+00  0.00000000000E+00  0.20725823436E+04  0.20725823436E+04  0.50400001928E-02 0.  1.
       -1   -1    0    0    0  501  0.00000000000E+00  0.00000000000E+00 -0.79645141298E+03  0.79645141300E+03  0.50400001928E-02 0. -1.
    10030    2    1    2    0    0  0.00000000000E+00  0.00000000000E+00  0.12761309306E+04  0.28690337566E+04  0.25696000748E+04 0.  0.
        2    1    3    3  502    0  0.10403253855E+04  0.27439849798E+03  0.14221359432E+04  0.17832672498E+04  0.25500000920E-02 0.  1.
       -2    1    3    3    0  502 -0.10403253855E+04 -0.27439849798E+03 -0.14600501257E+03  0.10857665067E+04  0.25500000920E-02 0. -1.
</event>
<event>
 5   0  0.7812908E-06  0.2685006E+04  0.7818609E-02  0.8339886E-01
        2   -1    0    0  501    0  0.00000000000E+00  0.00000000000E+00  0.21517688186E+04  0.21517688186E+04  0.25500000920E-02 0.  1.
       -2   -1    0    0    0  501  0.00000000000E+00  0.00000000000E+00 -0.83759680229E+03  0.83759680230E+03  0.25500000920E-02 0. -1.
    10030    2    1    2    0    0  0.00000000000E+00  0.00000000000E+00  0.13141720163E+04  0.29893656209E+04  0.26850062806E+04 0.  0.
        5    1    3    3  502    0  0.23763407051E+03  0.13212937873E+04  0.65450647958E+03  0.14935488092E+04  0.46999998093E+01 0. -1.
       -5    1    3    3    0  502 -0.23763407051E+03 -0.13212937873E+04  0.65966553671E+03  0.14958168117E+04  0.46999998093E+01 0.  1.
</event>
<event>
 5   0  0.3089218E-06  0.2763352E+04  0.7818609E-02  0.8314737E-01
        1   -1    0    0  501    0  0.00000000000E+00  0.00000000000E+00  0.24503517371E+04  0.24503517371E+04  0.50400001928E-02 0. -1.
       -1   -1    0    0    0  501  0.00000000000E+00  0.00000000000E+00 -0.77908338354E+03  0.77908338355E+03  0.50400001928E-02 0.  1.
    10030    2    1    2    0    0  0.00000000000E+00  0.00000000000E+00  0.16712683536E+04  0.32294351207E+04  0.27633518214E+04 0.  0.
        5    1    3    3  502    0 -0.19542428472E+03 -0.38646727391E+03  0.23689749257E+04  0.24082383382E+04  0.46999998093E+01 0. -1.
       -5    1    3    3    0  502  0.19542428472E+03  0.38646727391E+03 -0.69770657210E+03  0.82119678252E+03  0.46999998093E+01 0.  1.
</event>
<event>
 5   0  0.3046300E-06  0.2694436E+04  0.7818609E-02  0.8336812E-01
       -1   -1    0    0    0  501  0.00000000000E+00  0.00000000000E+00  0.57233685375E+03  0.57233685377E+03  0.50400001928E-02 0.  1.
        1   -1    0    0  501    0  0.00000000000E+00  0.00000000000E+00 -0.31712037666E+04  0.31712037666E+04  0.50400001928E-02 0. -1.
    10030    2    1    2    0    0  0.00000000000E+00  0.00000000000E+00 -0.25988669128E+04  0.37435406204E+04  0.26944363317E+04 0.  0.
        2    1    3    3  502    0 -0.33096699352E+03  0.34260677859E+03 -0.30502900270E+04  0.30872621859E+04  0.25500000920E-02 0. -1.
       -2    1    3    3    0  502  0.33096699352E+03 -0.34260677859E+03  0.45142311418E+03  0.65627843447E+03  0.25500000920E-02 0.  1.
</event>
<event>
 5   0  0.8407622E-06  0.2730470E+04  0.7818609E-02  0.8325186E-01
       -2   -1    0    0    0  501  0.00000000000E+00  0.00000000000E+00  0.13576000460E+04  0.13576000460E+04  0.25500000920E-02 0.  1.
        2   -1    0    0  501    0  0.00000000000E+00  0.00000000000E+00 -0.13729132233E+04  0.13729132233E+04  0.25500000920E-02 0. -1.
    10030    2    1    2    0    0  0.00000000000E+00  0.00000000000E+00 -0.15313177333E+02  0.27305132693E+04  0.27304703296E+04 0.  0.
        1    1    3    3  502    0  0.59869103754E+03 -0.32854657411E+03  0.11745181869E+04  0.13586267998E+04  0.50400001928E-02 0.  1.
       -1    1    3    3    0  502 -0.59869103754E+03  0.32854657411E+03 -0.11898313643E+04  0.13718864695E+04  0.50400001928E-02 0. -1.
</event>
<event>
 5   0  0.3013407E-06  0.2697578E+04  0.7818609E-02  0.8335791E-01
        1   -1    0    0  501    0  0.00000000000E+00  0.00000000000E+00  0.13309420881E+04  0.13309420881E+04  0.50400001928E-02 0.  1.
       -1   -1    0    0    0  501  0.00000000000E+00  0.00000000000E+00 -0.13668749042E+04  0.13668749042E+04  0.50400001928E-02 0. -1.
    10030    2    1    2    0    0  0.00000000000E+00  0.00000000000E+00 -0.35932816079E+02  0.26978169923E+04  0.26975776831E+04 0.  0.
        4    1    3    3  502    0 -0.42877515322E+03 -0.10070794681E+04  0.77024850920E+03  0.13384100888E+04  0.12699999809E+01 0.  1.
       -4    1    3    3    0  502  0.42877515322E+03  0.10070794681E+04 -0.80618132527E+03  0.13594069035E+04  0.12699999809E+01 0. -1.
</event>
<event>
 5   0  0.8213334E-06  0.2720799E+04  0.7818609E-02  0.8328288E-01
        2   -1    0    0  501    0  0.00000000000E+00  0.00000000000E+00  0.22551793033E+04  0.22551793033E+04  0.25500000920E-02 0. -1.
       -2   -1    0    0    0  501  0.00000000000E+00  0.00000000000E+00 -0.82063829367E+03  0.82063829367E+03  0.25500000920E-02 0.  1.
    10030    2    1    2    0    0  0.00000000000E+00  0.00000000000E+00  0.14345410096E+04  0.30758175969E+04  0.27207987764E+04 0.  0.
        3    1    3    3  502    0 -0.12495879754E+04  0.33343654086E+03  0.11942707659E+04  0.17603785694E+04  0.10100000352E+00 0. -1.
       -3    1    3    3    0  502  0.12495879754E+04 -0.33343654086E+03  0.24027024366E+03  0.13154390275E+04  0.10100000352E+00 0.  1.
</event>
<event>
 5   0  0.3089218E-06  0.2659481E+04  0.7818609E-02  0.8348273E-01
        1   -1    0    0  501    0  0.00000000000E+00  0.00000000000E+00  0.18965055037E+04  0.18965055037E+04  0.50400001928E-02 0.  1.
       -1   -1    0    0    0  501  0.00000000000E+00  0.00000000000E+00 -0.93235157509E+03  0.93235157510E+03  0.50400001928E-02 0. -1.
    10030    2    1    2    0    0  0.00000000000E+00  0.00000000000E+00  0.96415392864E+03  0.28288570788E+04  0.26594810724E+04 0.  0.
        5    1    3    3  502    0 -0.13542077744E+03  0.18331129447E+03 -0.91141307847E+03  0.93948800272E+03  0.46999998093E+01 0. -1.
       -5    1    3    3    0  502  0.13542077744E+03 -0.18331129447E+03  0.18755670071E+04  0.18893690761E+04  0.46999998093E+01 0.  1.
</event>
<event>
 5   0  0.3028601E-06  0.2683175E+04  0.7818609E-02  0.8340485E-01
       -1   -1    0    0    0  501  0.00000000000E+00  0.00000000000E+00  0.78054945582E+03  0.78054945583E+03  0.50400001928E-02 0.  1.
        1   -1    0    0  501    0  0.00000000000E+00  0.00000000000E+00 -0.23058838835E+04  0.23058838835E+04  0.50400001928E-02 0. -1.
    10030    2    1    2    0    0  0.00000000000E+00  0.00000000000E+00 -0.15253344277E+04  0.30864333394E+04  0.26831745456E+04 0.  0.
        3    1    3    3  502    0  0.22993340721E+03 -0.12256306464E+04 -0.13318193374E+04  0.18244951660E+04  0.10100000352E+00 0. -1.
       -3    1    3    3    0  502 -0.22993340721E+03  0.12256306464E+04 -0.19351509031E+03  0.12619381734E+04  0.10100000352E+00 0.  1.
</event>
<event>
 5   0  0.2654625E-06  0.2692396E+04  0.7818609E-02  0.8337476E-01
       -3   -1    0    0    0  501  0.00000000000E+00  0.00000000000E+00  0.13205028047E+04  0.13205028086E+04  0.10100000352E+00 0. -1.
        3   -1    0    0  501    0  0.00000000000E+00  0.00000000000E+00 -0.13723933005E+04  0.13723933042E+04  0.10100000352E+00 0.  1.
    10030    2    1    2    0    0  0.00000000000E+00  0.00000000000E+00 -0.51890495737E+02  0.26928961128E+04  0.26923961170E+04 0.  0.
        3    1    3    3  502    0  0.45099281920E+03 -0.12664008499E+04 -0.97257625832E+02  0.13478222032E+04  0.10100000352E+00 0.  1.
       -3    1    3    3    0  502 -0.45099281920E+03  0.12664008499E+04  0.45367130094E+02  0.13450739096E+04  0.10100000352E+00 0. -1.
</event>
<event>
 5   0  0.7838364E-06  0.2693025E+04  0.7818609E-02  0.8337272E-01
        2   -1    0    0  501    0  0.00000000000E+00  0.00000000000E+00  0.14027451061E+04  0.14027451061E+04  0.25500000920E-02 0.  1.
       -2   -1    0    0    0  501  0.00000000000E+00  0.00000000000E+00 -0.12925344646E+04  0.12925344646E+04  0.25500000920E-02 0. -1.
    10030    2    1    2    0    0  0.00000000000E+00  0.00000000000E+00  0.11021064142E+03  0.26952795707E+04  0.26930253580E+04 0.  0.
        2    1    3    3  502    0  0.41088121677E+02  0.63939310788E+03 -0.11301936630E+04  0.12991726198E+04  0.25500000920E-02 0. -1.
       -2    1    3    3    0  502 -0.41088121677E+02 -0.63939310788E+03  0.12404043044E+04  0.13961069509E+04  0.25500000920E-02 0.  1.
</event>
<event>
 5   0  0.7812908E-06  0.2449568E+04  0.7818609E-02  0.8421176E-01
       -2   -1    0    0    0  501  0.00000000000E+00  0.00000000000E+00  0.16618323759E+04  0.16618323759E+04  0.25500000920E-02 0. -1.
        2   -1    0    0  501    0  0.00000000000E+00  0.00000000000E+00 -0.90267615474E+03  0.90267615475E+03  0.25500000920E-02 0.  1.
    10030    2    1    2    0    0  0.00000000000E+00  0.00000000000E+00  0.75915622111E+03  0.25645085306E+04  0.24495684999E+04 0.  0.
        5    1    3    3  502    0  0.93731569596E+03 -0.78727012708E+03  0.33616676276E+03  0.12694034620E+04  0.46999998093E+01 0.  1.
       -5    1    3    3    0  502 -0.93731569596E+03  0.78727012708E+03  0.42298945835E+03  0.12951050686E+04  0.46999998093E+01 0. -1.
</event>
<event>
 5   0  0.3013407E-06  0.2680794E+04  0.7818609E-02  0.8341264E-01
        1   -1    0    0  501    0  0.00000000000E+00  0.00000000000E+00  0.11875346200E+04  0.11875346201E+04  0.50400001928E-02 0. -1.
       -1   -1    0    0    0  501  0.00000000000E+00  0.00000000000E+00 -0.15129366017E+04  0.15129366017E+04  0.50400001928E-02 0.  1.
    10030    2    1    2    0    0  0.00000000000E+00  0.00000000000E+00 -0.32540198164E+03  0.27004712217E+04  0.26807943543E+04 0.  0.
        4    1    3    3  502    0 -0.38769077433E+03  0.58751613242E+03 -0.13117679843E+04  0.14886961409E+04  0.12699999809E+01 0.  1.
       -4    1    3    3    0  502  0.38769077433E+03 -0.58751613242E+03  0.98636600269E+03  0.12117750808E+04  0.12699999809E+01 0. -1.
</event>
<event>
 5   0  0.7729970E-06  0.2718579E+04  0.7818609E-02  0.8329002E-01
       -2   -1    0    0    0  501  0.00000000000E+00  0.00000000000E+00  0.81863951377E+03  0.81863951377E+03  0.25500000920E-02 0.  1.
        2   -1    0    0  501    0  0.00000000000E+00  0.00000000000E+00 -0.22569986973E+04  0.22569986973E+04  0.25500000920E-02 0. -1.
    10030    2    1    2    0    0  0.00000000000E+00  0.00000000000E+00 -0.14383591835E+04  0.30756382110E+04  0.27185792732E+04 0.  0.
        4    1    3    3  502    0  0.94843330591E+03 -0.96671045196E+03 -0.85117296712E+03  0.15995473943E+04  0.12699999809E+01 0. -1.
       -4    1    3    3    0  502 -0.94843330591E+03  0.96671045196E+03 -0.58718621638E+03  0.14760908168E+04  0.12699999809E+01 0.  1.
</event>
<event>
 5   0  0.3089218E-06  0.2711457E+04  0.7818609E-02  0.8331297E-01
        1   -1    0    0  501    0  0.00000000000E+00  0.00000000000E+00  0.11893493691E+04  0.11893493691E+04  0.50400001928E-02 0. -1.
       -1   -1    0    0    0  501  0.00000000000E+00  0.00000000000E+00 -0.15453821851E+04  0.15453821851E+04  0.50400001928E-02 0.  1.
    10030    2    1    2    0    0  0.00000000000E+00  0.00000000000E+00 -0.35603281602E+03  0.27347315542E+04  0.27114566763E+04 0.  0.
        5    1    3    3  502    0  0.57849031191E+03  0.10419652657E+04 -0.82981025741E+03  0.14522223691E+04  0.46999998093E+01 0.  1.
       -5    1    3    3    0  502 -0.57849031191E+03 -0.10419652657E+04  0.47377744139E+03  0.12825091851E+04  0.46999998093E+01 0. -1.
</event>
<event>
 5   0  0.7838364E-06  0.2779615E+04  0.7818609E-02  0.8309625E-01
       -2   -1    0    0    0  501  0.00000000000E+00  0.00000000000E+00  0.91296455676E+03  0.91296455676E+03  0.25500000920E-02 0.  1.
        2   -1    0    0  501    0  0.00000000000E+00  0.00000000000E+00 -0.21157067333E+04  0.21157067333E+04  0.25500000920E-02 0. -1.
    10030    2    1    2    0    0  0.00000000000E+00  0.00000000000E+00 -0.12027421765E+04  0.30286712901E+04  0.27796152684E+04 0.  0.
        2    1    3    3  502    0  0.41116681415E+03  0.11854020941E+02  0.84511938632E+03  0.93990714648E+03  0.25500000920E-02 0.  1.
       -2    1    3    3    0  502 -0.41116681415E+03 -0.11854020941E+02 -0.20478615629E+04  0.20887641436E+04  0.25500000920E-02 0. -1.
</event>
<event>
 5   0  0.8213334E-06  0.2705517E+04  0.7818609E-02  0.8333217E-01
       -2   -1    0    0    0  501  0.00000000000E+00  0.00000000000E+00  0.18819893764E+04  0.18819893764E+04  0.25500000920E-02 0. -1.
        2   -1    0    0  501    0  0.00000000000E+00  0.00000000000E+00 -0.97235169485E+03  0.97235169486E+03  0.25500000920E-02 0.  1.
    10030    2    1    2    0    0  0.00000000000E+00  0.00000000000E+00  0.90963768159E+03  0.28543410713E+04  0.27055170004E+04 0.  0.
        3    1    3    3  502    0  0.39717970373E+03 -0.39783557748E+03  0.17529201721E+04  0.18408568668E+04  0.10100000352E+00 0. -1.
       -3    1    3    3    0  502 -0.39717970373E+03  0.39783557748E+03 -0.84328249056E+03  0.10134842045E+04  0.10100000352E+00 0.  1.
</event>
<event>
 5   0  0.3046300E-06  0.2843845E+04  0.7818609E-02  0.8289784E-01
        1   -1    0    0  501    0  0.00000000000E+00  0.00000000000E+00  0.25142003087E+04  0.25142003087E+04  0.50400001928E-02 0.  1.
       -1   -1    0    0    0  501  0.00000000000E+00  0.00000000000E+00 -0.80417748493E+03  0.80417748494E+03  0.50400001928E-02 0. -1.
    10030    2    1    2    0    0  0.00000000000E+00  0.00000000000E+00  0.17100228238E+04  0.33183777937E+04  0.28438447784E+04 0.  0.
        2    1    3    3  502    0  0.85248596724E+03  0.10176355491E+04  0.26054203001E+03  0.13528475836E+04  0.25500000920E-02 0. -1.
       -2    1    3    3    0  502 -0.85248596724E+03 -0.10176355491E+04  0.14494807938E+04  0.19655302101E+04  0.25500000920E-02 0.  1.
</event>
<event>
 5   0  0.3089218E-06  0.2586115E+04  0.7818609E-02  0.8372933E-01
       -1   -1    0    0    0  501  0.00000000000E+00  0.00000000000E+00  0.84777319831E+03  0.84777319832E+03  0.50400001928E-02 0.  1.
        1   -1    0    0  501    0  0.00000000000E+00  0.00000000000E+00 -0.19722222101E+04  0.19722222101E+04  0.50400001928E-02 0. -1.
    10030    2    1    2    0    0  0.00000000000E+00  0.00000000000E+00 -0.11244490118E+04  0.28199954084E+04  0.25861145611E+04 0.  0.
        5    1    3    3  502    0  0.99017275395E+03  0.52730616955E+03 -0.12634028679E+04  0.16895865694E+04  0.46999998093E+01 0.  1.
       -5    1    3    3    0  502 -0.99017275395E+03 -0.52730616955E+03  0.13895385609E+03  0.11304088390E+04  0.46999998093E+01 0. -1.
</event>
<event>
 5   0  0.8213334E-06  0.2442180E+04  0.7818609E-02  0.8423879E-01
       -2   -1    0    0    0  501  0.00000000000E+00  0.00000000000E+00  0.15278491405E+04  0.15278491405E+04  0.25500000920E-02 0. -1.
        2   -1    0    0  501    0  0.00000000000E+00  0.00000000000E+00 -0.97592129634E+03  0.97592129635E+03  0.25500000920E-02 0.  1.
    10030    2    1    2    0    0  0.00000000000E+00  0.00000000000E+00  0.55192784413E+03  0.25037704368E+04  0.24421797754E+04 0.  0.
        3    1    3    3  502    0  0.10889578819E+04 -0.49432146590E+03  0.52892014320E+03  0.13076465533E+04  0.10100000352E+00 0. -1.
       -3    1    3    3    0  502 -0.10889578819E+04  0.49432146590E+03  0.23007700932E+02  0.11961238835E+04  0.10100000352E+00 0.  1.
</event>
<event>
 5   0  0.8213334E-06  0.2688468E+04  0.7818609E-02  0.8338756E-01
       -2   -1    0    0    0  501  0.00000000000E+00  0.00000000000E+00  0.11021052800E+04  0.11021052800E+04  0.25500000920E-02 0.  1.
        2   -1    0    0  501    0  0.00000000000E+00  0.00000000000E+00 -0.16395577289E+04  0.16395577289E+04  0.25500000920E-02 0. -1.
    10030    2    1    2    0    0  0.00000000000E+00  0.00000000000E+00 -0.53745244899E+03  0.27416630089E+04  0.26884681362E+04 0.  0.
        3    1    3    3  502    0  0.82940397225E+02 -0.68637562694E+03 -0.14443477265E+04  0.16012904096E+04  0.10100000352E+00 0. -1.
       -3    1    3    3    0  502 -0.82940397225E+02  0.68637562694E+03  0.90689527747E+03  0.11403725993E+04  0.10100000352E+00 0.  1.
</event>
<event>
 5   0  0.7838364E-06  0.2723456E+04  0.7818609E-02  0.8327434E-01
       -2   -1    0    0    0  501  0.00000000000E+00  0.00000000000E+00  0.97211992561E+03  0.97211992561E+03  0.25500000920E-02 0. -1.
        2   -1    0    0  501    0  0.00000000000E+00  0.00000000000E+00 -0.19074840996E+04  0.19074840996E+04  0.25500000920E-02 0.  1.
    10030    2    1    2    0    0  0.00000000000E+00  0.00000000000E+00 -0.93536417398E+03  0.28796040252E+04  0.27234561138E+04 0.  0.
        2    1    3    3  502    0 -0.68373146046E+03  0.97011943326E+03 -0.11735531275E+04  0.16690857881E+04  0.25500000920E-02 0.  1.
       -2    1    3    3    0  502  0.68373146046E+03 -0.97011943326E+03  0.23818895356E+03  0.12105182371E+04  0.25500000920E-02 0. -1.
</event>
<event>
 5   0  0.3199840E-06  0.2693874E+04  0.7818609E-02  0.8336995E-01
        1   -1    0    0  501    0  0.00000000000E+00  0.00000000000E+00  0.19648997806E+04  0.19648997806E+04  0.50400001928E-02 0.  1.
       -1   -1    0    0    0  501  0.00000000000E+00  0.00000000000E+00 -0.92332395972E+03  0.92332395973E+03  0.50400001928E-02 0. -1.
    10030    2    1    2    0    0  0.00000000000E+00  0.00000000000E+00  0.10415758209E+04  0.28882237404E+04  0.26938738247E+04 0.  0.
        1    1    3    3  502    0  0.81282431033E+03  0.98683826522E+03  0.97528884525E+03  0.16080178646E+04  0.50400001928E-02 0.  1.
       -1    1    3    3    0  502 -0.81282431033E+03 -0.98683826522E+03  0.66286975646E+02  0.12802058758E+04  0.50400001928E-02 0. -1.
</event>
<event>
 5   0  0.7729970E-06  0.2706421E+04  0.7818609E-02  0.8332925E-01
        2   -1    0    0  501    0  0.00000000000E+00  0.00000000000E+00  0.17928956344E+04  0.17928956344E+04  0.25500000920E-02 0. -1.
       -2   -1    0    0    0  501  0.00000000000E+00  0.00000000000E+00 -0.10213528345E+04  0.10213528345E+04  0.25500000920E-02 0.  1.
    10030    2    1    2    0    0  0.00000000000E+00  0.00000000000E+00  0.77154279990E+03  0.28142484689E+04  0.27064212814E+04 0.  0.
        4    1    3    3  502    0  0.10473430874E+04  0.84873694268E+03  0.26319583906E+03  0.13735194222E+04  0.12699999809E+01 0.  1.
       -4    1    3    3    0  502 -0.10473430874E+04 -0.84873694268E+03  0.50834696084E+03  0.14407290467E+04  0.12699999809E+01 0. -1.
</event>
<event>
 5   0  0.8213334E-06  0.2696159E+04  0.7818609E-02  0.8336252E-01
        2   -1    0    0  501    0  0.00000000000E+00  0.00000000000E+00  0.16368308305E+04  0.16368308305E+04  0.25500000920E-02 0. -1.
       -2   -1    0    0    0  501  0.00000000000E+00  0.00000000000E+00 -0.11102666734E+04  0.11102666734E+04  0.25500000920E-02 0.  1.
    10030    2    1    2    0    0  0.00000000000E+00  0.00000000000E+00  0.52656415709E+03  0.27470975040E+04  0.26961592840E+04 0.  0.
        3    1    3    3  502    0  0.96112590393E+03 -0.92986752284E+03  0.43650015481E+03  0.14067512248E+04  0.10100000352E+00 0.  1.
       -3    1    3    3    0  502 -0.96112590393E+03  0.92986752284E+03  0.90064002281E+02  0.13403462791E+04  0.10100000352E+00 0. -1.
</event>
<event>
 5   0  0.3046300E-06  0.2739019E+04  0.7818609E-02  0.8322455E-01
        1   -1    0    0  501    0  0.00000000000E+00  0.00000000000E+00  0.23184409109E+04  0.23184409109E+04  0.50400001928E-02 0.  1.
       -1   -1    0    0    0  501  0.00000000000E+00  0.00000000000E+00 -0.80897302712E+03  0.80897302714E+03  0.50400001928E-02 0. -1.
    10030    2    1    2    0    0  0.00000000000E+00  0.00000000000E+00  0.15094678838E+04  0.31274139381E+04  0.27390189207E+04 0.  0.
        2    1    3    3  502    0 -0.12995650866E+04  0.36396409667E+03  0.10205967651E+04  0.16920274923E+04  0.25500000920E-02 0. -1.
       -2    1    3    3    0  502  0.12995650866E+04 -0.36396409667E+03  0.48887111871E+03  0.14353864457E+04  0.25500000920E-02 0.  1.
</event>
<event>
 5   0  0.3199840E-06  0.2663705E+04  0.7818609E-02  0.8346878E-01
        1   -1    0    0  501    0  0.00000000000E+00  0.00000000000E+00  0.17120601534E+04  0.17120601534E+04  0.50400001928E-02 0. -1.
       -1   -1    0    0    0  501  0.00000000000E+00  0.00000000000E+00 -0.10360796261E+04  0.10360796261E+04  0.50400001928E-02 0.  1.
    10030    2    1    2    0    0  0.00000000000E+00  0.00000000000E+00  0.67598052730E+03  0.27481397796E+04  0.26637046711E+04 0.  0.
        1    1    3    3  502    0 -0.84864365791E+03  0.10232557422E+04  0.25428733582E+03  0.13534808536E+04  0.50400001928E-02 0.  1.
       -1    1    3    3    0  502  0.84864365791E+03 -0.10232557422E+04  0.42169319148E+03  0.13946589259E+04  0.50400001928E-02 0. -1.
</event>
<event>
 5   0  0.8407622E-06  0.2692148E+04  0.7818609E-02  0.8337557E-01
        2   -1    0    0  501    0  0.00000000000E+00  0.00000000000E+00  0.23511848763E+04  0.23511848763E+04  0.25500000920E-02 0. -1.
       -2   -1    0    0    0  501  0.00000000000E+00  0.00000000000E+00 -0.77063896863E+03  0.77063896863E+03  0.25500000920E-02 0.  1.
    10030    2    1    2    0    0  0.00000000000E+00  0.00000000000E+00  0.15805459077E+04  0.31218238450E+04  0.26921476097E+04 0.  0.
        1    1    3    3  502    0 -0.36467601615E+03 -0.42428015001E+02 -0.71145880391E+03  0.80060125088E+03  0.50400001928E-02 0.  1.
       -1    1    3    3    0  502  0.36467601615E+03  0.42428015001E+02  0.22920047116E+04  0.23212225941E+04  0.50400001928E-02 0. -1.
</event>
<event>
 5   0  0.3089218E-06  0.2718373E+04  0.7818609E-02  0.8329068E-01
        1   -1    0    0  501    0  0.00000000000E+00  0.00000000000E+00  0.19493098973E+04  0.19493098973E+04  0.50400001928E-02 0. -1.
       -1   -1    0    0    0  501  0.00000000000E+00  0.00000000000E+00 -0.94771360755E+03  0.94771360756E+03  0.50400001928E-02 0.  1.
    10030    2    1    2    0    0  0.00000000000E+00  0.00000000000E+00  0.10015962897E+04  0.28970235048E+04  0.27183726860E+04 0.  0.
        5    1    3    3  502    0  0.91216730454E+03 -0.11623104052E+03 -0.56588384083E+03  0.10797247138E+04  0.46999998093E+01 0.  1.
       -5    1    3    3    0  502 -0.91216730454E+03  0.11623104052E+03  0.15674801305E+04  0.18172987910E+04  0.46999998093E+01 0. -1.
</event>
<event>
 5   0  0.3199840E-06  0.2698489E+04  0.7818609E-02  0.8335495E-01
        1   -1    0    0  501    0  0.00000000000E+00  0.00000000000E+00  0.12613996963E+04  0.12613996963E+04  0.50400001928E-02 0.  1.
       -1   -1    0    0    0  501  0.00000000000E+00  0.00000000000E+00 -0.14432065546E+04  0.14432065546E+04  0.50400001928E-02 0. -1.
    10030    2    1    2    0    0  0.00000000000E+00  0.00000000000E+00 -0.18180685830E+03  0.27046062509E+04  0.26984886953E+04 0.  0.
        1    1    3    3  502    0  0.12822485804E+04 -0.41778752955E+03 -0.48946039082E+02  0.13494826996E+04  0.50400001928E-02 0. -1.
       -1    1    3    3    0  502 -0.12822485804E+04  0.41778752955E+03 -0.13286081922E+03  0.13551235512E+04  0.50400001928E-02 0.  1.
</event>
<event>
 5   0  0.8213334E-06  0.2704723E+04  0.7818609E-02  0.8333474E-01
        2   -1    0    0  501    0  0.00000000000E+00  0.00000000000E+00  0.17365759314E+04  0.17365759314E+04  0.25500000920E-02 0. -1.
       -2   -1    0    0    0  501  0.00000000000E+00  0.00000000000E+00 -0.10531540564E+04  0.10531540564E+04  0.25500000920E-02 0.  1.
    10030    2    1    2    0    0  0.00000000000E+00  0.00000000000E+00  0.68342187504E+03  0.27897299878E+04  0.27047232660E+04 0.  0.
        3    1    3    3  502    0  0.28742271933E+03 -0.31842689248E+03 -0.98112417521E+03  0.10707997772E+04  0.10100000352E+00 0.  1.
       -3    1    3    3    0  502 -0.28742271933E+03  0.31842689248E+03  0.16645460502E+04  0.17189302106E+04  0.10100000352E+00 0. -1.
</event>
<event>
 5   0  0.3199840E-06  0.2699995E+04  0.7818609E-02  0.8335007E-01
        1   -1    0    0  501    0  0.00000000000E+00  0.00000000000E+00  0.18345804899E+04  0.18345804899E+04  0.50400001928E-02 0.  1.
       -1   -1    0    0    0  501  0.00000000000E+00  0.00000000000E+00 -0.99341146272E+03  0.99341146273E+03  0.50400001928E-02 0. -1.
    10030    2    1    2    0    0  0.00000000000E+00  0.00000000000E+00  0.84116902716E+03  0.28279919526E+04  0.26999950281E+04 0.  0.
        1    1    3    3  502    0  0.53294316837E+03  0.59125381846E+03  0.15626339598E+04  0.17536916465E+04  0.50400001928E-02 0.  1.
       -1    1    3    3    0  502 -0.53294316837E+03 -0.59125381846E+03 -0.72146493269E+03  0.10743003061E+04  0.50400001928E-02 0. -1.
</event>
<event>
 5   0  0.3199840E-06  0.2748840E+04  0.7818609E-02  0.8319330E-01
        1   -1    0    0  501    0  0.00000000000E+00  0.00000000000E+00  0.20223109593E+04  0.20223109593E+04  0.50400001928E-02 0.  1.
       -1   -1    0    0    0  501  0.00000000000E+00  0.00000000000E+00 -0.93409476385E+03  0.93409476386E+03  0.50400001928E-02 0. -1.
    10030    2    1    2    0    0  0.00000000000E+00  0.00000000000E+00  0.10882161955E+04  0.29564057232E+04  0.27488398120E+04 0.  0.
        1    1    3    3  502    0 -0.79398893291E+03  0.10894160294E+04  0.83226534069E+03  0.15842699606E+04  0.50400001928E-02 0.  1.
       -1    1    3    3    0  502  0.79398893291E+03 -0.10894160294E+04  0.25595085476E+03  0.13721357625E+04  0.50400001928E-02 0. -1.
</event>
<event>
 5   0  0.3046300E-06  0.2719402E+04  0.7818609E-02  0.8328737E-01
       -1   -1    0    0    0  501  0.00000000000E+00  0.00000000000E+00  0.14269207256E+04  0.14269207256E+04  0.50400001928E-02 0. -1.
        1   -1    0    0  501    0  0.00000000000E+00  0.00000000000E+00 -0.12956476482E+04  0.12956476482E+04  0.50400001928E-02 0.  1.
    10030    2    1    2    0    0  0.00000000000E+00  0.00000000000E+00  0.13127307746E+03  0.27225683738E+04  0.27194017595E+04 0.  0.
        2    1    3    3  502    0 -0.46876845061E+03  0.11346771621E+04 -0.51946709434E+03  0.13330724603E+04  0.25500000920E-02 0.  1.
       -2    1    3    3    0  502  0.46876845061E+03 -0.11346771621E+04  0.65074017179E+03  0.13894959135E+04  0.25500000920E-02 0. -1.
</event>
<event>
 5   0  0.8407622E-06  0.2713719E+04  0.7818609E-02  0.8330567E-01
        2   -1    0    0  501    0  0.00000000000E+00  0.00000000000E+00  0.25345649099E+04  0.25345649099E+04  0.25500000920E-02 0.  1.
       -2   -1    0    0    0  501  0.00000000000E+00  0.00000000000E+00 -0.72638404580E+03  0.72638404580E+03  0.25500000920E-02 0. -1.
    10030    2    1    2    0    0  0.00000000000E+00  0.00000000000E+00  0.18081808641E+04  0.32609489557E+04  0.27137188606E+04 0.  0.
        1    1    3    3  502    0 -0.27482986715E+03 -0.59770336981E+03 -0.52192653437E+03  0.83975477460E+03  0.50400001928E-02 0. -1.
       -1    1    3    3    0  502  0.27482986715E+03  0.59770336981E+03  0.23301073984E+04  0.24211941811E+04  0.50400001928E-02 0.  1.
</event>
<event>
 5   0  0.2654625E-06  0.2700516E+04  0.7818609E-02  0.8334837E-01
       -3   -1    0    0    0  501  0.00000000000E+00  0.00000000000E+00  0.16220413790E+04  0.16220413821E+04  0.10100000352E+00 0. -1.
        3   -1    0    0  501    0  0.00000000000E+00  0.00000000000E+00 -0.11240140414E+04  0.11240140459E+04  0.10100000352E+00 0.  1.
    10030    2    1    2    0    0  0.00000000000E+00  0.00000000000E+00  0.49802733760E+03  0.27460554281E+04  0.27005164664E+04 0.  0.
        3    1    3    3  502    0  0.99179633990E+02 -0.42214557039E+02 -0.11196321100E+04  0.11248087574E+04  0.10100000352E+00 0.  1.
       -3    1    3    3    0  502 -0.99179633990E+02  0.42214557039E+02  0.16176594476E+04  0.16212466707E+04  0.10100000352E+00 0. -1.
</event>
<event>
 5   0  0.8213334E-06  0.2729932E+04  0.7818609E-02  0.8325358E-01
        2   -1    0    0  501    0  0.00000000000E+00  0.00000000000E+00  0.19583045698E+04  0.19583045698E+04  0.25500000920E-02 0.  1.
       -2   -1    0    0    0  501  0.00000000000E+00  0.00000000000E+00 -0.95140056868E+03  0.95140056869E+03  0.25500000920E-02 0. -1.
    10030    2    1    2    0    0  0.00000000000E+00  0.00000000000E+00  0.10069040012E+04  0.29097051385E+04  0.27299319269E+04 0.  0.
        3    1    3    3  502    0 -0.59283175193E+03  0.10792626408E+04 -0.12429334175E+03  0.12376211775E+04  0.10100000352E+00 0. -1.
       -3    1    3    3    0  502  0.59283175193E+03 -0.10792626408E+04  0.11311973429E+04  0.16720839610E+04  0.10100000352E+00 0.  1.
</event>
<event>
 5   0  0.7838364E-06  0.2707639E+04  0.7818609E-02  0.8332531E-01
        2   -1    0    0  501    0  0.00000000000E+00  0.00000000000E+00  0.15691672626E+04  0.15691672626E+04  0.25500000920E-02 0. -1.
       -2   -1    0    0    0  501  0.00000000000E+00  0.00000000000E+00 -0.11680251007E+04  0.11680251007E+04  0.25500000920E-02 0.  1.
    10030    2    1    2    0    0  0.00000000000E+00  0.00000000000E+00  0.40114216190E+03  0.27371923633E+04  0.27076386391E+04 0.  0.
        2    1    3    3  502    0 -0.19418273255E+03  0.80457821638E+03  0.12836067327E+04  0.15273176762E+04  0.25500000920E-02 0. -1.
       -2    1    3    3    0  502  0.19418273255E+03 -0.80457821638E+03 -0.88246457077E+03  0.12098746871E+04  0.25500000920E-02 0.  1.
</event>
<event>
 5   0  0.7729970E-06  0.2695403E+04  0.7818609E-02  0.8336498E-01
       -2   -1    0    0    0  501  0.00000000000E+00  0.00000000000E+00  0.10233503780E+04  0.10233503780E+04  0.25500000920E-02 0.  1.
        2   -1    0    0  501    0  0.00000000000E+00  0.00000000000E+00 -0.17748563364E+04  0.17748563364E+04  0.25500000920E-02 0. -1.
    10030    2    1    2    0    0  0.00000000000E+00  0.00000000000E+00 -0.75150595845E+03  0.27982067144E+04  0.26954034226E+04 0.  0.
        4    1    3    3  502    0  0.88833530386E+02 -0.13086051274E+04 -0.69734113053E+03  0.14854713194E+04  0.12699999809E+01 0.  1.
       -4    1    3    3    0  502 -0.88833530386E+02  0.13086051274E+04 -0.54164827918E+02  0.13127353949E+04  0.12699999809E+01 0. -1.
</event>
<event>
 5   0  0.8213334E-06  0.2706245E+04  0.7818609E-02  0.8332981E-01
       -2   -1    0    0    0  501  0.00000000000E+00  0.00000000000E+00  0.12495821211E+04  0.12495821211E+04  0.25500000920E-02 0. -1.
        2   -1    0    0  501    0  0.00000000000E+00  0.00000000000E+00 -0.14652426756E+04  0.14652426756E+04  0.25500000920E-02 0.  1.
    10030    2    1    2    0    0  0.00000000000E+00  0.00000000000E+00 -0.21566055451E+03  0.27148247967E+04  0.27062454068E+04 0.  0.
        3    1    3    3  502    0 -0.69776540157E+03 -0.86002315862E+03  0.67208192460E+03  0.12954576460E+04  0.10100000352E+00 0. -1.
       -3    1    3    3    0  502  0.69776540157E+03  0.86002315862E+03 -0.88774247911E+03  0.14193671507E+04  0.10100000352E+00 0.  1.
</event>
<event>
 5   0  0.3199840E-06  0.2693354E+04  0.7818609E-02  0.8337165E-01
       -1   -1    0    0    0  501  0.00000000000E+00  0.00000000000E+00  0.12781968339E+04  0.12781968340E+04  0.50400001928E-02 0.  1.
        1   -1    0    0  501    0  0.00000000000E+00  0.00000000000E+00 -0.14188262584E+04  0.14188262584E+04  0.50400001928E-02 0. -1.
    10030    2    1    2    0    0  0.00000000000E+00  0.00000000000E+00 -0.14062942442E+03  0.26970230923E+04  0.26933542147E+04 0.  0.
        1    1    3    3  502    0  0.45798630761E+03  0.65281367014E+03 -0.11569759179E+04  0.14051727369E+04  0.50400001928E-02 0. -1.
       -1    1    3    3    0  502 -0.45798630761E+03 -0.65281367014E+03  0.10163464935E+04  0.12918503554E+04  0.50400001928E-02 0.  1.
</event>
<event>
 5   0  0.2654625E-06  0.2711258E+04  0.7818609E-02  0.8331361E-01
       -3   -1    0    0    0  501  0.00000000000E+00  0.00000000000E+00  0.11290729430E+04  0.11290729475E+04  0.10100000352E+00 0. -1.
        3   -1    0    0  501    0  0.00000000000E+00  0.00000000000E+00 -0.16276454318E+04  0.16276454349E+04  0.10100000352E+00 0.  1.
    10030    2    1    2    0    0  0.00000000000E+00  0.00000000000E+00 -0.49857248883E+03  0.27567183824E+04  0.27112583266E+04 0.  0.
        1    1    3    3  502    0  0.59635491805E+03  0.12076778587E+04 -0.40550294409E+03  0.14066121130E+04  0.50400001928E-02 0.  1.
       -1    1    3    3    0  502 -0.59635491805E+03 -0.12076778587E+04 -0.93069544742E+02  0.13501062695E+04  0.50400001928E-02 0. -1.
</event>
<event>
 5   0  0.7729970E-06  0.2687457E+04  0.7818609E-02  0.8339086E-01
       -2   -1    0    0    0  501  0.00000000000E+00  0.00000000000E+00  0.76478291517E+03  0.76478291517E+03  0.25500000920E-02 0.  1.
        2   -1    0    0  501    0  0.00000000000E+00  0.00000000000E+00 -0.23609404739E+04  0.23609404739E+04  0.25500000920E-02 0. -1.
    10030    2    1    2    0    0  0.00000000000E+00  0.00000000000E+00 -0.15961575587E+04  0.31257233891E+04  0.26874574885E+04 0.  0.
        4    1    3    3  502    0 -0.41293487212E+03  0.83322435419E+03  0.33006354531E+03  0.98677332243E+03  0.12699999809E+01 0.  1.
       -4    1    3    3    0  502  0.41293487212E+03 -0.83322435419E+03 -0.19262211040E+04  0.21389500666E+04  0.12699999809E+01 0. -1.
</event>
<event>
 5   0  0.7838364E-06  0.2702928E+04  0.7818609E-02  0.8334055E-01
        2   -1    0    0  501    0  0.00000000000E+00  0.00000000000E+00  0.12930966490E+04  0.12930966490E+04  0.25500000920E-02 0.  1.
       -2   -1    0    0    0  501  0.00000000000E+00  0.00000000000E+00 -0.14124661297E+04  0.14124661297E+04  0.25500000920E-02 0. -1.
    10030    2    1    2    0    0  0.00000000000E+00  0.00000000000E+00 -0.11936948071E+03  0.27055627788E+04  0.27029282042E+04 0.  0.
        2    1    3    3  502    0  0.10064122784E+03 -0.70474453220E+03 -0.12095697515E+04  0.14035143377E+04  0.25500000920E-02 0. -1.
       -2    1    3    3    0  502 -0.10064122784E+03  0.70474453220E+03  0.10902002708E+04  0.13020484411E+04  0.25500000920E-02 0.  1.
</event>
<event>
 5   0  0.3046300E-06  0.2539606E+04  0.7818609E-02  0.8389010E-01
        1   -1    0    0  501    0  0.00000000000E+00  0.00000000000E+00  0.17553003573E+04  0.17553003573E+04  0.50400001928E-02 0. -1.
       -1   -1    0    0    0  501  0.00000000000E+00  0.00000000000E+00 -0.91858873820E+03  0.91858873822E+03  0.50400001928E-02 0.  1.
    10030    2    1    2    0    0  0.00000000000E+00  0.00000000000E+00  0.83671161911E+03  0.26738890955E+04  0.25396055918E+04 0.  0.
        2    1    3    3  502    0 -0.11823367002E+04  0.27089529764E+03  0.81384318809E+03  0.14607001984E+04  0.25500000920E-02 0.  1.
       -2    1    3    3    0  502  0.11823367002E+04 -0.27089529764E+03  0.22868431025E+02  0.12131888971E+04  0.25500000920E-02 0. -1.
</event>
<event>
 5   0  0.3046300E-06  0.2651866E+04  0.7818609E-02  0.8350794E-01
       -1   -1    0    0    0  501  0.00000000000E+00  0.00000000000E+00  0.15378060697E+04  0.15378060697E+04  0.50400001928E-02 0. -1.
        1   -1    0    0  501    0  0.00000000000E+00  0.00000000000E+00 -0.11432512197E+04  0.11432512197E+04  0.50400001928E-02 0.  1.
    10030    2    1    2    0    0  0.00000000000E+00  0.00000000000E+00  0.39455485003E+03  0.26810572894E+04  0.26518662597E+04 0.  0.
        2    1    3    3  502    0 -0.57523161446E+03 -0.10913185652E+04  0.68866363100E+03  0.14128429558E+04  0.25500000920E-02 0. -1.
       -2    1    3    3    0  502  0.57523161446E+03  0.10913185652E+04 -0.29410878097E+03  0.12682143336E+04  0.25500000920E-02 0.  1.
</event>
<event>
 5   0  0.8407622E-06  0.2701566E+04  0.7818609E-02  0.8334497E-01
        2   -1    0    0  501    0  0.00000000000E+00  0.00000000000E+00  0.12575100365E+04  0.12575100365E+04  0.25500000920E-02 0. -1.
       -2   -1    0    0    0  501  0.00000000000E+00  0.00000000000E+00 -0.14509744840E+04  0.14509744840E+04  0.25500000920E-02 0.  1.
    10030    2    1    2    0    0  0.00000000000E+00  0.00000000000E+00 -0.19346444750E+03  0.27084845205E+04  0.27015661949E+04 0.  0.
        1    1    3    3  502    0  0.19238222171E+01 -0.85062963536E+02 -0.14482852434E+04  0.14507823941E+04  0.50400001928E-02 0.  1.
       -1    1    3    3    0  502 -0.19238222171E+01  0.85062963536E+02  0.12548207959E+04  0.12577021264E+04  0.50400001928E-02 0. -1.
</event>
<event>
 5   0  0.3199840E-06  0.2711478E+04  0.7818609E-02  0.8331291E-01
       -1   -1    0    0    0  501  0.00000000000E+00  0.00000000000E+00  0.17437164936E+04  0.17437164936E+04  0.50400001928E-02 0. -1.
        1   -1    0    0  501    0  0.00000000000E+00  0.00000000000E+00 -0.10540862402E+04  0.10540862402E+04  0.50400001928E-02 0.  1.
    10030    2    1    2    0    0  0.00000000000E+00  0.00000000000E+00  0.68963025341E+03  0.27978027338E+04  0.27114775033E+04 0.  0.
        1    1    3    3  502    0 -0.40996784717E+03 -0.11448277880E+04  0.96333513344E+03  0.15513603319E+04  0.50400001928E-02 0. -1.
       -1    1    3    3    0  502  0.40996784717E+03  0.11448277880E+04 -0.27370488003E+03  0.12464424019E+04  0.50400001928E-02 0.  1.
</event>
<event>
 5   0  0.3089218E-06  0.2688600E+04  0.7818609E-02  0.8338713E-01
        1   -1    0    0  501    0  0.00000000000E+00  0.00000000000E+00  0.23836968284E+04  0.23836968284E+04  0.50400001928E-02 0.  1.
       -1   -1    0    0    0  501  0.00000000000E+00  0.00000000000E+00 -0.75812587499E+03  0.75812587501E+03  0.50400001928E-02 0. -1.
    10030    2    1    2    0    0  0.00000000000E+00  0.00000000000E+00  0.16255709534E+04  0.31418227034E+04  0.26885998168E+04 0.  0.
        5    1    3    3  502    0  0.81125964063E+03  0.94639527491E+03  0.22463961200E+03  0.12666062001E+04  0.46999998093E+01 0. -1.
       -5    1    3    3    0  502 -0.81125964063E+03 -0.94639527491E+03  0.14009313414E+04  0.18752165033E+04  0.46999998093E+01 0.  1.
</event>
<event>
 5   0  0.3199840E-06  0.2721104E+04  0.7818609E-02  0.8328190E-01
       -1   -1    0    0    0  501  0.00000000000E+00  0.00000000000E+00  0.17535402303E+04  0.17535402303E+04  0.50400001928E-02 0.  1.
        1   -1    0    0  501    0  0.00000000000E+00  0.00000000000E+00 -0.10556370036E+04  0.10556370036E+04  0.50400001928E-02 0. -1.
    10030    2    1    2    0    0  0.00000000000E+00  0.00000000000E+00  0.69790322672E+03  0.28091772339E+04  0.27211041542E+04 0.  0.
        1    1    3    3  502    0  0.12887067990E+04 -0.41371821426E+03  0.49190357147E+03  0.14401031554E+04  0.50400001928E-02 0.  1.
       -1    1    3    3    0  502 -0.12887067990E+04  0.41371821426E+03  0.20599965525E+03  0.13690740785E+04  0.50400001928E-02 0. -1.
</event>
<event>
 5   0  0.3028601E-06  0.2695507E+04  0.7818609E-02  0.8336464E-01
       -1   -1    0    0    0  501  0.00000000000E+00  0.00000000000E+00  0.84562008629E+03  0.84562008630E+03  0.50400001928E-02 0.  1.
        1   -1    0    0  501    0  0.00000000000E+00  0.00000000000E+00 -0.21480556031E+04  0.21480556031E+04  0.50400001928E-02 0. -1.
    10030    2    1    2    0    0  0.00000000000E+00  0.00000000000E+00 -0.13024355168E+04  0.29936756894E+04  0.26955066051E+04 0.  0.
        3    1    3    3  502    0 -0.78641426314E+03 -0.59054225120E+03 -0.16747051306E+04  0.19421186443E+04  0.10100000352E+00 0. -1.
       -3    1    3    3    0  502  0.78641426314E+03  0.59054225120E+03  0.37226961377E+03  0.10515570452E+04  0.10100000352E+00 0.  1.
</event>
<event>
 5   0  0.8213334E-06  0.2699239E+04  0.7818609E-02  0.8335252E-01
        2   -1    0    0  501    0  0.00000000000E+00  0.00000000000E+00  0.91397476922E+03  0.91397476922E+03  0.25500000920E-02 0. -1.
       -2   -1    0    0    0  501  0.00000000000E+00  0.00000000000E+00 -0.19929137442E+04  0.19929137442E+04  0.25500000920E-02 0.  1.
    10030    2    1    2    0    0  0.00000000000E+00  0.00000000000E+00 -0.10789389750E+04  0.29068885134E+04  0.26992390627E+04 0.  0.
        3    1    3    3  502    0  0.34266402508E+03  0.51739885662E+03 -0.18301464750E+04  0.19325000235E+04  0.10100000352E+00 0.  1.
       -3    1    3    3    0  502 -0.34266402508E+03 -0.51739885662E+03  0.75120750001E+03  0.97438848987E+03  0.10100000352E+00 0. -1.
</event>
<event>
 5   0  0.8407622E-06  0.2698782E+04  0.7818609E-02  0.8335400E-01
       -2   -1    0    0    0  501  0.00000000000E+00  0.00000000000E+00  0.22131425516E+04  0.22131425516E+04  0.25500000920E-02 0.  1.
        2   -1    0    0  501    0  0.00000000000E+00  0.00000000000E+00 -0.82274687430E+03  0.82274687430E+03  0.25500000920E-02 0. -1.
    10030    2    1    2    0    0  0.00000000000E+00  0.00000000000E+00  0.13903956773E+04  0.30358894259E+04  0.26987820340E+04 0.  0.
        1    1    3    3  502    0  0.12285345855E+04 -0.54123926737E+03  0.54170233190E+03  0.14476458782E+04  0.50400001928E-02 0. -1.
       -1    1    3    3    0  502 -0.12285345855E+04  0.54123926737E+03  0.84869334542E+03  0.15882435477E+04  0.50400001928E-02 0.  1.
</event>
<event>
 5   0  0.2654625E-06  0.2711789E+04  0.7818609E-02  0.8331190E-01
        3   -1    0    0  501    0  0.00000000000E+00  0.00000000000E+00  0.86396719025E+03  0.86396719616E+03  0.10100000352E+00 0. -1.
       -3   -1    0    0    0  501  0.00000000000E+00  0.00000000000E+00 -0.21279168805E+04  0.21279168829E+04  0.10100000352E+00 0.  1.
    10030    2    1    2    0    0  0.00000000000E+00  0.00000000000E+00 -0.12639496902E+04  0.29918840790E+04  0.27117893582E+04 0.  0.
        5    1    3    3  502    0  0.19208143671E+03  0.11767646674E+04  0.80272348485E+02  0.11950464848E+04  0.46999998093E+01 0. -1.
       -5    1    3    3    0  502 -0.19208143671E+03 -0.11767646674E+04 -0.13442220387E+04  0.17968375943E+04  0.46999998093E+01 0.  1.
</event>
<event>
 5   0  0.7729970E-06  0.2721087E+04  0.7818609E-02  0.8328195E-01
       -2   -1    0    0    0  501  0.00000000000E+00  0.00000000000E+00  0.10656352865E+04  0.10656352865E+04  0.25500000920E-02 0.  1.
        2   -1    0    0  501    0  0.00000000000E+00  0.00000000000E+00 -0.17370652564E+04  0.17370652564E+04  0.25500000920E-02 0. -1.
    10030    2    1    2    0    0  0.00000000000E+00  0.00000000000E+00 -0.67142996991E+03  0.28027005429E+04  0.27210865713E+04 0.  0.
        4    1    3    3  502    0 -0.88826124626E+03 -0.92303197304E+03 -0.80780743959E+03  0.15144472712E+04  0.12699999809E+01 0. -1.
       -4    1    3    3    0  502  0.88826124626E+03  0.92303197304E+03  0.13637746967E+03  0.12882532717E+04  0.12699999809E+01 0.  1.
</event>
<event>
 5   0  0.3046300E-06  0.2801655E+04  0.7818609E-02  0.8302755E-01
       -1   -1    0    0    0  501  0.00000000000E+00  0.00000000000E+00  0.11091242728E+04  0.11091242728E+04  0.50400001928E-02 0. -1.
        1   -1    0    0  501    0  0.00000000000E+00  0.00000000000E+00 -0.17692491370E+04  0.17692491370E+04  0.50400001928E-02 0.  1.
    10030    2    1    2    0    0  0.00000000000E+00  0.00000000000E+00 -0.66012486414E+03  0.28783734098E+04  0.28016546272E+04 0.  0.
        2    1    3    3  502    0 -0.65857468376E+03  0.10849337892E+04 -0.93918488054E+03  0.15788825735E+04  0.25500000920E-02 0. -1.
       -2    1    3    3    0  502  0.65857468376E+03 -0.10849337892E+04  0.27906001640E+03  0.12994908363E+04  0.25500000920E-02 0.  1.
</event>
<event>
 5   0  0.7812908E-06  0.2705914E+04  0.7818609E-02  0.8333088E-01
        2   -1    0    0  501    0  0.00000000000E+00  0.00000000000E+00  0.16724068529E+04  0.16724068529E+04  0.25500000920E-02 0. -1.
       -2   -1    0    0    0  501  0.00000000000E+00  0.00000000000E+00 -0.10945262947E+04  0.10945262947E+04  0.25500000920E-02 0.  1.
    10030    2    1    2    0    0  0.00000000000E+00  0.00000000000E+00  0.57788055819E+03  0.27669331476E+04  0.27059144672E+04 0.  0.
        5    1    3    3  502    0  0.97032113735E+03 -0.93784793766E+03  0.38802386668E+03  0.14041604164E+04  0.46999998093E+01 0. -1.
       -5    1    3    3    0  502 -0.97032113735E+03  0.93784793766E+03  0.18985669151E+03  0.13627727313E+04  0.46999998093E+01 0.  1.
</event>
<event>
 5   0  0.7812908E-06  0.2657284E+04  0.7818609E-02  0.8348999E-01
        2   -1    0    0  501    0  0.00000000000E+00  0.00000000000E+00  0.16532694023E+04  0.16532694023E+04  0.25500000920E-02 0.  1.
       -2   -1    0    0    0  501  0.00000000000E+00  0.00000000000E+00 -0.10677569500E+04  0.10677569500E+04  0.25500000920E-02 0. -1.
    10030    2    1    2    0    0  0.00000000000E+00  0.00000000000E+00  0.58551245233E+03  0.27210263523E+04  0.26572842487E+04 0.  0.
        5    1    3    3  502    0  0.96422148811E+01  0.11476373765E+04  0.97821888014E+03  0.15080115343E+04  0.46999998093E+01 0.  1.
       -5    1    3    3    0  502 -0.96422148811E+01 -0.11476373765E+04 -0.39270642782E+03  0.12130148180E+04  0.46999998093E+01 0. -1.
</event>
<event>
 5   0  0.8213334E-06  0.2686939E+04  0.7818609E-02  0.8339255E-01
       -2   -1    0    0    0  501  0.00000000000E+00  0.00000000000E+00  0.97731372085E+03  0.97731372086E+03  0.25500000920E-02 0. -1.
        2   -1    0    0  501    0  0.00000000000E+00  0.00000000000E+00 -0.18468070437E+04  0.18468070437E+04  0.25500000920E-02 0.  1.
    10030    2    1    2    0    0  0.00000000000E+00  0.00000000000E+00 -0.86949332287E+03  0.28241207646E+04  0.26869386771E+04 0.  0.
        3    1    3    3  502    0 -0.67012490725E+02  0.83545612879E+03 -0.15383206644E+04  0.17518299272E+04  0.10100000352E+00 0.  1.
       -3    1    3    3    0  502  0.67012490725E+02 -0.83545612879E+03  0.66882734151E+03  0.10722908374E+04  0.10100000352E+00 0. -1.
</event>
<event>
 5   0  0.7812908E-06  0.2700957E+04  0.7818609E-02  0.8334695E-01
        2   -1    0    0  501    0  0.00000000000E+00  0.00000000000E+00  0.17141207323E+04  0.17141207323E+04  0.25500000920E-02 0.  1.
       -2   -1    0    0    0  501  0.00000000000E+00  0.00000000000E+00 -0.10639809249E+04  0.10639809249E+04  0.25500000920E-02 0. -1.
    10030    2    1    2    0    0  0.00000000000E+00  0.00000000000E+00  0.65013980740E+03  0.27781016572E+04  0.27009566913E+04 0.  0.
        5    1    3    3  502    0 -0.88184203254E+03 -0.10049330865E+04  0.12928129754E+03  0.13432317829E+04  0.46999998093E+01 0. -1.
       -5    1    3    3    0  502  0.88184203254E+03  0.10049330865E+04  0.52085850986E+03  0.14348698743E+04  0.46999998093E+01 0.  1.
</event>
<event>
 5   0  0.7838364E-06  0.2704963E+04  0.7818609E-02  0.8333396E-01
       -2   -1    0    0    0  501  0.00000000000E+00  0.00000000000E+00  0.20911014306E+04  0.20911014306E+04  0.25500000920E-02 0.  1.
        2   -1    0    0  501    0  0.00000000000E+00  0.00000000000E+00 -0.87475759288E+03  0.87475759289E+03  0.25500000920E-02 0. -1.
    10030    2    1    2    0    0  0.00000000000E+00  0.00000000000E+00  0.12163438377E+04  0.29658590235E+04  0.27049634777E+04 0.  0.
        2    1    3    3  502    0 -0.20505347260E+03  0.11620727515E+04 -0.11643752106E+03  0.11857561734E+04  0.25500000920E-02 0. -1.
       -2    1    3    3    0  502  0.20505347260E+03 -0.11620727515E+04  0.13327813588E+04  0.17801028501E+04  0.25500000920E-02 0.  1.
</event>
<event>
 5   0  0.7812908E-06  0.2755317E+04  0.7818609E-02  0.8317276E-01
       -2   -1    0    0    0  501  0.00000000000E+00  0.00000000000E+00  0.18101046064E+04  0.18101046064E+04  0.25500000920E-02 0. -1.
        2   -1    0    0  501    0  0.00000000000E+00  0.00000000000E+00 -0.10485269016E+04  0.10485269016E+04  0.25500000920E-02 0.  1.
    10030    2    1    2    0    0  0.00000000000E+00  0.00000000000E+00  0.76157770480E+03  0.28586315080E+04  0.27553173135E+04 0.  0.
        5    1    3    3  502    0 -0.30852324987E+03  0.57871390242E+02  0.17724986166E+04  0.18000858673E+04  0.46999998093E+01 0. -1.
       -5    1    3    3    0  502  0.30852324987E+03 -0.57871390242E+02 -0.10109209118E+04  0.10585456407E+04  0.46999998093E+01 0.  1.
</event>
<event>
 5   0  0.7838364E-06  0.2621963E+04  0.7818609E-02  0.8360779E-01
       -2   -1    0    0    0  501  0.00000000000E+00  0.00000000000E+00  0.85105663303E+03  0.85105663304E+03  0.25500000920E-02 0.  1.
        2   -1    0    0  501    0  0.00000000000E+00  0.00000000000E+00 -0.20194576368E+04  0.20194576368E+04  0.25500000920E-02 0. -1.
    10030    2    1    2    0    0  0.00000000000E+00  0.00000000000E+00 -0.11684010037E+04  0.28705142698E+04  0.26219632468E+04 0.  0.
        2    1    3    3  502    0  0.10263253980E+04  0.33492739330E+03  0.23004544134E+03  0.11038301891E+04  0.25500000920E-02 0.  1.
       -2    1    3    3    0  502 -0.10263253980E+04 -0.33492739330E+03 -0.13984464451E+04  0.17666840807E+04  0.25500000920E-02 0. -1.
</event>
<event>
 5   0  0.7729970E-06  0.2704703E+04  0.7818609E-02  0.8333481E-01
        2   -1    0    0  501    0  0.00000000000E+00  0.00000000000E+00  0.13901019865E+04  0.13901019865E+04  0.25500000920E-02 0.  1.
       -2   -1    0    0    0  501  0.00000000000E+00  0.00000000000E+00 -0.13156263673E+04  0.13156263673E+04  0.25500000920E-02 0. -1.
    10030    2    1    2    0    0  0.00000000000E+00  0.00000000000E+00  0.74475619164E+02  0.27057283538E+04  0.27047031827E+04 0.  0.
        4    1    3    3  502    0  0.96096616331E+03 -0.13928447939E+03  0.97886876258E+03  0.13787827242E+04  0.12699999809E+01 0.  1.
       -4    1    3    3    0  502 -0.96096616331E+03  0.13928447939E+03 -0.90439314342E+03  0.13269456296E+04  0.12699999809E+01 0. -1.
</event>
<event>
 5   0  0.8407622E-06  0.2712095E+04  0.7818609E-02  0.8331091E-01
       -2   -1    0    0    0  501  0.00000000000E+00  0.00000000000E+00  0.97241597206E+03  0.97241597206E+03  0.25500000920E-02 0.  1.
        2   -1    0    0  501    0  0.00000000000E+00  0.00000000000E+00 -0.18910272327E+04  0.18910272327E+04  0.25500000920E-02 0. -1.
    10030    2    1    2    0    0  0.00000000000E+00  0.00000000000E+00 -0.91861126059E+03  0.28634432047E+04  0.27120951935E+04 0.  0.
        1    1    3    3  502    0  0.54582420591E+03 -0.61379204087E+03  0.67988789372E+03  0.10662608880E+04  0.50400001928E-02 0.  1.
       -1    1    3    3    0  502 -0.54582420591E+03  0.61379204087E+03 -0.15984991543E+04  0.17971823167E+04  0.50400001928E-02 0. -1.
</event>
<event>
 5   0  0.3199840E-06  0.2697407E+04  0.7818609E-02  0.8335847E-01
        1   -1    0    0  501    0  0.00000000000E+00  0.00000000000E+00  0.12627549563E+04  0.12627549563E+04  0.50400001928E-02 0.  1.
       -1   -1    0    0    0  501  0.00000000000E+00  0.00000000000E+00 -0.14405024120E+04  0.14405024120E+04  0.50400001928E-02 0. -1.
    10030    2    1    2    0    0  0.00000000000E+00  0.00000000000E+00 -0.17774745568E+03  0.27032573684E+04  0.26974073184E+04 0.  0.
        1    1    3    3  502    0 -0.75832394032E+03 -0.52772617617E+02  0.10276166806E+04  0.12782160185E+04  0.50400001928E-02 0.  1.
       -1    1    3    3    0  502  0.75832394032E+03  0.52772617617E+02 -0.12053641363E+04  0.14250413499E+04  0.50400001928E-02 0. -1.
</event>
<event>
 5   0  0.3089218E-06  0.2758456E+04  0.7818609E-02  0.8316283E-01
        1   -1    0    0  501    0  0.00000000000E+00  0.00000000000E+00  0.22023098425E+04  0.22023098425E+04  0.50400001928E-02 0.  1.
       -1   -1    0    0    0  501  0.00000000000E+00  0.00000000000E+00 -0.86376152479E+03  0.86376152480E+03  0.50400001928E-02 0. -1.
    10030    2    1    2    0    0  0.00000000000E+00  0.00000000000E+00  0.13385483177E+04  0.30660713673E+04  0.27584564580E+04 0.  0.
        5    1    3    3  502    0 -0.12801691403E+04  0.51151920694E+03  0.71595113606E+03  0.15534133533E+04  0.46999998093E+01 0.  1.
       -5    1    3    3    0  502  0.12801691403E+04 -0.51151920694E+03  0.62259718166E+03  0.15126580141E+04  0.46999998093E+01 0. -1.
</event>
<event>
 5   0  0.3046300E-06  0.2707049E+04  0.7818609E-02  0.8332722E-01
        1   -1    0    0  501    0  0.00000000000E+00  0.00000000000E+00  0.16028265421E+04  0.16028265421E+04  0.50400001928E-02 0. -1.
       -1   -1    0    0    0  501  0.00000000000E+00  0.00000000000E+00 -0.11429983367E+04  0.11429983367E+04  0.50400001928E-02 0.  1.
    10030    2    1    2    0    0  0.00000000000E+00  0.00000000000E+00  0.45982820540E+03  0.27458248788E+04  0.27070486302E+04 0.  0.
        2    1    3    3  502    0 -0.32485769507E+03  0.88324614917E+03 -0.75683711493E+03  0.12076666347E+04  0.25500000920E-02 0.  1.
       -2    1    3    3    0  502  0.32485769507E+03 -0.88324614917E+03  0.12166653203E+04  0.15381582441E+04  0.25500000920E-02 0. -1.
</event>
<event>
 5   0  0.3089218E-06  0.2680160E+04  0.7818609E-02  0.8341471E-01
        1   -1    0    0  501    0  0.00000000000E+00  0.00000000000E+00  0.10937514012E+04  0.10937514012E+04  0.50400001928E-02 0. -1.
       -1   -1    0    0    0  501  0.00000000000E+00  0.00000000000E+00 -0.16418858664E+04  0.16418858665E+04  0.50400001928E-02 0.  1.
    10030    2    1    2    0    0  0.00000000000E+00  0.00000000000E+00 -0.54813446525E+03  0.27356372677E+04  0.26801604184E+04 0.  0.
        5    1    3    3  502    0 -0.69780867281E+03  0.10960847639E+04  0.60519923437E+02  0.13007780382E+04  0.46999998093E+01 0. -1.
       -5    1    3    3    0  502  0.69780867281E+03 -0.10960847639E+04 -0.60865438868E+03  0.14348592295E+04  0.46999998093E+01 0.  1.
</event>
<event>
 5   0  0.8407622E-06  0.2697959E+04  0.7818609E-02  0.8335668E-01
        2   -1    0    0  501    0  0.00000000000E+00  0.00000000000E+00  0.22698240142E+04  0.22698240142E+04  0.25500000920E-02 0.  1.
       -2   -1    0    0    0  501  0.00000000000E+00  0.00000000000E+00 -0.80171211345E+03  0.80171211346E+03  0.25500000920E-02 0. -1.
    10030    2    1    2    0    0  0.00000000000E+00  0.00000000000E+00  0.14681119008E+04  0.30715361277E+04  0.26979587896E+04 0.  0.
        1    1    3    3  502    0  0.66847140426E+02 -0.13284415917E+04  0.47816722628E+03  0.14134601158E+04  0.50400001928E-02 0. -1.
       -1    1    3    3    0  502 -0.66847140426E+02  0.13284415917E+04  0.98994467452E+03  0.16580760119E+04  0.50400001928E-02 0.  1.
</event>
<event>
 5   0  0.7729970E-06  0.2713373E+04  0.7818609E-02  0.8330679E-01
       -2   -1    0    0    0  501  0.00000000000E+00  0.00000000000E+00  0.23605926484E+04  0.23605926484E+04  0.25500000920E-02 0.  1.
        2   -1    0    0  501    0  0.00000000000E+00  0.00000000000E+00 -0.77971870347E+03  0.77971870347E+03  0.25500000920E-02 0. -1.
    10030    2    1    2    0    0  0.00000000000E+00  0.00000000000E+00  0.15808739450E+04  0.31403113519E+04  0.27133729852E+04 0.  0.
        4    1    3    3  502    0 -0.10410732180E+04 -0.12505686365E+03 -0.20590549064E+03  0.10685838050E+04  0.12699999809E+01 0. -1.
       -4    1    3    3    0  502  0.10410732180E+04  0.12505686365E+03  0.17867794356E+04  0.20717275469E+04  0.12699999809E+01 0.  1.
</event>
<event>
 5   0  0.3013407E-06  0.2703820E+04  0.7818609E-02  0.8333767E-01
       -1   -1    0    0    0  501  0.00000000000E+00  0.00000000000E+00  0.16543737565E+04  0.16543737565E+04  0.50400001928E-02 0.  1.
        1   -1    0    0  501    0  0.00000000000E+00  0.00000000000E+00 -0.11047448891E+04  0.11047448891E+04  0.50400001928E-02 0. -1.
    10030    2    1    2    0    0  0.00000000000E+00  0.00000000000E+00  0.54962886742E+03  0.27591186456E+04  0.27038202249E+04 0.  0.
        4    1    3    3  502    0 -0.64213603694E+03 -0.11663235293E+04  0.35475319440E+02  0.13318818927E+04  0.12699999809E+01 0. -1.
       -4    1    3    3    0  502  0.64213603694E+03  0.11663235293E+04  0.51415354798E+03  0.14272367529E+04  0.12699999809E+01 0.  1.
</event>
<event>
 5   0  0.3046300E-06  0.2692303E+04  0.7818609E-02  0.8337507E-01
       -1   -1    0    0    0  501  0.00000000000E+00  0.00000000000E+00  0.15505258334E+04  0.15505258334E+04  0.50400001928E-02 0. -1.
        1   -1    0    0  501    0  0.00000000000E+00  0.00000000000E+00 -0.11687152884E+04  0.11687152884E+04  0.50400001928E-02 0.  1.
    10030    2    1    2    0    0  0.00000000000E+00  0.00000000000E+00  0.38181054501E+03  0.27192411218E+04  0.26923025436E+04 0.  0.
        2    1    3    3  502    0  0.12530874660E+04 -0.48387665189E+03  0.27986857843E+03  0.13721119608E+04  0.25500000920E-02 0.  1.
       -2    1    3    3    0  502 -0.12530874660E+04  0.48387665189E+03  0.10194196658E+03  0.13471291610E+04  0.25500000920E-02 0. -1.
</event>
<event>
 5   0  0.3046300E-06  0.2713371E+04  0.7818609E-02  0.8330679E-01
        1   -1    0    0  501    0  0.00000000000E+00  0.00000000000E+00  0.15155458969E+04  0.15155458969E+04  0.50400001928E-02 0. -1.
       -1   -1    0    0    0  501  0.00000000000E+00  0.00000000000E+00 -0.12144772990E+04  0.12144772991E+04  0.50400001928E-02 0.  1.
    10030    2    1    2    0    0  0.00000000000E+00  0.00000000000E+00  0.30106859782E+03  0.27300231959E+04  0.27133713992E+04 0.  0.
        2    1    3    3  502    0  0.41012562586E+03  0.25960483734E+03 -0.11241258092E+04  0.12244413156E+04  0.25500000920E-02 0.  1.
       -2    1    3    3    0  502 -0.41012562586E+03 -0.25960483734E+03  0.14251944070E+04  0.15055818803E+04  0.25500000920E-02 0. -1.
</event>
<event>
 5   0  0.7838364E-06  0.2704810E+04  0.7818609E-02  0.8333446E-01
        2   -1    0    0  501    0  0.00000000000E+00  0.00000000000E+00  0.13077599907E+04  0.13077599907E+04  0.25500000920E-02 0. -1.
       -2   -1    0    0    0  501  0.00000000000E+00  0.00000000000E+00 -0.13985745262E+04  0.13985745262E+04  0.25500000920E-02 0.  1.
    10030    2    1    2    0    0  0.00000000000E+00  0.00000000000E+00 -0.90814535469E+02  0.27063345169E+04  0.27048103884E+04 0.  0.
        2    1    3    3  502    0 -0.60799639387E+02  0.31566136666E+03 -0.13597917022E+04  0.13972731186E+04  0.25500000920E-02 0.  1.
       -2    1    3    3    0  502  0.60799639387E+02 -0.31566136666E+03  0.12689771668E+04  0.13090613982E+04  0.25500000920E-02 0. -1.
</event>
<event>
 5   0  0.3199840E-06  0.2660040E+04  0.7818609E-02  0.8348088E-01
       -1   -1    0    0    0  501  0.00000000000E+00  0.00000000000E+00  0.18080840757E+04  0.18080840757E+04  0.50400001928E-02 0.  1.
        1   -1    0    0  501    0  0.00000000000E+00  0.00000000000E+00 -0.97835748533E+03  0.97835748534E+03  0.50400001928E-02 0. -1.
    10030    2    1    2    0    0  0.00000000000E+00  0.00000000000E+00  0.82972659037E+03  0.27864415611E+04  0.26600395408E+04 0.  0.
        1    1    3    3  502    0 -0.13562520089E+03 -0.78841972461E+03 -0.69814839630E+03  0.10617961389E+04  0.50400001928E-02 0. -1.
       -1    1    3    3    0  502  0.13562520089E+03  0.78841972461E+03  0.15278749867E+04  0.17246454222E+04  0.50400001928E-02 0.  1.
</event>
<event>
 5   0  0.3013407E-06  0.2694555E+04  0.7818609E-02  0.8336774E-01
        1   -1    0    0  501    0  0.00000000000E+00  0.00000000000E+00  0.15348975669E+04  0.15348975669E+04  0.50400001928E-02 0. -1.
       -1   -1    0    0    0  501  0.00000000000E+00  0.00000000000E+00 -0.11825916699E+04  0.11825916699E+04  0.50400001928E-02 0.  1.
    10030    2    1    2    0    0  0.00000000000E+00  0.00000000000E+00  0.35230589695E+03  0.27174892368E+04  0.26945553078E+04 0.  0.
        4    1    3    3  502    0 -0.20578500218E+03  0.12041889117E+04  0.74908768086E+03  0.14330221103E+04  0.12699999809E+01 0. -1.
       -4    1    3    3    0  502  0.20578500218E+03 -0.12041889117E+04 -0.39678178391E+03  0.12844671265E+04  0.12699999809E+01 0.  1.
</event>
<event>
 5   0  0.3028601E-06  0.2701003E+04  0.7818609E-02  0.8334680E-01
        1   -1    0    0  501    0  0.00000000000E+00  0.00000000000E+00  0.22613658613E+04  0.22613658613E+04  0.50400001928E-02 0.  1.
       -1   -1    0    0    0  501  0.00000000000E+00  0.00000000000E+00 -0.80652764915E+03  0.80652764916E+03  0.50400001928E-02 0. -1.
    10030    2    1    2    0    0  0.00000000000E+00  0.00000000000E+00  0.14548382122E+04  0.30678935105E+04  0.27010028449E+04 0.  0.
        3    1    3    3  502    0 -0.18503044459E+03  0.37134912987E+03 -0.73234655293E+03  0.84170536737E+03  0.10100000352E+00 0. -1.
       -3    1    3    3    0  502  0.18503044459E+03 -0.37134912987E+03  0.21871847651E+04  0.22261881431E+04  0.10100000352E+00 0.  1.
</event>
<event>
 5   0  0.3013407E-06  0.2604202E+04  0.7818609E-02  0.8366775E-01
       -1   -1    0    0    0  501  0.00000000000E+00  0.00000000000E+00  0.95043899073E+03  0.95043899074E+03  0.50400001928E-02 0. -1.
        1   -1    0    0  501    0  0.00000000000E+00  0.00000000000E+00 -0.17838784611E+04  0.17838784611E+04  0.50400001928E-02 0.  1.
    10030    2    1    2    0    0  0.00000000000E+00  0.00000000000E+00 -0.83343947033E+03  0.27343174518E+04  0.26042024838E+04 0.  0.
        4    1    3    3  502    0 -0.83923061288E+02  0.12879388219E+04 -0.23596572093E+03  0.13120636126E+04  0.12699999809E+01 0. -1.
       -4    1    3    3    0  502  0.83923061288E+02 -0.12879388219E+04 -0.59747374940E+03  0.14222538392E+04  0.12699999809E+01 0.  1.
</event>
<event>
 5   0  0.7729970E-06  0.2661909E+04  0.7818609E-02  0.8347471E-01
       -2   -1    0    0    0  501  0.00000000000E+00  0.00000000000E+00  0.12912947650E+04  0.12912947650E+04  0.25500000920E-02 0.  1.
        2   -1    0    0  501    0  0.00000000000E+00  0.00000000000E+00 -0.13718318684E+04  0.13718318684E+04  0.25500000920E-02 0. -1.
    10030    2    1    2    0    0  0.00000000000E+00  0.00000000000E+00 -0.80537103335E+02  0.26631266334E+04  0.26619085710E+04 0.  0.
        4    1    3    3  502    0 -0.47198383729E+03 -0.10452228986E+04 -0.71598715226E+03  0.13519981012E+04  0.12699999809E+01 0. -1.
       -4    1    3    3    0  502  0.47198383729E+03  0.10452228986E+04  0.63545004893E+03  0.13111285322E+04  0.12699999809E+01 0.  1.
</event>
<event>
 5   0  0.7838364E-06  0.2698348E+04  0.7818609E-02  0.8335541E-01
        2   -1    0    0  501    0  0.00000000000E+00  0.00000000000E+00  0.10650503816E+04  0.10650503816E+04  0.25500000920E-02 0.  1.
       -2   -1    0    0    0  501  0.00000000000E+00  0.00000000000E+00 -0.17090938174E+04  0.17090938174E+04  0.25500000920E-02 0. -1.
    10030    2    1    2    0    0  0.00000000000E+00  0.00000000000E+00 -0.64404343581E+03  0.27741441991E+04  0.26983484004E+04 0.  0.
        2    1    3    3  502    0  0.11279687979E+03  0.13444353791E+04 -0.31540687769E+03  0.13855364027E+04  0.25500000920E-02 0. -1.
       -2    1    3    3    0  502 -0.11279687979E+03 -0.13444353791E+04 -0.32863655812E+03  0.13886077963E+04  0.25500000920E-02 0.  1.
</event>
<event>
 5   0  0.7812908E-06  0.2702128E+04  0.7818609E-02  0.8334315E-01
       -2   -1    0    0    0  501  0.00000000000E+00  0.00000000000E+00  0.23070766247E+04  0.23070766247E+04  0.25500000920E-02 0. -1.
        2   -1    0    0  501    0  0.00000000000E+00  0.00000000000E+00 -0.79120646376E+03  0.79120646377E+03  0.25500000920E-02 0.  1.
    10030    2    1    2    0    0  0.00000000000E+00  0.00000000000E+00  0.15158701609E+04  0.30982830884E+04  0.27021280042E+04 0.  0.
        5    1    3    3  502    0  0.17129230024E+03  0.15621201767E+03  0.22840915714E+04  0.22958309265E+04  0.46999998093E+01 0. -1.
       -5    1    3    3    0  502 -0.17129230024E+03 -0.15621201767E+03 -0.76822141051E+03  0.80245216191E+03  0.46999998093E+01 0.  1.
</event>
<event>
 5   0  0.8213334E-06  0.2703302E+04  0.7818609E-02  0.8333934E-01
       -2   -1    0    0    0  501  0.00000000000E+00  0.00000000000E+00  0.13903477920E+04  0.13903477920E+04  0.25500000920E-02 0. -1.
        2   -1    0    0  501    0  0.00000000000E+00  0.00000000000E+00 -0.13140311212E+04  0.13140311212E+04  0.25500000920E-02 0.  1.
    10030    2    1    2    0    0  0.00000000000E+00  0.00000000000E+00  0.76316670860E+02  0.27043789132E+04  0.27033018833E+04 0.  0.
        3    1    3    3  502    0 -0.37747513656E+03  0.29441101468E+03  0.13027010792E+04  0.13878744310E+04  0.10100000352E+00 0. -1.
       -3    1    3    3    0  502  0.37747513656E+03 -0.29441101468E+03 -0.12263844084E+04  0.13165044822E+04  0.10100000352E+00 0.  1.
</event>
<event>
 5   0  0.8407622E-06  0.2700808E+04  0.7818609E-02  0.8334743E-01
        2   -1    0    0  501    0  0.00000000000E+00  0.00000000000E+00  0.11875195004E+04  0.11875195004E+04  0.25500000920E-02 0. -1.
       -2   -1    0    0    0  501  0.00000000000E+00  0.00000000000E+00 -0.15356302424E+04  0.15356302424E+04  0.25500000920E-02 0.  1.
    10030    2    1    2    0    0  0.00000000000E+00  0.00000000000E+00 -0.34811074204E+03  0.27231497428E+04  0.27008079223E+04 0.  0.
        1    1    3    3  502    0  0.89244150956E+03  0.40767016929E+03 -0.11096016748E+04  0.14811693663E+04  0.50400001928E-02 0.  1.
       -1    1    3    3    0  502 -0.89244150956E+03 -0.40767016929E+03  0.76149093276E+03  0.12419803765E+04  0.50400001928E-02 0. -1.
</event>
<event>
 5   0  0.3028601E-06  0.2674348E+04  0.7818609E-02  0.8343376E-01
       -1   -1    0    0    0  501  0.00000000000E+00  0.00000000000E+00  0.11196860670E+04  0.11196860670E+04  0.50400001928E-02 0.  1.
        1   -1    0    0  501    0  0.00000000000E+00  0.00000000000E+00 -0.15969069971E+04  0.15969069971E+04  0.50400001928E-02 0. -1.
    10030    2    1    2    0    0  0.00000000000E+00  0.00000000000E+00 -0.47722093006E+03  0.27165930641E+04  0.26743481560E+04 0.  0.
        3    1    3    3  502    0 -0.68406000935E+03  0.97515831628E+03  0.37857477318E+03  0.12498762768E+04  0.10100000352E+00 0.  1.
       -3    1    3    3    0  502  0.68406000935E+03 -0.97515831628E+03 -0.85579570324E+03  0.14667167873E+04  0.10100000352E+00 0. -1.
</event>
<event>
 5   0  0.3028601E-06  0.2784928E+04  0.7818609E-02  0.8307963E-01
        1   -1    0    0  501    0  0.00000000000E+00  0.00000000000E+00  0.17215924551E+04  0.17215924551E+04  0.50400001928E-02 0. -1.
       -1   -1    0    0    0  501  0.00000000000E+00  0.00000000000E+00 -0.11262573207E+04  0.11262573207E+04  0.50400001928E-02 0.  1.
    10030    2    1    2    0    0  0.00000000000E+00  0.00000000000E+00  0.59533513441E+03  0.28478497759E+04  0.27849280823E+04 0.  0.
        3    1    3    3  502    0  0.53127017195E+03  0.11310189313E+04 -0.33062805016E+03  0.12925814235E+04  0.10100000352E+00 0.  1.
       -3    1    3    3    0  502 -0.53127017195E+03 -0.11310189313E+04  0.92596318458E+03  0.15552683524E+04  0.10100000352E+00 0. -1.
</event>
<event>
 5   0  0.7812908E-06  0.2697770E+04  0.7818609E-02  0.8335729E-01
       -2   -1    0    0    0  501  0.00000000000E+00  0.00000000000E+00  0.95341233016E+03  0.95341233016E+03  0.25500000920E-02 0. -1.
        2   -1    0    0  501    0  0.00000000000E+00  0.00000000000E+00 -0.19083992513E+04  0.19083992513E+04  0.25500000920E-02 0.  1.
    10030    2    1    2    0    0  0.00000000000E+00  0.00000000000E+00 -0.95498692115E+03  0.28618115815E+04  0.26977704699E+04 0.  0.
        5    1    3    3  502    0  0.64843202973E+03 -0.23284588200E+03 -0.17076572821E+04  0.18414116284E+04  0.46999998093E+01 0.  1.
       -5    1    3    3    0  502 -0.64843202973E+03  0.23284588200E+03  0.75267036099E+03  0.10203999531E+04  0.46999998093E+01 0. -1.
</event>
<event>
 5   0  0.3013407E-06  0.2712057E+04  0.7818609E-02  0.8331103E-01
       -1   -1    0    0    0  501  0.00000000000E+00  0.00000000000E+00  0.13025572285E+04  0.13025572285E+04  0.50400001928E-02 0.  1.
        1   -1    0    0  501    0  0.00000000000E+00  0.00000000000E+00 -0.14116950808E+04  0.14116950808E+04  0.50400001928E-02 0. -1.
    10030    2    1    2    0    0  0.00000000000E+00  0.00000000000E+00 -0.10913785230E+03  0.27142523093E+04  0.27120572501E+04 0.  0.
        4    1    3    3  502    0 -0.33293253759E+03 -0.24510336583E+03 -0.13470832444E+04  0.14090970920E+04  0.12699999809E+01 0. -1.
       -4    1    3    3    0  502  0.33293253759E+03  0.24510336583E+03  0.12379453921E+04  0.13051552173E+04  0.12699999809E+01 0.  1.
</event>
<event>
 5   0  0.8407622E-06  0.2722642E+04  0.7818609E-02  0.8327696E-01
        2   -1    0    0  501    0  0.00000000000E+00  0.00000000000E+00  0.13126108057E+04  0.13126108057E+04  0.25500000920E-02 0.  1.
       -2   -1    0    0    0  501  0.00000000000E+00  0.00000000000E+00 -0.14118385282E+04  0.14118385282E+04  0.25500000920E-02 0. -1.
    10030    2    1    2    0    0  0.00000000000E+00  0.00000000000E+00 -0.99227722465E+02  0.27244493339E+04  0.27226417377E+04 0.  0.
        1    1    3    3  502    0 -0.12131649761E+04 -0.34797702840E+03 -0.56018514269E+03  0.13808202873E+04  0.50400001928E-02 0. -1.
       -1    1    3    3    0  502  0.12131649761E+04  0.34797702840E+03  0.46095742022E+03  0.13436290466E+04  0.50400001928E-02 0.  1.
</event>
<event>
 5   0  0.8213334E-06  0.2715824E+04  0.7818609E-02  0.8329889E-01
        2   -1    0    0  501    0  0.00000000000E+00  0.00000000000E+00  0.18055661328E+04  0.18055661328E+04  0.25500000920E-02 0.  1.
       -2   -1    0    0    0  501  0.00000000000E+00  0.00000000000E+00 -0.10212447487E+04  0.10212447487E+04  0.25500000920E-02 0. -1.
    10030    2    1    2    0    0  0.00000000000E+00  0.00000000000E+00  0.78432138415E+03  0.28268108816E+04  0.27158239498E+04 0.  0.
        3    1    3    3  502    0  0.75192717116E+03 -0.10489790389E+04  0.83151673767E+03  0.15353083046E+04  0.10100000352E+00 0.  1.
       -3    1    3    3    0  502 -0.75192717116E+03  0.10489790389E+04 -0.47195353524E+02  0.12915025770E+04  0.10100000352E+00 0. -1.
</event>
<event>
 5   0  0.3028601E-06  0.2697718E+04  0.7818609E-02  0.8335746E-01
       -1   -1    0    0    0  501  0.00000000000E+00  0.00000000000E+00  0.11307168565E+04  0.11307168565E+04  0.50400001928E-02 0.  1.
        1   -1    0    0  501    0  0.00000000000E+00  0.00000000000E+00 -0.16090861783E+04  0.16090861783E+04  0.50400001928E-02 0. -1.
    10030    2    1    2    0    0  0.00000000000E+00  0.00000000000E+00 -0.47836932184E+03  0.27398030348E+04  0.26977181953E+04 0.  0.
        3    1    3    3  502    0 -0.44997717890E+03 -0.37029083185E+03 -0.14746429902E+04  0.15856124118E+04  0.10100000352E+00 0. -1.
       -3    1    3    3    0  502  0.44997717890E+03  0.37029083185E+03  0.99627366839E+03  0.11541906230E+04  0.10100000352E+00 0.  1.
</event>
<event>
 5   0  0.8213334E-06  0.2669931E+04  0.7818609E-02  0.8344828E-01
        2   -1    0    0  501    0  0.00000000000E+00  0.00000000000E+00  0.15595775605E+04  0.15595775605E+04  0.25500000920E-02 0.  1.
       -2   -1    0    0    0  501  0.00000000000E+00  0.00000000000E+00 -0.11427026720E+04  0.11427026720E+04  0.25500000920E-02 0. -1.
    10030    2    1    2    0    0  0.00000000000E+00  0.00000000000E+00  0.41687488844E+03  0.27022802325E+04  0.26699314190E+04 0.  0.
        3    1    3    3  502    0  0.52478059279E+03  0.20055863518E+03 -0.10172324896E+04  0.11620586839E+04  0.10100000352E+00 0. -1.
       -3    1    3    3    0  502 -0.52478059279E+03 -0.20055863518E+03  0.14341073781E+04  0.15402215486E+04  0.10100000352E+00 0.  1.
</event>
<event>
 5   0  0.8407622E-06  0.2696772E+04  0.7818609E-02  0.8336053E-01
        2   -1    0    0  501    0  0.00000000000E+00  0.00000000000E+00  0.12627003728E+04  0.12627003728E+04  0.25500000920E-02 0. -1.
       -2   -1    0    0    0  501  0.00000000000E+00  0.00000000000E+00 -0.14398859841E+04  0.14398859841E+04  0.25500000920E-02 0.  1.
    10030    2    1    2    0    0  0.00000000000E+00  0.00000000000E+00 -0.17718561132E+03  0.27025863569E+04  0.26967718249E+04 0.  0.
        1    1    3    3  502    0 -0.58779468558E+03 -0.11188581543E+04  0.38231224201E+03  0.13204199379E+04  0.50400001928E-02 0. -1.
       -1    1    3    3    0  502  0.58779468558E+03  0.11188581543E+04 -0.55949785333E+03  0.13821664190E+04  0.50400001928E-02 0.  1.
</event>
<event>
 5   0  0.3046300E-06  0.2695259E+04  0.7818609E-02  0.8336545E-01
        1   -1    0    0  501    0  0.00000000000E+00  0.00000000000E+00  0.15263553049E+04  0.15263553049E+04  0.50400001928E-02 0. -1.
       -1   -1    0    0    0  501  0.00000000000E+00  0.00000000000E+00 -0.11898316525E+04  0.11898316525E+04  0.50400001928E-02 0.  1.
    10030    2    1    2    0    0  0.00000000000E+00  0.00000000000E+00  0.33652365237E+03  0.27161869574E+04  0.26952594345E+04 0.  0.
        2    1    3    3  502    0  0.74849044266E+03 -0.86170019228E+03  0.89030294393E+03  0.14475512067E+04  0.25500000920E-02 0. -1.
       -2    1    3    3    0  502 -0.74849044266E+03  0.86170019228E+03 -0.55377929156E+03  0.12686357507E+04  0.25500000920E-02 0.  1.
</event>
<event>
 5   0  0.7729970E-06  0.2704659E+04  0.7818609E-02  0.8333495E-01
        2   -1    0    0  501    0  0.00000000000E+00  0.00000000000E+00  0.10537861171E+04  0.10537861171E+04  0.25500000920E-02 0. -1.
       -2   -1    0    0    0  501  0.00000000000E+00  0.00000000000E+00 -0.17354516688E+04  0.17354516688E+04  0.25500000920E-02 0.  1.
    10030    2    1    2    0    0  0.00000000000E+00  0.00000000000E+00 -0.68166555172E+03  0.27892377859E+04  0.27046588513E+04 0.  0.
        4    1    3    3  502    0 -0.45220148518E+03  0.27517567548E+03  0.94250397191E+03  0.10809825094E+04  0.12699999809E+01 0. -1.
       -4    1    3    3    0  502  0.45220148518E+03 -0.27517567548E+03 -0.16241695236E+04  0.17082552766E+04  0.12699999809E+01 0.  1.
</event>
<event>
 5   0  0.7838364E-06  0.2695872E+04  0.7818609E-02  0.8336345E-01
        2   -1    0    0  501    0  0.00000000000E+00  0.00000000000E+00  0.16955451082E+04  0.16955451083E+04  0.25500000920E-02 0.  1.
       -2   -1    0    0    0  501  0.00000000000E+00  0.00000000000E+00 -0.10715917091E+04  0.10715917091E+04  0.25500000920E-02 0. -1.
    10030    2    1    2    0    0  0.00000000000E+00  0.00000000000E+00  0.62395339911E+03  0.27671368174E+04  0.26958724602E+04 0.  0.
        2    1    3    3  502    0  0.76112533628E+02 -0.11579369467E+04  0.10159050739E+04  0.15422951110E+04  0.25500000920E-02 0.  1.
       -2    1    3    3    0  502 -0.76112533628E+02  0.11579369467E+04 -0.39195167483E+03  0.12248417064E+04  0.25500000920E-02 0. -1.
</event>
<event>
 5   0  0.3028601E-06  0.2703585E+04  0.7818609E-02  0.8333843E-01
        1   -1    0    0  501    0  0.00000000000E+00  0.00000000000E+00  0.12843293925E+04  0.12843293925E+04  0.50400001928E-02 0. -1.
       -1   -1    0    0    0  501  0.00000000000E+00  0.00000000000E+00 -0.14227996899E+04  0.14227996899E+04  0.50400001928E-02 0.  1.
    10030    2    1    2    0    0  0.00000000000E+00  0.00000000000E+00 -0.13847029736E+03  0.27071290824E+04  0.27035853686E+04 0.  0.
        3    1    3    3  502    0 -0.10494220468E+04 -0.82593079665E+03 -0.27902143062E+03  0.13642951595E+04  0.10100000352E+00 0.  1.
       -3    1    3    3    0  502  0.10494220468E+04  0.82593079665E+03  0.14055113326E+03  0.13428339229E+04  0.10100000352E+00 0. -1.
</event>
<event>
 5   0  0.3013407E-06  0.2721199E+04  0.7818609E-02  0.8328159E-01
        1   -1    0    0  501    0  0.00000000000E+00  0.00000000000E+00  0.21510094632E+04  0.21510094632E+04  0.50400001928E-02 0. -1.
       -1   -1    0    0    0  501  0.00000000000E+00  0.00000000000E+00 -0.86063365798E+03  0.86063365800E+03  0.50400001928E-02 0.  1.
    10030    2    1    2    0    0  0.00000000000E+00  0.00000000000E+00  0.12903758053E+04  0.30116431212E+04  0.27211991053E+04 0.  0.
        4    1    3    3  502    0  0.81371819037E+03  0.10892910262E+04  0.70093584209E+03  0.15297074559E+04  0.12699999809E+01 0.  1.
       -4    1    3    3    0  502 -0.81371819037E+03 -0.10892910262E+04  0.58943996316E+03  0.14819356653E+04  0.12699999809E+01 0. -1.
</event>
<event>
 5   0  0.3089218E-06  0.2693997E+04  0.7818609E-02  0.8336955E-01
        1   -1    0    0  501    0  0.00000000000E+00  0.00000000000E+00  0.87449710552E+03  0.87449710554E+03  0.50400001928E-02 0. -1.
       -1   -1    0    0    0  501  0.00000000000E+00  0.00000000000E+00 -0.20747974796E+04  0.20747974796E+04  0.50400001928E-02 0.  1.
    10030    2    1    2    0    0  0.00000000000E+00  0.00000000000E+00 -0.12003003740E+04  0.29492945851E+04  0.26939965779E+04 0.  0.
        5    1    3    3  502    0  0.95393010087E+03  0.19760634588E+03 -0.16185477769E+04  0.18891135226E+04  0.46999998093E+01 0.  1.
       -5    1    3    3    0  502 -0.95393010087E+03 -0.19760634588E+03  0.41824740284E+03  0.10601810625E+04  0.46999998093E+01 0. -1.
</event>
<event>
 5   0  0.3013407E-06  0.2740034E+04  0.7818609E-02  0.8322131E-01
        1   -1    0    0  501    0  0.00000000000E+00  0.00000000000E+00  0.23258888333E+04  0.23258888333E+04  0.50400001928E-02 0. -1.
       -1   -1    0    0    0  501  0.00000000000E+00  0.00000000000E+00 -0.80698032599E+03  0.80698032600E+03  0.50400001928E-02 0.  1.
    10030    2    1    2    0    0  0.00000000000E+00  0.00000000000E+00  0.15189085073E+04  0.31328691593E+04  0.27400339625E+04 0.  0.
        4    1    3    3  502    0  0.10921568576E+04  0.32001355472E+03  0.16315153396E+04  0.19892358315E+04  0.12699999809E+01 0. -1.
       -4    1    3    3    0  502 -0.10921568576E+04 -0.32001355472E+03 -0.11260683236E+03  0.11436333278E+04  0.12699999809E+01 0.  1.
</event>
<event>
 5   0  0.3199840E-06  0.2716637E+04  0.7818609E-02  0.8329627E-01
       -1   -1    0    0    0  501  0.00000000000E+00  0.00000000000E+00  0.74680693340E+03  0.74680693341E+03  0.50400001928E-02 0.  1.
        1   -1    0    0  501    0  0.00000000000E+00  0.00000000000E+00 -0.24705572033E+04  0.24705572033E+04  0.50400001928E-02 0. -1.
    10030    2    1    2    0    0  0.00000000000E+00  0.00000000000E+00 -0.17237502699E+04  0.32173641367E+04  0.27166370746E+04 0.  0.
        1    1    3    3  502    0  0.10529762836E+03  0.45217905622E+03 -0.23736688839E+04  0.24186478577E+04  0.50400001928E-02 0. -1.
       -1    1    3    3    0  502 -0.10529762836E+03 -0.45217905622E+03  0.64991861400E+03  0.79871627896E+03  0.50400001928E-02 0.  1.
</event>
<event>
 5   0  0.7812908E-06  0.2696362E+04  0.7818609E-02  0.8336186E-01
        2   -1    0    0  501    0  0.00000000000E+00  0.00000000000E+00  0.66455697524E+03  0.66455697525E+03  0.25500000920E-02 0. -1.
       -2   -1    0    0    0  501  0.00000000000E+00  0.00000000000E+00 -0.27350438219E+04  0.27350438219E+04  0.25500000920E-02 0.  1.
    10030    2    1    2    0    0  0.00000000000E+00  0.00000000000E+00 -0.20704868466E+04  0.33996007971E+04  0.26963623269E+04 0.  0.
        5    1    3    3  502    0 -0.13072330227E+04 -0.31332303369E+03 -0.11646891451E+04  0.17786377916E+04  0.46999998093E+01 0.  1.
       -5    1    3    3    0  502  0.13072330227E+04  0.31332303369E+03 -0.90579770150E+03  0.16209630055E+04  0.46999998093E+01 0. -1.
</event>
<event>
 5   0  0.3013407E-06  0.2678101E+04  0.7818609E-02  0.8342145E-01
        1   -1    0    0  501    0  0.00000000000E+00  0.00000000000E+00  0.20530149519E+04  0.20530149519E+04  0.50400001928E-02 0. -1.
       -1   -1    0    0    0  501  0.00000000000E+00  0.00000000000E+00 -0.87337728874E+03  0.87337728876E+03  0.50400001928E-02 0.  1.
    10030    2    1    2    0    0  0.00000000000E+00  0.00000000000E+00  0.11796376631E+04  0.29263922406E+04  0.26781012919E+04 0.  0.
        4    1    3    3  502    0 -0.75181647172E+03 -0.10807997290E+04  0.32283257017E+03  0.13555731417E+04  0.12699999809E+01 0.  1.
       -4    1    3    3    0  502  0.75181647172E+03  0.10807997290E+04  0.85680509295E+03  0.15708190989E+04  0.12699999809E+01 0. -1.
</event>
<event>
 5   0  0.3046300E-06  0.2707991E+04  0.7818609E-02  0.8332417E-01
        1   -1    0    0  501    0  0.00000000000E+00  0.00000000000E+00  0.14730154905E+04  0.14730154905E+04  0.50400001928E-02 0.  1.
       -1   -1    0    0    0  501  0.00000000000E+00  0.00000000000E+00 -0.12445919660E+04  0.12445919660E+04  0.50400001928E-02 0. -1.
    10030    2    1    2    0    0  0.00000000000E+00  0.00000000000E+00  0.22842352452E+03  0.27176074565E+04  0.27079905800E+04 0.  0.
        2    1    3    3  502    0 -0.17103610451E+03 -0.12817855303E+04 -0.28855595902E+03  0.13249498241E+04  0.25500000920E-02 0.  1.
       -2    1    3    3    0  502  0.17103610451E+03  0.12817855303E+04  0.51697948354E+03  0.13926576324E+04  0.25500000920E-02 0. -1.
</event>
<event>
 5   0  0.8213334E-06  0.2699202E+04  0.7818609E-02  0.8335264E-01
        2   -1    0    0  501    0  0.00000000000E+00  0.00000000000E+00  0.15334139014E+04  0.15334139014E+04  0.25500000920E-02 0.  1.
       -2   -1    0    0    0  501  0.00000000000E+00  0.00000000000E+00 -0.11878218629E+04  0.11878218629E+04  0.25500000920E-02 0. -1.
    10030    2    1    2    0    0  0.00000000000E+00  0.00000000000E+00  0.34559203846E+03  0.27212357643E+04  0.26992017760E+04 0.  0.
        3    1    3    3  502    0 -0.85908523626E+03 -0.36960139297E+03  0.11537703210E+04  0.14851998508E+04  0.10100000352E+00 0.  1.
       -3    1    3    3    0  502  0.85908523626E+03  0.36960139297E+03 -0.80817828257E+03  0.12360359135E+04  0.10100000352E+00 0. -1.
</event>
<event>
 5   0  0.8213334E-06  0.2686980E+04  0.7818609E-02  0.8339242E-01
        2   -1    0    0  501    0  0.00000000000E+00  0.00000000000E+00  0.28776888561E+04  0.28776888561E+04  0.25500000920E-02 0. -1.
       -2   -1    0    0    0  501  0.00000000000E+00  0.00000000000E+00 -0.62722729050E+03  0.62722729050E+03  0.25500000920E-02 0.  1.
    10030    2    1    2    0    0  0.00000000000E+00  0.00000000000E+00  0.22504615656E+04  0.35049161466E+04  0.26869797052E+04 0.  0.
        3    1    3    3  502    0 -0.19664394341E+03  0.64080530673E+03 -0.39353004961E+03  0.77728128227E+03  0.10100000352E+00 0.  1.
       -3    1    3    3    0  502  0.19664394341E+03 -0.64080530673E+03  0.26439916152E+04  0.27276348643E+04  0.10100000352E+00 0. -1.
</event>
<event>
 5   0  0.3089218E-06  0.2703030E+04  0.7818609E-02  0.8334022E-01
        1   -1    0    0  501    0  0.00000000000E+00  0.00000000000E+00  0.19020417602E+04  0.19020417602E+04  0.50400001928E-02 0.  1.
       -1   -1    0    0    0  501  0.00000000000E+00  0.00000000000E+00 -0.96033268277E+03  0.96033268279E+03  0.50400001928E-02 0. -1.
    10030    2    1    2    0    0  0.00000000000E+00  0.00000000000E+00  0.94170907747E+03  0.28623744430E+04  0.27030300527E+04 0.  0.
        5    1    3    3  502    0  0.79943667452E+03 -0.10501612527E+04  0.16278713025E+03  0.13298343479E+04  0.46999998093E+01 0. -1.
       -5    1    3    3    0  502 -0.79943667452E+03  0.10501612527E+04  0.77892194722E+03  0.15325400951E+04  0.46999998093E+01 0.  1.
</event>
<event>
 5   0  0.7812908E-06  0.2676960E+04  0.7818609E-02  0.8342520E-01
       -2   -1    0    0    0  501  0.00000000000E+00  0.00000000000E+00  0.11740745740E+04  0.11740745740E+04  0.25500000920E-02 0. -1.
        2   -1    0    0  501    0  0.00000000000E+00  0.00000000000E+00 -0.15259069431E+04  0.15259069431E+04  0.25500000920E-02 0.  1.
    10030    2    1    2    0    0  0.00000000000E+00  0.00000000000E+00 -0.35183236914E+03  0.26999815171E+04  0.26769598758E+04 0.  0.
        5    1    3    3  502    0 -0.20661468536E+03 -0.89380863903E+02 -0.15066673251E+04  0.15233998443E+04  0.46999998093E+01 0.  1.
       -5    1    3    3    0  502  0.20661468536E+03  0.89380863903E+02  0.11548349560E+04  0.11765816728E+04  0.46999998093E+01 0. -1.
</event>
<event>
 5   0  0.8213334E-06  0.2709694E+04  0.7818609E-02  0.8331867E-01
        2   -1    0    0  501    0  0.00000000000E+00  0.00000000000E+00  0.19371463838E+04  0.19371463838E+04  0.25500000920E-02 0.  1.
       -2   -1    0    0    0  501  0.00000000000E+00  0.00000000000E+00 -0.94758462220E+03  0.94758462221E+03  0.25500000920E-02 0. -1.
    10030    2    1    2    0    0  0.00000000000E+00  0.00000000000E+00  0.98956176161E+03  0.28847310060E+04  0.27096938013E+04 0.  0.
        3    1    3    3  502    0 -0.10150752004E+04 -0.17061396558E+03 -0.44310602557E+03  0.11206380985E+04  0.10100000352E+00 0. -1.
       -3    1    3    3    0  502  0.10150752004E+04  0.17061396558E+03  0.14326677872E+04  0.17640929075E+04  0.10100000352E+00 0.  1.
</event>
<event>
 5   0  0.3028601E-06  0.2717331E+04  0.7818609E-02  0.8329404E-01
       -1   -1    0    0    0  501  0.00000000000E+00  0.00000000000E+00  0.10609360860E+04  0.10609360861E+04  0.50400001928E-02 0.  1.
        1   -1    0    0  501    0  0.00000000000E+00  0.00000000000E+00 -0.17399460870E+04  0.17399460870E+04  0.50400001928E-02 0. -1.
    10030    2    1    2    0    0  0.00000000000E+00  0.00000000000E+00 -0.67901000095E+03  0.28008821731E+04  0.27173307428E+04 0.  0.
        3    1    3    3  502    0 -0.34548977302E+02  0.68086848120E+03  0.87187389362E+03  0.11067699025E+04  0.10100000352E+00 0.  1.
       -3    1    3    3    0  502  0.34548977302E+02 -0.68086848120E+03 -0.15508838946E+04  0.16941122705E+04  0.10100000352E+00 0. -1.
</event>
<event>
 5   0  0.3028601E-06  0.2700578E+04  0.7818609E-02  0.8334817E-01
        1   -1    0    0  501    0  0.00000000000E+00  0.00000000000E+00  0.13379988605E+04  0.13379988605E+04  0.50400001928E-02 0.  1.
       -1   -1    0    0    0  501  0.00000000000E+00  0.00000000000E+00 -0.13626925121E+04  0.13626925121E+04  0.50400001928E-02 0. -1.
    10030    2    1    2    0    0  0.00000000000E+00  0.00000000000E+00 -0.24693651598E+02  0.27006913726E+04  0.27005784776E+04 0.  0.
        3    1    3    3  502    0 -0.10700996977E+04  0.76247582143E+03  0.29879039492E+03  0.13475008169E+04  0.10100000352E+00 0.  1.
       -3    1    3    3    0  502  0.10700996977E+04 -0.76247582143E+03 -0.32348404651E+03  0.13531905557E+04  0.10100000352E+00 0. -1.
</event>
<event>
 5   0  0.3013407E-06  0.2703304E+04  0.7818609E-02  0.8333934E-01
        1   -1    0    0  501    0  0.00000000000E+00  0.00000000000E+00  0.10341725277E+04  0.10341725277E+04  0.50400001928E-02 0.  1.
       -1   -1    0    0    0  501  0.00000000000E+00  0.00000000000E+00 -0.17665947472E+04  0.17665947472E+04  0.50400001928E-02 0. -1.
    10030    2    1    2    0    0  0.00000000000E+00  0.00000000000E+00 -0.73242221951E+03  0.28007672750E+04  0.27033044632E+04 0.  0.
        4    1    3    3  502    0  0.11411575856E+04 -0.57391888118E+03 -0.82411688920E+03  0.15201295265E+04  0.12699999809E+01 0. -1.
       -4    1    3    3    0  502 -0.11411575856E+04  0.57391888118E+03  0.91694669695E+02  0.12806377484E+04  0.12699999809E+01 0.  1.
</event>
<event>
 5   0  0.8407622E-06  0.2707648E+04  0.7818609E-02  0.8332528E-01
        2   -1    0    0  501    0  0.00000000000E+00  0.00000000000E+00  0.22618889799E+04  0.22618889799E+04  0.25500000920E-02 0. -1.
       -2   -1    0    0    0  501  0.00000000000E+00  0.00000000000E+00 -0.81031358273E+03  0.81031358273E+03  0.25500000920E-02 0.  1.
    10030    2    1    2    0    0  0.00000000000E+00  0.00000000000E+00  0.14515753972E+04  0.30722025627E+04  0.27076479557E+04 0.  0.
        1    1    3    3  502    0 -0.78186593373E+03 -0.21520069510E+02 -0.52800718117E+03  0.94369965302E+03  0.50400001928E-02 0.  1.
       -1    1    3    3    0  502  0.78186593373E+03  0.21520069510E+02  0.19795825784E+04  0.21285029096E+04  0.50400001928E-02 0. -1.
</event>
<event>
 5   0  0.2654625E-06  0.2497658E+04  0.7818609E-02  0.8403820E-01
       -4   -1    0    0    0  501  0.00000000000E+00  0.00000000000E+00  0.10409315952E+04  0.10409323699E+04  0.12699999809E+01 0.  1.
        4   -1    0    0  501    0  0.00000000000E+00  0.00000000000E+00 -0.14982466138E+04  0.14982471520E+04  0.12699999809E+01 0. -1.
    10030    2    1    2    0    0  0.00000000000E+00  0.00000000000E+00 -0.45731501860E+03  0.25391795220E+04  0.24976580267E+04 0.  0.
        3    1    3    3  502    0 -0.16448027445E+03  0.60236910279E+03  0.87083532565E+03  0.10715672967E+04  0.10100000352E+00 0.  1.
       -3    1    3    3    0  502  0.16448027445E+03 -0.60236910279E+03 -0.13281503443E+04  0.14676122253E+04  0.10100000352E+00 0. -1.
</event>
<event>
 5   0  0.7838364E-06  0.2672363E+04  0.7818609E-02  0.8344028E-01
       -2   -1    0    0    0  501  0.00000000000E+00  0.00000000000E+00  0.59405002790E+03  0.59405002790E+03  0.25500000920E-02 0.  1.
        2   -1    0    0  501    0  0.00000000000E+00  0.00000000000E+00 -0.30054380630E+04  0.30054380630E+04  0.25500000920E-02 0. -1.
    10030    2    1    2    0    0  0.00000000000E+00  0.00000000000E+00 -0.24113880351E+04  0.35994880909E+04  0.26723626739E+04 0.  0.
        2    1    3    3  502    0  0.12986715344E+04  0.19473868874E+03 -0.87327304962E+03  0.15770468384E+04  0.25500000920E-02 0.  1.
       -2    1    3    3    0  502 -0.12986715344E+04 -0.19473868874E+03 -0.15381149855E+04  0.20224412525E+04  0.25500000920E-02 0. -1.
</event>
<event>
 5   0  0.8213334E-06  0.2699113E+04  0.7818609E-02  0.8335293E-01
        2   -1    0    0  501    0  0.00000000000E+00  0.00000000000E+00  0.11784729869E+04  0.11784729869E+04  0.25500000920E-02 0. -1.
       -2   -1    0    0    0  501  0.00000000000E+00  0.00000000000E+00 -0.15454769456E+04  0.15454769456E+04  0.25500000920E-02 0.  1.
    10030    2    1    2    0    0  0.00000000000E+00  0.00000000000E+00 -0.36700395870E+03  0.27239499324E+04  0.26991130633E+04 0.  0.
        3    1    3    3  502    0 -0.58898187360E+02 -0.72272290203E+03 -0.13321782853E+04  0.15167387328E+04  0.10100000352E+00 0.  1.
       -3    1    3    3    0  502  0.58898187360E+02  0.72272290203E+03  0.96517432659E+03  0.12072111996E+04  0.10100000352E+00 0. -1.
</event>
<event>
 5   0  0.3013407E-06  0.2610473E+04  0.7818609E-02  0.8364652E-01
        1   -1    0    0  501    0  0.00000000000E+00  0.00000000000E+00  0.23924795548E+04  0.23924795548E+04  0.50400001928E-02 0. -1.
       -1   -1    0    0    0  501  0.00000000000E+00  0.00000000000E+00 -0.71208248348E+03  0.71208248350E+03  0.50400001928E-02 0.  1.
    10030    2    1    2    0    0  0.00000000000E+00  0.00000000000E+00  0.16803970713E+04  0.31045620383E+04  0.26104733541E+04 0.  0.
        4    1    3    3  502    0 -0.11309451263E+04 -0.34121450786E+03  0.15004071024E+04  0.19096301487E+04  0.12699999809E+01 0. -1.
       -4    1    3    3    0  502  0.11309451263E+04  0.34121450786E+03  0.17998996894E+03  0.11949318896E+04  0.12699999809E+01 0.  1.
</event>
<event>
 5   0  0.3199840E-06  0.2707599E+04  0.7818609E-02  0.8332544E-01
        1   -1    0    0  501    0  0.00000000000E+00  0.00000000000E+00  0.15590836221E+04  0.15590836221E+04  0.50400001928E-02 0.  1.
       -1   -1    0    0    0  501  0.00000000000E+00  0.00000000000E+00 -0.11755447908E+04  0.11755447908E+04  0.50400001928E-02 0. -1.
    10030    2    1    2    0    0  0.00000000000E+00  0.00000000000E+00  0.38353883136E+03  0.27346284129E+04  0.27075986633E+04 0.  0.
        1    1    3    3  502    0 -0.18309777607E+03  0.42513636665E+03 -0.10931364421E+04  0.11871027786E+04  0.50400001928E-02 0. -1.
       -1    1    3    3    0  502  0.18309777607E+03 -0.42513636665E+03  0.14766752734E+04  0.15475256344E+04  0.50400001928E-02 0.  1.
</event>
<event>
 5   0  0.8213334E-06  0.2706440E+04  0.7818609E-02  0.8332918E-01
        2   -1    0    0  501    0  0.00000000000E+00  0.00000000000E+00  0.15142921431E+04  0.15142921431E+04  0.25500000920E-02 0.  1.
       -2   -1    0    0    0  501  0.00000000000E+00  0.00000000000E+00 -0.12092806355E+04  0.12092806355E+04  0.25500000920E-02 0. -1.
    10030    2    1    2    0    0  0.00000000000E+00  0.00000000000E+00  0.30501150755E+03  0.27235727786E+04  0.27064398498E+04 0.  0.
        3    1    3    3  502    0  0.95124854192E+03  0.81797561871E+03 -0.35789949857E+03  0.13046263690E+04  0.10100000352E+00 0. -1.
       -3    1    3    3    0  502 -0.95124854192E+03 -0.81797561871E+03  0.66291100612E+03  0.14189464097E+04  0.10100000352E+00 0.  1.
</event>
<event>
 5   0  0.7812908E-06  0.2700234E+04  0.7818609E-02  0.8334929E-01
       -2   -1    0    0    0  501  0.00000000000E+00  0.00000000000E+00  0.91544922846E+03  0.91544922846E+03  0.25500000920E-02 0. -1.
        2   -1    0    0  501    0  0.00000000000E+00  0.00000000000E+00 -0.19911711688E+04  0.19911711688E+04  0.25500000920E-02 0.  1.
    10030    2    1    2    0    0  0.00000000000E+00  0.00000000000E+00 -0.10757219403E+04  0.29066203972E+04  0.27002341455E+04 0.  0.
        5    1    3    3  502    0  0.76049110758E+03  0.41460270359E+03 -0.16526586318E+04  0.18658898065E+04  0.46999998093E+01 0.  1.
       -5    1    3    3    0  502 -0.76049110758E+03 -0.41460270359E+03  0.57693669152E+03  0.10407305908E+04  0.46999998093E+01 0. -1.
</event>
<event>
 5   0  0.3028601E-06  0.2706145E+04  0.7818609E-02  0.8333014E-01
        1   -1    0    0  501    0  0.00000000000E+00  0.00000000000E+00  0.12256860517E+04  0.12256860517E+04  0.50400001928E-02 0.  1.
       -1   -1    0    0    0  501  0.00000000000E+00  0.00000000000E+00 -0.14936978645E+04  0.14936978645E+04  0.50400001928E-02 0. -1.
    10030    2    1    2    0    0  0.00000000000E+00  0.00000000000E+00 -0.26801181282E+03  0.27193839163E+04  0.27061445919E+04 0.  0.
        3    1    3    3  502    0 -0.65789961856E+02  0.58722013677E+03  0.10891791499E+04  0.12391396366E+04  0.10100000352E+00 0.  1.
       -3    1    3    3    0  502  0.65789961856E+02 -0.58722013677E+03 -0.13571909627E+04  0.14802442797E+04  0.10100000352E+00 0. -1.
</event>
<event>
 5   0  0.3013407E-06  0.2674950E+04  0.7818609E-02  0.8343179E-01
       -1   -1    0    0    0  501  0.00000000000E+00  0.00000000000E+00  0.11210131182E+04  0.11210131182E+04  0.50400001928E-02 0. -1.
        1   -1    0    0  501    0  0.00000000000E+00  0.00000000000E+00 -0.15957349177E+04  0.15957349177E+04  0.50400001928E-02 0.  1.
    10030    2    1    2    0    0  0.00000000000E+00  0.00000000000E+00 -0.47472179953E+03  0.27167480360E+04  0.26749502993E+04 0.  0.
        4    1    3    3  502    0  0.11300410092E+04  0.26196919485E+03  0.43878770152E+03  0.12402244964E+04  0.12699999809E+01 0.  1.
       -4    1    3    3    0  502 -0.11300410092E+04 -0.26196919485E+03 -0.91350950105E+03  0.14765235396E+04  0.12699999809E+01 0. -1.
</event>
<event>
 5   0  0.3046300E-06  0.2691973E+04  0.7818609E-02  0.8337614E-01
        1   -1    0    0  501    0  0.00000000000E+00  0.00000000000E+00  0.72592618352E+03  0.72592618354E+03  0.50400001928E-02 0. -1.
       -1   -1    0    0    0  501  0.00000000000E+00  0.00000000000E+00 -0.24956801333E+04  0.24956801333E+04  0.50400001928E-02 0.  1.
    10030    2    1    2    0    0  0.00000000000E+00  0.00000000000E+00 -0.17697539498E+04  0.32216063168E+04  0.26919729230E+04 0.  0.
        2    1    3    3  502    0 -0.95977177394E+03  0.89678763480E+03 -0.12364221127E+04  0.18039206082E+04  0.25500000920E-02 0.  1.
       -2    1    3    3    0  502  0.95977177394E+03 -0.89678763480E+03 -0.53333183708E+03  0.14176857086E+04  0.25500000920E-02 0. -1.
</event>
<event>
 5   0  0.7729970E-06  0.2694811E+04  0.7818609E-02  0.8336691E-01
       -2   -1    0    0    0  501  0.00000000000E+00  0.00000000000E+00  0.18382255236E+04  0.18382255236E+04  0.25500000920E-02 0.  1.
        2   -1    0    0  501    0  0.00000000000E+00  0.00000000000E+00 -0.98763824540E+03  0.98763824540E+03  0.25500000920E-02 0. -1.
    10030    2    1    2    0    0  0.00000000000E+00  0.00000000000E+00  0.85058727817E+03  0.28258637690E+04  0.26948111850E+04 0.  0.
        4    1    3    3  502    0 -0.39287764027E+03  0.12757906025E+04  0.23334619527E+03  0.13551555488E+04  0.12699999809E+01 0.  1.
       -4    1    3    3    0  502  0.39287764027E+03 -0.12757906025E+04  0.61724108290E+03  0.14707082202E+04  0.12699999809E+01 0. -1.
</event>
<event>
 5   0  0.3089218E-06  0.2709529E+04  0.7818609E-02  0.8331920E-01
       -1   -1    0    0    0  501  0.00000000000E+00  0.00000000000E+00  0.86188232098E+03  0.86188232100E+03  0.50400001928E-02 0.  1.
        1   -1    0    0  501    0  0.00000000000E+00  0.00000000000E+00 -0.21295091316E+04  0.21295091316E+04  0.50400001928E-02 0. -1.
    10030    2    1    2    0    0  0.00000000000E+00  0.00000000000E+00 -0.12676268107E+04  0.29913914526E+04  0.27095285737E+04 0.  0.
        5    1    3    3  502    0 -0.10755487633E+03  0.39174302589E+03  0.79304577270E+03  0.89105237632E+03  0.46999998093E+01 0.  1.
       -5    1    3    3    0  502  0.10755487633E+03 -0.39174302589E+03 -0.20606725834E+04  0.21003390763E+04  0.46999998093E+01 0. -1.
</event>
<event>
 5   0  0.7812908E-06  0.2660809E+04  0.7818609E-02  0.8347834E-01
        2   -1    0    0  501    0  0.00000000000E+00  0.00000000000E+00  0.25224609417E+04  0.25224609417E+04  0.25500000920E-02 0.  1.
       -2   -1    0    0    0  501  0.00000000000E+00  0.00000000000E+00 -0.70168624120E+03  0.70168624121E+03  0.25500000920E-02 0. -1.
    10030    2    1    2    0    0  0.00000000000E+00  0.00000000000E+00  0.18207747005E+04  0.32241471829E+04  0.26608090023E+04 0.  0.
        5    1    3    3  502    0  0.58228209384E+03 -0.11347046748E+04  0.45161701586E+03  0.13529919271E+04  0.46999998093E+01 0. -1.
       -5    1    3    3    0  502 -0.58228209384E+03  0.11347046748E+04  0.13691576846E+04  0.18711552557E+04  0.46999998093E+01 0.  1.
</event>
<event>
 5   0  0.3046300E-06  0.2690298E+04  0.7818609E-02  0.8338160E-01
       -1   -1    0    0    0  501  0.00000000000E+00  0.00000000000E+00  0.78014450134E+03  0.78014450136E+03  0.50400001928E-02 0. -1.
        1   -1    0    0  501    0  0.00000000000E+00  0.00000000000E+00 -0.23193466713E+04  0.23193466713E+04  0.50400001928E-02 0.  1.
    10030    2    1    2    0    0  0.00000000000E+00  0.00000000000E+00 -0.15392021699E+04  0.30994911726E+04  0.26902977919E+04 0.  0.
        2    1    3    3  502    0 -0.35421208060E+03  0.10643195000E+04  0.85737563628E+02  0.11249858336E+04  0.25500000920E-02 0. -1.
       -2    1    3    3    0  502  0.35421208060E+03 -0.10643195000E+04 -0.16249397335E+04  0.19745053390E+04  0.25500000920E-02 0.  1.
</event>
<event>
 5   0  0.8407622E-06  0.2702226E+04  0.7818609E-02  0.8334283E-01
        2   -1    0    0  501    0  0.00000000000E+00  0.00000000000E+00  0.23985436257E+04  0.23985436257E+04  0.25500000920E-02 0. -1.
       -2   -1    0    0    0  501  0.00000000000E+00  0.00000000000E+00 -0.76108925415E+03  0.76108925415E+03  0.25500000920E-02 0.  1.
    10030    2    1    2    0    0  0.00000000000E+00  0.00000000000E+00  0.16374543716E+04  0.31596328799E+04  0.27022255858E+04 0.  0.
        1    1    3    3  502    0  0.56160717853E+02  0.11453188130E+04  0.16542416431E+04  0.20128150991E+04  0.50400001928E-02 0. -1.
       -1    1    3    3    0  502 -0.56160717853E+02 -0.11453188130E+04 -0.16787271477E+02  0.11468177807E+04  0.50400001928E-02 0.  1.
</event>
<event>
 5   0  0.3089218E-06  0.2692553E+04  0.7818609E-02  0.8337425E-01
        1   -1    0    0  501    0  0.00000000000E+00  0.00000000000E+00  0.14596695330E+04  0.14596695330E+04  0.50400001928E-02 0.  1.
       -1   -1    0    0    0  501  0.00000000000E+00  0.00000000000E+00 -0.12416925926E+04  0.12416925926E+04  0.50400001928E-02 0. -1.
    10030    2    1    2    0    0  0.00000000000E+00  0.00000000000E+00  0.21797694040E+03  0.27013621257E+04  0.26925533212E+04 0.  0.
        5    1    3    3  502    0 -0.37690543195E+03  0.76115988854E+03 -0.93894615076E+03  0.12661216547E+04  0.46999998093E+01 0. -1.
       -5    1    3    3    0  502  0.37690543195E+03 -0.76115988854E+03  0.11569230912E+04  0.14352404709E+04  0.46999998093E+01 0.  1.
</event>
<event>
 5   0  0.3046300E-06  0.2750110E+04  0.7818609E-02  0.8318927E-01
        1   -1    0    0  501    0  0.00000000000E+00  0.00000000000E+00  0.77195323614E+03  0.77195323615E+03  0.50400001928E-02 0. -1.
       -1   -1    0    0    0  501  0.00000000000E+00  0.00000000000E+00 -0.24493402673E+04  0.24493402673E+04  0.50400001928E-02 0.  1.
    10030    2    1    2    0    0  0.00000000000E+00  0.00000000000E+00 -0.16773870312E+04  0.32212935035E+04  0.27501099220E+04 0.  0.
        2    1    3    3  502    0  0.42434820958E+03 -0.11306604206E+04 -0.16088496282E+04  0.20116812659E+04  0.25500000920E-02 0.  1.
       -2    1    3    3    0  502 -0.42434820958E+03  0.11306604206E+04 -0.68537402995E+02  0.12096122375E+04  0.25500000920E-02 0. -1.
</event>
<event>
 5   0  0.7838364E-06  0.2707280E+04  0.7818609E-02  0.8332647E-01
        2   -1    0    0  501    0  0.00000000000E+00  0.00000000000E+00  0.13496753173E+04  0.13496753173E+04  0.25500000920E-02 0. -1.
       -2   -1    0    0    0  501  0.00000000000E+00  0.00000000000E+00 -0.13576165462E+04  0.13576165462E+04  0.25500000920E-02 0.  1.
    10030    2    1    2    0    0  0.00000000000E+00  0.00000000000E+00 -0.79412288975E+01  0.27072918635E+04  0.27072802166E+04 0.  0.
        2    1    3    3  502    0  0.12850117079E+04  0.40514931666E+03 -0.13412679132E+03  0.13540277155E+04  0.25500000920E-02 0. -1.
       -2    1    3    3    0  502 -0.12850117079E+04 -0.40514931666E+03  0.12618556242E+03  0.13532641480E+04  0.25500000920E-02 0.  1.
</event>
<event>
 5   0  0.7838364E-06  0.2696041E+04  0.7818609E-02  0.8336291E-01
        2   -1    0    0  501    0  0.00000000000E+00  0.00000000000E+00  0.18460436927E+04  0.18460436927E+04  0.25500000920E-02 0. -1.
       -2   -1    0    0    0  501  0.00000000000E+00  0.00000000000E+00 -0.98435319498E+03  0.98435319498E+03  0.25500000920E-02 0.  1.
    10030    2    1    2    0    0  0.00000000000E+00  0.00000000000E+00  0.86169049775E+03  0.28303968877E+04  0.26960408061E+04 0.  0.
        2    1    3    3  502    0  0.76258827930E+03  0.86500199557E+03 -0.30207891016E+03  0.11920658556E+04  0.25500000920E-02 0.  1.
       -2    1    3    3    0  502 -0.76258827930E+03 -0.86500199557E+03  0.11637694079E+04  0.16383310321E+04  0.25500000920E-02 0. -1.
</event>
<event>
 5   0  0.7729970E-06  0.2681225E+04  0.7818609E-02  0.8341123E-01
        2   -1    0    0  501    0  0.00000000000E+00  0.00000000000E+00  0.19631418331E+04  0.19631418331E+04  0.25500000920E-02 0. -1.
       -2   -1    0    0    0  501  0.00000000000E+00  0.00000000000E+00 -0.91549283007E+03  0.91549283007E+03  0.25500000920E-02 0.  1.
    10030    2    1    2    0    0  0.00000000000E+00  0.00000000000E+00  0.10476490030E+04  0.28786346632E+04  0.26812252965E+04 0.  0.
        4    1    3    3  502    0 -0.11378623686E+04  0.43476964492E+03 -0.77296353149E+02  0.12205456784E+04  0.12699999809E+01 0.  1.
       -4    1    3    3    0  502  0.11378623686E+04 -0.43476964492E+03  0.11249453562E+04  0.16580889847E+04  0.12699999809E+01 0. -1.
</event>
<event>
 5   0  0.7838364E-06  0.2697617E+04  0.7818609E-02  0.8335778E-01
       -2   -1    0    0    0  501  0.00000000000E+00  0.00000000000E+00  0.12818270278E+04  0.12818270278E+04  0.25500000920E-02 0.  1.
        2   -1    0    0  501    0  0.00000000000E+00  0.00000000000E+00 -0.14192903750E+04  0.14192903751E+04  0.25500000920E-02 0. -1.
    10030    2    1    2    0    0  0.00000000000E+00  0.00000000000E+00 -0.13746334729E+03  0.27011174028E+04  0.26976172916E+04 0.  0.
        2    1    3    3  502    0 -0.10950110724E+04 -0.54327355136E+03  0.50217419025E+03  0.13215045659E+04  0.25500000920E-02 0.  1.
       -2    1    3    3    0  502  0.10950110724E+04  0.54327355136E+03 -0.63963753754E+03  0.13796128369E+04  0.25500000920E-02 0. -1.
</event>
<event>
 5   0  0.7838364E-06  0.2711460E+04  0.7818609E-02  0.8331296E-01
       -2   -1    0    0    0  501  0.00000000000E+00  0.00000000000E+00  0.82660838414E+03  0.82660838414E+03  0.25500000920E-02 0.  1.
        2   -1    0    0  501    0  0.00000000000E+00  0.00000000000E+00 -0.22235483385E+04  0.22235483385E+04  0.25500000920E-02 0. -1.
    10030    2    1    2    0    0  0.00000000000E+00  0.00000000000E+00 -0.13969399543E+04  0.30501567226E+04  0.27114599013E+04 0.  0.
        2    1    3    3  502    0  0.86484349139E+03 -0.11218439281E+03 -0.18661406490E+04  0.20598593458E+04  0.25500000920E-02 0. -1.
       -2    1    3    3    0  502 -0.86484349139E+03  0.11218439281E+03  0.46920069469E+03  0.99029737680E+03  0.25500000920E-02 0.  1.
</event>
<event>
 5   0  0.8213334E-06  0.2654799E+04  0.7818609E-02  0.8349822E-01
       -2   -1    0    0    0  501  0.00000000000E+00  0.00000000000E+00  0.73704500805E+03  0.73704500805E+03  0.25500000920E-02 0.  1.
        2   -1    0    0  501    0  0.00000000000E+00  0.00000000000E+00 -0.23906130365E+04  0.23906130365E+04  0.25500000920E-02 0. -1.
    10030    2    1    2    0    0  0.00000000000E+00  0.00000000000E+00 -0.16535680285E+04  0.31276580446E+04  0.26547989790E+04 0.  0.
        3    1    3    3  502    0  0.81896992901E+03 -0.94042366378E+03 -0.29092824915E+03  0.12805263247E+04  0.10100000352E+00 0. -1.
       -3    1    3    3    0  502 -0.81896992901E+03  0.94042366378E+03 -0.13626397793E+04  0.18471317198E+04  0.10100000352E+00 0.  1.
</event>
<event>
 5   0  0.3013407E-06  0.2770518E+04  0.7818609E-02  0.8312480E-01
        1   -1    0    0  501    0  0.00000000000E+00  0.00000000000E+00  0.12183661636E+04  0.12183661636E+04  0.50400001928E-02 0. -1.
       -1   -1    0    0    0  501  0.00000000000E+00  0.00000000000E+00 -0.15750130760E+04  0.15750130760E+04  0.50400001928E-02 0.  1.
    10030    2    1    2    0    0  0.00000000000E+00  0.00000000000E+00 -0.35664691237E+03  0.27933792396E+04  0.27705181025E+04 0.  0.
        4    1    3    3  502    0  0.12529578082E+04 -0.17640545936E+02 -0.77372701610E+03  0.14727082421E+04  0.12699999809E+01 0.  1.
       -4    1    3    3    0  502 -0.12529578082E+04  0.17640545936E+02  0.41708010372E+03  0.13206709975E+04  0.12699999809E+01 0. -1.
</event>
<event>
 5   0  0.3199840E-06  0.2711339E+04  0.7818609E-02  0.8331335E-01
        1   -1    0    0  501    0  0.00000000000E+00  0.00000000000E+00  0.18299068326E+04  0.18299068326E+04  0.50400001928E-02 0. -1.
       -1   -1    0    0    0  501  0.00000000000E+00  0.00000000000E+00 -0.10043348786E+04  0.10043348786E+04  0.50400001928E-02 0.  1.
    10030    2    1    2    0    0  0.00000000000E+00  0.00000000000E+00  0.82557195402E+03  0.28342417113E+04  0.27113386042E+04 0.  0.
        1    1    3    3  502    0  0.11763888988E+04 -0.66754991306E+03  0.31740559813E+03  0.13893379868E+04  0.50400001928E-02 0.  1.
       -1    1    3    3    0  502 -0.11763888988E+04  0.66754991306E+03  0.50816635589E+03  0.14449037245E+04  0.50400001928E-02 0. -1.
</event>
<event>
 5   0  0.3028601E-06  0.2702523E+04  0.7818609E-02  0.8334187E-01
        1   -1    0    0  501    0  0.00000000000E+00  0.00000000000E+00  0.11050528458E+04  0.11050528458E+04  0.50400001928E-02 0.  1.
       -1   -1    0    0    0  501  0.00000000000E+00  0.00000000000E+00 -0.16523254889E+04  0.16523254889E+04  0.50400001928E-02 0. -1.
    10030    2    1    2    0    0  0.00000000000E+00  0.00000000000E+00 -0.54727264314E+03  0.27573783347E+04  0.27025225133E+04 0.  0.
        3    1    3    3  502    0  0.35288574649E+02 -0.10660747695E+04  0.57274763062E+03  0.12107025052E+04  0.10100000352E+00 0.  1.
       -3    1    3    3    0  502 -0.35288574649E+02  0.10660747695E+04 -0.11200202738E+04  0.15466758295E+04  0.10100000352E+00 0. -1.
</event>
<event>
 5   0  0.3046300E-06  0.2676537E+04  0.7818609E-02  0.8342658E-01
        1   -1    0    0  501    0  0.00000000000E+00  0.00000000000E+00  0.13541996327E+04  0.13541996327E+04  0.50400001928E-02 0.  1.
       -1   -1    0    0    0  501  0.00000000000E+00  0.00000000000E+00 -0.13225243117E+04  0.13225243117E+04  0.50400001928E-02 0. -1.
    10030    2    1    2    0    0  0.00000000000E+00  0.00000000000E+00  0.31675321037E+02  0.26767239444E+04  0.26765365211E+04 0.  0.
        2    1    3    3  502    0 -0.78839919800E+03 -0.30709137685E+03 -0.10210972930E+04  0.13260912830E+04  0.25500000920E-02 0. -1.
       -2    1    3    3    0  502  0.78839919800E+03  0.30709137685E+03  0.10527726140E+04  0.13506326614E+04  0.25500000920E-02 0.  1.
</event>
<event>
 5   0  0.3028601E-06  0.2742777E+04  0.7818609E-02  0.8321257E-01
       -1   -1    0    0    0  501  0.00000000000E+00  0.00000000000E+00  0.93181935736E+03  0.93181935737E+03  0.50400001928E-02 0.  1.
        1   -1    0    0  501    0  0.00000000000E+00  0.00000000000E+00 -0.20183167183E+04  0.20183167183E+04  0.50400001928E-02 0. -1.
    10030    2    1    2    0    0  0.00000000000E+00  0.00000000000E+00 -0.10864973609E+04  0.29501360756E+04  0.27427771236E+04 0.  0.
        3    1    3    3  502    0 -0.10998645993E+04  0.46486141766E+03 -0.12687086638E+04  0.17422456653E+04  0.10100000352E+00 0. -1.
       -3    1    3    3    0  502  0.10998645993E+04 -0.46486141766E+03  0.18221130292E+03  0.12078904104E+04  0.10100000352E+00 0.  1.
</event>
<event>
 5   0  0.7729970E-06  0.2582890E+04  0.7818609E-02  0.8374036E-01
       -2   -1    0    0    0  501  0.00000000000E+00  0.00000000000E+00  0.14691862162E+04  0.14691862162E+04  0.25500000920E-02 0.  1.
        2   -1    0    0  501    0  0.00000000000E+00  0.00000000000E+00 -0.11352068068E+04  0.11352068068E+04  0.25500000920E-02 0. -1.
    10030    2    1    2    0    0  0.00000000000E+00  0.00000000000E+00  0.33397940939E+03  0.26043930229E+04  0.25828900039E+04 0.  0.
        4    1    3    3  502    0 -0.55443197257E+03  0.11563901688E+04  0.32055847489E+03  0.13218897017E+04  0.12699999809E+01 0.  1.
       -4    1    3    3    0  502  0.55443197257E+03 -0.11563901688E+04  0.13420934504E+02  0.12825033213E+04  0.12699999809E+01 0. -1.
</event>
<event>
 5   0  0.7729970E-06  0.2711890E+04  0.7818609E-02  0.8331157E-01
        2   -1    0    0  501    0  0.00000000000E+00  0.00000000000E+00  0.19334508011E+04  0.19334508011E+04  0.25500000920E-02 0.  1.
       -2   -1    0    0    0  501  0.00000000000E+00  0.00000000000E+00 -0.95093515661E+03  0.95093515662E+03  0.25500000920E-02 0. -1.
    10030    2    1    2    0    0  0.00000000000E+00  0.00000000000E+00  0.98251564451E+03  0.28843859577E+04  0.27118896293E+04 0.  0.
        4    1    3    3  502    0 -0.41610468067E+03 -0.16133140406E+02  0.18637571190E+04  0.19097108669E+04  0.12699999809E+01 0.  1.
       -4    1    3    3    0  502  0.41610468067E+03  0.16133140406E+02 -0.88124147449E+03  0.97467509087E+03  0.12699999809E+01 0. -1.
</event>
<event>
 5   0  0.7838364E-06  0.2718971E+04  0.7818609E-02  0.8328876E-01
        2   -1    0    0  501    0  0.00000000000E+00  0.00000000000E+00  0.14093273642E+04  0.14093273642E+04  0.25500000920E-02 0.  1.
       -2   -1    0    0    0  501  0.00000000000E+00  0.00000000000E+00 -0.13114064536E+04  0.13114064536E+04  0.25500000920E-02 0. -1.
    10030    2    1    2    0    0  0.00000000000E+00  0.00000000000E+00  0.97920910636E+02  0.27207338178E+04  0.27189711294E+04 0.  0.
        2    1    3    3  502    0  0.56330126447E+03  0.53170124372E+03  0.11669074029E+04  0.14006025183E+04  0.25500000920E-02 0.  1.
       -2    1    3    3    0  502 -0.56330126447E+03 -0.53170124372E+03 -0.10689864923E+04  0.13201312995E+04  0.25500000920E-02 0. -1.
</event>
<event>
 5   0  0.2654625E-06  0.2708735E+04  0.7818609E-02  0.8332176E-01
        3   -1    0    0  501    0  0.00000000000E+00  0.00000000000E+00  0.18621442024E+04  0.18621442051E+04  0.10100000352E+00 0. -1.
       -3   -1    0    0    0  501  0.00000000000E+00  0.00000000000E+00 -0.98505315215E+03  0.98505315733E+03  0.10100000352E+00 0.  1.
    10030    2    1    2    0    0  0.00000000000E+00  0.00000000000E+00  0.87709105025E+03  0.28471973625E+04  0.27087347804E+04 0.  0.
        1    1    3    3  502    0  0.16552180997E+03 -0.13278642022E+04  0.21883887775E+03  0.13559171300E+04  0.50400001928E-02 0.  1.
       -1    1    3    3    0  502 -0.16552180997E+03  0.13278642022E+04  0.65825217250E+03  0.14912802324E+04  0.50400001928E-02 0. -1.
</event>
<event>
 5   0  0.3013407E-06  0.2684606E+04  0.7818609E-02  0.8340017E-01
        1   -1    0    0  501    0  0.00000000000E+00  0.00000000000E+00  0.10827282980E+04  0.10827282980E+04  0.50400001928E-02 0.  1.
       -1   -1    0    0    0  501  0.00000000000E+00  0.00000000000E+00 -0.16641086727E+04  0.16641086727E+04  0.50400001928E-02 0. -1.
    10030    2    1    2    0    0  0.00000000000E+00  0.00000000000E+00 -0.58138037469E+03  0.27468369707E+04  0.26846061543E+04 0.  0.
        4    1    3    3  502    0  0.17280892896E+03 -0.99606087824E+03 -0.11942089218E+04  0.15646522812E+04  0.12699999809E+01 0. -1.
       -4    1    3    3    0  502 -0.17280892896E+03  0.99606087824E+03  0.61282854713E+03  0.11821846895E+04  0.12699999809E+01 0.  1.
</event>
<event>
 5   0  0.3028601E-06  0.3029651E+04  0.7818609E-02  0.8235314E-01
       -1   -1    0    0    0  501  0.00000000000E+00  0.00000000000E+00  0.79956791490E+03  0.79956791491E+03  0.50400001928E-02 0.  1.
        1   -1    0    0  501    0  0.00000000000E+00  0.00000000000E+00 -0.28699208339E+04  0.28699208339E+04  0.50400001928E-02 0. -1.
    10030    2    1    2    0    0  0.00000000000E+00  0.00000000000E+00 -0.20703529190E+04  0.36694887488E+04  0.30296512123E+04 0.  0.
        3    1    3    3  502    0  0.14862275212E+04  0.29285592796E+03 -0.10445401328E+04  0.18400274287E+04  0.10100000352E+00 0. -1.
       -3    1    3    3    0  502 -0.14862275212E+04 -0.29285592796E+03 -0.10258127862E+04  0.18294613201E+04  0.10100000352E+00 0.  1.
</event>
<event>
 5   0  0.3013407E-06  0.2699995E+04  0.7818609E-02  0.8335007E-01
        1   -1    0    0  501    0  0.00000000000E+00  0.00000000000E+00  0.17905240237E+04  0.17905240237E+04  0.50400001928E-02 0. -1.
       -1   -1    0    0    0  501  0.00000000000E+00  0.00000000000E+00 -0.10178544199E+04  0.10178544199E+04  0.50400001928E-02 0.  1.
    10030    2    1    2    0    0  0.00000000000E+00  0.00000000000E+00  0.77266960379E+03  0.28083784437E+04  0.26999946604E+04 0.  0.
        4    1    3    3  502    0  0.10989794539E+04 -0.58307101139E+03 -0.15888581848E+03  0.12541825866E+04  0.12699999809E+01 0. -1.
       -4    1    3    3    0  502 -0.10989794539E+04  0.58307101139E+03  0.93155542227E+03  0.15541958570E+04  0.12699999809E+01 0.  1.
</event>
<event>
 5   0  0.3013407E-06  0.2625961E+04  0.7818609E-02  0.8359436E-01
       -1   -1    0    0    0  501  0.00000000000E+00  0.00000000000E+00  0.14121525216E+04  0.14121525217E+04  0.50400001928E-02 0.  1.
        1   -1    0    0  501    0  0.00000000000E+00  0.00000000000E+00 -0.12207731610E+04  0.12207731610E+04  0.50400001928E-02 0. -1.
    10030    2    1    2    0    0  0.00000000000E+00  0.00000000000E+00  0.19137936069E+03  0.26329256826E+04  0.26259610794E+04 0.  0.
        4    1    3    3  502    0 -0.14708227986E+03 -0.10838783460E+04  0.82390157482E+03  0.13693943493E+04  0.12699999809E+01 0.  1.
       -4    1    3    3    0  502  0.14708227986E+03  0.10838783460E+04 -0.63252221413E+03  0.12635313333E+04  0.12699999809E+01 0. -1.
</event>
<event>
 5   0  0.8407622E-06  0.2704233E+04  0.7818609E-02  0.8333633E-01
       -2   -1    0    0    0  501  0.00000000000E+00  0.00000000000E+00  0.98473935700E+03  0.98473935700E+03  0.25500000920E-02 0.  1.
        2   -1    0    0  501    0  0.00000000000E+00  0.00000000000E+00 -0.18565505848E+04  0.18565505848E+04  0.25500000920E-02 0. -1.
    10030    2    1    2    0    0  0.00000000000E+00  0.00000000000E+00 -0.87181122779E+03  0.28412899418E+04  0.27042325559E+04 0.  0.
        1    1    3    3  502    0  0.49571607634E+03 -0.64607651561E+03 -0.15699952088E+04  0.17686249597E+04  0.50400001928E-02 0. -1.
       -1    1    3    3    0  502 -0.49571607634E+03  0.64607651561E+03  0.69818398104E+03  0.10726649821E+04  0.50400001928E-02 0.  1.
</event>
<event>
 5   0  0.7838364E-06  0.2700910E+04  0.7818609E-02  0.8334710E-01
       -2   -1    0    0    0  501  0.00000000000E+00  0.00000000000E+00  0.13729987077E+04  0.13729987077E+04  0.25500000920E-02 0.  1.
        2   -1    0    0  501    0  0.00000000000E+00  0.00000000000E+00 -0.13282812030E+04  0.13282812030E+04  0.25500000920E-02 0. -1.
    10030    2    1    2    0    0  0.00000000000E+00  0.00000000000E+00  0.44717504702E+02  0.27012799106E+04  0.27009097542E+04 0.  0.
        2    1    3    3  502    0 -0.36113460379E+03  0.25266137789E+02  0.13235642643E+04  0.13721803604E+04  0.25500000920E-02 0.  1.
       -2    1    3    3    0  502  0.36113460379E+03 -0.25266137789E+02 -0.12788467596E+04  0.13290995502E+04  0.25500000920E-02 0. -1.
</event>
<event>
 5   0  0.8213334E-06  0.2713593E+04  0.7818609E-02  0.8330608E-01
        2   -1    0    0  501    0  0.00000000000E+00  0.00000000000E+00  0.29724094707E+04  0.29724094707E+04  0.25500000920E-02 0. -1.
       -2   -1    0    0    0  501  0.00000000000E+00  0.00000000000E+00 -0.61932824571E+03  0.61932824572E+03  0.25500000920E-02 0.  1.
    10030    2    1    2    0    0  0.00000000000E+00  0.00000000000E+00  0.23530812250E+04  0.35917377164E+04  0.27135932953E+04 0.  0.
        3    1    3    3  502    0 -0.51401587903E+03 -0.47792635772E+03  0.27134507932E+04  0.28027559909E+04  0.10100000352E+00 0. -1.
       -3    1    3    3    0  502  0.51401587903E+03  0.47792635772E+03 -0.36036956820E+03  0.78898172551E+03  0.10100000352E+00 0.  1.
</event>
<event>
 5   0  0.7812908E-06  0.2691270E+04  0.7818609E-02  0.8337843E-01
        2   -1    0    0  501    0  0.00000000000E+00  0.00000000000E+00  0.79613551841E+03  0.79613551842E+03  0.25500000920E-02 0. -1.
       -2   -1    0    0    0  501  0.00000000000E+00  0.00000000000E+00 -0.22744042006E+04  0.22744042006E+04  0.25500000920E-02 0.  1.
    10030    2    1    2    0    0  0.00000000000E+00  0.00000000000E+00 -0.14782686822E+04  0.30705397190E+04  0.26912703077E+04 0.  0.
        5    1    3    3  502    0 -0.95671913985E+03  0.94487370426E+03 -0.79746732052E+03  0.15633534619E+04  0.46999998093E+01 0.  1.
       -5    1    3    3    0  502  0.95671913985E+03 -0.94487370426E+03 -0.68080136164E+03  0.15071862571E+04  0.46999998093E+01 0. -1.
</event>
<event>
 5   0  0.3089218E-06  0.2707379E+04  0.7818609E-02  0.8332615E-01
        1   -1    0    0  501    0  0.00000000000E+00  0.00000000000E+00  0.13577101823E+04  0.13577101823E+04  0.50400001928E-02 0. -1.
       -1   -1    0    0    0  501  0.00000000000E+00  0.00000000000E+00 -0.13496807671E+04  0.13496807671E+04  0.50400001928E-02 0.  1.
    10030    2    1    2    0    0  0.00000000000E+00  0.00000000000E+00  0.80294151446E+01  0.27073909494E+04  0.27073790428E+04 0.  0.
        5    1    3    3  502    0 -0.12935617783E+04  0.32412003377E+03 -0.22857470676E+03  0.13530056752E+04  0.46999998093E+01 0. -1.
       -5    1    3    3    0  502  0.12935617783E+04 -0.32412003377E+03  0.23660412190E+03  0.13543852742E+04  0.46999998093E+01 0.  1.
</event>
<event>
 5   0  0.3046300E-06  0.2698237E+04  0.7818609E-02  0.8335577E-01
       -1   -1    0    0    0  501  0.00000000000E+00  0.00000000000E+00  0.57661139647E+03  0.57661139649E+03  0.50400001928E-02 0.  1.
        1   -1    0    0  501    0  0.00000000000E+00  0.00000000000E+00 -0.31565805804E+04  0.31565805804E+04  0.50400001928E-02 0. -1.
    10030    2    1    2    0    0  0.00000000000E+00  0.00000000000E+00 -0.25799691840E+04  0.37331919769E+04  0.26982367106E+04 0.  0.
        2    1    3    3  502    0 -0.52857231759E+02 -0.48060981286E+03  0.45261859783E+03  0.66230149801E+03  0.25500000920E-02 0.  1.
       -2    1    3    3    0  502  0.52857231759E+02  0.48060981286E+03 -0.30325877818E+04  0.30708904789E+04  0.25500000920E-02 0. -1.
</event>
<event>
 5   0  0.3089218E-06  0.2676364E+04  0.7818609E-02  0.8342715E-01
       -1   -1    0    0    0  501  0.00000000000E+00  0.00000000000E+00  0.81350935802E+03  0.81350935803E+03  0.50400001928E-02 0.  1.
        1   -1    0    0  501    0  0.00000000000E+00  0.00000000000E+00 -0.22012415212E+04  0.22012415212E+04  0.50400001928E-02 0. -1.
    10030    2    1    2    0    0  0.00000000000E+00  0.00000000000E+00 -0.13877321632E+04  0.30147508792E+04  0.26763636351E+04 0.  0.
        5    1    3    3  502    0  0.21920472304E+03  0.74584167008E+03  0.53305844640E+03  0.94260485077E+03  0.46999998093E+01 0.  1.
       -5    1    3    3    0  502 -0.21920472304E+03 -0.74584167008E+03 -0.19207906096E+04  0.20721460284E+04  0.46999998093E+01 0. -1.
</event>
<event>
 5   0  0.7838364E-06  0.2697747E+04  0.7818609E-02  0.8335736E-01
        2   -1    0    0  501    0  0.00000000000E+00  0.00000000000E+00  0.13113916495E+04  0.13113916495E+04  0.25500000920E-02 0. -1.
       -2   -1    0    0    0  501  0.00000000000E+00  0.00000000000E+00 -0.13874269076E+04  0.13874269076E+04  0.25500000920E-02 0.  1.
    10030    2    1    2    0    0  0.00000000000E+00  0.00000000000E+00 -0.76035258157E+02  0.26988185571E+04  0.26977472535E+04 0.  0.
        2    1    3    3  502    0 -0.49222282683E+02 -0.71983965252E+03  0.11021138965E+04  0.13172877435E+04  0.25500000920E-02 0. -1.
       -2    1    3    3    0  502  0.49222282683E+02  0.71983965252E+03 -0.11781491546E+04  0.13815308136E+04  0.25500000920E-02 0.  1.
</event>
<event>
 5   0  0.8407622E-06  0.2713706E+04  0.7818609E-02  0.8330571E-01
       -2   -1    0    0    0  501  0.00000000000E+00  0.00000000000E+00  0.13808297385E+04  0.13808297385E+04  0.25500000920E-02 0.  1.
        2   -1    0    0  501    0  0.00000000000E+00  0.00000000000E+00 -0.13332930232E+04  0.13332930232E+04  0.25500000920E-02 0. -1.
    10030    2    1    2    0    0  0.00000000000E+00  0.00000000000E+00  0.47536715249E+02  0.27141227617E+04  0.27137064370E+04 0.  0.
        1    1    3    3  502    0 -0.99534019407E+03  0.52638332523E+03 -0.73349319546E+03  0.13437982642E+04  0.50400001928E-02 0. -1.
       -1    1    3    3    0  502  0.99534019407E+03 -0.52638332523E+03  0.78102991071E+03  0.13703244975E+04  0.50400001928E-02 0.  1.
</event>
<event>
 5   0  0.8407622E-06  0.2481121E+04  0.7818609E-02  0.8409742E-01
       -2   -1    0    0    0  501  0.00000000000E+00  0.00000000000E+00  0.10074147634E+04  0.10074147634E+04  0.25500000920E-02 0. -1.
        2   -1    0    0  501    0  0.00000000000E+00  0.00000000000E+00 -0.15276632043E+04  0.15276632043E+04  0.25500000920E-02 0.  1.
    10030    2    1    2    0    0  0.00000000000E+00  0.00000000000E+00 -0.52024844090E+03  0.25350779677E+04  0.24811210897E+04 0.  0.
        1    1    3    3  502    0  0.11035741078E+04 -0.23726233705E+03  0.26567479180E+03  0.11596345644E+04  0.50400001928E-02 0. -1.
       -1    1    3    3    0  502 -0.11035741078E+04  0.23726233705E+03 -0.78592323269E+03  0.13754434033E+04  0.50400001928E-02 0.  1.
</event>
<event>
 5   0  0.8213334E-06  0.2683886E+04  0.7818609E-02  0.8340252E-01
       -2   -1    0    0    0  501  0.00000000000E+00  0.00000000000E+00  0.11215314818E+04  0.11215314818E+04  0.25500000920E-02 0.  1.
        2   -1    0    0  501    0  0.00000000000E+00  0.00000000000E+00 -0.16056714249E+04  0.16056714250E+04  0.25500000920E-02 0. -1.
    10030    2    1    2    0    0  0.00000000000E+00  0.00000000000E+00 -0.48413994315E+03  0.27272029068E+04  0.26838860278E+04 0.  0.
        3    1    3    3  502    0 -0.76558545327E+03  0.40394693912E+03  0.79991509552E+03  0.11786256344E+04  0.10100000352E+00 0.  1.
       -3    1    3    3    0  502  0.76558545327E+03 -0.40394693912E+03 -0.12840550387E+04  0.15485772723E+04  0.10100000352E+00 0. -1.
</event>
<event>
 5   0  0.3013407E-06  0.2694509E+04  0.7818609E-02  0.8336789E-01
        1   -1    0    0  501    0  0.00000000000E+00  0.00000000000E+00  0.23479254641E+04  0.23479254641E+04  0.50400001928E-02 0. -1.
       -1   -1    0    0    0  501  0.00000000000E+00  0.00000000000E+00 -0.77306338158E+03  0.77306338160E+03  0.50400001928E-02 0.  1.
    10030    2    1    2    0    0  0.00000000000E+00  0.00000000000E+00  0.15748620826E+04  0.31209888457E+04  0.26945093795E+04 0.  0.
        4    1    3    3  502    0  0.87933925740E+03 -0.61447933230E+03  0.17314598132E+04  0.20368547020E+04  0.12699999809E+01 0. -1.
       -4    1    3    3    0  502 -0.87933925740E+03  0.61447933230E+03 -0.15659773066E+03  0.10841341437E+04  0.12699999809E+01 0.  1.
</event>
<event>
 5   0  0.8213334E-06  0.2702800E+04  0.7818609E-02  0.8334097E-01
        2   -1    0    0  501    0  0.00000000000E+00  0.00000000000E+00  0.12382851862E+04  0.12382851862E+04  0.25500000920E-02 0.  1.
       -2   -1    0    0    0  501  0.00000000000E+00  0.00000000000E+00 -0.14748470970E+04  0.14748470970E+04  0.25500000920E-02 0. -1.
    10030    2    1    2    0    0  0.00000000000E+00  0.00000000000E+00 -0.23656191077E+03  0.27131322832E+04  0.27027995206E+04 0.  0.
        3    1    3    3  502    0  0.72034384249E+02  0.13017568414E+04 -0.47533935922E+03  0.13876985780E+04  0.10100000352E+00 0. -1.
       -3    1    3    3    0  502 -0.72034384249E+02 -0.13017568414E+04  0.23877744845E+03  0.13254337052E+04  0.10100000352E+00 0.  1.
</event>
<event>
 5   0  0.3046300E-06  0.2704219E+04  0.7818609E-02  0.8333637E-01
        1   -1    0    0  501    0  0.00000000000E+00  0.00000000000E+00  0.78926339588E+03  0.78926339589E+03  0.50400001928E-02 0. -1.
       -1   -1    0    0    0  501  0.00000000000E+00  0.00000000000E+00 -0.23163364439E+04  0.23163364439E+04  0.50400001928E-02 0.  1.
    10030    2    1    2    0    0  0.00000000000E+00  0.00000000000E+00 -0.15270730480E+04  0.31055998398E+04  0.27042186064E+04 0.  0.
        2    1    3    3  502    0 -0.44277918516E+03  0.74288764707E+03  0.43009057968E+03  0.96587440680E+03  0.25500000920E-02 0. -1.
       -2    1    3    3    0  502  0.44277918516E+03 -0.74288764707E+03 -0.19571636277E+04  0.21397254330E+04  0.25500000920E-02 0.  1.
</event>
<event>
 5   0  0.2654625E-06  0.2689367E+04  0.7818609E-02  0.8338463E-01
       -4   -1    0    0    0  501  0.00000000000E+00  0.00000000000E+00  0.14420531305E+04  0.14420536897E+04  0.12699999809E+01 0. -1.
        4   -1    0    0  501    0  0.00000000000E+00  0.00000000000E+00 -0.12538868930E+04  0.12538875362E+04  0.12699999809E+01 0.  1.
    10030    2    1    2    0    0  0.00000000000E+00  0.00000000000E+00  0.18816623746E+03  0.26959412259E+04  0.26893665724E+04 0.  0.
        4    1    3    3  502    0 -0.25040583453E+03 -0.45462968868E+03  0.13375915238E+04  0.14347626749E+04  0.12699999809E+01 0. -1.
       -4    1    3    3    0  502  0.25040583453E+03  0.45462968868E+03 -0.11494252863E+04  0.12611785510E+04  0.12699999809E+01 0.  1.
</event>
<event>
 5   0  0.8213334E-06  0.2721621E+04  0.7818609E-02  0.8328024E-01
       -2   -1    0    0    0  501  0.00000000000E+00  0.00000000000E+00  0.78573371773E+03  0.78573371773E+03  0.25500000920E-02 0. -1.
        2   -1    0    0  501    0  0.00000000000E+00  0.00000000000E+00 -0.23567845769E+04  0.23567845769E+04  0.25500000920E-02 0.  1.
    10030    2    1    2    0    0  0.00000000000E+00  0.00000000000E+00 -0.15710508592E+04  0.31425182946E+04  0.27216209196E+04 0.  0.
        3    1    3    3  502    0  0.10580763750E+04  0.85111286136E+03 -0.68298644591E+03  0.15199964518E+04  0.10100000352E+00 0. -1.
       -3    1    3    3    0  502 -0.10580763750E+04 -0.85111286136E+03 -0.88806441327E+03  0.16225218428E+04  0.10100000352E+00 0.  1.
</event>
<event>
 5   0  0.3046300E-06  0.2690568E+04  0.7818609E-02  0.8338072E-01
       -1   -1    0    0    0  501  0.00000000000E+00  0.00000000000E+00  0.12673460082E+04  0.12673460083E+04  0.50400001928E-02 0.  1.
        1   -1    0    0  501    0  0.00000000000E+00  0.00000000000E+00 -0.14280146528E+04  0.14280146528E+04  0.50400001928E-02 0. -1.
    10030    2    1    2    0    0  0.00000000000E+00  0.00000000000E+00 -0.16066864458E+03  0.26953606611E+04  0.26905677245E+04 0.  0.
        2    1    3    3  502    0 -0.20828505118E+03  0.11852823527E+04  0.52199522390E+03  0.13117758695E+04  0.25500000920E-02 0.  1.
       -2    1    3    3    0  502  0.20828505118E+03 -0.11852823527E+04 -0.68266386847E+03  0.13835847916E+04  0.25500000920E-02 0. -1.
</event>
<event>
 5   0  0.3046300E-06  0.2702405E+04  0.7818609E-02  0.8334225E-01
        1   -1    0    0  501    0  0.00000000000E+00  0.00000000000E+00  0.84935845477E+03  0.84935845478E+03  0.50400001928E-02 0.  1.
       -1   -1    0    0    0  501  0.00000000000E+00  0.00000000000E+00 -0.21495613231E+04  0.21495613231E+04  0.50400001928E-02 0. -1.
    10030    2    1    2    0    0  0.00000000000E+00  0.00000000000E+00 -0.13002028683E+04  0.29989197779E+04  0.27024049170E+04 0.  0.
        2    1    3    3  502    0  0.24254619535E+03  0.75428330653E+03 -0.18647160605E+04  0.20260646460E+04  0.25500000920E-02 0. -1.
       -2    1    3    3    0  502 -0.24254619535E+03 -0.75428330653E+03  0.56451319222E+03  0.97285513186E+03  0.25500000920E-02 0.  1.
</event>
<event>
 5   0  0.3089218E-06  0.2687657E+04  0.7818609E-02  0.8339021E-01
       -1   -1    0    0    0  501  0.00000000000E+00  0.00000000000E+00  0.15318553302E+04  0.15318553302E+04  0.50400001928E-02 0. -1.
        1   -1    0    0  501    0  0.00000000000E+00  0.00000000000E+00 -0.11788806225E+04  0.11788806225E+04  0.50400001928E-02 0.  1.
    10030    2    1    2    0    0  0.00000000000E+00  0.00000000000E+00  0.35297470771E+03  0.27107359526E+04  0.26876566486E+04 0.  0.
        5    1    3    3  502    0 -0.89783280437E+03  0.91354087205E+03  0.58641544456E+03  0.14087461919E+04  0.46999998093E+01 0. -1.
       -5    1    3    3    0  502  0.89783280437E+03 -0.91354087205E+03 -0.23344073686E+03  0.13019897608E+04  0.46999998093E+01 0.  1.
</event>
<event>
 5   0  0.7838364E-06  0.2669402E+04  0.7818609E-02  0.8345002E-01
       -2   -1    0    0    0  501  0.00000000000E+00  0.00000000000E+00  0.23094152941E+04  0.23094152941E+04  0.25500000920E-02 0. -1.
        2   -1    0    0  501    0  0.00000000000E+00  0.00000000000E+00 -0.77137579718E+03  0.77137579718E+03  0.25500000920E-02 0.  1.
    10030    2    1    2    0    0  0.00000000000E+00  0.00000000000E+00  0.15380394969E+04  0.30807910913E+04  0.26694022278E+04 0.  0.
        2    1    3    3  502    0 -0.55628892641E+02 -0.10159040114E+03 -0.76556479866E+03  0.77427685246E+03  0.25500000920E-02 0.  1.
       -2    1    3    3    0  502  0.55628892641E+02  0.10159040114E+03  0.23036042956E+04  0.23065142388E+04  0.25500000920E-02 0. -1.
</event>
<event>
 5   0  0.7838364E-06  0.2705139E+04  0.7818609E-02  0.8333340E-01
       -2   -1    0    0    0  501  0.00000000000E+00  0.00000000000E+00  0.11541916545E+04  0.11541916545E+04  0.25500000920E-02 0.  1.
        2   -1    0    0  501    0  0.00000000000E+00  0.00000000000E+00 -0.15850434442E+04  0.15850434442E+04  0.25500000920E-02 0. -1.
    10030    2    1    2    0    0  0.00000000000E+00  0.00000000000E+00 -0.43085178978E+03  0.27392350987E+04  0.27051387508E+04 0.  0.
        2    1    3    3  502    0  0.64242373573E+03  0.11631366768E+04 -0.47129384759E+03  0.14098627862E+04  0.25500000920E-02 0.  1.
       -2    1    3    3    0  502 -0.64242373573E+03 -0.11631366768E+04  0.40442057807E+02  0.13293723125E+04  0.25500000920E-02 0. -1.
</event>
<event>
 5   0  0.3028601E-06  0.2687540E+04  0.7818609E-02  0.8339059E-01
       -1   -1    0    0    0  501  0.00000000000E+00  0.00000000000E+00  0.13701193833E+04  0.13701193833E+04  0.50400001928E-02 0.  1.
        1   -1    0    0  501    0  0.00000000000E+00  0.00000000000E+00 -0.13179272663E+04  0.13179272664E+04  0.50400001928E-02 0. -1.
    10030    2    1    2    0    0  0.00000000000E+00  0.00000000000E+00  0.52192116903E+02  0.26880466496E+04  0.26875399110E+04 0.  0.
        3    1    3    3  502    0 -0.88175386014E+03  0.34924285679E+03 -0.92605887856E+03  0.13255359292E+04  0.10100000352E+00 0. -1.
       -3    1    3    3    0  502  0.88175386014E+03 -0.34924285679E+03  0.97825099546E+03  0.13625107204E+04  0.10100000352E+00 0.  1.
</event>
<event>
 5   0  0.7729970E-06  0.2687594E+04  0.7818609E-02  0.8339042E-01
        2   -1    0    0  501    0  0.00000000000E+00  0.00000000000E+00  0.20323825847E+04  0.20323825847E+04  0.25500000920E-02 0. -1.
       -2   -1    0    0    0  501  0.00000000000E+00  0.00000000000E+00 -0.88850910034E+03  0.88850910034E+03  0.25500000920E-02 0.  1.
    10030    2    1    2    0    0  0.00000000000E+00  0.00000000000E+00  0.11438734844E+04  0.29208916851E+04  0.26875940333E+04 0.  0.
        4    1    3    3  502    0 -0.18174754619E+03 -0.82397338807E+03  0.17085837326E+04  0.19055771564E+04  0.12699999809E+01 0. -1.
       -4    1    3    3    0  502  0.18174754619E+03  0.82397338807E+03 -0.56471024821E+03  0.10153145287E+04  0.12699999809E+01 0.  1.
</event>
<event>
 5   0  0.3199840E-06  0.2682923E+04  0.7818609E-02  0.8340567E-01
       -1   -1    0    0    0  501  0.00000000000E+00  0.00000000000E+00  0.33483052200E+04  0.33483052200E+04  0.50400001928E-02 0.  1.
        1   -1    0    0  501    0  0.00000000000E+00  0.00000000000E+00 -0.53744175741E+03  0.53744175744E+03  0.50400001928E-02 0. -1.
    10030    2    1    2    0    0  0.00000000000E+00  0.00000000000E+00  0.28108634625E+04  0.38857469774E+04  0.26829230640E+04 0.  0.
        1    1    3    3  502    0  0.32670170016E+03 -0.10717098441E+04  0.33698034893E+03  0.11699793786E+04  0.50400001928E-02 0. -1.
       -1    1    3    3    0  502 -0.32670170016E+03  0.10717098441E+04  0.24738831136E+04  0.27157675988E+04  0.50400001928E-02 0.  1.
</event>
<event>
 5   0  0.7838364E-06  0.2682394E+04  0.7818609E-02  0.8340740E-01
       -2   -1    0    0    0  501  0.00000000000E+00  0.00000000000E+00  0.84350277505E+03  0.84350277505E+03  0.25500000920E-02 0. -1.
        2   -1    0    0  501    0  0.00000000000E+00  0.00000000000E+00 -0.21325476495E+04  0.21325476495E+04  0.25500000920E-02 0.  1.
    10030    2    1    2    0    0  0.00000000000E+00  0.00000000000E+00 -0.12890448745E+04  0.29760504246E+04  0.26823943486E+04 0.  0.
        2    1    3    3  502    0  0.74176569421E+03 -0.17279022916E+03  0.58029868522E+03  0.95750685245E+03  0.25500000920E-02 0. -1.
       -2    1    3    3    0  502 -0.74176569421E+03  0.17279022916E+03 -0.18693435597E+04  0.20185435721E+04  0.25500000920E-02 0.  1.
</event>
<event>
 5   0  0.3089218E-06  0.2695988E+04  0.7818609E-02  0.8336308E-01
        1   -1    0    0  501    0  0.00000000000E+00  0.00000000000E+00  0.87308238934E+03  0.87308238936E+03  0.50400001928E-02 0.  1.
       -1   -1    0    0    0  501  0.00000000000E+00  0.00000000000E+00 -0.20812330312E+04  0.20812330313E+04  0.50400001928E-02 0. -1.
    10030    2    1    2    0    0  0.00000000000E+00  0.00000000000E+00 -0.12081506419E+04  0.29543154206E+04  0.26959880621E+04 0.  0.
        5    1    3    3  502    0  0.80639945377E+03  0.83053302089E+03 -0.13609053883E+04  0.17866591012E+04  0.46999998093E+01 0. -1.
       -5    1    3    3    0  502 -0.80639945377E+03 -0.83053302089E+03  0.15275474640E+03  0.11676563195E+04  0.46999998093E+01 0.  1.
</event>
<event>
 5   0  0.8407622E-06  0.2702767E+04  0.7818609E-02  0.8334108E-01
       -2   -1    0    0    0  501  0.00000000000E+00  0.00000000000E+00  0.26921538904E+04  0.26921538904E+04  0.25500000920E-02 0.  1.
        2   -1    0    0  501    0  0.00000000000E+00  0.00000000000E+00 -0.67835558400E+03  0.67835558400E+03  0.25500000920E-02 0. -1.
    10030    2    1    2    0    0  0.00000000000E+00  0.00000000000E+00  0.20137983064E+04  0.33705094744E+04  0.27027671927E+04 0.  0.
        1    1    3    3  502    0  0.11732627129E+04 -0.66417414651E+03  0.89148769533E+03  0.16162991683E+04  0.50400001928E-02 0. -1.
       -1    1    3    3    0  502 -0.11732627129E+04  0.66417414651E+03  0.11223106111E+04  0.17542103061E+04  0.50400001928E-02 0.  1.
</event>
<event>
 5   0  0.2654625E-06  0.2738292E+04  0.7818609E-02  0.8322686E-01
        4   -1    0    0  501    0  0.00000000000E+00  0.00000000000E+00  0.16573023448E+04  0.16573028314E+04  0.12699999809E+01 0. -1.
       -4   -1    0    0    0  501  0.00000000000E+00  0.00000000000E+00 -0.11310906495E+04  0.11310913625E+04  0.12699999809E+01 0.  1.
    10030    2    1    2    0    0  0.00000000000E+00  0.00000000000E+00  0.52621169537E+03  0.27883941939E+04  0.27382920648E+04 0.  0.
        3    1    3    3  502    0  0.34472694810E+03 -0.50920550257E+03 -0.98256464207E+03  0.11591204418E+04  0.10100000352E+00 0.  1.
       -3    1    3    3    0  502 -0.34472694810E+03  0.50920550257E+03  0.15087763374E+04  0.16292737521E+04  0.10100000352E+00 0. -1.
</event>
<event>
 5   0  0.3199840E-06  0.2665722E+04  0.7818609E-02  0.8346213E-01
        1   -1    0    0  501    0  0.00000000000E+00  0.00000000000E+00  0.20407554205E+04  0.20407554205E+04  0.50400001928E-02 0. -1.
       -1   -1    0    0    0  501  0.00000000000E+00  0.00000000000E+00 -0.87051985168E+03  0.87051985170E+03  0.50400001928E-02 0.  1.
    10030    2    1    2    0    0  0.00000000000E+00  0.00000000000E+00  0.11702355688E+04  0.29112752722E+04  0.26657217454E+04 0.  0.
        1    1    3    3  502    0  0.26142215516E+03  0.86143577982E+03 -0.48832923083E+03  0.10241477353E+04  0.50400001928E-02 0.  1.
       -1    1    3    3    0  502 -0.26142215516E+03 -0.86143577982E+03  0.16585647997E+04  0.18871275369E+04  0.50400001928E-02 0. -1.
</event>
<event>
 5   0  0.3013407E-06  0.2752108E+04  0.7818609E-02  0.8318293E-01
        1   -1    0    0  501    0  0.00000000000E+00  0.00000000000E+00  0.12668928968E+04  0.12668928968E+04  0.50400001928E-02 0.  1.
       -1   -1    0    0    0  501  0.00000000000E+00  0.00000000000E+00 -0.14946208887E+04  0.14946208887E+04  0.50400001928E-02 0. -1.
    10030    2    1    2    0    0  0.00000000000E+00  0.00000000000E+00 -0.22772799189E+03  0.27615137854E+04  0.27521079828E+04 0.  0.
        4    1    3    3  502    0 -0.93240564171E+01  0.57148930578E+03  0.11421472200E+04  0.12771800381E+04  0.12699999809E+01 0.  1.
       -4    1    3    3    0  502  0.93240564171E+01 -0.57148930578E+03 -0.13698752119E+04  0.14843337474E+04  0.12699999809E+01 0. -1.
</event>
<event>
 5   0  0.3013407E-06  0.2702481E+04  0.7818609E-02  0.8334201E-01
        1   -1    0    0  501    0  0.00000000000E+00  0.00000000000E+00  0.14215404078E+04  0.14215404078E+04  0.50400001928E-02 0. -1.
       -1   -1    0    0    0  501  0.00000000000E+00  0.00000000000E+00 -0.12844168310E+04  0.12844168310E+04  0.50400001928E-02 0.  1.
    10030    2    1    2    0    0  0.00000000000E+00  0.00000000000E+00  0.13712357683E+03  0.27059572388E+04  0.27024806573E+04 0.  0.
        4    1    3    3  502    0  0.20377155307E+03  0.88828163921E+03  0.10674832496E+04  0.14035986668E+04  0.12699999809E+01 0. -1.
       -4    1    3    3    0  502 -0.20377155307E+03 -0.88828163921E+03 -0.93035967280E+03  0.13023585720E+04  0.12699999809E+01 0.  1.
</event>
<event>
 5   0  0.7838364E-06  0.2691528E+04  0.7818609E-02  0.8337759E-01
        2   -1    0    0  501    0  0.00000000000E+00  0.00000000000E+00  0.16800940579E+04  0.16800940579E+04  0.25500000920E-02 0. -1.
       -2   -1    0    0    0  501  0.00000000000E+00  0.00000000000E+00 -0.10779639737E+04  0.10779639737E+04  0.25500000920E-02 0.  1.
    10030    2    1    2    0    0  0.00000000000E+00  0.00000000000E+00  0.60213008413E+03  0.27580580316E+04  0.26915280915E+04 0.  0.
        2    1    3    3  502    0  0.64682840436E+03 -0.87643587492E+03 -0.50875681403E+03  0.12022313934E+04  0.25500000920E-02 0.  1.
       -2    1    3    3    0  502 -0.64682840436E+03  0.87643587492E+03  0.11108868982E+04  0.15558266382E+04  0.25500000920E-02 0. -1.
</event>
<event>
 5   0  0.7838364E-06  0.2704293E+04  0.7818609E-02  0.8333613E-01
        2   -1    0    0  501    0  0.00000000000E+00  0.00000000000E+00  0.26903366025E+04  0.26903366025E+04  0.25500000920E-02 0. -1.
       -2   -1    0    0    0  501  0.00000000000E+00  0.00000000000E+00 -0.67958048780E+03  0.67958048780E+03  0.25500000920E-02 0.  1.
    10030    2    1    2    0    0  0.00000000000E+00  0.00000000000E+00  0.20107561147E+04  0.33699170903E+04  0.27042930763E+04 0.  0.
        2    1    3    3  502    0 -0.22528205027E+03 -0.69039069792E+03  0.24266883773E+04  0.25330234501E+04  0.25500000920E-02 0. -1.
       -2    1    3    3    0  502  0.22528205027E+03  0.69039069792E+03 -0.41593226263E+03  0.83689364023E+03  0.25500000920E-02 0.  1.
</event>
<event>
 5   0  0.7729970E-06  0.2711924E+04  0.7818609E-02  0.8331146E-01
       -2   -1    0    0    0  501  0.00000000000E+00  0.00000000000E+00  0.11356592557E+04  0.11356592557E+04  0.25500000920E-02 0.  1.
        2   -1    0    0  501    0  0.00000000000E+00  0.00000000000E+00 -0.16190007204E+04  0.16190007204E+04  0.25500000920E-02 0. -1.
    10030    2    1    2    0    0  0.00000000000E+00  0.00000000000E+00 -0.48334146469E+03  0.27546599762E+04  0.27119241532E+04 0.  0.
        4    1    3    3  502    0  0.63873481475E+03  0.62780601165E+03 -0.12758051591E+04  0.15587825277E+04  0.12699999809E+01 0. -1.
       -4    1    3    3    0  502 -0.63873481475E+03 -0.62780601165E+03  0.79246369441E+03  0.11958774484E+04  0.12699999809E+01 0.  1.
</event>
<event>
 5   0  0.7812908E-06  0.2688404E+04  0.7818609E-02  0.8338777E-01
        2   -1    0    0  501    0  0.00000000000E+00  0.00000000000E+00  0.23619886067E+04  0.23619886067E+04  0.25500000920E-02 0. -1.
       -2   -1    0    0    0  501  0.00000000000E+00  0.00000000000E+00 -0.76498228991E+03  0.76498228991E+03  0.25500000920E-02 0.  1.
    10030    2    1    2    0    0  0.00000000000E+00  0.00000000000E+00  0.15970063168E+04  0.31269708966E+04  0.26884043246E+04 0.  0.
        5    1    3    3  502    0  0.56176625936E+03  0.16257950335E+03 -0.60924488675E+03  0.84452048353E+03  0.46999998093E+01 0.  1.
       -5    1    3    3    0  502 -0.56176625936E+03 -0.16257950335E+03  0.22062512035E+04  0.22824504131E+04  0.46999998093E+01 0. -1.
</event>
<event>
 5   0  0.7838364E-06  0.2704069E+04  0.7818609E-02  0.8333686E-01
        2   -1    0    0  501    0  0.00000000000E+00  0.00000000000E+00  0.14826290853E+04  0.14826290853E+04  0.25500000920E-02 0. -1.
       -2   -1    0    0    0  501  0.00000000000E+00  0.00000000000E+00 -0.12329428945E+04  0.12329428945E+04  0.25500000920E-02 0.  1.
    10030    2    1    2    0    0  0.00000000000E+00  0.00000000000E+00  0.24968619079E+03  0.27155719798E+04  0.27040687830E+04 0.  0.
        2    1    3    3  502    0  0.22307339495E+02 -0.98489404238E+03 -0.80509999081E+03  0.12722813711E+04  0.25500000920E-02 0.  1.
       -2    1    3    3    0  502 -0.22307339495E+02  0.98489404238E+03  0.10547861816E+04  0.14432906086E+04  0.25500000920E-02 0. -1.
</event>
<event>
 5   0  0.8407622E-06  0.2791694E+04  0.7818609E-02  0.8305852E-01
        2   -1    0    0  501    0  0.00000000000E+00  0.00000000000E+00  0.15970474438E+04  0.15970474438E+04  0.25500000920E-02 0. -1.
       -2   -1    0    0    0  501  0.00000000000E+00  0.00000000000E+00 -0.12199945699E+04  0.12199945699E+04  0.25500000920E-02 0.  1.
    10030    2    1    2    0    0  0.00000000000E+00  0.00000000000E+00  0.37705287384E+03  0.28170420137E+04  0.27916942593E+04 0.  0.
        1    1    3    3  502    0  0.92938938224E+03 -0.49586678687E+03  0.11126697671E+04  0.15322149017E+04  0.50400001928E-02 0. -1.
       -1    1    3    3    0  502 -0.92938938224E+03  0.49586678687E+03 -0.73561689329E+03  0.12848271120E+04  0.50400001928E-02 0.  1.
</event>
<event>
 5   0  0.7729970E-06  0.2707356E+04  0.7818609E-02  0.8332622E-01
        2   -1    0    0  501    0  0.00000000000E+00  0.00000000000E+00  0.35464542164E+04  0.35464542164E+04  0.25500000920E-02 0.  1.
       -2   -1    0    0    0  501  0.00000000000E+00  0.00000000000E+00 -0.51669741453E+03  0.51669741453E+03  0.25500000920E-02 0. -1.
    10030    2    1    2    0    0  0.00000000000E+00  0.00000000000E+00  0.30297568018E+04  0.40631516309E+04  0.27073557021E+04 0.  0.
        4    1    3    3  502    0  0.82397293759E+03 -0.10735726328E+04  0.14685600718E+04  0.19970377806E+04  0.12699999809E+01 0.  1.
       -4    1    3    3    0  502 -0.82397293759E+03  0.10735726328E+04  0.15611967300E+04  0.20661138503E+04  0.12699999809E+01 0. -1.
</event>
<event>
 5   0  0.7729970E-06  0.2694734E+04  0.7818609E-02  0.8336716E-01
        2   -1    0    0  501    0  0.00000000000E+00  0.00000000000E+00  0.19096627284E+04  0.19096627284E+04  0.25500000920E-02 0. -1.
       -2   -1    0    0    0  501  0.00000000000E+00  0.00000000000E+00 -0.95063792325E+03  0.95063792326E+03  0.25500000920E-02 0.  1.
    10030    2    1    2    0    0  0.00000000000E+00  0.00000000000E+00  0.95902480518E+03  0.28603006517E+04  0.26947339834E+04 0.  0.
        4    1    3    3  502    0 -0.10120330621E+04  0.60158405504E+03  0.11749642677E+04  0.16633270687E+04  0.12699999809E+01 0.  1.
       -4    1    3    3    0  502  0.10120330621E+04 -0.60158405504E+03 -0.21593946252E+03  0.11969735830E+04  0.12699999809E+01 0. -1.
</event>
<event>
 5   0  0.7812908E-06  0.2724198E+04  0.7818609E-02  0.8327196E-01
       -2   -1    0    0    0  501  0.00000000000E+00  0.00000000000E+00  0.17861285587E+04  0.17861285587E+04  0.25500000920E-02 0.  1.
        2   -1    0    0  501    0  0.00000000000E+00  0.00000000000E+00 -0.10387343211E+04  0.10387343211E+04  0.25500000920E-02 0. -1.
    10030    2    1    2    0    0  0.00000000000E+00  0.00000000000E+00  0.74739423755E+03  0.28248628798E+04  0.27241975228E+04 0.  0.
        5    1    3    3  502    0  0.20483094312E+03 -0.93677031571E+03 -0.62941507805E+03  0.11470308497E+04  0.46999998093E+01 0. -1.
       -5    1    3    3    0  502 -0.20483094312E+03  0.93677031571E+03  0.13768093156E+04  0.16778320301E+04  0.46999998093E+01 0.  1.
</event>
<event>
 5   0  0.3013407E-06  0.2702829E+04  0.7818609E-02  0.8334088E-01
        1   -1    0    0  501    0  0.00000000000E+00  0.00000000000E+00  0.20768624714E+04  0.20768624715E+04  0.50400001928E-02 0. -1.
       -1   -1    0    0    0  501  0.00000000000E+00  0.00000000000E+00 -0.87936544291E+03  0.87936544292E+03  0.50400001928E-02 0.  1.
    10030    2    1    2    0    0  0.00000000000E+00  0.00000000000E+00  0.11974970285E+04  0.29562279144E+04  0.27028289529E+04 0.  0.
        4    1    3    3  502    0 -0.13200405918E+03  0.10639061416E+04  0.14986875369E+04  0.18426576719E+04  0.12699999809E+01 0. -1.
       -4    1    3    3    0  502  0.13200405918E+03 -0.10639061416E+04 -0.30119050832E+03  0.11135702425E+04  0.12699999809E+01 0.  1.
</event>
<event>
 5   0  0.7812908E-06  0.2704770E+04  0.7818609E-02  0.8333459E-01
        2   -1    0    0  501    0  0.00000000000E+00  0.00000000000E+00  0.17669838251E+04  0.17669838251E+04  0.25500000920E-02 0. -1.
       -2   -1    0    0    0  501  0.00000000000E+00  0.00000000000E+00 -0.10350662968E+04  0.10350662968E+04  0.25500000920E-02 0.  1.
    10030    2    1    2    0    0  0.00000000000E+00  0.00000000000E+00  0.73191752829E+03  0.28020501220E+04  0.27047701599E+04 0.  0.
        5    1    3    3  502    0  0.11374181619E+04 -0.64103261314E+03  0.74519604861E+00  0.13056284048E+04  0.46999998093E+01 0.  1.
       -5    1    3    3    0  502 -0.11374181619E+04  0.64103261314E+03  0.73117233224E+03  0.14964217172E+04  0.46999998093E+01 0. -1.
</event>
<event>
 5   0  0.8213334E-06  0.2632642E+04  0.7818609E-02  0.8357197E-01
       -2   -1    0    0    0  501  0.00000000000E+00  0.00000000000E+00  0.66118207894E+03  0.66118207894E+03  0.25500000920E-02 0.  1.
        2   -1    0    0  501    0  0.00000000000E+00  0.00000000000E+00 -0.26206114801E+04  0.26206114801E+04  0.25500000920E-02 0. -1.
    10030    2    1    2    0    0  0.00000000000E+00  0.00000000000E+00 -0.19594294011E+04  0.32817935590E+04  0.26326422822E+04 0.  0.
        3    1    3    3  502    0 -0.34843087304E+02  0.11387695945E+04 -0.18015972955E+04  0.21316104371E+04  0.10100000352E+00 0. -1.
       -3    1    3    3    0  502  0.34843087304E+02 -0.11387695945E+04 -0.15783210562E+03  0.11501831219E+04  0.10100000352E+00 0.  1.
</event>
<event>
 5   0  0.3046300E-06  0.2708440E+04  0.7818609E-02  0.8332272E-01
       -1   -1    0    0    0  501  0.00000000000E+00  0.00000000000E+00  0.13597148026E+04  0.13597148026E+04  0.50400001928E-02 0.  1.
        1   -1    0    0  501    0  0.00000000000E+00  0.00000000000E+00 -0.13487470754E+04  0.13487470754E+04  0.50400001928E-02 0. -1.
    10030    2    1    2    0    0  0.00000000000E+00  0.00000000000E+00  0.10967727230E+02  0.27084618780E+04  0.27084396714E+04 0.  0.
        2    1    3    3  502    0 -0.30250926331E+03 -0.37232457645E+03  0.12718962047E+04  0.13593591873E+04  0.25500000920E-02 0.  1.
       -2    1    3    3    0  502  0.30250926331E+03  0.37232457645E+03 -0.12609284775E+04  0.13491026907E+04  0.25500000920E-02 0. -1.
</event>
<event>
 5   0  0.3199840E-06  0.2688329E+04  0.7818609E-02  0.8338802E-01
        1   -1    0    0  501    0  0.00000000000E+00  0.00000000000E+00  0.14343339349E+04  0.14343339349E+04  0.50400001928E-02 0.  1.
       -1   -1    0    0    0  501  0.00000000000E+00  0.00000000000E+00 -0.12596631867E+04  0.12596631867E+04  0.50400001928E-02 0. -1.
    10030    2    1    2    0    0  0.00000000000E+00  0.00000000000E+00  0.17467074815E+03  0.26939971216E+04  0.26883285924E+04 0.  0.
        1    1    3    3  502    0 -0.15716917625E+03 -0.36361649559E+03 -0.11998412142E+04  0.12635418652E+04  0.50400001928E-02 0. -1.
       -1    1    3    3    0  502  0.15716917625E+03  0.36361649559E+03  0.13745119623E+04  0.14304552564E+04  0.50400001928E-02 0.  1.
</event>
<event>
 5   0  0.3089218E-06  0.2704868E+04  0.7818609E-02  0.8333427E-01
       -1   -1    0    0    0  501  0.00000000000E+00  0.00000000000E+00  0.90585948645E+03  0.90585948646E+03  0.50400001928E-02 0. -1.
        1   -1    0    0  501    0  0.00000000000E+00  0.00000000000E+00 -0.20191620833E+04  0.20191620833E+04  0.50400001928E-02 0.  1.
    10030    2    1    2    0    0  0.00000000000E+00  0.00000000000E+00 -0.11133025969E+04  0.29250215698E+04  0.27048675590E+04 0.  0.
        5    1    3    3  502    0  0.14814946292E+02  0.92852693466E+03  0.50656818529E+03  0.10578351324E+04  0.46999998093E+01 0. -1.
       -5    1    3    3    0  502 -0.14814946292E+02 -0.92852693466E+03 -0.16198707822E+04  0.18671864374E+04  0.46999998093E+01 0.  1.
</event>
<event>
 5   0  0.3089218E-06  0.2703725E+04  0.7818609E-02  0.8333797E-01
        1   -1    0    0  501    0  0.00000000000E+00  0.00000000000E+00  0.19056462144E+04  0.19056462144E+04  0.50400001928E-02 0. -1.
       -1   -1    0    0    0  501  0.00000000000E+00  0.00000000000E+00 -0.95900897960E+03  0.95900897961E+03  0.50400001928E-02 0.  1.
    10030    2    1    2    0    0  0.00000000000E+00  0.00000000000E+00  0.94663723481E+03  0.28646551940E+04  0.27037247135E+04 0.  0.
        5    1    3    3  502    0 -0.51463832947E+03 -0.46487570087E+03  0.17027966064E+04  0.18386137170E+04  0.46999998093E+01 0. -1.
       -5    1    3    3    0  502  0.51463832947E+03  0.46487570087E+03 -0.75615937159E+03  0.10260414771E+04  0.46999998093E+01 0.  1.
</event>
<event>
 5   0  0.8407622E-06  0.2706627E+04  0.7818609E-02  0.8332858E-01
       -2   -1    0    0    0  501  0.00000000000E+00  0.00000000000E+00  0.94246249725E+03  0.94246249726E+03  0.25500000920E-02 0. -1.
        2   -1    0    0  501    0  0.00000000000E+00  0.00000000000E+00 -0.19432689166E+04  0.19432689166E+04  0.25500000920E-02 0.  1.
    10030    2    1    2    0    0  0.00000000000E+00  0.00000000000E+00 -0.10008064193E+04  0.28857314138E+04  0.27066274778E+04 0.  0.
        1    1    3    3  502    0  0.11049024605E+04  0.76437692878E+03 -0.67355872476E+03  0.15029181256E+04  0.50400001928E-02 0. -1.
       -1    1    3    3    0  502 -0.11049024605E+04 -0.76437692878E+03 -0.32724769455E+03  0.13828132882E+04  0.50400001928E-02 0.  1.
</event>
<event>
 5   0  0.8407622E-06  0.2690745E+04  0.7818609E-02  0.8338014E-01
        2   -1    0    0  501    0  0.00000000000E+00  0.00000000000E+00  0.19105530401E+04  0.19105530401E+04  0.25500000920E-02 0. -1.
       -2   -1    0    0    0  501  0.00000000000E+00  0.00000000000E+00 -0.94738368781E+03  0.94738368782E+03  0.25500000920E-02 0.  1.
    10030    2    1    2    0    0  0.00000000000E+00  0.00000000000E+00  0.96316935227E+03  0.28579367279E+04  0.26907447184E+04 0.  0.
        1    1    3    3  502    0 -0.41364918348E+03 -0.11642656119E+04 -0.83853578483E+02  0.12384068333E+04  0.50400001928E-02 0.  1.
       -1    1    3    3    0  502  0.41364918348E+03  0.11642656119E+04  0.10470229307E+04  0.16195298946E+04  0.50400001928E-02 0. -1.
</event>
<event>
 5   0  0.3013407E-06  0.2697682E+04  0.7818609E-02  0.8335757E-01
       -1   -1    0    0    0  501  0.00000000000E+00  0.00000000000E+00  0.14320965737E+04  0.14320965737E+04  0.50400001928E-02 0.  1.
        1   -1    0    0  501    0  0.00000000000E+00  0.00000000000E+00 -0.12704258731E+04  0.12704258731E+04  0.50400001928E-02 0. -1.
    10030    2    1    2    0    0  0.00000000000E+00  0.00000000000E+00  0.16167070056E+03  0.27025224468E+04  0.26976823682E+04 0.  0.
        4    1    3    3  502    0 -0.55916417485E+03 -0.85080982962E+03 -0.80552831665E+03  0.12982370440E+04  0.12699999809E+01 0. -1.
       -4    1    3    3    0  502  0.55916417485E+03  0.85080982962E+03  0.96719901721E+03  0.14042854028E+04  0.12699999809E+01 0.  1.
</event>
<event>
 5   0  0.7838364E-06  0.2658779E+04  0.7818609E-02  0.8348505E-01
       -2   -1    0    0    0  501  0.00000000000E+00  0.00000000000E+00  0.97931015610E+03  0.97931015610E+03  0.25500000920E-02 0. -1.
        2   -1    0    0  501    0  0.00000000000E+00  0.00000000000E+00 -0.18046134545E+04  0.18046134545E+04  0.25500000920E-02 0.  1.
    10030    2    1    2    0    0  0.00000000000E+00  0.00000000000E+00 -0.82530329840E+03  0.27839236106E+04  0.26587788805E+04 0.  0.
        2    1    3    3  502    0  0.80751573870E+03 -0.15267372206E+02 -0.15182694797E+04  0.17197258426E+04  0.25500000920E-02 0.  1.
       -2    1    3    3    0  502 -0.80751573870E+03  0.15267372206E+02  0.69296618128E+03  0.10641977680E+04  0.25500000920E-02 0. -1.
</event>
<event>
 5   0  0.2654625E-06  0.2736220E+04  0.7818609E-02  0.8323347E-01
        3   -1    0    0  501    0  0.00000000000E+00  0.00000000000E+00  0.23769737713E+04  0.23769737735E+04  0.10100000352E+00 0.  1.
       -3   -1    0    0    0  501  0.00000000000E+00  0.00000000000E+00 -0.78744059514E+03  0.78744060162E+03  0.10100000352E+00 0. -1.
    10030    2    1    2    0    0  0.00000000000E+00  0.00000000000E+00  0.15895331762E+04  0.31644143751E+04  0.27362204990E+04 0.  0.
        5    1    3    3  502    0 -0.19976616744E+03  0.10717396423E+04  0.17506546237E+04  0.20623641977E+04  0.46999998093E+01 0.  1.
       -5    1    3    3    0  502  0.19976616744E+03 -0.10717396423E+04 -0.16112144754E+03  0.11020501774E+04  0.46999998093E+01 0. -1.
</event>
<event>
 5   0  0.7812908E-06  0.2744225E+04  0.7818609E-02  0.8320796E-01
        2   -1    0    0  501    0  0.00000000000E+00  0.00000000000E+00  0.18979381414E+04  0.18979381415E+04  0.25500000920E-02 0. -1.
       -2   -1    0    0    0  501  0.00000000000E+00  0.00000000000E+00 -0.99196739556E+03  0.99196739556E+03  0.25500000920E-02 0.  1.
    10030    2    1    2    0    0  0.00000000000E+00  0.00000000000E+00  0.90597074589E+03  0.28899055370E+04  0.27442250309E+04 0.  0.
        5    1    3    3  502    0  0.36254012483E+03 -0.97100166566E+03  0.13998212036E+04  0.17417810048E+04  0.46999998093E+01 0. -1.
       -5    1    3    3    0  502 -0.36254012483E+03  0.97100166566E+03 -0.49385045768E+03  0.11481245322E+04  0.46999998093E+01 0.  1.
</event>
<event>
 5   0  0.7812908E-06  0.2689446E+04  0.7818609E-02  0.8338438E-01
       -2   -1    0    0    0  501  0.00000000000E+00  0.00000000000E+00  0.17276891662E+04  0.17276891662E+04  0.25500000920E-02 0. -1.
        2   -1    0    0  501    0  0.00000000000E+00  0.00000000000E+00 -0.10466462055E+04  0.10466462055E+04  0.25500000920E-02 0.  1.
    10030    2    1    2    0    0  0.00000000000E+00  0.00000000000E+00  0.68104296070E+03  0.27743353717E+04  0.26894455266E+04 0.  0.
        5    1    3    3  502    0  0.10481409090E+04  0.16182843070E+03  0.11933382837E+04  0.15965168823E+04  0.46999998093E+01 0. -1.
       -5    1    3    3    0  502 -0.10481409090E+04 -0.16182843070E+03 -0.51229532301E+03  0.11778184894E+04  0.46999998093E+01 0.  1.
</event>
<event>
 5   0  0.3199840E-06  0.2706829E+04  0.7818609E-02  0.8332793E-01
       -1   -1    0    0    0  501  0.00000000000E+00  0.00000000000E+00  0.12683908905E+04  0.12683908906E+04  0.50400001928E-02 0.  1.
        1   -1    0    0  501    0  0.00000000000E+00  0.00000000000E+00 -0.14441376061E+04  0.14441376061E+04  0.50400001928E-02 0. -1.
    10030    2    1    2    0    0  0.00000000000E+00  0.00000000000E+00 -0.17574671558E+03  0.27125284967E+04  0.27068291297E+04 0.  0.
        1    1    3    3  502    0  0.78485603081E+03 -0.10617490930E+04 -0.38585590766E+03  0.13755707568E+04  0.50400001928E-02 0. -1.
       -1    1    3    3    0  502 -0.78485603081E+03  0.10617490930E+04  0.21010919208E+03  0.13369577399E+04  0.50400001928E-02 0.  1.
</event>
<event>
 5   0  0.3013407E-06  0.2706898E+04  0.7818609E-02  0.8332770E-01
        1   -1    0    0  501    0  0.00000000000E+00  0.00000000000E+00  0.10046688123E+04  0.10046688123E+04  0.50400001928E-02 0.  1.
       -1   -1    0    0    0  501  0.00000000000E+00  0.00000000000E+00 -0.18233113301E+04  0.18233113301E+04  0.50400001928E-02 0. -1.
    10030    2    1    2    0    0  0.00000000000E+00  0.00000000000E+00 -0.81864251776E+03  0.28279801424E+04  0.27068978765E+04 0.  0.
        4    1    3    3  502    0 -0.53651446885E+03 -0.61494726550E+03 -0.15373475208E+04  0.17405306453E+04  0.12699999809E+01 0. -1.
       -4    1    3    3    0  502  0.53651446885E+03  0.61494726550E+03  0.71870500299E+03  0.10874494972E+04  0.12699999809E+01 0.  1.
</event>
<event>
 5   0  0.8213334E-06  0.2700562E+04  0.7818609E-02  0.8334823E-01
        2   -1    0    0  501    0  0.00000000000E+00  0.00000000000E+00  0.16629751992E+04  0.16629751992E+04  0.25500000920E-02 0.  1.
       -2   -1    0    0    0  501  0.00000000000E+00  0.00000000000E+00 -0.10963836754E+04  0.10963836754E+04  0.25500000920E-02 0. -1.
    10030    2    1    2    0    0  0.00000000000E+00  0.00000000000E+00  0.56659152379E+03  0.27593588746E+04  0.27005620608E+04 0.  0.
        3    1    3    3  502    0 -0.32932860572E+03 -0.93574922142E+03 -0.65271377080E+03  0.11874844053E+04  0.10100000352E+00 0. -1.
       -3    1    3    3    0  502  0.32932860572E+03  0.93574922142E+03  0.12193052946E+04  0.15718744694E+04  0.10100000352E+00 0.  1.
</event>
<event>
 5   0  0.8407622E-06  0.2682934E+04  0.7818609E-02  0.8340564E-01
       -2   -1    0    0    0  501  0.00000000000E+00  0.00000000000E+00  0.12093279476E+04  0.12093279476E+04  0.25500000920E-02 0. -1.
        2   -1    0    0  501    0  0.00000000000E+00  0.00000000000E+00 -0.14880440872E+04  0.14880440872E+04  0.25500000920E-02 0.  1.
    10030    2    1    2    0    0  0.00000000000E+00  0.00000000000E+00 -0.27871613960E+03  0.26973720348E+04  0.26829336943E+04 0.  0.
        1    1    3    3  502    0 -0.25703312571E+03  0.19346932398E+03  0.11699702416E+04  0.12133947310E+04  0.50400001928E-02 0. -1.
       -1    1    3    3    0  502  0.25703312571E+03 -0.19346932398E+03 -0.14486863812E+04  0.14839773038E+04  0.50400001928E-02 0.  1.
</event>
<event>
 5   0  0.7812908E-06  0.2696066E+04  0.7818609E-02  0.8336282E-01
       -2   -1    0    0    0  501  0.00000000000E+00  0.00000000000E+00  0.93812590481E+03  0.93812590481E+03  0.25500000920E-02 0.  1.
        2   -1    0    0  501    0  0.00000000000E+00  0.00000000000E+00 -0.19370463358E+04  0.19370463358E+04  0.25500000920E-02 0. -1.
    10030    2    1    2    0    0  0.00000000000E+00  0.00000000000E+00 -0.99892043102E+03  0.28751722406E+04  0.26960662799E+04 0.  0.
        5    1    3    3  502    0 -0.11426268632E+04  0.39112154602E+03 -0.11380733785E+04  0.16594593448E+04  0.46999998093E+01 0. -1.
       -5    1    3    3    0  502  0.11426268632E+04 -0.39112154602E+03  0.13915294748E+03  0.12157128958E+04  0.46999998093E+01 0.  1.
</event>
<event>
 5   0  0.3046300E-06  0.2731728E+04  0.7818609E-02  0.8324783E-01
       -1   -1    0    0    0  501  0.00000000000E+00  0.00000000000E+00  0.10407064666E+04  0.10407064666E+04  0.50400001928E-02 0.  1.
        1   -1    0    0  501    0  0.00000000000E+00  0.00000000000E+00 -0.17926138438E+04  0.17926138438E+04  0.50400001928E-02 0. -1.
    10030    2    1    2    0    0  0.00000000000E+00  0.00000000000E+00 -0.75190737727E+03  0.28333203104E+04  0.27317282584E+04 0.  0.
        2    1    3    3  502    0  0.47774984970E+03  0.87507793642E+03  0.59234966343E+03  0.11596915269E+04  0.25500000920E-02 0.  1.
       -2    1    3    3    0  502 -0.47774984970E+03 -0.87507793642E+03 -0.13442570407E+04  0.16736287836E+04  0.25500000920E-02 0. -1.
</event>
<event>
 5   0  0.8213334E-06  0.2717170E+04  0.7818609E-02  0.8329455E-01
        2   -1    0    0  501    0  0.00000000000E+00  0.00000000000E+00  0.13164864960E+04  0.13164864960E+04  0.25500000920E-02 0. -1.
       -2   -1    0    0    0  501  0.00000000000E+00  0.00000000000E+00 -0.14020294521E+04  0.14020294521E+04  0.25500000920E-02 0.  1.
    10030    2    1    2    0    0  0.00000000000E+00  0.00000000000E+00 -0.85542956117E+02  0.27185159481E+04  0.27171697339E+04 0.  0.
        3    1    3    3  502    0 -0.68635105265E+03  0.11262348227E+03  0.11248504376E+04  0.13225166666E+04  0.10100000352E+00 0. -1.
       -3    1    3    3    0  502  0.68635105265E+03 -0.11262348227E+03 -0.12103933937E+04  0.13959992815E+04  0.10100000352E+00 0.  1.
</event>
<event>
 5   0  0.7729970E-06  0.2706521E+04  0.7818609E-02  0.8332892E-01
        2   -1    0    0  501    0  0.00000000000E+00  0.00000000000E+00  0.24717782353E+04  0.24717782353E+04  0.25500000920E-02 0. -1.
       -2   -1    0    0    0  501  0.00000000000E+00  0.00000000000E+00 -0.74088907138E+03  0.74088907139E+03  0.25500000920E-02 0.  1.
    10030    2    1    2    0    0  0.00000000000E+00  0.00000000000E+00  0.17308891639E+04  0.32126673067E+04  0.27065206309E+04 0.  0.
        4    1    3    3  502    0  0.81242631557E+02 -0.45309233040E+03 -0.64510159489E+03  0.79249650200E+03  0.12699999809E+01 0.  1.
       -4    1    3    3    0  502 -0.81242631557E+02  0.45309233040E+03  0.23759907588E+04  0.24201708047E+04  0.12699999809E+01 0. -1.
</event>
<event>
 5   0  0.2654625E-06  0.2709861E+04  0.7818609E-02  0.8331812E-01
        3   -1    0    0  501    0  0.00000000000E+00  0.00000000000E+00  0.20942691317E+04  0.20942691341E+04  0.10100000352E+00 0.  1.
       -3   -1    0    0    0  501  0.00000000000E+00  0.00000000000E+00 -0.87660027165E+03  0.87660027746E+03  0.10100000352E+00 0. -1.
    10030    2    1    2    0    0  0.00000000000E+00  0.00000000000E+00  0.12176688600E+04  0.29708694116E+04  0.27098611787E+04 0.  0.
        4    1    3    3  502    0  0.77211973718E+03 -0.11014934227E+04  0.78689293494E+03  0.15584154622E+04  0.12699999809E+01 0. -1.
       -4    1    3    3    0  502 -0.77211973718E+03  0.11014934227E+04  0.43077592510E+03  0.14124539494E+04  0.12699999809E+01 0.  1.
</event>
<event>
 5   0  0.8213334E-06  0.2617461E+04  0.7818609E-02  0.8362294E-01
        2   -1    0    0  501    0  0.00000000000E+00  0.00000000000E+00  0.22985673221E+04  0.22985673221E+04  0.25500000920E-02 0.  1.
       -2   -1    0    0    0  501  0.00000000000E+00  0.00000000000E+00 -0.74514933041E+03  0.74514933041E+03  0.25500000920E-02 0. -1.
    10030    2    1    2    0    0  0.00000000000E+00  0.00000000000E+00  0.15534179917E+04  0.30437166525E+04  0.26174612898E+04 0.  0.
        3    1    3    3  502    0 -0.78785104847E+03 -0.10132661499E+04  0.47942302736E+03  0.13701328456E+04  0.10100000352E+00 0. -1.
       -3    1    3    3    0  502  0.78785104847E+03  0.10132661499E+04  0.10739949643E+04  0.16735838069E+04  0.10100000352E+00 0.  1.
</event>
<event>
 5   0  0.7729970E-06  0.2711820E+04  0.7818609E-02  0.8331180E-01
       -2   -1    0    0    0  501  0.00000000000E+00  0.00000000000E+00  0.91219959525E+03  0.91219959525E+03  0.25500000920E-02 0. -1.
        2   -1    0    0  501    0  0.00000000000E+00  0.00000000000E+00 -0.20154494791E+04  0.20154494791E+04  0.25500000920E-02 0.  1.
    10030    2    1    2    0    0  0.00000000000E+00  0.00000000000E+00 -0.11032498838E+04  0.29276490743E+04  0.27118201998E+04 0.  0.
        4    1    3    3  502    0 -0.65679040548E+03  0.44283486755E+03 -0.17396695567E+04  0.19115250812E+04  0.12699999809E+01 0.  1.
       -4    1    3    3    0  502  0.65679040548E+03 -0.44283486755E+03  0.63641967282E+03  0.10161239932E+04  0.12699999809E+01 0. -1.
</event>
<event>
 5   0  0.8407622E-06  0.2735382E+04  0.7818609E-02  0.8323615E-01
        2   -1    0    0  501    0  0.00000000000E+00  0.00000000000E+00  0.18924507869E+04  0.18924507870E+04  0.25500000920E-02 0.  1.
       -2   -1    0    0    0  501  0.00000000000E+00  0.00000000000E+00 -0.98844223754E+03  0.98844223754E+03  0.25500000920E-02 0. -1.
    10030    2    1    2    0    0  0.00000000000E+00  0.00000000000E+00  0.90400854941E+03  0.28808930245E+04  0.27353817213E+04 0.  0.
        1    1    3    3  502    0  0.55493547355E+03  0.96941660489E+03  0.12831996957E+04  0.17012711109E+04  0.50400001928E-02 0.  1.
       -1    1    3    3    0  502 -0.55493547355E+03 -0.96941660489E+03 -0.37919114629E+03  0.11796219136E+04  0.50400001928E-02 0. -1.
</event>
<event>
 5   0  0.3013407E-06  0.2685197E+04  0.7818609E-02  0.8339824E-01
       -1   -1    0    0    0  501  0.00000000000E+00  0.00000000000E+00  0.20954727902E+04  0.20954727902E+04  0.50400001928E-02 0. -1.
        1   -1    0    0  501    0  0.00000000000E+00  0.00000000000E+00 -0.86022166152E+03  0.86022166154E+03  0.50400001928E-02 0.  1.
    10030    2    1    2    0    0  0.00000000000E+00  0.00000000000E+00  0.12352511287E+04  0.29556944518E+04  0.26851972630E+04 0.  0.
        4    1    3    3  502    0 -0.10305859921E+04 -0.85155211800E+03  0.48137868853E+03  0.14209065949E+04  0.12699999809E+01 0. -1.
       -4    1    3    3    0  502  0.10305859921E+04  0.85155211800E+03  0.75387244019E+03  0.15347878569E+04  0.12699999809E+01 0.  1.
</event>
<event>
 5   0  0.8213334E-06  0.2696010E+04  0.7818609E-02  0.8336301E-01
        2   -1    0    0  501    0  0.00000000000E+00  0.00000000000E+00  0.18809051364E+04  0.18809051364E+04  0.25500000920E-02 0.  1.
       -2   -1    0    0    0  501  0.00000000000E+00  0.00000000000E+00 -0.96608651584E+03  0.96608651584E+03  0.25500000920E-02 0. -1.
    10030    2    1    2    0    0  0.00000000000E+00  0.00000000000E+00  0.91481862058E+03  0.28469916523E+04  0.26960097106E+04 0.  0.
        3    1    3    3  502    0 -0.47197686469E+03  0.10195599349E+04  0.12440085074E+04  0.16762523075E+04  0.10100000352E+00 0.  1.
       -3    1    3    3    0  502  0.47197686469E+03 -0.10195599349E+04 -0.32918988685E+03  0.11707393448E+04  0.10100000352E+00 0. -1.
</event>
<event>
 5   0  0.7812908E-06  0.2706476E+04  0.7818609E-02  0.8332907E-01
        2   -1    0    0  501    0  0.00000000000E+00  0.00000000000E+00  0.15487438084E+04  0.15487438084E+04  0.25500000920E-02 0.  1.
       -2   -1    0    0    0  501  0.00000000000E+00  0.00000000000E+00 -0.11824120826E+04  0.11824120826E+04  0.25500000920E-02 0. -1.
    10030    2    1    2    0    0  0.00000000000E+00  0.00000000000E+00  0.36633172576E+03  0.27311558910E+04  0.27064762271E+04 0.  0.
        5    1    3    3  502    0 -0.30490621417E+03 -0.14686727160E+03 -0.11390082671E+04  0.11882338648E+04  0.46999998093E+01 0. -1.
       -5    1    3    3    0  502  0.30490621417E+03  0.14686727160E+03  0.15053399929E+04  0.15429220262E+04  0.46999998093E+01 0.  1.
</event>
<event>
 5   0  0.3028601E-06  0.2705923E+04  0.7818609E-02  0.8333086E-01
        1   -1    0    0  501    0  0.00000000000E+00  0.00000000000E+00  0.11257751881E+04  0.11257751881E+04  0.50400001928E-02 0. -1.
       -1   -1    0    0    0  501  0.00000000000E+00  0.00000000000E+00 -0.16259945559E+04  0.16259945559E+04  0.50400001928E-02 0.  1.
    10030    2    1    2    0    0  0.00000000000E+00  0.00000000000E+00 -0.50021936779E+03  0.27517697440E+04  0.27059226352E+04 0.  0.
        3    1    3    3  502    0  0.47383075777E+03 -0.92721405387E+03 -0.11286114127E+04  0.15355797666E+04  0.10100000352E+00 0.  1.
       -3    1    3    3    0  502 -0.47383075777E+03  0.92721405387E+03  0.62839204487E+03  0.12161899773E+04  0.10100000352E+00 0. -1.
</event>
<event>
 5   0  0.3013407E-06  0.2680492E+04  0.7818609E-02  0.8341362E-01
       -1   -1    0    0    0  501  0.00000000000E+00  0.00000000000E+00  0.78882290141E+03  0.78882290143E+03  0.50400001928E-02 0. -1.
        1   -1    0    0  501    0  0.00000000000E+00  0.00000000000E+00 -0.22771396625E+04  0.22771396625E+04  0.50400001928E-02 0.  1.
    10030    2    1    2    0    0  0.00000000000E+00  0.00000000000E+00 -0.14883167611E+04  0.30659625639E+04  0.26804924290E+04 0.  0.
        4    1    3    3  502    0 -0.68127355537E+01  0.13398277590E+04 -0.78163378072E+03  0.15511730456E+04  0.12699999809E+01 0.  1.
       -4    1    3    3    0  502  0.68127355537E+01 -0.13398277590E+04 -0.70668298037E+03  0.15147895184E+04  0.12699999809E+01 0. -1.
</event>
<event>
 5   0  0.7729970E-06  0.2719800E+04  0.7818609E-02  0.8328609E-01
        2   -1    0    0  501    0  0.00000000000E+00  0.00000000000E+00  0.15696430540E+04  0.15696430540E+04  0.25500000920E-02 0. -1.
       -2   -1    0    0    0  501  0.00000000000E+00  0.00000000000E+00 -0.11781839528E+04  0.11781839529E+04  0.25500000920E-02 0.  1.
    10030    2    1    2    0    0  0.00000000000E+00  0.00000000000E+00  0.39145910114E+03  0.27478270068E+04  0.27198001823E+04 0.  0.
        4    1    3    3  502    0 -0.70471646853E+03 -0.10204995988E+04 -0.36794617474E+03  0.12936115076E+04  0.12699999809E+01 0.  1.
       -4    1    3    3    0  502  0.70471646853E+03  0.10204995988E+04  0.75940527588E+03  0.14542154992E+04  0.12699999809E+01 0. -1.
</event>
<event>
 5   0  0.3028601E-06  0.2694863E+04  0.7818609E-02  0.8336674E-01
       -1   -1    0    0    0  501  0.00000000000E+00  0.00000000000E+00  0.12726885376E+04  0.12726885376E+04  0.50400001928E-02 0.  1.
        1   -1    0    0  501    0  0.00000000000E+00  0.00000000000E+00 -0.14265639861E+04  0.14265639861E+04  0.50400001928E-02 0. -1.
    10030    2    1    2    0    0  0.00000000000E+00  0.00000000000E+00 -0.15387544848E+03  0.26992525237E+04  0.26948629897E+04 0.  0.
        3    1    3    3  502    0 -0.11376640668E+04  0.98818918493E+02  0.63943834771E+03  0.13087880341E+04  0.10100000352E+00 0.  1.
       -3    1    3    3    0  502  0.11376640668E+04 -0.98818918493E+02 -0.79331379619E+03  0.13904644896E+04  0.10100000352E+00 0. -1.
</event>
<event>
 5   0  0.7812908E-06  0.2679717E+04  0.7818609E-02  0.8341616E-01
        2   -1    0    0  501    0  0.00000000000E+00  0.00000000000E+00  0.18197608901E+04  0.18197608901E+04  0.25500000920E-02 0. -1.
       -2   -1    0    0    0  501  0.00000000000E+00  0.00000000000E+00 -0.98651501849E+03  0.98651501849E+03  0.25500000920E-02 0.  1.
    10030    2    1    2    0    0  0.00000000000E+00  0.00000000000E+00  0.83324587157E+03  0.28062759085E+04  0.26797174837E+04 0.  0.
        5    1    3    3  502    0  0.43940648055E+02  0.34742840794E+03 -0.93773195738E+03  0.10009997967E+04  0.46999998093E+01 0.  1.
       -5    1    3    3    0  502 -0.43940648055E+02 -0.34742840794E+03  0.17709778289E+04  0.18052761118E+04  0.46999998093E+01 0. -1.
</event>
<event>
 5   0  0.7838364E-06  0.2696987E+04  0.7818609E-02  0.8335983E-01
        2   -1    0    0  501    0  0.00000000000E+00  0.00000000000E+00  0.15908418855E+04  0.15908418855E+04  0.25500000920E-02 0.  1.
       -2   -1    0    0    0  501  0.00000000000E+00  0.00000000000E+00 -0.11430644005E+04  0.11430644005E+04  0.25500000920E-02 0. -1.
    10030    2    1    2    0    0  0.00000000000E+00  0.00000000000E+00  0.44777748499E+03  0.27339062860E+04  0.26969870049E+04 0.  0.
        2    1    3    3  502    0 -0.54650221905E+03  0.33527641511E+03 -0.97867287112E+03  0.11699895464E+04  0.25500000920E-02 0. -1.
       -2    1    3    3    0  502  0.54650221905E+03 -0.33527641511E+03  0.14264503561E+04  0.15639167396E+04  0.25500000920E-02 0.  1.
</event>
<event>
 5   0  0.7812908E-06  0.2703422E+04  0.7818609E-02  0.8333896E-01
       -2   -1    0    0    0  501  0.00000000000E+00  0.00000000000E+00  0.13713137885E+04  0.13713137885E+04  0.25500000920E-02 0.  1.
        2   -1    0    0  501    0  0.00000000000E+00  0.00000000000E+00 -0.13323880526E+04  0.13323880526E+04  0.25500000920E-02 0. -1.
    10030    2    1    2    0    0  0.00000000000E+00  0.00000000000E+00  0.38925735875E+02  0.27037018410E+04  0.27034216157E+04 0.  0.
        5    1    3    3  502    0  0.90206653145E+03  0.79952326400E+03  0.63119492409E+03  0.13606581492E+04  0.46999998093E+01 0.  1.
       -5    1    3    3    0  502 -0.90206653145E+03 -0.79952326400E+03 -0.59226918821E+03  0.13430436918E+04  0.46999998093E+01 0. -1.
</event>
<event>
 5   0  0.3089218E-06  0.2686969E+04  0.7818609E-02  0.8339246E-01
        1   -1    0    0  501    0  0.00000000000E+00  0.00000000000E+00  0.24248716827E+04  0.24248716827E+04  0.50400001928E-02 0.  1.
       -1   -1    0    0    0  501  0.00000000000E+00  0.00000000000E+00 -0.74434866185E+03  0.74434866187E+03  0.50400001928E-02 0. -1.
    10030    2    1    2    0    0  0.00000000000E+00  0.00000000000E+00  0.16805230209E+04  0.31692203446E+04  0.26869685463E+04 0.  0.
        5    1    3    3  502    0  0.12162981136E+04 -0.15429126595E+03  0.19236294290E+03  0.12410529754E+04  0.46999998093E+01 0. -1.
       -5    1    3    3    0  502 -0.12162981136E+04  0.15429126595E+03  0.14881600780E+04  0.19281673692E+04  0.46999998093E+01 0.  1.
</event>
<event>
 5   0  0.3013407E-06  0.2695458E+04  0.7818609E-02  0.8336480E-01
       -1   -1    0    0    0  501  0.00000000000E+00  0.00000000000E+00  0.74368360817E+03  0.74368360818E+03  0.50400001928E-02 0.  1.
        1   -1    0    0  501    0  0.00000000000E+00  0.00000000000E+00 -0.24424012039E+04  0.24424012039E+04  0.50400001928E-02 0. -1.
    10030    2    1    2    0    0  0.00000000000E+00  0.00000000000E+00 -0.16987175957E+04  0.31860848121E+04  0.26954582096E+04 0.  0.
        4    1    3    3  502    0  0.33833477466E+03  0.29836345264E+03 -0.23505150059E+04  0.23934104486E+04  0.12699999809E+01 0. -1.
       -4    1    3    3    0  502 -0.33833477466E+03 -0.29836345264E+03  0.65179741021E+03  0.79267436345E+03  0.12699999809E+01 0.  1.
</event>
<event>
 5   0  0.8213334E-06  0.2479650E+04  0.7818609E-02  0.8410271E-01
        2   -1    0    0  501    0  0.00000000000E+00  0.00000000000E+00  0.22562169779E+04  0.22562169779E+04  0.25500000920E-02 0. -1.
       -2   -1    0    0    0  501  0.00000000000E+00  0.00000000000E+00 -0.68130261174E+03  0.68130261174E+03  0.25500000920E-02 0.  1.
    10030    2    1    2    0    0  0.00000000000E+00  0.00000000000E+00  0.15749143661E+04  0.29375195896E+04  0.24796503944E+04 0.  0.
        3    1    3    3  502    0  0.45365147031E+03 -0.87440680650E+03  0.16793186873E+04  0.19469201790E+04  0.10100000352E+00 0. -1.
       -3    1    3    3    0  502 -0.45365147031E+03  0.87440680650E+03 -0.10440432117E+03  0.99059941059E+03  0.10100000352E+00 0.  1.
</event>
<event>
 5   0  0.3046300E-06  0.2695113E+04  0.7818609E-02  0.8336592E-01
        1   -1    0    0  501    0  0.00000000000E+00  0.00000000000E+00  0.91261573284E+03  0.91261573285E+03  0.50400001928E-02 0. -1.
       -1   -1    0    0    0  501  0.00000000000E+00  0.00000000000E+00 -0.19897846083E+04  0.19897846083E+04  0.50400001928E-02 0.  1.
    10030    2    1    2    0    0  0.00000000000E+00  0.00000000000E+00 -0.10771688755E+04  0.29024003411E+04  0.26951131616E+04 0.  0.
        2    1    3    3  502    0 -0.95011284446E+03 -0.23135791242E+03  0.45991000247E+03  0.10806285723E+04  0.25500000920E-02 0. -1.
       -2    1    3    3    0  502  0.95011284446E+03  0.23135791242E+03 -0.15370788779E+04  0.18217717689E+04  0.25500000920E-02 0.  1.
</event>
<event>
 5   0  0.7729970E-06  0.2719575E+04  0.7818609E-02  0.8328681E-01
       -2   -1    0    0    0  501  0.00000000000E+00  0.00000000000E+00  0.10790909677E+04  0.10790909677E+04  0.25500000920E-02 0.  1.
        2   -1    0    0  501    0  0.00000000000E+00  0.00000000000E+00 -0.17134998456E+04  0.17134998456E+04  0.25500000920E-02 0. -1.
    10030    2    1    2    0    0  0.00000000000E+00  0.00000000000E+00 -0.63440887794E+03  0.27925908133E+04  0.27195751187E+04 0.  0.
        4    1    3    3  502    0 -0.67284415781E+03 -0.67621245197E+03 -0.13122611696E+04  0.16223481534E+04  0.12699999809E+01 0. -1.
       -4    1    3    3    0  502  0.67284415781E+03  0.67621245197E+03  0.67785229163E+03  0.11702426599E+04  0.12699999809E+01 0.  1.
</event>
<event>
 5   0  0.3013407E-06  0.2696226E+04  0.7818609E-02  0.8336231E-01
        1   -1    0    0  501    0  0.00000000000E+00  0.00000000000E+00  0.15260902029E+04  0.15260902029E+04  0.50400001928E-02 0.  1.
       -1   -1    0    0    0  501  0.00000000000E+00  0.00000000000E+00 -0.11908916327E+04  0.11908916327E+04  0.50400001928E-02 0. -1.
    10030    2    1    2    0    0  0.00000000000E+00  0.00000000000E+00  0.33519857017E+03  0.27169818357E+04  0.26962255495E+04 0.  0.
        4    1    3    3  502    0 -0.67064452005E+03  0.10589623805E+04  0.66764618367E+03  0.14201825358E+04  0.12699999809E+01 0.  1.
       -4    1    3    3    0  502  0.67064452005E+03 -0.10589623805E+04 -0.33244761350E+03  0.12967992999E+04  0.12699999809E+01 0. -1.
</event>
<event>
 5   0  0.3199840E-06  0.2456906E+04  0.7818609E-02  0.8418501E-01
       -1   -1    0    0    0  501  0.00000000000E+00  0.00000000000E+00  0.10538737420E+04  0.10538737420E+04  0.50400001928E-02 0.  1.
        1   -1    0    0  501    0  0.00000000000E+00  0.00000000000E+00 -0.14319516633E+04  0.14319516633E+04  0.50400001928E-02 0. -1.
    10030    2    1    2    0    0  0.00000000000E+00  0.00000000000E+00 -0.37807792134E+03  0.24858254053E+04  0.24569055804E+04 0.  0.
        1    1    3    3  502    0 -0.74735528616E+03 -0.87134213181E+03 -0.63158805888E+03  0.13102215502E+04  0.50400001928E-02 0. -1.
       -1    1    3    3    0  502  0.74735528616E+03  0.87134213181E+03  0.25351013753E+03  0.11756038552E+04  0.50400001928E-02 0.  1.
</event>
<event>
 5   0  0.3089218E-06  0.2716003E+04  0.7818609E-02  0.8329831E-01
       -1   -1    0    0    0  501  0.00000000000E+00  0.00000000000E+00  0.75875923157E+03  0.75875923159E+03  0.50400001928E-02 0. -1.
        1   -1    0    0  501    0  0.00000000000E+00  0.00000000000E+00 -0.24305054169E+04  0.24305054169E+04  0.50400001928E-02 0.  1.
    10030    2    1    2    0    0  0.00000000000E+00  0.00000000000E+00 -0.16717461853E+04  0.31892646485E+04  0.27160032566E+04 0.  0.
        5    1    3    3  502    0  0.18532372604E+03 -0.39871588526E+03  0.67285531034E+03  0.80378828011E+03  0.46999998093E+01 0. -1.
       -5    1    3    3    0  502 -0.18532372604E+03  0.39871588526E+03 -0.23446014957E+04  0.23854763684E+04  0.46999998093E+01 0.  1.
</event>
<event>
 5   0  0.3028601E-06  0.2694537E+04  0.7818609E-02  0.8336780E-01
        1   -1    0    0  501    0  0.00000000000E+00  0.00000000000E+00  0.13286952871E+04  0.13286952871E+04  0.50400001928E-02 0.  1.
       -1   -1    0    0    0  501  0.00000000000E+00  0.00000000000E+00 -0.13661016431E+04  0.13661016431E+04  0.50400001928E-02 0. -1.
    10030    2    1    2    0    0  0.00000000000E+00  0.00000000000E+00 -0.37406356044E+02  0.26947969302E+04  0.26945372997E+04 0.  0.
        3    1    3    3  502    0 -0.85695836566E+03  0.96172499411E+03 -0.41350722195E+03  0.13528787224E+04  0.10100000352E+00 0.  1.
       -3    1    3    3    0  502  0.85695836566E+03 -0.96172499411E+03  0.37610086591E+03  0.13419182078E+04  0.10100000352E+00 0. -1.
</event>
<event>
 5   0  0.7838364E-06  0.2704861E+04  0.7818609E-02  0.8333430E-01
       -2   -1    0    0    0  501  0.00000000000E+00  0.00000000000E+00  0.12709547295E+04  0.12709547295E+04  0.25500000920E-02 0.  1.
        2   -1    0    0  501    0  0.00000000000E+00  0.00000000000E+00 -0.14391290582E+04  0.14391290582E+04  0.25500000920E-02 0. -1.
    10030    2    1    2    0    0  0.00000000000E+00  0.00000000000E+00 -0.16817432867E+03  0.27100837877E+04  0.27048607231E+04 0.  0.
        2    1    3    3  502    0 -0.10180809447E+04 -0.88493697763E+03  0.13392114331E+02  0.13489928143E+04  0.25500000920E-02 0.  1.
       -2    1    3    3    0  502  0.10180809447E+04  0.88493697763E+03 -0.18156644300E+03  0.13610909733E+04  0.25500000920E-02 0. -1.
</event>
<event>
 5   0  0.3013407E-06  0.2712108E+04  0.7818609E-02  0.8331087E-01
       -1   -1    0    0    0  501  0.00000000000E+00  0.00000000000E+00  0.91224445798E+03  0.91224445799E+03  0.50400001928E-02 0. -1.
        1   -1    0    0  501    0  0.00000000000E+00  0.00000000000E+00 -0.20157781648E+04  0.20157781648E+04  0.50400001928E-02 0.  1.
    10030    2    1    2    0    0  0.00000000000E+00  0.00000000000E+00 -0.11035337068E+04  0.29280226228E+04  0.27121080063E+04 0.  0.
        4    1    3    3  502    0  0.11806874730E+04 -0.59516722966E+03 -0.22674482479E+03  0.13415147292E+04  0.12699999809E+01 0. -1.
       -4    1    3    3    0  502 -0.11806874730E+04  0.59516722966E+03 -0.87678888205E+03  0.15865078937E+04  0.12699999809E+01 0.  1.
</event>
<event>
 5   0  0.7812908E-06  0.2640382E+04  0.7818609E-02  0.8354612E-01
       -2   -1    0    0    0  501  0.00000000000E+00  0.00000000000E+00  0.97643973553E+03  0.97643973553E+03  0.25500000920E-02 0.  1.
        2   -1    0    0  501    0  0.00000000000E+00  0.00000000000E+00 -0.17849577137E+04  0.17849577137E+04  0.25500000920E-02 0. -1.
    10030    2    1    2    0    0  0.00000000000E+00  0.00000000000E+00 -0.80851797821E+03  0.27613974493E+04  0.26403815163E+04 0.  0.
        5    1    3    3  502    0 -0.88268197242E+03  0.25951317559E+03  0.58592261578E+03  0.10907804336E+04  0.46999998093E+01 0.  1.
       -5    1    3    3    0  502  0.88268197242E+03 -0.25951317559E+03 -0.13944405940E+04  0.16706170156E+04  0.46999998093E+01 0. -1.
</event>
<event>
 5   0  0.7729970E-06  0.2672386E+04  0.7818609E-02  0.8344021E-01
       -2   -1    0    0    0  501  0.00000000000E+00  0.00000000000E+00  0.88842314279E+03  0.88842314279E+03  0.25500000920E-02 0.  1.
        2   -1    0    0  501    0  0.00000000000E+00  0.00000000000E+00 -0.20096417330E+04  0.20096417330E+04  0.25500000920E-02 0. -1.
    10030    2    1    2    0    0  0.00000000000E+00  0.00000000000E+00 -0.11212185902E+04  0.28980648758E+04  0.26723863675E+04 0.  0.
        4    1    3    3  502    0  0.29542533120E+03 -0.23777242008E+03  0.82883891466E+03  0.91147540253E+03  0.12699999809E+01 0.  1.
       -4    1    3    3    0  502 -0.29542533120E+03  0.23777242008E+03 -0.19500575048E+04  0.19865894732E+04  0.12699999809E+01 0. -1.
</event>
<event>
 5   0  0.3199840E-06  0.2692220E+04  0.7818609E-02  0.8337534E-01
       -1   -1    0    0    0  501  0.00000000000E+00  0.00000000000E+00  0.88547809746E+03  0.88547809748E+03  0.50400001928E-02 0.  1.
        1   -1    0    0  501    0  0.00000000000E+00  0.00000000000E+00 -0.20463657944E+04  0.20463657944E+04  0.50400001928E-02 0. -1.
    10030    2    1    2    0    0  0.00000000000E+00  0.00000000000E+00 -0.11608876969E+04  0.29318438919E+04  0.26922199690E+04 0.  0.
        1    1    3    3  502    0 -0.67574242463E+03  0.84880574534E+03  0.28729179202E+03  0.11223348839E+04  0.50400001928E-02 0.  1.
       -1    1    3    3    0  502  0.67574242463E+03 -0.84880574534E+03 -0.14481794889E+04  0.18095090080E+04  0.50400001928E-02 0. -1.
</event>
<event>
 5   0  0.7812908E-06  0.2701380E+04  0.7818609E-02  0.8334557E-01
        2   -1    0    0  501    0  0.00000000000E+00  0.00000000000E+00  0.18363056915E+04  0.18363056915E+04  0.25500000920E-02 0. -1.
       -2   -1    0    0    0  501  0.00000000000E+00  0.00000000000E+00 -0.99349666856E+03  0.99349666857E+03  0.25500000920E-02 0.  1.
    10030    2    1    2    0    0  0.00000000000E+00  0.00000000000E+00  0.84280902294E+03  0.28298023601E+04  0.27013800821E+04 0.  0.
        5    1    3    3  502    0 -0.10963948382E+04  0.36790715137E+03  0.11523620748E+04  0.16326045923E+04  0.46999998093E+01 0. -1.
       -5    1    3    3    0  502  0.10963948382E+04 -0.36790715137E+03 -0.30955305181E+03  0.11971977678E+04  0.46999998093E+01 0.  1.
</event>
<event>
 5   0  0.8407622E-06  0.2642553E+04  0.7818609E-02  0.8353889E-01
       -2   -1    0    0    0  501  0.00000000000E+00  0.00000000000E+00  0.82265448051E+03  0.82265448051E+03  0.25500000920E-02 0. -1.
        2   -1    0    0  501    0  0.00000000000E+00  0.00000000000E+00 -0.21221208277E+04  0.21221208277E+04  0.25500000920E-02 0.  1.
    10030    2    1    2    0    0  0.00000000000E+00  0.00000000000E+00 -0.12994663472E+04  0.29447753082E+04  0.26425534674E+04 0.  0.
        1    1    3    3  502    0  0.11040202699E+04 -0.61184449502E+02  0.15629260167E+03  0.11167057224E+04  0.50400001928E-02 0. -1.
       -1    1    3    3    0  502 -0.11040202699E+04  0.61184449502E+02 -0.14557589488E+04  0.18280695857E+04  0.50400001928E-02 0.  1.
</event>
<event>
 5   0  0.8213334E-06  0.2667282E+04  0.7818609E-02  0.8345700E-01
       -2   -1    0    0    0  501  0.00000000000E+00  0.00000000000E+00  0.11680725912E+04  0.11680725912E+04  0.25500000920E-02 0. -1.
        2   -1    0    0  501    0  0.00000000000E+00  0.00000000000E+00 -0.15226779172E+04  0.15226779172E+04  0.25500000920E-02 0.  1.
    10030    2    1    2    0    0  0.00000000000E+00  0.00000000000E+00 -0.35460532603E+03  0.26907505085E+04  0.26672820176E+04 0.  0.
        3    1    3    3  502    0 -0.82787875713E+03  0.67266488607E+03  0.63020083231E+03  0.12389569745E+04  0.10100000352E+00 0. -1.
       -3    1    3    3    0  502  0.82787875713E+03 -0.67266488607E+03 -0.98480615835E+03  0.14517935339E+04  0.10100000352E+00 0.  1.
</event>
<event>
 5   0  0.3199840E-06  0.2632251E+04  0.7818609E-02  0.8357328E-01
       -1   -1    0    0    0  501  0.00000000000E+00  0.00000000000E+00  0.93679422484E+03  0.93679422485E+03  0.50400001928E-02 0.  1.
        1   -1    0    0  501    0  0.00000000000E+00  0.00000000000E+00 -0.18490573363E+04  0.18490573363E+04  0.50400001928E-02 0. -1.
    10030    2    1    2    0    0  0.00000000000E+00  0.00000000000E+00 -0.91226311141E+03  0.27858515611E+04  0.26322509258E+04 0.  0.
        1    1    3    3  502    0 -0.83767038144E+03 -0.97644779420E+03 -0.16236600818E+03  0.12967284540E+04  0.50400001928E-02 0.  1.
       -1    1    3    3    0  502  0.83767038144E+03  0.97644779420E+03 -0.74989710324E+03  0.14891231071E+04  0.50400001928E-02 0. -1.
</event>
<event>
 5   0  0.3046300E-06  0.2707695E+04  0.7818609E-02  0.8332512E-01
       -1   -1    0    0    0  501  0.00000000000E+00  0.00000000000E+00  0.13642596772E+04  0.13642596772E+04  0.50400001928E-02 0.  1.
        1   -1    0    0  501    0  0.00000000000E+00  0.00000000000E+00 -0.13435151115E+04  0.13435151116E+04  0.50400001928E-02 0. -1.
    10030    2    1    2    0    0  0.00000000000E+00  0.00000000000E+00  0.20744565631E+02  0.27077747887E+04  0.27076953244E+04 0.  0.
        2    1    3    3  502    0 -0.11732834147E+04  0.11293683186E+03  0.67639092232E+03  0.13589898377E+04  0.25500000920E-02 0.  1.
       -2    1    3    3    0  502  0.11732834147E+04 -0.11293683186E+03 -0.65564635669E+03  0.13487849511E+04  0.25500000920E-02 0. -1.
</event>
<event>
 5   0  0.8407622E-06  0.2699750E+04  0.7818609E-02  0.8335086E-01
       -2   -1    0    0    0  501  0.00000000000E+00  0.00000000000E+00  0.19183490059E+04  0.19183490059E+04  0.25500000920E-02 0.  1.
        2   -1    0    0  501    0  0.00000000000E+00  0.00000000000E+00 -0.94985949701E+03  0.94985949701E+03  0.25500000920E-02 0. -1.
    10030    2    1    2    0    0  0.00000000000E+00  0.00000000000E+00  0.96848950893E+03  0.28682085030E+04  0.26997496342E+04 0.  0.
        1    1    3    3  502    0 -0.92123810303E+03  0.33672462122E+03 -0.50103923636E+03  0.11014097464E+04  0.50400001928E-02 0. -1.
       -1    1    3    3    0  502  0.92123810303E+03 -0.33672462122E+03  0.14695287453E+04  0.17667987566E+04  0.50400001928E-02 0.  1.
</event>
<event>
 5   0  0.8213334E-06  0.2694904E+04  0.7818609E-02  0.8336660E-01
        2   -1    0    0  501    0  0.00000000000E+00  0.00000000000E+00  0.22776161690E+04  0.22776161690E+04  0.25500000920E-02 0. -1.
       -2   -1    0    0    0  501  0.00000000000E+00  0.00000000000E+00 -0.79716086317E+03  0.79716086318E+03  0.25500000920E-02 0.  1.
    10030    2    1    2    0    0  0.00000000000E+00  0.00000000000E+00  0.14804553059E+04  0.30747770322E+04  0.26949036875E+04 0.  0.
        3    1    3    3  502    0 -0.30039877916E+03  0.21263145177E+03 -0.73870237197E+03  0.82530767921E+03  0.10100000352E+00 0.  1.
       -3    1    3    3    0  502  0.30039877916E+03 -0.21263145177E+03  0.22191576778E+04  0.22494693530E+04  0.10100000352E+00 0. -1.
</event>
<event>
 5   0  0.3089218E-06  0.2744984E+04  0.7818609E-02  0.8320555E-01
        1   -1    0    0  501    0  0.00000000000E+00  0.00000000000E+00  0.24092165186E+04  0.24092165186E+04  0.50400001928E-02 0. -1.
       -1   -1    0    0    0  501  0.00000000000E+00  0.00000000000E+00 -0.78188675138E+03  0.78188675139E+03  0.50400001928E-02 0.  1.
    10030    2    1    2    0    0  0.00000000000E+00  0.00000000000E+00  0.16273297672E+04  0.31911032700E+04  0.27449841363E+04 0.  0.
        5    1    3    3  502    0 -0.29833729346E+03 -0.10876006901E+04  0.17229856487E+04  0.20592673545E+04  0.46999998093E+01 0. -1.
       -5    1    3    3    0  502  0.29833729346E+03  0.10876006901E+04 -0.95655881469E+02  0.11318359155E+04  0.46999998093E+01 0.  1.
</event>
<event>
 5   0  0.8213334E-06  0.2679557E+04  0.7818609E-02  0.8341669E-01
        2   -1    0    0  501    0  0.00000000000E+00  0.00000000000E+00  0.20943596871E+04  0.20943596871E+04  0.25500000920E-02 0.  1.
       -2   -1    0    0    0  501  0.00000000000E+00  0.00000000000E+00 -0.85706698773E+03  0.85706698774E+03  0.25500000920E-02 0. -1.
    10030    2    1    2    0    0  0.00000000000E+00  0.00000000000E+00  0.12372926993E+04  0.29514266748E+04  0.26795570889E+04 0.  0.
        3    1    3    3  502    0  0.10050678844E+04  0.49660881984E+03  0.14267197712E+04  0.18144726749E+04  0.10100000352E+00 0.  1.
       -3    1    3    3    0  502 -0.10050678844E+04 -0.49660881984E+03 -0.18942707190E+03  0.11369539999E+04  0.10100000352E+00 0. -1.
</event>
<event>
 5   0  0.3013407E-06  0.2695345E+04  0.7818609E-02  0.8336517E-01
        1   -1    0    0  501    0  0.00000000000E+00  0.00000000000E+00  0.10904348340E+04  0.10904348340E+04  0.50400001928E-02 0. -1.
       -1   -1    0    0    0  501  0.00000000000E+00  0.00000000000E+00 -0.16655931478E+04  0.16655931478E+04  0.50400001928E-02 0.  1.
    10030    2    1    2    0    0  0.00000000000E+00  0.00000000000E+00 -0.57515831376E+03  0.27560279818E+04  0.26953447184E+04 0.  0.
        4    1    3    3  502    0 -0.53154360728E+03  0.16287114447E+03  0.96772237143E+03  0.11160438241E+04  0.12699999809E+01 0. -1.
       -4    1    3    3    0  502  0.53154360728E+03 -0.16287114447E+03 -0.15428806852E+04  0.16399841578E+04  0.12699999809E+01 0.  1.
</event>
<event>
 5   0  0.3013407E-06  0.2577066E+04  0.7818609E-02  0.8376033E-01
       -1   -1    0    0    0  501  0.00000000000E+00  0.00000000000E+00  0.65817262366E+03  0.65817262368E+03  0.50400001928E-02 0.  1.
        1   -1    0    0  501    0  0.00000000000E+00  0.00000000000E+00 -0.25226162993E+04  0.25226162993E+04  0.50400001928E-02 0. -1.
    10030    2    1    2    0    0  0.00000000000E+00  0.00000000000E+00 -0.18644436756E+04  0.31807889230E+04  0.25770657642E+04 0.  0.
        4    1    3    3  502    0  0.23209645317E+03 -0.68183212692E+03  0.38651189436E+03  0.81740863113E+03  0.12699999809E+01 0.  1.
       -4    1    3    3    0  502 -0.23209645317E+03  0.68183212692E+03 -0.22509555700E+04  0.23633802918E+04  0.12699999809E+01 0. -1.
</event>
<event>
 5   0  0.8213334E-06  0.2709384E+04  0.7818609E-02  0.8331966E-01
        2   -1    0    0  501    0  0.00000000000E+00  0.00000000000E+00  0.11744087648E+04  0.11744087648E+04  0.25500000920E-02 0.  1.
       -2   -1    0    0    0  501  0.00000000000E+00  0.00000000000E+00 -0.15626508846E+04  0.15626508846E+04  0.25500000920E-02 0. -1.
    10030    2    1    2    0    0  0.00000000000E+00  0.00000000000E+00 -0.38824211979E+03  0.27370596495E+04  0.27093843546E+04 0.  0.
        3    1    3    3  502    0  0.31971791052E+03  0.11353567889E+04  0.47897023658E+03  0.12730542322E+04  0.10100000352E+00 0.  1.
       -3    1    3    3    0  502 -0.31971791052E+03 -0.11353567889E+04 -0.86721235637E+03  0.14640054172E+04  0.10100000352E+00 0. -1.
</event>
<event>
 5   0  0.3089218E-06  0.2700375E+04  0.7818609E-02  0.8334883E-01
       -1   -1    0    0    0  501  0.00000000000E+00  0.00000000000E+00  0.12657717474E+04  0.12657717474E+04  0.50400001928E-02 0.  1.
        1   -1    0    0  501    0  0.00000000000E+00  0.00000000000E+00 -0.14402331266E+04  0.14402331266E+04  0.50400001928E-02 0. -1.
    10030    2    1    2    0    0  0.00000000000E+00  0.00000000000E+00 -0.17446137924E+03  0.27060048741E+04  0.27003750861E+04 0.  0.
        5    1    3    3  502    0 -0.82202930332E+01 -0.10967201241E+04 -0.87635050527E+03  0.14038785211E+04  0.46999998093E+01 0. -1.
       -5    1    3    3    0  502  0.82202930332E+01  0.10967201241E+04  0.70188912603E+03  0.13021263530E+04  0.46999998093E+01 0.  1.
</event>
<event>
 5   0  0.3199840E-06  0.2589944E+04  0.7818609E-02  0.8371625E-01
        1   -1    0    0  501    0  0.00000000000E+00  0.00000000000E+00  0.17492245052E+04  0.17492245052E+04  0.50400001928E-02 0.  1.
       -1   -1    0    0    0  501  0.00000000000E+00  0.00000000000E+00 -0.95868329256E+03  0.95868329258E+03  0.50400001928E-02 0. -1.
    10030    2    1    2    0    0  0.00000000000E+00  0.00000000000E+00  0.79054121267E+03  0.27079077978E+04  0.25899438667E+04 0.  0.
        1    1    3    3  502    0  0.15515929360E+03 -0.11914249507E+04 -0.10983189070E+03  0.12064952813E+04  0.50400001928E-02 0. -1.
       -1    1    3    3    0  502 -0.15515929360E+03  0.11914249507E+04  0.90037310336E+03  0.15014125165E+04  0.50400001928E-02 0.  1.
</event>
<event>
 5   0  0.3013407E-06  0.2703431E+04  0.7818609E-02  0.8333892E-01
       -1   -1    0    0    0  501  0.00000000000E+00  0.00000000000E+00  0.12294499984E+04  0.12294499984E+04  0.50400001928E-02 0.  1.
        1   -1    0    0  501    0  0.00000000000E+00  0.00000000000E+00 -0.14861403730E+04  0.14861403730E+04  0.50400001928E-02 0. -1.
    10030    2    1    2    0    0  0.00000000000E+00  0.00000000000E+00 -0.25669037455E+03  0.27155903714E+04  0.27034313597E+04 0.  0.
        4    1    3    3  502    0 -0.41782526358E+03  0.71898183126E+03  0.94210284962E+03  0.12566114024E+04  0.12699999809E+01 0.  1.
       -4    1    3    3    0  502  0.41782526358E+03 -0.71898183126E+03 -0.11987932242E+04  0.14589789689E+04  0.12699999809E+01 0. -1.
</event>
<event>
 5   0  0.7838364E-06  0.2706307E+04  0.7818609E-02  0.8332961E-01
       -2   -1    0    0    0  501  0.00000000000E+00  0.00000000000E+00  0.11998661292E+04  0.11998661292E+04  0.25500000920E-02 0.  1.
        2   -1    0    0  501    0  0.00000000000E+00  0.00000000000E+00 -0.15260242300E+04  0.15260242300E+04  0.25500000920E-02 0. -1.
    10030    2    1    2    0    0  0.00000000000E+00  0.00000000000E+00 -0.32615810082E+03  0.27258903592E+04  0.27063072892E+04 0.  0.
        2    1    3    3  502    0  0.39548049578E+03 -0.10399606557E+04 -0.93878281061E+03  0.14557596482E+04  0.25500000920E-02 0. -1.
       -2    1    3    3    0  502 -0.39548049578E+03  0.10399606557E+04  0.61262470979E+03  0.12701307110E+04  0.25500000920E-02 0.  1.
</event>
<event>
 5   0  0.7838364E-06  0.2738220E+04  0.7818609E-02  0.8322709E-01
        2   -1    0    0  501    0  0.00000000000E+00  0.00000000000E+00  0.13441026476E+04  0.13441026476E+04  0.25500000920E-02 0.  1.
       -2   -1    0    0    0  501  0.00000000000E+00  0.00000000000E+00 -0.13945829465E+04  0.13945829465E+04  0.25500000920E-02 0. -1.
    10030    2    1    2    0    0  0.00000000000E+00  0.00000000000E+00 -0.50480298883E+02  0.27386855941E+04  0.27382203204E+04 0.  0.
        2    1    3    3  502    0 -0.64922445653E+03  0.77088811694E+03 -0.95205922024E+03  0.13864262125E+04  0.25500000920E-02 0. -1.
       -2    1    3    3    0  502  0.64922445653E+03 -0.77088811694E+03  0.90157892136E+03  0.13522593816E+04  0.25500000920E-02 0.  1.
</event>
<event>
 5   0  0.7838364E-06  0.2708229E+04  0.7818609E-02  0.8332340E-01
        2   -1    0    0  501    0  0.00000000000E+00  0.00000000000E+00  0.20524057551E+04  0.20524057551E+04  0.25500000920E-02 0. -1.
       -2   -1    0    0    0  501  0.00000000000E+00  0.00000000000E+00 -0.89340301694E+03  0.89340301695E+03  0.25500000920E-02 0.  1.
    10030    2    1    2    0    0  0.00000000000E+00  0.00000000000E+00  0.11590027382E+04  0.29458087721E+04  0.27082285676E+04 0.  0.
        2    1    3    3  502    0 -0.57903668317E+02  0.20489022557E+03 -0.87508171430E+03  0.90061137349E+03  0.25500000920E-02 0.  1.
       -2    1    3    3    0  502  0.57903668317E+02 -0.20489022557E+03  0.20340844525E+04  0.20451973986E+04  0.25500000920E-02 0. -1.
</event>
<event>
 5   0  0.3046300E-06  0.2699505E+04  0.7818609E-02  0.8335166E-01
        1   -1    0    0  501    0  0.00000000000E+00  0.00000000000E+00  0.22138337880E+04  0.22138337880E+04  0.50400001928E-02 0.  1.
       -1   -1    0    0    0  501  0.00000000000E+00  0.00000000000E+00 -0.82293085250E+03  0.82293085251E+03  0.50400001928E-02 0. -1.
    10030    2    1    2    0    0  0.00000000000E+00  0.00000000000E+00  0.13909029355E+04  0.30367646405E+04  0.26995052335E+04 0.  0.
        2    1    3    3  502    0  0.49768726946E+03 -0.59838911444E+03  0.19359785309E+04  0.20865701576E+04  0.25500000920E-02 0.  1.
       -2    1    3    3    0  502 -0.49768726946E+03  0.59838911444E+03 -0.54507559547E+03  0.95019448285E+03  0.25500000920E-02 0. -1.
</event>
<event>
 5   0  0.3013407E-06  0.2701014E+04  0.7818609E-02  0.8334676E-01
        1   -1    0    0  501    0  0.00000000000E+00  0.00000000000E+00  0.22059111101E+04  0.22059111101E+04  0.50400001928E-02 0.  1.
       -1   -1    0    0    0  501  0.00000000000E+00  0.00000000000E+00 -0.82680993526E+03  0.82680993527E+03  0.50400001928E-02 0. -1.
    10030    2    1    2    0    0  0.00000000000E+00  0.00000000000E+00  0.13791011749E+04  0.30327210454E+04  0.27010140482E+04 0.  0.
        4    1    3    3  502    0  0.59699158899E+03 -0.42573717369E+03  0.19629441855E+04  0.20954242021E+04  0.12699999809E+01 0.  1.
       -4    1    3    3    0  502 -0.59699158899E+03  0.42573717369E+03 -0.58384301068E+03  0.93729684328E+03  0.12699999809E+01 0. -1.
</event>
<event>
 5   0  0.3028601E-06  0.2689971E+04  0.7818609E-02  0.8338266E-01
        1   -1    0    0  501    0  0.00000000000E+00  0.00000000000E+00  0.10993364571E+04  0.10993364572E+04  0.50400001928E-02 0.  1.
       -1   -1    0    0    0  501  0.00000000000E+00  0.00000000000E+00 -0.16455248512E+04  0.16455248513E+04  0.50400001928E-02 0. -1.
    10030    2    1    2    0    0  0.00000000000E+00  0.00000000000E+00 -0.54618839410E+03  0.27448613084E+04  0.26899706022E+04 0.  0.
        3    1    3    3  502    0  0.89215543429E+03  0.52444700209E+03 -0.11496930490E+04  0.15468613687E+04  0.10100000352E+00 0. -1.
       -3    1    3    3    0  502 -0.89215543429E+03 -0.52444700209E+03  0.60350465486E+03  0.11979999397E+04  0.10100000352E+00 0.  1.
</event>
<event>
 5   0  0.7812908E-06  0.2694038E+04  0.7818609E-02  0.8336942E-01
       -2   -1    0    0    0  501  0.00000000000E+00  0.00000000000E+00  0.12122523000E+04  0.12122523000E+04  0.25500000920E-02 0. -1.
        2   -1    0    0  501    0  0.00000000000E+00  0.00000000000E+00 -0.14967674389E+04  0.14967674389E+04  0.25500000920E-02 0.  1.
    10030    2    1    2    0    0  0.00000000000E+00  0.00000000000E+00 -0.28451513888E+03  0.27090197388E+04  0.26940376911E+04 0.  0.
        5    1    3    3  502    0  0.42410944073E+03  0.12739334894E+04 -0.33664748909E+02  0.13431048948E+04  0.46999998093E+01 0. -1.
       -5    1    3    3    0  502 -0.42410944073E+03 -0.12739334894E+04 -0.25085038997E+03  0.13659148441E+04  0.46999998093E+01 0.  1.
</event>
<event>
 5   0  0.3013407E-06  0.2696911E+04  0.7818609E-02  0.8336008E-01
       -1   -1    0    0    0  501  0.00000000000E+00  0.00000000000E+00  0.15807327661E+04  0.15807327661E+04  0.50400001928E-02 0. -1.
        1   -1    0    0  501    0  0.00000000000E+00  0.00000000000E+00 -0.11503095586E+04  0.11503095586E+04  0.50400001928E-02 0.  1.
    10030    2    1    2    0    0  0.00000000000E+00  0.00000000000E+00  0.43042320753E+03  0.27310423248E+04  0.26969108332E+04 0.  0.
        4    1    3    3  502    0 -0.11035784742E+04 -0.66436898582E+03 -0.18865755807E+03  0.13018697651E+04  0.12699999809E+01 0.  1.
       -4    1    3    3    0  502  0.11035784742E+04  0.66436898582E+03  0.61908076560E+03  0.14291725597E+04  0.12699999809E+01 0. -1.
</event>
<event>
 5   0  0.7812908E-06  0.2689103E+04  0.7818609E-02  0.8338549E-01
       -2   -1    0    0    0  501  0.00000000000E+00  0.00000000000E+00  0.91990085382E+03  0.91990085382E+03  0.25500000920E-02 0. -1.
        2   -1    0    0  501    0  0.00000000000E+00  0.00000000000E+00 -0.19652315056E+04  0.19652315056E+04  0.25500000920E-02 0.  1.
    10030    2    1    2    0    0  0.00000000000E+00  0.00000000000E+00 -0.10453306518E+04  0.28851323594E+04  0.26891025566E+04 0.  0.
        5    1    3    3  502    0  0.35846185094E+03  0.12798512763E+04 -0.74065605028E+03  0.15215477853E+04  0.46999998093E+01 0.  1.
       -5    1    3    3    0  502 -0.35846185094E+03 -0.12798512763E+04 -0.30467460150E+03  0.13635845741E+04  0.46999998093E+01 0. -1.
</event>
<event>
 5   0  0.3013407E-06  0.2703422E+04  0.7818609E-02  0.8333895E-01
       -1   -1    0    0    0  501  0.00000000000E+00  0.00000000000E+00  0.18495877894E+04  0.18495877894E+04  0.50400001928E-02 0.  1.
        1   -1    0    0  501    0  0.00000000000E+00  0.00000000000E+00 -0.98785426335E+03  0.98785426336E+03  0.50400001928E-02 0. -1.
    10030    2    1    2    0    0  0.00000000000E+00  0.00000000000E+00  0.86173352605E+03  0.28374420528E+04  0.27034224111E+04 0.  0.
        4    1    3    3  502    0 -0.19588589810E+03  0.47010901899E+03 -0.88330215299E+03  0.10196068268E+04  0.12699999809E+01 0. -1.
       -4    1    3    3    0  502  0.19588589810E+03 -0.47010901899E+03  0.17450356790E+04  0.18178352260E+04  0.12699999809E+01 0.  1.
</event>
<event>
 5   0  0.3089218E-06  0.2704561E+04  0.7818609E-02  0.8333527E-01
        1   -1    0    0  501    0  0.00000000000E+00  0.00000000000E+00  0.16721987268E+04  0.16721987268E+04  0.50400001928E-02 0.  1.
       -1   -1    0    0    0  501  0.00000000000E+00  0.00000000000E+00 -0.10935678750E+04  0.10935678750E+04  0.50400001928E-02 0. -1.
    10030    2    1    2    0    0  0.00000000000E+00  0.00000000000E+00  0.57863085182E+03  0.27657666019E+04  0.27045611905E+04 0.  0.
        5    1    3    3  502    0  0.24773247100E+03  0.51589117531E+02  0.16477628240E+04  0.16670864490E+04  0.46999998093E+01 0.  1.
       -5    1    3    3    0  502 -0.24773247100E+03 -0.51589117531E+02 -0.10691319722E+04  0.10986801528E+04  0.46999998093E+01 0. -1.
</event>
<event>
 5   0  0.3028601E-06  0.2690666E+04  0.7818609E-02  0.8338040E-01
        1   -1    0    0  501    0  0.00000000000E+00  0.00000000000E+00  0.11291945338E+04  0.11291945338E+04  0.50400001928E-02 0.  1.
       -1   -1    0    0    0  501  0.00000000000E+00  0.00000000000E+00 -0.16028421485E+04  0.16028421485E+04  0.50400001928E-02 0. -1.
    10030    2    1    2    0    0  0.00000000000E+00  0.00000000000E+00 -0.47364761470E+03  0.27320366823E+04  0.26906657858E+04 0.  0.
        3    1    3    3  502    0  0.14834418431E+03  0.11740666257E+04 -0.88657076422E+03  0.14786636429E+04  0.10100000352E+00 0.  1.
       -3    1    3    3    0  502 -0.14834418431E+03 -0.11740666257E+04  0.41292314952E+03  0.12533730395E+04  0.10100000352E+00 0. -1.
</event>
<event>
 5   0  0.3028601E-06  0.2683887E+04  0.7818609E-02  0.8340252E-01
        1   -1    0    0  501    0  0.00000000000E+00  0.00000000000E+00  0.14405211284E+04  0.14405211284E+04  0.50400001928E-02 0.  1.
       -1   -1    0    0    0  501  0.00000000000E+00  0.00000000000E+00 -0.12501119817E+04  0.12501119817E+04  0.50400001928E-02 0. -1.
    10030    2    1    2    0    0  0.00000000000E+00  0.00000000000E+00  0.19040914667E+03  0.26906331101E+04  0.26838872722E+04 0.  0.
        3    1    3    3  502    0 -0.49394870808E+03  0.34176277356E+03  0.12982314133E+04  0.14304516532E+04  0.10100000352E+00 0.  1.
       -3    1    3    3    0  502  0.49394870808E+03 -0.34176277356E+03 -0.11078222666E+04  0.12601814568E+04  0.10100000352E+00 0. -1.
</event>
<event>
 5   0  0.7729970E-06  0.2678647E+04  0.7818609E-02  0.8341967E-01
       -2   -1    0    0    0  501  0.00000000000E+00  0.00000000000E+00  0.77778466688E+03  0.77778466688E+03  0.25500000920E-02 0.  1.
        2   -1    0    0  501    0  0.00000000000E+00  0.00000000000E+00 -0.23062771893E+04  0.23062771893E+04  0.25500000920E-02 0. -1.
    10030    2    1    2    0    0  0.00000000000E+00  0.00000000000E+00 -0.15284925224E+04  0.30840618562E+04  0.26786466997E+04 0.  0.
        4    1    3    3  502    0 -0.65331047471E+03 -0.61317292803E+03 -0.19103983166E+04  0.21100755808E+04  0.12699999809E+01 0. -1.
       -4    1    3    3    0  502  0.65331047471E+03  0.61317292803E+03  0.38190579415E+03  0.97398627533E+03  0.12699999809E+01 0.  1.
</event>
<event>
 5   0  0.7838364E-06  0.2711174E+04  0.7818609E-02  0.8331389E-01
        2   -1    0    0  501    0  0.00000000000E+00  0.00000000000E+00  0.13296693395E+04  0.13296693395E+04  0.25500000920E-02 0.  1.
       -2   -1    0    0    0  501  0.00000000000E+00  0.00000000000E+00 -0.13820093462E+04  0.13820093462E+04  0.25500000920E-02 0. -1.
    10030    2    1    2    0    0  0.00000000000E+00  0.00000000000E+00 -0.52340006744E+02  0.27116786857E+04  0.27111735131E+04 0.  0.
        2    1    3    3  502    0  0.40086844885E+02  0.13035078951E+04 -0.39620605512E+03  0.13629816675E+04  0.25500000920E-02 0. -1.
       -2    1    3    3    0  502 -0.40086844885E+02 -0.13035078951E+04  0.34386604838E+03  0.13486970182E+04  0.25500000920E-02 0.  1.
</event>
<event>
 5   0  0.3028601E-06  0.2718412E+04  0.7818609E-02  0.8329055E-01
        1   -1    0    0  501    0  0.00000000000E+00  0.00000000000E+00  0.22947019358E+04  0.22947019358E+04  0.50400001928E-02 0.  1.
       -1   -1    0    0    0  501  0.00000000000E+00  0.00000000000E+00 -0.80508995578E+03  0.80508995580E+03  0.50400001928E-02 0. -1.
    10030    2    1    2    0    0  0.00000000000E+00  0.00000000000E+00  0.14896119800E+04  0.30997918916E+04  0.27184123897E+04 0.  0.
        3    1    3    3  502    0  0.10939461569E+04  0.43107271433E+03  0.15222995114E+04  0.19235222098E+04  0.10100000352E+00 0.  1.
       -3    1    3    3    0  502 -0.10939461569E+04 -0.43107271433E+03 -0.32687531347E+02  0.11762696818E+04  0.10100000352E+00 0. -1.
</event>
<event>
 5   0  0.8213334E-06  0.2731659E+04  0.7818609E-02  0.8324805E-01
       -2   -1    0    0    0  501  0.00000000000E+00  0.00000000000E+00  0.16668584940E+04  0.16668584940E+04  0.25500000920E-02 0.  1.
        2   -1    0    0  501    0  0.00000000000E+00  0.00000000000E+00 -0.11191656555E+04  0.11191656555E+04  0.25500000920E-02 0. -1.
    10030    2    1    2    0    0  0.00000000000E+00  0.00000000000E+00  0.54769283848E+03  0.27860241496E+04  0.27316594072E+04 0.  0.
        3    1    3    3  502    0 -0.12583760697E+04 -0.34062310415E+03  0.68933132220E+03  0.14746905146E+04  0.10100000352E+00 0.  1.
       -3    1    3    3    0  502  0.12583760697E+04  0.34062310415E+03 -0.14163848372E+03  0.13113336350E+04  0.10100000352E+00 0. -1.
</event>
<event>
 5   0  0.3199840E-06  0.2588292E+04  0.7818609E-02  0.8372189E-01
        1   -1    0    0  501    0  0.00000000000E+00  0.00000000000E+00  0.15550025499E+04  0.15550025499E+04  0.50400001928E-02 0.  1.
       -1   -1    0    0    0  501  0.00000000000E+00  0.00000000000E+00 -0.10770486839E+04  0.10770486839E+04  0.50400001928E-02 0. -1.
    10030    2    1    2    0    0  0.00000000000E+00  0.00000000000E+00  0.47795386604E+03  0.26320512338E+04  0.25882916759E+04 0.  0.
        1    1    3    3  502    0 -0.39709305557E+03 -0.21048372429E+03  0.14730958654E+04  0.15401291250E+04  0.50400001928E-02 0.  1.
       -1    1    3    3    0  502  0.39709305557E+03  0.21048372429E+03 -0.99514199932E+03  0.10919221089E+04  0.50400001928E-02 0. -1.
</event>
<event>
 5   0  0.3013407E-06  0.2688170E+04  0.7818609E-02  0.8338854E-01
        1   -1    0    0  501    0  0.00000000000E+00  0.00000000000E+00  0.17249707562E+04  0.17249707562E+04  0.50400001928E-02 0.  1.
       -1   -1    0    0    0  501  0.00000000000E+00  0.00000000000E+00 -0.10473015890E+04  0.10473015891E+04  0.50400001928E-02 0. -1.
    10030    2    1    2    0    0  0.00000000000E+00  0.00000000000E+00  0.67766916717E+03  0.27722723453E+04  0.26881700944E+04 0.  0.
        4    1    3    3  502    0 -0.35340542110E+03 -0.49258275144E+03  0.15759609062E+04  0.16885459868E+04  0.12699999809E+01 0.  1.
       -4    1    3    3    0  502  0.35340542110E+03  0.49258275144E+03 -0.89829173906E+03  0.10837263585E+04  0.12699999809E+01 0. -1.
</event>
<event>
 5   0  0.3089218E-06  0.2564892E+04  0.7818609E-02  0.8380225E-01
       -1   -1    0    0    0  501  0.00000000000E+00  0.00000000000E+00  0.86340475151E+03  0.86340475153E+03  0.50400001928E-02 0.  1.
        1   -1    0    0  501    0  0.00000000000E+00  0.00000000000E+00 -0.19048633354E+04  0.19048633354E+04  0.50400001928E-02 0. -1.
    10030    2    1    2    0    0  0.00000000000E+00  0.00000000000E+00 -0.10414585839E+04  0.27682680870E+04  0.25648922432E+04 0.  0.
        5    1    3    3  502    0 -0.84603226068E+03 -0.70839263615E+03 -0.12260409389E+04  0.16494814903E+04  0.46999998093E+01 0. -1.
       -5    1    3    3    0  502  0.84603226068E+03  0.70839263615E+03  0.18458235498E+03  0.11187865966E+04  0.46999998093E+01 0.  1.
</event>
<event>
 5   0  0.8213334E-06  0.2716294E+04  0.7818609E-02  0.8329737E-01
       -2   -1    0    0    0  501  0.00000000000E+00  0.00000000000E+00  0.86307008068E+03  0.86307008068E+03  0.25500000920E-02 0. -1.
        2   -1    0    0  501    0  0.00000000000E+00  0.00000000000E+00 -0.21372115392E+04  0.21372115393E+04  0.25500000920E-02 0.  1.
    10030    2    1    2    0    0  0.00000000000E+00  0.00000000000E+00 -0.12741414586E+04  0.30002816199E+04  0.27162940456E+04 0.  0.
        3    1    3    3  502    0 -0.47499558730E+03 -0.17370203209E+03  0.75517460701E+03  0.90889047810E+03  0.10100000352E+00 0. -1.
       -3    1    3    3    0  502  0.47499558730E+03  0.17370203209E+03 -0.20293160656E+04  0.20913911418E+04  0.10100000352E+00 0.  1.
</event>
<event>
 5   0  0.3199840E-06  0.2703916E+04  0.7818609E-02  0.8333735E-01
        1   -1    0    0  501    0  0.00000000000E+00  0.00000000000E+00  0.12979446045E+04  0.12979446045E+04  0.50400001928E-02 0. -1.
       -1   -1    0    0    0  501  0.00000000000E+00  0.00000000000E+00 -0.14082193044E+04  0.14082193044E+04  0.50400001928E-02 0.  1.
    10030    2    1    2    0    0  0.00000000000E+00  0.00000000000E+00 -0.11027469995E+03  0.27061639089E+04  0.27039161586E+04 0.  0.
        1    1    3    3  502    0  0.10371092223E+04  0.62439640786E+03 -0.65757148050E+03  0.13776308160E+04  0.50400001928E-02 0.  1.
       -1    1    3    3    0  502 -0.10371092223E+04 -0.62439640786E+03  0.54729678055E+03  0.13285330930E+04  0.50400001928E-02 0. -1.
</event>
<event>
 5   0  0.8407622E-06  0.2668980E+04  0.7818609E-02  0.8345140E-01
        2   -1    0    0  501    0  0.00000000000E+00  0.00000000000E+00  0.78320596016E+03  0.78320596017E+03  0.25500000920E-02 0. -1.
       -2   -1    0    0    0  501  0.00000000000E+00  0.00000000000E+00 -0.22738133731E+04  0.22738133731E+04  0.25500000920E-02 0.  1.
    10030    2    1    2    0    0  0.00000000000E+00  0.00000000000E+00 -0.14906074129E+04  0.30570193333E+04  0.26689804691E+04 0.  0.
        1    1    3    3  502    0 -0.59125381910E+02 -0.72606131221E+03 -0.20259910513E+04  0.21529748210E+04  0.50400001928E-02 0.  1.
       -1    1    3    3    0  502  0.59125381910E+02  0.72606131221E+03  0.53538363838E+03  0.90404451226E+03  0.50400001928E-02 0. -1.
</event>
<event>
 5   0  0.3013407E-06  0.2705207E+04  0.7818609E-02  0.8333318E-01
       -1   -1    0    0    0  501  0.00000000000E+00  0.00000000000E+00  0.88396851552E+03  0.88396851553E+03  0.50400001928E-02 0.  1.
        1   -1    0    0  501    0  0.00000000000E+00  0.00000000000E+00 -0.20696844628E+04  0.20696844628E+04  0.50400001928E-02 0. -1.
    10030    2    1    2    0    0  0.00000000000E+00  0.00000000000E+00 -0.11857159472E+04  0.29536529783E+04  0.27052067590E+04 0.  0.
        4    1    3    3  502    0 -0.23268686800E+03 -0.48835434509E+03  0.76071592861E+03  0.93344709644E+03  0.12699999809E+01 0.  1.
       -4    1    3    3    0  502  0.23268686800E+03  0.48835434509E+03 -0.19464318759E+04  0.20202058819E+04  0.12699999809E+01 0. -1.
</event>
<event>
 5   0  0.3089218E-06  0.2709185E+04  0.7818609E-02  0.8332031E-01
       -1   -1    0    0    0  501  0.00000000000E+00  0.00000000000E+00  0.11758326976E+04  0.11758326976E+04  0.50400001928E-02 0.  1.
        1   -1    0    0  501    0  0.00000000000E+00  0.00000000000E+00 -0.15605288448E+04  0.15605288448E+04  0.50400001928E-02 0. -1.
    10030    2    1    2    0    0  0.00000000000E+00  0.00000000000E+00 -0.38469614712E+03  0.27363615424E+04  0.27091850002E+04 0.  0.
        5    1    3    3  502    0 -0.61538751058E+03 -0.44982061360E+03 -0.13233388389E+04  0.15271830752E+04  0.46999998093E+01 0. -1.
       -5    1    3    3    0  502  0.61538751058E+03  0.44982061360E+03  0.93864269181E+03  0.12091784672E+04  0.46999998093E+01 0.  1.
</event>
<event>
 5   0  0.3046300E-06  0.2691239E+04  0.7818609E-02  0.8337853E-01
        1   -1    0    0  501    0  0.00000000000E+00  0.00000000000E+00  0.12027535280E+04  0.12027535280E+04  0.50400001928E-02 0. -1.
       -1   -1    0    0    0  501  0.00000000000E+00  0.00000000000E+00 -0.15054555012E+04  0.15054555012E+04  0.50400001928E-02 0.  1.
    10030    2    1    2    0    0  0.00000000000E+00  0.00000000000E+00 -0.30270197326E+03  0.27082090292E+04  0.26912390569E+04 0.  0.
        2    1    3    3  502    0  0.38118138838E+03  0.12697459098E+04  0.80619354961E+02  0.13281767227E+04  0.25500000920E-02 0. -1.
       -2    1    3    3    0  502 -0.38118138838E+03 -0.12697459098E+04 -0.38332132822E+03  0.13800323065E+04  0.25500000920E-02 0.  1.
</event>
<event>
 5   0  0.3013407E-06  0.2684327E+04  0.7818609E-02  0.8340108E-01
        1   -1    0    0  501    0  0.00000000000E+00  0.00000000000E+00  0.18477279006E+04  0.18477279006E+04  0.50400001928E-02 0. -1.
       -1   -1    0    0    0  501  0.00000000000E+00  0.00000000000E+00 -0.97492834222E+03  0.97492834223E+03  0.50400001928E-02 0.  1.
    10030    2    1    2    0    0  0.00000000000E+00  0.00000000000E+00  0.87279955839E+03  0.28226562428E+04  0.26843265815E+04 0.  0.
        4    1    3    3  502    0  0.65161574899E+03 -0.69112162160E+03  0.14334989436E+04  0.17196432812E+04  0.12699999809E+01 0. -1.
       -4    1    3    3    0  502 -0.65161574899E+03  0.69112162160E+03 -0.56069938523E+03  0.11030129617E+04  0.12699999809E+01 0.  1.
</event>
<event>
 5   0  0.3089218E-06  0.2699752E+04  0.7818609E-02  0.8335085E-01
       -1   -1    0    0    0  501  0.00000000000E+00  0.00000000000E+00  0.12136144747E+04  0.12136144747E+04  0.50400001928E-02 0.  1.
        1   -1    0    0  501    0  0.00000000000E+00  0.00000000000E+00 -0.15014366044E+04  0.15014366044E+04  0.50400001928E-02 0. -1.
    10030    2    1    2    0    0  0.00000000000E+00  0.00000000000E+00 -0.28782212966E+03  0.27150510791E+04  0.26997519856E+04 0.  0.
        5    1    3    3  502    0 -0.10044413235E+04 -0.31069429497E+03  0.70747356052E+03  0.12672703919E+04  0.46999998093E+01 0.  1.
       -5    1    3    3    0  502  0.10044413235E+04  0.31069429497E+03 -0.99529569018E+03  0.14477806872E+04  0.46999998093E+01 0. -1.
</event>
<event>
 5   0  0.7838364E-06  0.2700790E+04  0.7818609E-02  0.8334749E-01
        2   -1    0    0  501    0  0.00000000000E+00  0.00000000000E+00  0.18535613402E+04  0.18535613402E+04  0.25500000920E-02 0.  1.
       -2   -1    0    0    0  501  0.00000000000E+00  0.00000000000E+00 -0.98381781312E+03  0.98381781312E+03  0.25500000920E-02 0. -1.
    10030    2    1    2    0    0  0.00000000000E+00  0.00000000000E+00  0.86974352707E+03  0.28373791533E+04  0.27007900060E+04 0.  0.
        2    1    3    3  502    0 -0.13413881413E+04 -0.33221964501E+02  0.59468616901E+03  0.14676775818E+04  0.25500000920E-02 0.  1.
       -2    1    3    3    0  502  0.13413881413E+04  0.33221964501E+02  0.27505735807E+03  0.13697015715E+04  0.25500000920E-02 0. -1.
</event>
<event>
 5   0  0.3199840E-06  0.2696226E+04  0.7818609E-02  0.8336230E-01
        1   -1    0    0  501    0  0.00000000000E+00  0.00000000000E+00  0.14438003304E+04  0.14438003304E+04  0.50400001928E-02 0.  1.
       -1   -1    0    0    0  501  0.00000000000E+00  0.00000000000E+00 -0.12587674261E+04  0.12587674261E+04  0.50400001928E-02 0. -1.
    10030    2    1    2    0    0  0.00000000000E+00  0.00000000000E+00  0.18503290433E+03  0.27025677565E+04  0.26962261224E+04 0.  0.
        1    1    3    3  502    0 -0.16153749007E+03  0.57477387945E+02 -0.12477938311E+04  0.12595187398E+04  0.50400001928E-02 0. -1.
       -1    1    3    3    0  502  0.16153749007E+03 -0.57477387945E+02  0.14328267355E+04  0.14430490167E+04  0.50400001928E-02 0.  1.
</event>
<event>
 5   0  0.3199840E-06  0.2704324E+04  0.7818609E-02  0.8333603E-01
       -1   -1    0    0    0  501  0.00000000000E+00  0.00000000000E+00  0.73107371806E+03  0.73107371808E+03  0.50400001928E-02 0.  1.
        1   -1    0    0  501    0  0.00000000000E+00  0.00000000000E+00 -0.25008989537E+04  0.25008989537E+04  0.50400001928E-02 0. -1.
    10030    2    1    2    0    0  0.00000000000E+00  0.00000000000E+00 -0.17698252356E+04  0.32319726717E+04  0.27043235728E+04 0.  0.
        1    1    3    3  502    0 -0.10420706079E+04  0.10427623676E+03 -0.19071059770E+04  0.21757384707E+04  0.50400001928E-02 0. -1.
       -1    1    3    3    0  502  0.10420706079E+04 -0.10427623676E+03  0.13728074145E+03  0.10562342010E+04  0.50400001928E-02 0.  1.
</event>
<event>
 5   0  0.3199840E-06  0.2666445E+04  0.7818609E-02  0.8345975E-01
        1   -1    0    0  501    0  0.00000000000E+00  0.00000000000E+00  0.19035681300E+04  0.19035681300E+04  0.50400001928E-02 0. -1.
       -1   -1    0    0    0  501  0.00000000000E+00  0.00000000000E+00 -0.93376344421E+03  0.93376344423E+03  0.50400001928E-02 0.  1.
    10030    2    1    2    0    0  0.00000000000E+00  0.00000000000E+00  0.96980468575E+03  0.28373315742E+04  0.26664450741E+04 0.  0.
        1    1    3    3  502    0  0.62547564714E+03 -0.10308627945E+04 -0.12039848580E+03  0.12117729497E+04  0.50400001928E-02 0.  1.
       -1    1    3    3    0  502 -0.62547564714E+03  0.10308627945E+04  0.10902031715E+04  0.16255586245E+04  0.50400001928E-02 0. -1.
</event>
<event>
 5   0  0.7729970E-06  0.2664193E+04  0.7818609E-02  0.8346718E-01
       -2   -1    0    0    0  501  0.00000000000E+00  0.00000000000E+00  0.22563357526E+04  0.22563357526E+04  0.25500000920E-02 0. -1.
        2   -1    0    0  501    0  0.00000000000E+00  0.00000000000E+00 -0.78644343936E+03  0.78644343936E+03  0.25500000920E-02 0.  1.
    10030    2    1    2    0    0  0.00000000000E+00  0.00000000000E+00  0.14698923132E+04  0.30427791919E+04  0.26641925228E+04 0.  0.
        4    1    3    3  502    0  0.95250715422E+03 -0.20578944438E+03 -0.30233112387E+03  0.10203062754E+04  0.12699999809E+01 0.  1.
       -4    1    3    3    0  502 -0.95250715422E+03  0.20578944438E+03  0.17722234371E+04  0.20224729165E+04  0.12699999809E+01 0. -1.
</event>
<event>
 5   0  0.3028601E-06  0.2710554E+04  0.7818609E-02  0.8331589E-01
        1   -1    0    0  501    0  0.00000000000E+00  0.00000000000E+00  0.82823890169E+03  0.82823890170E+03  0.50400001928E-02 0. -1.
       -1   -1    0    0    0  501  0.00000000000E+00  0.00000000000E+00 -0.22176879663E+04  0.22176879663E+04  0.50400001928E-02 0.  1.
    10030    2    1    2    0    0  0.00000000000E+00  0.00000000000E+00 -0.13894490647E+04  0.30459268681E+04  0.27105537778E+04 0.  0.
        3    1    3    3  502    0  0.73287645606E+03  0.60684810235E+03 -0.17792262403E+04  0.20176765211E+04  0.10100000352E+00 0.  1.
       -3    1    3    3    0  502 -0.73287645606E+03 -0.60684810235E+03  0.38977717569E+03  0.10282503470E+04  0.10100000352E+00 0. -1.
</event>
<event>
 5   0  0.7729970E-06  0.2693205E+04  0.7818609E-02  0.8337213E-01
       -2   -1    0    0    0  501  0.00000000000E+00  0.00000000000E+00  0.12781602036E+04  0.12781602036E+04  0.25500000920E-02 0.  1.
        2   -1    0    0  501    0  0.00000000000E+00  0.00000000000E+00 -0.14187093092E+04  0.14187093092E+04  0.25500000920E-02 0. -1.
    10030    2    1    2    0    0  0.00000000000E+00  0.00000000000E+00 -0.14054910554E+03  0.26968695128E+04  0.26932046186E+04 0.  0.
        4    1    3    3  502    0  0.72375595856E+03 -0.19277755796E+02  0.10666743224E+04  0.12891819276E+04  0.12699999809E+01 0.  1.
       -4    1    3    3    0  502 -0.72375595856E+03  0.19277755796E+02 -0.12072234280E+04  0.14076875852E+04  0.12699999809E+01 0. -1.
</event>
<event>
 5   0  0.8213334E-06  0.2672691E+04  0.7818609E-02  0.8343921E-01
        2   -1    0    0  501    0  0.00000000000E+00  0.00000000000E+00  0.13648985088E+04  0.13648985088E+04  0.25500000920E-02 0.  1.
       -2   -1    0    0    0  501  0.00000000000E+00  0.00000000000E+00 -0.13083894730E+04  0.13083894730E+04  0.25500000920E-02 0. -1.
    10030    2    1    2    0    0  0.00000000000E+00  0.00000000000E+00  0.56509035787E+02  0.26732879819E+04  0.26726906598E+04 0.  0.
        3    1    3    3  502    0 -0.66623779776E+03  0.62384786798E+03  0.10045668546E+04  0.13572816735E+04  0.10100000352E+00 0.  1.
       -3    1    3    3    0  502  0.66623779776E+03 -0.62384786798E+03 -0.94805781886E+03  0.13160063084E+04  0.10100000352E+00 0. -1.
</event>
<event>
 5   0  0.8407622E-06  0.2714542E+04  0.7818609E-02  0.8330302E-01
       -2   -1    0    0    0  501  0.00000000000E+00  0.00000000000E+00  0.12564237266E+04  0.12564237267E+04  0.25500000920E-02 0. -1.
        2   -1    0    0  501    0  0.00000000000E+00  0.00000000000E+00 -0.14662133180E+04  0.14662133180E+04  0.25500000920E-02 0.  1.
    10030    2    1    2    0    0  0.00000000000E+00  0.00000000000E+00 -0.20978959133E+03  0.27226370446E+04  0.27145424668E+04 0.  0.
        1    1    3    3  502    0 -0.48918337891E+03  0.33448603903E+03 -0.13296026430E+04  0.14556869433E+04  0.50400001928E-02 0.  1.
       -1    1    3    3    0  502  0.48918337891E+03 -0.33448603903E+03  0.11198130517E+04  0.12669501013E+04  0.50400001928E-02 0. -1.
</event>
<event>
 5   0  0.7729970E-06  0.2717014E+04  0.7818609E-02  0.8329505E-01
        2   -1    0    0  501    0  0.00000000000E+00  0.00000000000E+00  0.14543003573E+04  0.14543003573E+04  0.25500000920E-02 0. -1.
       -2   -1    0    0    0  501  0.00000000000E+00  0.00000000000E+00 -0.12690236813E+04  0.12690236813E+04  0.25500000920E-02 0.  1.
    10030    2    1    2    0    0  0.00000000000E+00  0.00000000000E+00  0.18527667601E+03  0.27233240386E+04  0.27170142386E+04 0.  0.
        4    1    3    3  502    0  0.10945135906E+04 -0.71908798345E+03 -0.26943796442E+03  0.13370287796E+04  0.12699999809E+01 0.  1.
       -4    1    3    3    0  502 -0.10945135906E+04  0.71908798345E+03  0.45471464044E+03  0.13862952590E+04  0.12699999809E+01 0. -1.
</event>
<event>
 5   0  0.3028601E-06  0.2675051E+04  0.7818609E-02  0.8343146E-01
        1   -1    0    0  501    0  0.00000000000E+00  0.00000000000E+00  0.22161968414E+04  0.22161968414E+04  0.50400001928E-02 0.  1.
       -1   -1    0    0    0  501  0.00000000000E+00  0.00000000000E+00 -0.80722695850E+03  0.80722695852E+03  0.50400001928E-02 0. -1.
    10030    2    1    2    0    0  0.00000000000E+00  0.00000000000E+00  0.14089698829E+04  0.30234238000E+04  0.26750505310E+04 0.  0.
        3    1    3    3  502    0 -0.13029106077E+04 -0.91982861167E+01  0.10460187780E+04  0.16708728121E+04  0.10100000352E+00 0.  1.
       -3    1    3    3    0  502  0.13029106077E+04  0.91982861167E+01  0.36295110492E+03  0.13525509879E+04  0.10100000352E+00 0. -1.
</event>
<event>
 5   0  0.8213334E-06  0.2700459E+04  0.7818609E-02  0.8334856E-01
        2   -1    0    0  501    0  0.00000000000E+00  0.00000000000E+00  0.15776963074E+04  0.15776963074E+04  0.25500000920E-02 0. -1.
       -2   -1    0    0    0  501  0.00000000000E+00  0.00000000000E+00 -0.11555577811E+04  0.11555577811E+04  0.25500000920E-02 0.  1.
    10030    2    1    2    0    0  0.00000000000E+00  0.00000000000E+00  0.42213852626E+03  0.27332540885E+04  0.27004586605E+04 0.  0.
        3    1    3    3  502    0 -0.10428438601E+04  0.22416574429E+03 -0.62684059336E+03  0.12372157197E+04  0.10100000352E+00 0.  1.
       -3    1    3    3    0  502  0.10428438601E+04 -0.22416574429E+03  0.10489791196E+04  0.14960383688E+04  0.10100000352E+00 0. -1.
</event>
<event>
 5   0  0.3028601E-06  0.2732113E+04  0.7818609E-02  0.8324660E-01
       -1   -1    0    0    0  501  0.00000000000E+00  0.00000000000E+00  0.10928573539E+04  0.10928573539E+04  0.50400001928E-02 0.  1.
        1   -1    0    0  501    0  0.00000000000E+00  0.00000000000E+00 -0.17075515816E+04  0.17075515816E+04  0.50400001928E-02 0. -1.
    10030    2    1    2    0    0  0.00000000000E+00  0.00000000000E+00 -0.61469422766E+03  0.28004089355E+04  0.27321129575E+04 0.  0.
        3    1    3    3  502    0 -0.40269224839E+03  0.47359502057E+03  0.93947165312E+03  0.11265257599E+04  0.10100000352E+00 0.  1.
       -3    1    3    3    0  502  0.40269224839E+03 -0.47359502057E+03 -0.15541658808E+04  0.16738831756E+04  0.10100000352E+00 0. -1.
</event>
<event>
 5   0  0.7729970E-06  0.2699152E+04  0.7818609E-02  0.8335280E-01
       -2   -1    0    0    0  501  0.00000000000E+00  0.00000000000E+00  0.79019738043E+03  0.79019738044E+03  0.25500000920E-02 0. -1.
        2   -1    0    0  501    0  0.00000000000E+00  0.00000000000E+00 -0.23049367303E+04  0.23049367303E+04  0.25500000920E-02 0.  1.
    10030    2    1    2    0    0  0.00000000000E+00  0.00000000000E+00 -0.15147393498E+04  0.30951341107E+04  0.26991516937E+04 0.  0.
        4    1    3    3  502    0 -0.89179472997E+02  0.38030219850E+03 -0.22386951795E+04  0.22725185281E+04  0.12699999809E+01 0.  1.
       -4    1    3    3    0  502  0.89179472997E+02 -0.38030219850E+03  0.72395582969E+03  0.82261558266E+03  0.12699999809E+01 0. -1.
</event>
<event>
 5   0  0.7838364E-06  0.2695068E+04  0.7818609E-02  0.8336607E-01
       -2   -1    0    0    0  501  0.00000000000E+00  0.00000000000E+00  0.89187749009E+03  0.89187749009E+03  0.25500000920E-02 0. -1.
        2   -1    0    0  501    0  0.00000000000E+00  0.00000000000E+00 -0.20359831134E+04  0.20359831134E+04  0.25500000920E-02 0.  1.
    10030    2    1    2    0    0  0.00000000000E+00  0.00000000000E+00 -0.11441056233E+04  0.29278606035E+04  0.26950677239E+04 0.  0.
        2    1    3    3  502    0 -0.97235463592E+03  0.20902115817E+03 -0.15598107128E+04  0.18499115769E+04  0.25500000920E-02 0. -1.
       -2    1    3    3    0  502  0.97235463592E+03 -0.20902115817E+03  0.41570508946E+03  0.10779490266E+04  0.25500000920E-02 0.  1.
</event>
<event>
 5   0  0.8407622E-06  0.2682122E+04  0.7818609E-02  0.8340829E-01
        2   -1    0    0  501    0  0.00000000000E+00  0.00000000000E+00  0.17773693341E+04  0.17773693341E+04  0.25500000920E-02 0. -1.
       -2   -1    0    0    0  501  0.00000000000E+00  0.00000000000E+00 -0.10118577555E+04  0.10118577555E+04  0.25500000920E-02 0.  1.
    10030    2    1    2    0    0  0.00000000000E+00  0.00000000000E+00  0.76551157859E+03  0.27892270896E+04  0.26821222531E+04 0.  0.
        1    1    3    3  502    0 -0.39377887211E+03  0.10409673670E+03 -0.94597853383E+03  0.10299385017E+04  0.50400001928E-02 0.  1.
       -1    1    3    3    0  502  0.39377887211E+03 -0.10409673670E+03  0.17114901124E+04  0.17592885879E+04  0.50400001928E-02 0. -1.
</event>
<event>
 5   0  0.8213334E-06  0.2705343E+04  0.7818609E-02  0.8333273E-01
       -2   -1    0    0    0  501  0.00000000000E+00  0.00000000000E+00  0.14934746506E+04  0.14934746506E+04  0.25500000920E-02 0. -1.
        2   -1    0    0  501    0  0.00000000000E+00  0.00000000000E+00 -0.12251430372E+04  0.12251430372E+04  0.25500000920E-02 0.  1.
    10030    2    1    2    0    0  0.00000000000E+00  0.00000000000E+00  0.26833161344E+03  0.27186176878E+04  0.27053429131E+04 0.  0.
        3    1    3    3  502    0  0.10706018197E+04 -0.94552615906E+02  0.95953125247E+03  0.14407736422E+04  0.10100000352E+00 0. -1.
       -3    1    3    3    0  502 -0.10706018197E+04  0.94552615906E+02 -0.69119963903E+03  0.12778440455E+04  0.10100000352E+00 0.  1.
</event>
<event>
 5   0  0.7838364E-06  0.2713188E+04  0.7818609E-02  0.8330739E-01
       -2   -1    0    0    0  501  0.00000000000E+00  0.00000000000E+00  0.10122866156E+04  0.10122866156E+04  0.25500000920E-02 0. -1.
        2   -1    0    0  501    0  0.00000000000E+00  0.00000000000E+00 -0.18180104322E+04  0.18180104322E+04  0.25500000920E-02 0.  1.
    10030    2    1    2    0    0  0.00000000000E+00  0.00000000000E+00 -0.80572381655E+03  0.28302970478E+04  0.27131882555E+04 0.  0.
        2    1    3    3  502    0 -0.46478127951E+03  0.11205345895E+04 -0.10363016106E+04  0.15954749864E+04  0.25500000920E-02 0.  1.
       -2    1    3    3    0  502  0.46478127951E+03 -0.11205345895E+04  0.23057779403E+03  0.12348220614E+04  0.25500000920E-02 0. -1.
</event>
<event>
 5   0  0.3046300E-06  0.2694548E+04  0.7818609E-02  0.8336776E-01
        1   -1    0    0  501    0  0.00000000000E+00  0.00000000000E+00  0.13606963774E+04  0.13606963774E+04  0.50400001928E-02 0.  1.
       -1   -1    0    0    0  501  0.00000000000E+00  0.00000000000E+00 -0.13339844222E+04  0.13339844222E+04  0.50400001928E-02 0. -1.
    10030    2    1    2    0    0  0.00000000000E+00  0.00000000000E+00  0.26711955227E+02  0.26946807997E+04  0.26945484007E+04 0.  0.
        2    1    3    3  502    0 -0.90462219267E+03 -0.50656065543E+03 -0.84703666798E+03  0.13388114602E+04  0.25500000920E-02 0. -1.
       -2    1    3    3    0  502  0.90462219267E+03  0.50656065543E+03  0.87374862321E+03  0.13558693395E+04  0.25500000920E-02 0.  1.
</event>
<event>
 5   0  0.3046300E-06  0.2687171E+04  0.7818609E-02  0.8339180E-01
        1   -1    0    0  501    0  0.00000000000E+00  0.00000000000E+00  0.12412826685E+04  0.12412826685E+04  0.50400001928E-02 0.  1.
       -1   -1    0    0    0  501  0.00000000000E+00  0.00000000000E+00 -0.14543196899E+04  0.14543196900E+04  0.50400001928E-02 0. -1.
    10030    2    1    2    0    0  0.00000000000E+00  0.00000000000E+00 -0.21303702145E+03  0.26956023585E+04  0.26871708733E+04 0.  0.
        2    1    3    3  502    0  0.15735499603E+03 -0.31165197633E+03 -0.14080231711E+04  0.14506608148E+04  0.25500000920E-02 0. -1.
       -2    1    3    3    0  502 -0.15735499603E+03  0.31165197633E+03  0.11949861497E+04  0.12449415436E+04  0.25500000920E-02 0.  1.
</event>
<event>
 5   0  0.3013407E-06  0.2718001E+04  0.7818609E-02  0.8329188E-01
        1   -1    0    0  501    0  0.00000000000E+00  0.00000000000E+00  0.13770380868E+04  0.13770380868E+04  0.50400001928E-02 0.  1.
       -1   -1    0    0    0  501  0.00000000000E+00  0.00000000000E+00 -0.13411990131E+04  0.13411990132E+04  0.50400001928E-02 0. -1.
    10030    2    1    2    0    0  0.00000000000E+00  0.00000000000E+00  0.35839073619E+02  0.27182370999E+04  0.27180008264E+04 0.  0.
        4    1    3    3  502    0 -0.13513580828E+04  0.88121059582E+02 -0.95873134384E+02  0.13576182305E+04  0.12699999809E+01 0. -1.
       -4    1    3    3    0  502  0.13513580828E+04 -0.88121059582E+02  0.13171220800E+03  0.13606188694E+04  0.12699999809E+01 0.  1.
</event>
<event>
 5   0  0.3089218E-06  0.2705769E+04  0.7818609E-02  0.8333136E-01
        1   -1    0    0  501    0  0.00000000000E+00  0.00000000000E+00  0.15409190481E+04  0.15409190482E+04  0.50400001928E-02 0. -1.
       -1   -1    0    0    0  501  0.00000000000E+00  0.00000000000E+00 -0.11877950467E+04  0.11877950467E+04  0.50400001928E-02 0.  1.
    10030    2    1    2    0    0  0.00000000000E+00  0.00000000000E+00  0.35312400148E+03  0.27287140948E+04  0.27057686618E+04 0.  0.
        5    1    3    3  502    0  0.24244276295E+03 -0.51706779580E+03  0.14133947365E+04  0.15244160751E+04  0.46999998093E+01 0. -1.
       -5    1    3    3    0  502 -0.24244276295E+03  0.51706779580E+03 -0.10602707350E+04  0.12042980197E+04  0.46999998093E+01 0.  1.
</event>
<event>
 5   0  0.3089218E-06  0.2694892E+04  0.7818609E-02  0.8336664E-01
       -1   -1    0    0    0  501  0.00000000000E+00  0.00000000000E+00  0.13244679323E+04  0.13244679323E+04  0.50400001928E-02 0.  1.
        1   -1    0    0  501    0  0.00000000000E+00  0.00000000000E+00 -0.13708231597E+04  0.13708231597E+04  0.50400001928E-02 0. -1.
    10030    2    1    2    0    0  0.00000000000E+00  0.00000000000E+00 -0.46355227403E+02  0.26952910920E+04  0.26948924401E+04 0.  0.
        5    1    3    3  502    0  0.68952908247E+03  0.11343114451E+04  0.20810627766E+03  0.13436677874E+04  0.46999998093E+01 0.  1.
       -5    1    3    3    0  502 -0.68952908247E+03 -0.11343114451E+04 -0.25446150507E+03  0.13516233046E+04  0.46999998093E+01 0. -1.
</event>
<event>
 5   0  0.8213334E-06  0.2692821E+04  0.7818609E-02  0.8337338E-01
       -2   -1    0    0    0  501  0.00000000000E+00  0.00000000000E+00  0.82068064989E+03  0.82068064989E+03  0.25500000920E-02 0.  1.
        2   -1    0    0  501    0  0.00000000000E+00  0.00000000000E+00 -0.22089244304E+04  0.22089244304E+04  0.25500000920E-02 0. -1.
    10030    2    1    2    0    0  0.00000000000E+00  0.00000000000E+00 -0.13882437805E+04  0.30296050803E+04  0.26928212248E+04 0.  0.
        3    1    3    3  502    0  0.14997408409E+03  0.10979278824E+04  0.16630355492E+03  0.11205332406E+04  0.10100000352E+00 0. -1.
       -3    1    3    3    0  502 -0.14997408409E+03 -0.10979278824E+04 -0.15545473355E+04  0.19090718397E+04  0.10100000352E+00 0.  1.
</event>
<event>
 5   0  0.8213334E-06  0.2686328E+04  0.7818609E-02  0.8339455E-01
       -2   -1    0    0    0  501  0.00000000000E+00  0.00000000000E+00  0.11987571181E+04  0.11987571181E+04  0.25500000920E-02 0. -1.
        2   -1    0    0  501    0  0.00000000000E+00  0.00000000000E+00 -0.15049665077E+04  0.15049665078E+04  0.25500000920E-02 0.  1.
    10030    2    1    2    0    0  0.00000000000E+00  0.00000000000E+00 -0.30620938966E+03  0.27037236258E+04  0.26863278383E+04 0.  0.
        3    1    3    3  502    0 -0.85489075936E+03  0.10171630869E+04 -0.35092350811E+03  0.13742657219E+04  0.10100000352E+00 0.  1.
       -3    1    3    3    0  502  0.85489075936E+03 -0.10171630869E+04  0.44714118451E+02  0.13294579039E+04  0.10100000352E+00 0. -1.
</event>
<event>
 5   0  0.3089218E-06  0.2690992E+04  0.7818609E-02  0.8337934E-01
       -1   -1    0    0    0  501  0.00000000000E+00  0.00000000000E+00  0.13150010971E+04  0.13150010971E+04  0.50400001928E-02 0.  1.
        1   -1    0    0  501    0  0.00000000000E+00  0.00000000000E+00 -0.13766978886E+04  0.13766978886E+04  0.50400001928E-02 0. -1.
    10030    2    1    2    0    0  0.00000000000E+00  0.00000000000E+00 -0.61696791477E+02  0.26916989857E+04  0.26909918126E+04 0.  0.
        5    1    3    3  502    0  0.44633958149E+03 -0.12631829867E+04  0.93630537337E+02  0.13429962946E+04  0.46999998093E+01 0.  1.
       -5    1    3    3    0  502 -0.44633958149E+03  0.12631829867E+04 -0.15532732881E+03  0.13487026911E+04  0.46999998093E+01 0. -1.
</event>
<event>
 5   0  0.8407622E-06  0.2682170E+04  0.7818609E-02  0.8340813E-01
       -2   -1    0    0    0  501  0.00000000000E+00  0.00000000000E+00  0.10518363751E+04  0.10518363751E+04  0.25500000920E-02 0. -1.
        2   -1    0    0  501    0  0.00000000000E+00  0.00000000000E+00 -0.17098754823E+04  0.17098754823E+04  0.25500000920E-02 0.  1.
    10030    2    1    2    0    0  0.00000000000E+00  0.00000000000E+00 -0.65803910722E+03  0.27617118574E+04  0.26821701879E+04 0.  0.
        1    1    3    3  502    0  0.79540231969E+03 -0.59379594944E+03 -0.12575673627E+04  0.16021030403E+04  0.50400001928E-02 0.  1.
       -1    1    3    3    0  502 -0.79540231969E+03  0.59379594944E+03  0.59952825552E+03  0.11596088172E+04  0.50400001928E-02 0. -1.
</event>
<event>
 5   0  0.3046300E-06  0.2701419E+04  0.7818609E-02  0.8334545E-01
        1   -1    0    0  501    0  0.00000000000E+00  0.00000000000E+00  0.10796059797E+04  0.10796059797E+04  0.50400001928E-02 0.  1.
       -1   -1    0    0    0  501  0.00000000000E+00  0.00000000000E+00 -0.16898902579E+04  0.16898902579E+04  0.50400001928E-02 0. -1.
    10030    2    1    2    0    0  0.00000000000E+00  0.00000000000E+00 -0.61028427826E+03  0.27694962376E+04  0.27014186107E+04 0.  0.
        2    1    3    3  502    0  0.61323202703E+03 -0.97344174404E+03  0.42034457863E+03  0.12248803667E+04  0.25500000920E-02 0.  1.
       -2    1    3    3    0  502 -0.61323202703E+03  0.97344174404E+03 -0.10306288569E+04  0.15446158709E+04  0.25500000920E-02 0. -1.
</event>
<event>
 5   0  0.8213334E-06  0.2698721E+04  0.7818609E-02  0.8335420E-01
       -2   -1    0    0    0  501  0.00000000000E+00  0.00000000000E+00  0.14904719871E+04  0.14904719871E+04  0.25500000920E-02 0. -1.
        2   -1    0    0  501    0  0.00000000000E+00  0.00000000000E+00 -0.12216084008E+04  0.12216084008E+04  0.25500000920E-02 0.  1.
    10030    2    1    2    0    0  0.00000000000E+00  0.00000000000E+00  0.26886358633E+03  0.27120803879E+04  0.26987205121E+04 0.  0.
        3    1    3    3  502    0  0.30973718399E+03 -0.12795792814E+04 -0.16285835131E+03  0.13265681714E+04  0.10100000352E+00 0. -1.
       -3    1    3    3    0  502 -0.30973718399E+03  0.12795792814E+04  0.43172193764E+03  0.13855122165E+04  0.10100000352E+00 0.  1.
</event>
<event>
 5   0  0.7729970E-06  0.2696809E+04  0.7818609E-02  0.8336041E-01
        2   -1    0    0  501    0  0.00000000000E+00  0.00000000000E+00  0.28208777550E+04  0.28208777550E+04  0.25500000920E-02 0. -1.
       -2   -1    0    0    0  501  0.00000000000E+00  0.00000000000E+00 -0.64454946147E+03  0.64454946148E+03  0.25500000920E-02 0.  1.
    10030    2    1    2    0    0  0.00000000000E+00  0.00000000000E+00  0.21763282935E+04  0.34654272164E+04  0.26968094021E+04 0.  0.
        4    1    3    3  502    0 -0.59298815020E+02  0.91412609057E+03 -0.18331468450E+03  0.93421022547E+03  0.12699999809E+01 0.  1.
       -4    1    3    3    0  502  0.59298815020E+02 -0.91412609057E+03  0.23596429780E+04  0.25312169910E+04  0.12699999809E+01 0. -1.
</event>
<event>
 5   0  0.7812908E-06  0.2707824E+04  0.7818609E-02  0.8332471E-01
       -2   -1    0    0    0  501  0.00000000000E+00  0.00000000000E+00  0.10309255107E+04  0.10309255107E+04  0.25500000920E-02 0. -1.
        2   -1    0    0  501    0  0.00000000000E+00  0.00000000000E+00 -0.17780893825E+04  0.17780893825E+04  0.25500000920E-02 0.  1.
    10030    2    1    2    0    0  0.00000000000E+00  0.00000000000E+00 -0.74716387178E+03  0.28090148931E+04  0.27078240006E+04 0.  0.
        5    1    3    3  502    0 -0.26539535319E+03  0.10812636780E+04  0.42559001139E+03  0.11919374072E+04  0.46999998093E+01 0. -1.
       -5    1    3    3    0  502  0.26539535319E+03 -0.10812636780E+04 -0.11727538832E+04  0.16170774859E+04  0.46999998093E+01 0.  1.
</event>
<event>
 5   0  0.3199840E-06  0.2695306E+04  0.7818609E-02  0.8336529E-01
        1   -1    0    0  501    0  0.00000000000E+00  0.00000000000E+00  0.16074987780E+04  0.16074987780E+04  0.50400001928E-02 0. -1.
       -1   -1    0    0    0  501  0.00000000000E+00  0.00000000000E+00 -0.11298106028E+04  0.11298106029E+04  0.50400001928E-02 0.  1.
    10030    2    1    2    0    0  0.00000000000E+00  0.00000000000E+00  0.47768817511E+03  0.27373093808E+04  0.26953064118E+04 0.  0.
        1    1    3    3  502    0  0.88857959093E+03 -0.18348041041E+03  0.12508315869E+04  0.15452567454E+04  0.50400001928E-02 0. -1.
       -1    1    3    3    0  502 -0.88857959093E+03  0.18348041041E+03 -0.77314341178E+03  0.11920526354E+04  0.50400001928E-02 0.  1.
</event>
<event>
 5   0  0.3028601E-06  0.2694092E+04  0.7818609E-02  0.8336924E-01
       -1   -1    0    0    0  501  0.00000000000E+00  0.00000000000E+00  0.15189822381E+04  0.15189822381E+04  0.50400001928E-02 0. -1.
        1   -1    0    0  501    0  0.00000000000E+00  0.00000000000E+00 -0.11945716452E+04  0.11945716452E+04  0.50400001928E-02 0.  1.
    10030    2    1    2    0    0  0.00000000000E+00  0.00000000000E+00  0.32441059288E+03  0.27135538833E+04  0.26940921374E+04 0.  0.
        3    1    3    3  502    0 -0.10565245770E+04 -0.72952910358E+03  0.57267368201E+03  0.14058492277E+04  0.10100000352E+00 0. -1.
       -3    1    3    3    0  502  0.10565245770E+04  0.72952910358E+03 -0.24826308913E+03  0.13077046556E+04  0.10100000352E+00 0.  1.
</event>
<event>
 5   0  0.3013407E-06  0.2661077E+04  0.7818609E-02  0.8347746E-01
       -1   -1    0    0    0  501  0.00000000000E+00  0.00000000000E+00  0.58438028603E+03  0.58438028605E+03  0.50400001928E-02 0. -1.
        1   -1    0    0  501    0  0.00000000000E+00  0.00000000000E+00 -0.30294196619E+04  0.30294196619E+04  0.50400001928E-02 0.  1.
    10030    2    1    2    0    0  0.00000000000E+00  0.00000000000E+00 -0.24450393759E+04  0.36137999480E+04  0.26610773221E+04 0.  0.
        4    1    3    3  502    0  0.81891977924E+02  0.12416500537E+04 -0.18622765840E+04  0.22397492806E+04  0.12699999809E+01 0. -1.
       -4    1    3    3    0  502 -0.81891977924E+02 -0.12416500537E+04 -0.58276279190E+03  0.13740506673E+04  0.12699999809E+01 0.  1.
</event>
<event>
 5   0  0.3089218E-06  0.2687532E+04  0.7818609E-02  0.8339062E-01
       -1   -1    0    0    0  501  0.00000000000E+00  0.00000000000E+00  0.11135931229E+04  0.11135931229E+04  0.50400001928E-02 0.  1.
        1   -1    0    0  501    0  0.00000000000E+00  0.00000000000E+00 -0.16215147590E+04  0.16215147590E+04  0.50400001928E-02 0. -1.
    10030    2    1    2    0    0  0.00000000000E+00  0.00000000000E+00 -0.50792163614E+03  0.27351078819E+04  0.26875324625E+04 0.  0.
        5    1    3    3  502    0 -0.12888321301E+04  0.33848353884E+03 -0.43030906069E+03  0.14003025899E+04  0.46999998093E+01 0. -1.
       -5    1    3    3    0  502  0.12888321301E+04 -0.33848353884E+03 -0.77612575450E+02  0.13348052920E+04  0.46999998093E+01 0.  1.
</event>
<event>
 5   0  0.8213334E-06  0.2708003E+04  0.7818609E-02  0.8332413E-01
       -2   -1    0    0    0  501  0.00000000000E+00  0.00000000000E+00  0.14196505468E+04  0.14196505468E+04  0.25500000920E-02 0.  1.
        2   -1    0    0  501    0  0.00000000000E+00  0.00000000000E+00 -0.12913879166E+04  0.12913879166E+04  0.25500000920E-02 0. -1.
    10030    2    1    2    0    0  0.00000000000E+00  0.00000000000E+00  0.12826263019E+03  0.27110384634E+04  0.27080026306E+04 0.  0.
        3    1    3    3  502    0 -0.10104094267E+04  0.86294894928E+03  0.32463727554E+03  0.13678440954E+04  0.10100000352E+00 0.  1.
       -3    1    3    3    0  502  0.10104094267E+04 -0.86294894928E+03 -0.19637464535E+03  0.13431943679E+04  0.10100000352E+00 0. -1.
</event>
<event>
 5   0  0.3046300E-06  0.2694905E+04  0.7818609E-02  0.8336660E-01
       -1   -1    0    0    0  501  0.00000000000E+00  0.00000000000E+00  0.12405831833E+04  0.12405831833E+04  0.50400001928E-02 0.  1.
        1   -1    0    0  501    0  0.00000000000E+00  0.00000000000E+00 -0.14635275751E+04  0.14635275751E+04  0.50400001928E-02 0. -1.
    10030    2    1    2    0    0  0.00000000000E+00  0.00000000000E+00 -0.22294439184E+03  0.27041107585E+04  0.26949045980E+04 0.  0.
        2    1    3    3  502    0  0.44325097454E+03  0.74153262800E+03  0.92612298619E+03  0.12665093171E+04  0.25500000920E-02 0.  1.
       -2    1    3    3    0  502 -0.44325097454E+03 -0.74153262800E+03 -0.11490673780E+04  0.14376014413E+04  0.25500000920E-02 0. -1.
</event>
<event>
 5   0  0.3013407E-06  0.2706387E+04  0.7818609E-02  0.8332936E-01
        1   -1    0    0  501    0  0.00000000000E+00  0.00000000000E+00  0.11242183593E+04  0.11242183593E+04  0.50400001928E-02 0. -1.
       -1   -1    0    0    0  501  0.00000000000E+00  0.00000000000E+00 -0.16288052200E+04  0.16288052200E+04  0.50400001928E-02 0.  1.
    10030    2    1    2    0    0  0.00000000000E+00  0.00000000000E+00 -0.50458686076E+03  0.27530235793E+04  0.27063870618E+04 0.  0.
        4    1    3    3  502    0 -0.64188946363E+03 -0.13437171612E+03  0.95176440362E+03  0.11558265157E+04  0.12699999809E+01 0. -1.
       -4    1    3    3    0  502  0.64188946363E+03  0.13437171612E+03 -0.14563512644E+04  0.15971970635E+04  0.12699999809E+01 0.  1.
</event>
<event>
 5   0  0.3028601E-06  0.2688724E+04  0.7818609E-02  0.8338673E-01
        1   -1    0    0  501    0  0.00000000000E+00  0.00000000000E+00  0.11205879074E+04  0.11205879074E+04  0.50400001928E-02 0.  1.
       -1   -1    0    0    0  501  0.00000000000E+00  0.00000000000E+00 -0.16128222851E+04  0.16128222851E+04  0.50400001928E-02 0. -1.
    10030    2    1    2    0    0  0.00000000000E+00  0.00000000000E+00 -0.49223437770E+03  0.27334101924E+04  0.26887239720E+04 0.  0.
        3    1    3    3  502    0  0.10318720728E+04 -0.85385782254E+03 -0.36413262710E+03  0.13879573971E+04  0.10100000352E+00 0. -1.
       -3    1    3    3    0  502 -0.10318720728E+04  0.85385782254E+03 -0.12810175061E+03  0.13454527954E+04  0.10100000352E+00 0.  1.
</event>
<event>
 5   0  0.3013407E-06  0.2690724E+04  0.7818609E-02  0.8338021E-01
        1   -1    0    0  501    0  0.00000000000E+00  0.00000000000E+00  0.26743628780E+04  0.26743628780E+04  0.50400001928E-02 0. -1.
       -1   -1    0    0    0  501  0.00000000000E+00  0.00000000000E+00 -0.67679623364E+03  0.67679623366E+03  0.50400001928E-02 0.  1.
    10030    2    1    2    0    0  0.00000000000E+00  0.00000000000E+00  0.19975666444E+04  0.33511591117E+04  0.26907238604E+04 0.  0.
        4    1    3    3  502    0  0.43328928530E+03 -0.30599290499E+03 -0.54105994318E+03  0.75770623442E+03  0.12699999809E+01 0.  1.
       -4    1    3    3    0  502 -0.43328928530E+03  0.30599290499E+03  0.25386265876E+04  0.25934528773E+04  0.12699999809E+01 0. -1.
</event>
<event>
 5   0  0.7838364E-06  0.2708409E+04  0.7818609E-02  0.8332282E-01
        2   -1    0    0  501    0  0.00000000000E+00  0.00000000000E+00  0.14998824492E+04  0.14998824492E+04  0.25500000920E-02 0. -1.
       -2   -1    0    0    0  501  0.00000000000E+00  0.00000000000E+00 -0.12226757435E+04  0.12226757435E+04  0.25500000920E-02 0.  1.
    10030    2    1    2    0    0  0.00000000000E+00  0.00000000000E+00  0.27720670567E+03  0.27225581926E+04  0.27084090449E+04 0.  0.
        2    1    3    3  502    0 -0.12640118663E+04  0.40614769155E+03 -0.12960119555E+03  0.13339709200E+04  0.25500000920E-02 0.  1.
       -2    1    3    3    0  502  0.12640118663E+04 -0.40614769155E+03  0.40680790122E+03  0.13885872727E+04  0.25500000920E-02 0. -1.
</event>
<event>
 5   0  0.7812908E-06  0.2693598E+04  0.7818609E-02  0.8337085E-01
        2   -1    0    0  501    0  0.00000000000E+00  0.00000000000E+00  0.21513956974E+04  0.21513956974E+04  0.25500000920E-02 0.  1.
       -2   -1    0    0    0  501  0.00000000000E+00  0.00000000000E+00 -0.84311196742E+03  0.84311196742E+03  0.25500000920E-02 0. -1.
    10030    2    1    2    0    0  0.00000000000E+00  0.00000000000E+00  0.13082837300E+04  0.29945076648E+04  0.26935979352E+04 0.  0.
        5    1    3    3  502    0 -0.32821284798E+03 -0.56814152892E+03 -0.65340311973E+03  0.92599470697E+03  0.46999998093E+01 0. -1.
       -5    1    3    3    0  502  0.32821284798E+03  0.56814152892E+03  0.19616868497E+04  0.20685129578E+04  0.46999998093E+01 0.  1.
</event>
<event>
 5   0  0.8213334E-06  0.2687320E+04  0.7818609E-02  0.8339131E-01
        2   -1    0    0  501    0  0.00000000000E+00  0.00000000000E+00  0.15010333576E+04  0.15010333576E+04  0.25500000920E-02 0. -1.
       -2   -1    0    0    0  501  0.00000000000E+00  0.00000000000E+00 -0.12027864959E+04  0.12027864959E+04  0.25500000920E-02 0.  1.
    10030    2    1    2    0    0  0.00000000000E+00  0.00000000000E+00  0.29824686167E+03  0.27038198535E+04  0.26873203400E+04 0.  0.
        3    1    3    3  502    0 -0.59072392061E+02 -0.69632323145E+03  0.13038050595E+04  0.14792779433E+04  0.10100000352E+00 0. -1.
       -3    1    3    3    0  502  0.59072392061E+02  0.69632323145E+03 -0.10055581979E+04  0.12245419101E+04  0.10100000352E+00 0.  1.
</event>
<event>
 5   0  0.7812908E-06  0.2708297E+04  0.7818609E-02  0.8332318E-01
        2   -1    0    0  501    0  0.00000000000E+00  0.00000000000E+00  0.14862277930E+04  0.14862277930E+04  0.25500000920E-02 0.  1.
       -2   -1    0    0    0  501  0.00000000000E+00  0.00000000000E+00 -0.12338070018E+04  0.12338070018E+04  0.25500000920E-02 0. -1.
    10030    2    1    2    0    0  0.00000000000E+00  0.00000000000E+00  0.25242079122E+03  0.27200347949E+04  0.27082970718E+04 0.  0.
        5    1    3    3  502    0 -0.39813875889E+03  0.11063319167E+04 -0.54842354187E+03  0.12974109806E+04  0.46999998093E+01 0. -1.
       -5    1    3    3    0  502  0.39813875889E+03 -0.11063319167E+04  0.80084433308E+03  0.14226238143E+04  0.46999998093E+01 0.  1.
</event>
<event>
 5   0  0.3013407E-06  0.2710592E+04  0.7818609E-02  0.8331576E-01
        1   -1    0    0  501    0  0.00000000000E+00  0.00000000000E+00  0.17719092969E+04  0.17719092969E+04  0.50400001928E-02 0. -1.
       -1   -1    0    0    0  501  0.00000000000E+00  0.00000000000E+00 -0.10366371961E+04  0.10366371962E+04  0.50400001928E-02 0.  1.
    10030    2    1    2    0    0  0.00000000000E+00  0.00000000000E+00  0.73527210078E+03  0.28085464931E+04  0.27105918803E+04 0.  0.
        4    1    3    3  502    0  0.36723972219E+03 -0.12326422330E+04  0.81033925614E+03  0.15201720992E+04  0.12699999809E+01 0.  1.
       -4    1    3    3    0  502 -0.36723972219E+03  0.12326422330E+04 -0.75067155365E+02  0.12883743939E+04  0.12699999809E+01 0. -1.
</event>
<event>
 5   0  0.3089218E-06  0.2711886E+04  0.7818609E-02  0.8331159E-01
       -1   -1    0    0    0  501  0.00000000000E+00  0.00000000000E+00  0.13696171798E+04  0.13696171798E+04  0.50400001928E-02 0. -1.
        1   -1    0    0  501    0  0.00000000000E+00  0.00000000000E+00 -0.13424057681E+04  0.13424057681E+04  0.50400001928E-02 0.  1.
    10030    2    1    2    0    0  0.00000000000E+00  0.00000000000E+00  0.27211411622E+02  0.27120229479E+04  0.27118864300E+04 0.  0.
        5    1    3    3  502    0  0.45373525097E+03  0.11538157670E+03  0.12862149822E+04  0.13687803537E+04  0.46999998093E+01 0. -1.
       -5    1    3    3    0  502 -0.45373525097E+03 -0.11538157670E+03 -0.12590035706E+04  0.13432425942E+04  0.46999998093E+01 0.  1.
</event>
<event>
 5   0  0.3028601E-06  0.2698924E+04  0.7818609E-02  0.8335354E-01
        1   -1    0    0  501    0  0.00000000000E+00  0.00000000000E+00  0.19615966006E+04  0.19615966006E+04  0.50400001928E-02 0.  1.
       -1   -1    0    0    0  501  0.00000000000E+00  0.00000000000E+00 -0.92834989122E+03  0.92834989123E+03  0.50400001928E-02 0. -1.
    10030    2    1    2    0    0  0.00000000000E+00  0.00000000000E+00  0.10332467094E+04  0.28899464918E+04  0.26989242233E+04 0.  0.
        3    1    3    3  502    0 -0.54631464944E+03  0.36933392530E+02 -0.80405093919E+03  0.97279067362E+03  0.10100000352E+00 0. -1.
       -3    1    3    3    0  502  0.54631464944E+03 -0.36933392530E+02  0.18372976486E+04  0.19171558182E+04  0.10100000352E+00 0.  1.
</event>
<event>
 5   0  0.3089218E-06  0.2715723E+04  0.7818609E-02  0.8329921E-01
       -1   -1    0    0    0  501  0.00000000000E+00  0.00000000000E+00  0.18203714464E+04  0.18203714464E+04  0.50400001928E-02 0. -1.
        1   -1    0    0  501    0  0.00000000000E+00  0.00000000000E+00 -0.10128633367E+04  0.10128633367E+04  0.50400001928E-02 0.  1.
    10030    2    1    2    0    0  0.00000000000E+00  0.00000000000E+00  0.80750810970E+03  0.28332347831E+04  0.27157227379E+04 0.  0.
        5    1    3    3  502    0  0.16417767143E+03  0.81363232070E+03  0.15248765616E+04  0.17361516291E+04  0.46999998093E+01 0. -1.
       -5    1    3    3    0  502 -0.16417767143E+03 -0.81363232070E+03 -0.71736845189E+03  0.10970831540E+04  0.46999998093E+01 0.  1.
</event>
<event>
 5   0  0.7838364E-06  0.2688014E+04  0.7818609E-02  0.8338905E-01
       -2   -1    0    0    0  501  0.00000000000E+00  0.00000000000E+00  0.11461778882E+04  0.11461778882E+04  0.25500000920E-02 0.  1.
        2   -1    0    0  501    0  0.00000000000E+00  0.00000000000E+00 -0.15759809458E+04  0.15759809458E+04  0.25500000920E-02 0. -1.
    10030    2    1    2    0    0  0.00000000000E+00  0.00000000000E+00 -0.42980305758E+03  0.27221588341E+04  0.26880137741E+04 0.  0.
        2    1    3    3  502    0 -0.35457435257E+02  0.10506181761E+04  0.63317198245E+03  0.12271766544E+04  0.25500000920E-02 0.  1.
       -2    1    3    3    0  502  0.35457435257E+02 -0.10506181761E+04 -0.10629750400E+04  0.14949821797E+04  0.25500000920E-02 0. -1.
</event>
<event>
 5   0  0.8213334E-06  0.2697831E+04  0.7818609E-02  0.8335709E-01
        2   -1    0    0  501    0  0.00000000000E+00  0.00000000000E+00  0.12840380641E+04  0.12840380641E+04  0.25500000920E-02 0. -1.
       -2   -1    0    0    0  501  0.00000000000E+00  0.00000000000E+00 -0.14170705816E+04  0.14170705816E+04  0.25500000920E-02 0.  1.
    10030    2    1    2    0    0  0.00000000000E+00  0.00000000000E+00 -0.13303251747E+03  0.27011086457E+04  0.26978306591E+04 0.  0.
        3    1    3    3  502    0  0.12230381963E+04 -0.39886431481E+03 -0.47278927089E+03  0.13705637074E+04  0.10100000352E+00 0. -1.
       -3    1    3    3    0  502 -0.12230381963E+04  0.39886431481E+03  0.33975675342E+03  0.13305449383E+04  0.10100000352E+00 0.  1.
</event>
<event>
 5   0  0.8213334E-06  0.2668130E+04  0.7818609E-02  0.8345420E-01
        2   -1    0    0  501    0  0.00000000000E+00  0.00000000000E+00  0.18933635839E+04  0.18933635839E+04  0.25500000920E-02 0. -1.
       -2   -1    0    0    0  501  0.00000000000E+00  0.00000000000E+00 -0.93998300112E+03  0.93998300113E+03  0.25500000920E-02 0.  1.
    10030    2    1    2    0    0  0.00000000000E+00  0.00000000000E+00  0.95338058275E+03  0.28333465850E+04  0.26681301196E+04 0.  0.
        3    1    3    3  502    0  0.48968198565E+03 -0.57523809574E+03 -0.69096173477E+03  0.10237750939E+04  0.10100000352E+00 0.  1.
       -3    1    3    3    0  502 -0.48968198565E+03  0.57523809574E+03  0.16443423175E+04  0.18095714911E+04  0.10100000352E+00 0. -1.
</event>
<event>
 5   0  0.3046300E-06  0.2698721E+04  0.7818609E-02  0.8335420E-01
       -1   -1    0    0    0  501  0.00000000000E+00  0.00000000000E+00  0.15874705808E+04  0.15874705808E+04  0.50400001928E-02 0. -1.
        1   -1    0    0  501    0  0.00000000000E+00  0.00000000000E+00 -0.11469652343E+04  0.11469652344E+04  0.50400001928E-02 0.  1.
    10030    2    1    2    0    0  0.00000000000E+00  0.00000000000E+00  0.44050534641E+03  0.27344358151E+04  0.26987208575E+04 0.  0.
        2    1    3    3  502    0 -0.37215474172E+03 -0.11740657784E+04  0.77876797230E+03  0.14571922174E+04  0.25500000920E-02 0. -1.
       -2    1    3    3    0  502  0.37215474172E+03  0.11740657784E+04 -0.33826262589E+03  0.12772435977E+04  0.25500000920E-02 0.  1.
</event>
<event>
 5   0  0.7729970E-06  0.2735355E+04  0.7818609E-02  0.8323624E-01
       -2   -1    0    0    0  501  0.00000000000E+00  0.00000000000E+00  0.21706476670E+04  0.21706476670E+04  0.25500000920E-02 0. -1.
        2   -1    0    0  501    0  0.00000000000E+00  0.00000000000E+00 -0.86174363143E+03  0.86174363143E+03  0.25500000920E-02 0.  1.
    10030    2    1    2    0    0  0.00000000000E+00  0.00000000000E+00  0.13089040356E+04  0.30323912985E+04  0.27353550433E+04 0.  0.
        4    1    3    3  502    0 -0.62393686208E+03 -0.11463416762E+04  0.20122415619E+03  0.13205639781E+04  0.12699999809E+01 0.  1.
       -4    1    3    3    0  502  0.62393686208E+03  0.11463416762E+04  0.11076798794E+04  0.17118273203E+04  0.12699999809E+01 0. -1.
</event>
<event>
 5   0  0.8213334E-06  0.2686875E+04  0.7818609E-02  0.8339276E-01
        2   -1    0    0  501    0  0.00000000000E+00  0.00000000000E+00  0.12528718993E+04  0.12528718993E+04  0.25500000920E-02 0. -1.
       -2   -1    0    0    0  501  0.00000000000E+00  0.00000000000E+00 -0.14405502734E+04  0.14405502734E+04  0.25500000920E-02 0.  1.
    10030    2    1    2    0    0  0.00000000000E+00  0.00000000000E+00 -0.18767837413E+03  0.26934221727E+04  0.26868754769E+04 0.  0.
        3    1    3    3  502    0  0.41423701451E+03 -0.12178608126E+04  0.29446452238E+03  0.13196539805E+04  0.10100000352E+00 0. -1.
       -3    1    3    3    0  502 -0.41423701451E+03  0.12178608126E+04 -0.48214289651E+03  0.13737681922E+04  0.10100000352E+00 0.  1.
</event>
<event>
 5   0  0.8213334E-06  0.2663034E+04  0.7818609E-02  0.8347100E-01
        2   -1    0    0  501    0  0.00000000000E+00  0.00000000000E+00  0.15175014116E+04  0.15175014116E+04  0.25500000920E-02 0.  1.
       -2   -1    0    0    0  501  0.00000000000E+00  0.00000000000E+00 -0.11683268219E+04  0.11683268219E+04  0.25500000920E-02 0. -1.
    10030    2    1    2    0    0  0.00000000000E+00  0.00000000000E+00  0.34917458973E+03  0.26858282336E+04  0.26630340603E+04 0.  0.
        3    1    3    3  502    0  0.75540988303E+03  0.73529266216E+03  0.99496112842E+03  0.14495678831E+04  0.10100000352E+00 0.  1.
       -3    1    3    3    0  502 -0.75540988303E+03 -0.73529266216E+03 -0.64578653869E+03  0.12362603505E+04  0.10100000352E+00 0. -1.
</event>
<event>
 5   0  0.8213334E-06  0.2717360E+04  0.7818609E-02  0.8329394E-01
       -2   -1    0    0    0  501  0.00000000000E+00  0.00000000000E+00  0.11246315785E+04  0.11246315785E+04  0.25500000920E-02 0.  1.
        2   -1    0    0  501    0  0.00000000000E+00  0.00000000000E+00 -0.16414369770E+04  0.16414369770E+04  0.25500000920E-02 0. -1.
    10030    2    1    2    0    0  0.00000000000E+00  0.00000000000E+00 -0.51680539851E+03  0.27660685555E+04  0.27173603799E+04 0.  0.
        3    1    3    3  502    0  0.96563913783E+03 -0.89598600747E+02  0.71024515754E+03  0.12020545111E+04  0.10100000352E+00 0.  1.
       -3    1    3    3    0  502 -0.96563913783E+03  0.89598600747E+02 -0.12270505561E+04  0.15640140444E+04  0.10100000352E+00 0. -1.
</event>
<event>
 5   0  0.7812908E-06  0.2705277E+04  0.7818609E-02  0.8333295E-01
       -2   -1    0    0    0  501  0.00000000000E+00  0.00000000000E+00  0.10464064286E+04  0.10464064286E+04  0.25500000920E-02 0.  1.
        2   -1    0    0  501    0  0.00000000000E+00  0.00000000000E+00 -0.17484896012E+04  0.17484896012E+04  0.25500000920E-02 0. -1.
    10030    2    1    2    0    0  0.00000000000E+00  0.00000000000E+00 -0.70208317255E+03  0.27948960298E+04  0.27052768872E+04 0.  0.
        5    1    3    3  502    0 -0.11264851360E+04  0.73965052068E+03 -0.47133337108E+03  0.14276655389E+04  0.46999998093E+01 0. -1.
       -5    1    3    3    0  502  0.11264851360E+04 -0.73965052068E+03 -0.23074980147E+03  0.13672304909E+04  0.46999998093E+01 0.  1.
</event>
<event>
 5   0  0.3028601E-06  0.2678528E+04  0.7818609E-02  0.8342006E-01
        1   -1    0    0  501    0  0.00000000000E+00  0.00000000000E+00  0.28097127800E+04  0.28097127800E+04  0.50400001928E-02 0.  1.
       -1   -1    0    0    0  501  0.00000000000E+00  0.00000000000E+00 -0.63836725472E+03  0.63836725474E+03  0.50400001928E-02 0. -1.
    10030    2    1    2    0    0  0.00000000000E+00  0.00000000000E+00  0.21713455253E+04  0.34480800348E+04  0.26785284273E+04 0.  0.
        3    1    3    3  502    0  0.10602884171E+04  0.16279719716E+02  0.32636104890E+02  0.10609154925E+04  0.10100000352E+00 0. -1.
       -3    1    3    3    0  502 -0.10602884171E+04 -0.16279719716E+02  0.21387094204E+04  0.23871645423E+04  0.10100000352E+00 0.  1.
</event>
<event>
 5   0  0.3046300E-06  0.2698459E+04  0.7818609E-02  0.8335505E-01
       -1   -1    0    0    0  501  0.00000000000E+00  0.00000000000E+00  0.12921072005E+04  0.12921072005E+04  0.50400001928E-02 0. -1.
        1   -1    0    0  501    0  0.00000000000E+00  0.00000000000E+00 -0.14088767211E+04  0.14088767212E+04  0.50400001928E-02 0.  1.
    10030    2    1    2    0    0  0.00000000000E+00  0.00000000000E+00 -0.11676952067E+03  0.27009839216E+04  0.26984586386E+04 0.  0.
        2    1    3    3  502    0 -0.22978689521E+03  0.42114894174E+03  0.12038470297E+04  0.12959228833E+04  0.25500000920E-02 0. -1.
       -2    1    3    3    0  502  0.22978689521E+03 -0.42114894174E+03 -0.13206165504E+04  0.14050610384E+04  0.25500000920E-02 0.  1.
</event>
<event>
 5   0  0.3013407E-06  0.2696306E+04  0.7818609E-02  0.8336204E-01
        1   -1    0    0  501    0  0.00000000000E+00  0.00000000000E+00  0.17581948924E+04  0.17581948924E+04  0.50400001928E-02 0. -1.
       -1   -1    0    0    0  501  0.00000000000E+00  0.00000000000E+00 -0.10337401865E+04  0.10337401865E+04  0.50400001928E-02 0.  1.
    10030    2    1    2    0    0  0.00000000000E+00  0.00000000000E+00  0.72445470592E+03  0.27919350790E+04  0.26963061518E+04 0.  0.
        4    1    3    3  502    0 -0.11725081872E+03 -0.37724118063E+03 -0.97246321863E+03  0.10496404086E+04  0.12699999809E+01 0.  1.
       -4    1    3    3    0  502  0.11725081872E+03  0.37724118063E+03  0.16969179245E+04  0.17422946704E+04  0.12699999809E+01 0. -1.
</event>
<event>
 5   0  0.8213334E-06  0.2702259E+04  0.7818609E-02  0.8334272E-01
       -2   -1    0    0    0  501  0.00000000000E+00  0.00000000000E+00  0.22653445890E+04  0.22653445890E+04  0.25500000920E-02 0.  1.
        2   -1    0    0  501    0  0.00000000000E+00  0.00000000000E+00 -0.80586036802E+03  0.80586036802E+03  0.25500000920E-02 0. -1.
    10030    2    1    2    0    0  0.00000000000E+00  0.00000000000E+00  0.14594842210E+04  0.30712049571E+04  0.27022593689E+04 0.  0.
        3    1    3    3  502    0  0.51403060451E+03  0.12007751468E+04  0.11225665274E+04  0.17222787330E+04  0.10100000352E+00 0.  1.
       -3    1    3    3    0  502 -0.51403060451E+03 -0.12007751468E+04  0.33691769360E+03  0.13489262241E+04  0.10100000352E+00 0. -1.
</event>
<event>
 5   0  0.8213334E-06  0.2716679E+04  0.7818609E-02  0.8329613E-01
       -2   -1    0    0    0  501  0.00000000000E+00  0.00000000000E+00  0.14758349752E+04  0.14758349752E+04  0.25500000920E-02 0.  1.
        2   -1    0    0  501    0  0.00000000000E+00  0.00000000000E+00 -0.12501984974E+04  0.12501984974E+04  0.25500000920E-02 0. -1.
    10030    2    1    2    0    0  0.00000000000E+00  0.00000000000E+00  0.22563647781E+03  0.27260334727E+04  0.27166793469E+04 0.  0.
        3    1    3    3  502    0 -0.22428321857E+03 -0.90214663924E+03  0.11066400444E+04  0.14452763469E+04  0.10100000352E+00 0.  1.
       -3    1    3    3    0  502  0.22428321857E+03  0.90214663924E+03 -0.88100356655E+03  0.12807571258E+04  0.10100000352E+00 0. -1.
</event>
<event>
 5   0  0.8407622E-06  0.2873098E+04  0.7818609E-02  0.8280927E-01
        2   -1    0    0  501    0  0.00000000000E+00  0.00000000000E+00  0.24638983002E+04  0.24638983002E+04  0.25500000920E-02 0.  1.
       -2   -1    0    0    0  501  0.00000000000E+00  0.00000000000E+00 -0.83756424773E+03  0.83756424773E+03  0.25500000920E-02 0. -1.
    10030    2    1    2    0    0  0.00000000000E+00  0.00000000000E+00  0.16263340525E+04  0.33014625479E+04  0.28730980674E+04 0.  0.
        1    1    3    3  502    0 -0.37242957590E+01 -0.97378989418E+03 -0.40041681297E+03  0.10529075233E+04  0.50400001928E-02 0.  1.
       -1    1    3    3    0  502  0.37242957590E+01  0.97378989418E+03  0.20267508654E+04  0.22485550247E+04  0.50400001928E-02 0. -1.
</event>
<event>
 5   0  0.3199840E-06  0.2698495E+04  0.7818609E-02  0.8335493E-01
       -1   -1    0    0    0  501  0.00000000000E+00  0.00000000000E+00  0.11627035392E+04  0.11627035392E+04  0.50400001928E-02 0. -1.
        1   -1    0    0  501    0  0.00000000000E+00  0.00000000000E+00 -0.15657207356E+04  0.15657207356E+04  0.50400001928E-02 0.  1.
    10030    2    1    2    0    0  0.00000000000E+00  0.00000000000E+00 -0.40301719636E+03  0.27284242749E+04  0.26984951664E+04 0.  0.
        1    1    3    3  502    0 -0.13412519134E+04  0.14243296427E+03 -0.16611757942E+03  0.13589845087E+04  0.50400001928E-02 0. -1.
       -1    1    3    3    0  502  0.13412519134E+04 -0.14243296427E+03 -0.23689961694E+03  0.13694397662E+04  0.50400001928E-02 0.  1.
</event>
<event>
 5   0  0.7838364E-06  0.2586947E+04  0.7818609E-02  0.8372648E-01
       -2   -1    0    0    0  501  0.00000000000E+00  0.00000000000E+00  0.12630321816E+04  0.12630321816E+04  0.25500000920E-02 0. -1.
        2   -1    0    0  501    0  0.00000000000E+00  0.00000000000E+00 -0.13246486691E+04  0.13246486691E+04  0.25500000920E-02 0.  1.
    10030    2    1    2    0    0  0.00000000000E+00  0.00000000000E+00 -0.61616487495E+02  0.25876808506E+04  0.25869471570E+04 0.  0.
        2    1    3    3  502    0  0.22139556790E+03 -0.72223230924E+03 -0.10810766924E+04  0.13188488620E+04  0.25500000920E-02 0.  1.
       -2    1    3    3    0  502 -0.22139556790E+03  0.72223230924E+03  0.10194602049E+04  0.12688319886E+04  0.25500000920E-02 0. -1.
</event>
<event>
 5   0  0.8213334E-06  0.2700026E+04  0.7818609E-02  0.8334996E-01
        2   -1    0    0  501    0  0.00000000000E+00  0.00000000000E+00  0.13413616935E+04  0.13413616935E+04  0.25500000920E-02 0.  1.
       -2   -1    0    0    0  501  0.00000000000E+00  0.00000000000E+00 -0.13587205154E+04  0.13587205154E+04  0.25500000920E-02 0. -1.
    10030    2    1    2    0    0  0.00000000000E+00  0.00000000000E+00 -0.17358821955E+02  0.27000822089E+04  0.27000264084E+04 0.  0.
        3    1    3    3  502    0 -0.69373170210E+03  0.11495394455E+04 -0.14950501161E+03  0.13509464719E+04  0.10100000352E+00 0.  1.
       -3    1    3    3    0  502  0.69373170210E+03 -0.11495394455E+04  0.13214618965E+03  0.13491357370E+04  0.10100000352E+00 0. -1.
</event>
<event>
 5   0  0.3199840E-06  0.2722428E+04  0.7818609E-02  0.8327764E-01
        1   -1    0    0  501    0  0.00000000000E+00  0.00000000000E+00  0.32454227806E+04  0.32454227806E+04  0.50400001928E-02 0.  1.
       -1   -1    0    0    0  501  0.00000000000E+00  0.00000000000E+00 -0.57092821727E+03  0.57092821729E+03  0.50400001928E-02 0. -1.
    10030    2    1    2    0    0  0.00000000000E+00  0.00000000000E+00  0.26744945633E+04  0.38163509979E+04  0.27224279182E+04 0.  0.
        1    1    3    3  502    0 -0.17231548500E+03  0.27610073349E+03  0.31900781962E+04  0.32066373570E+04  0.50400001928E-02 0.  1.
       -1    1    3    3    0  502  0.17231548500E+03 -0.27610073349E+03 -0.51558363286E+03  0.60971364090E+03  0.50400001928E-02 0. -1.
</event>
<event>
 5   0  0.7729970E-06  0.2698405E+04  0.7818609E-02  0.8335523E-01
       -2   -1    0    0    0  501  0.00000000000E+00  0.00000000000E+00  0.12362990455E+04  0.12362990455E+04  0.25500000920E-02 0.  1.
        2   -1    0    0  501    0  0.00000000000E+00  0.00000000000E+00 -0.14724169468E+04  0.14724169468E+04  0.25500000920E-02 0. -1.
    10030    2    1    2    0    0  0.00000000000E+00  0.00000000000E+00 -0.23611790127E+03  0.27087159923E+04  0.26984052074E+04 0.  0.
        4    1    3    3  502    0 -0.33120542277E+03 -0.16987538956E+02  0.11947457635E+04  0.12399212317E+04  0.12699999809E+01 0.  1.
       -4    1    3    3    0  502  0.33120542277E+03  0.16987538956E+02 -0.14308636648E+04  0.14687947606E+04  0.12699999809E+01 0. -1.
</event>
<event>
 5   0  0.2654625E-06  0.2693775E+04  0.7818609E-02  0.8337028E-01
        3   -1    0    0  501    0  0.00000000000E+00  0.00000000000E+00  0.73812865671E+03  0.73812866362E+03  0.10100000352E+00 0.  1.
       -3   -1    0    0    0  501  0.00000000000E+00  0.00000000000E+00 -0.24577100638E+04  0.24577100658E+04  0.10100000352E+00 0. -1.
    10030    2    1    2    0    0  0.00000000000E+00  0.00000000000E+00 -0.17195814070E+04  0.31958387295E+04  0.26937752262E+04 0.  0.
        2    1    3    3  502    0 -0.31610808853E+03 -0.61922658779E+03 -0.22283706247E+04  0.23343096477E+04  0.25500000920E-02 0. -1.
       -2    1    3    3    0  502  0.31610808853E+03  0.61922658779E+03  0.50878921762E+03  0.86152908171E+03  0.25500000920E-02 0.  1.
</event>
<event>
 5   0  0.7812908E-06  0.2706167E+04  0.7818609E-02  0.8333007E-01
        2   -1    0    0  501    0  0.00000000000E+00  0.00000000000E+00  0.15294145847E+04  0.15294145847E+04  0.25500000920E-02 0. -1.
       -2   -1    0    0    0  501  0.00000000000E+00  0.00000000000E+00 -0.11970820263E+04  0.11970820263E+04  0.25500000920E-02 0.  1.
    10030    2    1    2    0    0  0.00000000000E+00  0.00000000000E+00  0.33233255835E+03  0.27264966110E+04  0.27061668168E+04 0.  0.
        5    1    3    3  502    0 -0.73421828400E+03 -0.19850471123E+03  0.12936496331E+04  0.15006772046E+04  0.46999998093E+01 0. -1.
       -5    1    3    3    0  502  0.73421828400E+03  0.19850471123E+03 -0.96131707480E+03  0.12258194064E+04  0.46999998093E+01 0.  1.
</event>
<event>
 5   0  0.7729970E-06  0.2697804E+04  0.7818609E-02  0.8335718E-01
        2   -1    0    0  501    0  0.00000000000E+00  0.00000000000E+00  0.14417543008E+04  0.14417543008E+04  0.25500000920E-02 0. -1.
       -2   -1    0    0    0  501  0.00000000000E+00  0.00000000000E+00 -0.12620295325E+04  0.12620295325E+04  0.25500000920E-02 0.  1.
    10030    2    1    2    0    0  0.00000000000E+00  0.00000000000E+00  0.17972476825E+03  0.27037838333E+04  0.26978039263E+04 0.  0.
        4    1    3    3  502    0 -0.46364723619E+03 -0.17443015352E+03 -0.11675661090E+04  0.12683086650E+04  0.12699999809E+01 0.  1.
       -4    1    3    3    0  502  0.46364723619E+03  0.17443015352E+03  0.13472908772E+04  0.14354751683E+04  0.12699999809E+01 0. -1.
</event>
<event>
 5   0  0.8213334E-06  0.2708604E+04  0.7818609E-02  0.8332219E-01
        2   -1    0    0  501    0  0.00000000000E+00  0.00000000000E+00  0.87270887500E+03  0.87270887500E+03  0.25500000920E-02 0.  1.
       -2   -1    0    0    0  501  0.00000000000E+00  0.00000000000E+00 -0.21016565269E+04  0.21016565269E+04  0.25500000920E-02 0. -1.
    10030    2    1    2    0    0  0.00000000000E+00  0.00000000000E+00 -0.12289476519E+04  0.29743654019E+04  0.27086042924E+04 0.  0.
        3    1    3    3  502    0  0.74166392243E+03 -0.89966444516E+03  0.14209062994E+03  0.11745855631E+04  0.10100000352E+00 0. -1.
       -3    1    3    3    0  502 -0.74166392243E+03  0.89966444516E+03 -0.13710382819E+04  0.17997798388E+04  0.10100000352E+00 0.  1.
</event>
<event>
 5   0  0.8213334E-06  0.2704384E+04  0.7818609E-02  0.8333584E-01
       -2   -1    0    0    0  501  0.00000000000E+00  0.00000000000E+00  0.12593289140E+04  0.12593289140E+04  0.25500000920E-02 0.  1.
        2   -1    0    0  501    0  0.00000000000E+00  0.00000000000E+00 -0.14519032580E+04  0.14519032580E+04  0.25500000920E-02 0. -1.
    10030    2    1    2    0    0  0.00000000000E+00  0.00000000000E+00 -0.19257434398E+03  0.27112321720E+04  0.27043844054E+04 0.  0.
        3    1    3    3  502    0 -0.82331515336E+03 -0.19770238691E+03  0.96065445146E+03  0.12805432679E+04  0.10100000352E+00 0.  1.
       -3    1    3    3    0  502  0.82331515336E+03  0.19770238691E+03 -0.11532287954E+04  0.14306889041E+04  0.10100000352E+00 0. -1.
</event>
<event>
 5   0  0.7729970E-06  0.2716205E+04  0.7818609E-02  0.8329766E-01
        2   -1    0    0  501    0  0.00000000000E+00  0.00000000000E+00  0.23100140796E+04  0.23100140796E+04  0.25500000920E-02 0. -1.
       -2   -1    0    0    0  501  0.00000000000E+00  0.00000000000E+00 -0.79845481197E+03  0.79845481198E+03  0.25500000920E-02 0.  1.
    10030    2    1    2    0    0  0.00000000000E+00  0.00000000000E+00  0.15115592677E+04  0.31084688916E+04  0.27162046003E+04 0.  0.
        4    1    3    3  502    0  0.13132554437E+04 -0.90374677632E+01  0.35980710569E+03  0.13616843623E+04  0.12699999809E+01 0.  1.
       -4    1    3    3    0  502 -0.13132554437E+04  0.90374677632E+01  0.11517521620E+04  0.17467845293E+04  0.12699999809E+01 0. -1.
</event>
<event>
 5   0  0.8213334E-06  0.2700978E+04  0.7818609E-02  0.8334688E-01
        2   -1    0    0  501    0  0.00000000000E+00  0.00000000000E+00  0.21866233449E+04  0.21866233449E+04  0.25500000920E-02 0. -1.
       -2   -1    0    0    0  501  0.00000000000E+00  0.00000000000E+00 -0.83408109492E+03  0.83408109492E+03  0.25500000920E-02 0.  1.
    10030    2    1    2    0    0  0.00000000000E+00  0.00000000000E+00  0.13525422500E+04  0.30207044398E+04  0.27009784847E+04 0.  0.
        3    1    3    3  502    0 -0.10153771387E+04  0.56003494142E+03  0.14504504658E+04  0.18569966164E+04  0.10100000352E+00 0. -1.
       -3    1    3    3    0  502  0.10153771387E+04 -0.56003494142E+03 -0.97908215804E+02  0.11637078234E+04  0.10100000352E+00 0.  1.
</event>
<event>
 5   0  0.3089218E-06  0.2690109E+04  0.7818609E-02  0.8338221E-01
       -1   -1    0    0    0  501  0.00000000000E+00  0.00000000000E+00  0.18566603182E+04  0.18566603182E+04  0.50400001928E-02 0. -1.
        1   -1    0    0  501    0  0.00000000000E+00  0.00000000000E+00 -0.97442229602E+03  0.97442229603E+03  0.50400001928E-02 0.  1.
    10030    2    1    2    0    0  0.00000000000E+00  0.00000000000E+00  0.88223802215E+03  0.28310826142E+04  0.26901087043E+04 0.  0.
        5    1    3    3  502    0 -0.17205374392E+03  0.67615219099E+03  0.16513223879E+04  0.17926717477E+04  0.46999998093E+01 0. -1.
       -5    1    3    3    0  502  0.17205374392E+03 -0.67615219099E+03 -0.76908436572E+03  0.10384108665E+04  0.46999998093E+01 0.  1.
</event>
<event>
 5   0  0.8407622E-06  0.2664777E+04  0.7818609E-02  0.8346525E-01
       -2   -1    0    0    0  501  0.00000000000E+00  0.00000000000E+00  0.94397795771E+03  0.94397795771E+03  0.25500000920E-02 0. -1.
        2   -1    0    0  501    0  0.00000000000E+00  0.00000000000E+00 -0.18806152171E+04  0.18806152172E+04  0.25500000920E-02 0.  1.
    10030    2    1    2    0    0  0.00000000000E+00  0.00000000000E+00 -0.93663725944E+03  0.28245931749E+04  0.26647771479E+04 0.  0.
        1    1    3    3  502    0 -0.21996372863E+03 -0.53229547958E+03  0.80521066323E+03  0.98999329881E+03  0.50400001928E-02 0. -1.
       -1    1    3    3    0  502  0.21996372863E+03  0.53229547958E+03 -0.17418479227E+04  0.18345998761E+04  0.50400001928E-02 0.  1.
</event>
<event>
 5   0  0.3028601E-06  0.2670880E+04  0.7818609E-02  0.8344516E-01
        1   -1    0    0  501    0  0.00000000000E+00  0.00000000000E+00  0.73648062853E+03  0.73648062855E+03  0.50400001928E-02 0.  1.
       -1   -1    0    0    0  501  0.00000000000E+00  0.00000000000E+00 -0.24215168357E+04  0.24215168357E+04  0.50400001928E-02 0. -1.
    10030    2    1    2    0    0  0.00000000000E+00  0.00000000000E+00 -0.16850362072E+04  0.31579974642E+04  0.26708801854E+04 0.  0.
        3    1    3    3  502    0  0.48044402944E+03 -0.98147740172E+03  0.65128321913E+02  0.10946990746E+04  0.10100000352E+00 0.  1.
       -3    1    3    3    0  502 -0.48044402944E+03  0.98147740172E+03 -0.17501645291E+04  0.20632983896E+04  0.10100000352E+00 0. -1.
</event>
<event>
 5   0  0.7729970E-06  0.2671054E+04  0.7818609E-02  0.8344458E-01
       -2   -1    0    0    0  501  0.00000000000E+00  0.00000000000E+00  0.59110080254E+03  0.59110080255E+03  0.25500000920E-02 0. -1.
        2   -1    0    0  501    0  0.00000000000E+00  0.00000000000E+00 -0.30174758100E+04  0.30174758100E+04  0.25500000920E-02 0.  1.
    10030    2    1    2    0    0  0.00000000000E+00  0.00000000000E+00 -0.24263750074E+04  0.36085766125E+04  0.26710540039E+04 0.  0.
        4    1    3    3  502    0  0.51309470978E+02 -0.89751031495E+03 -0.25475104725E+04  0.27014752725E+04  0.12699999809E+01 0.  1.
       -4    1    3    3    0  502 -0.51309470978E+02  0.89751031495E+03  0.12113546512E+03  0.90710134002E+03  0.12699999809E+01 0. -1.
</event>
<event>
 5   0  0.7729970E-06  0.2699681E+04  0.7818609E-02  0.8335108E-01
       -2   -1    0    0    0  501  0.00000000000E+00  0.00000000000E+00  0.14857982393E+04  0.14857982393E+04  0.25500000920E-02 0.  1.
        2   -1    0    0  501    0  0.00000000000E+00  0.00000000000E+00 -0.12263238574E+04  0.12263238574E+04  0.25500000920E-02 0. -1.
    10030    2    1    2    0    0  0.00000000000E+00  0.00000000000E+00  0.25947438193E+03  0.27121220967E+04  0.26996813354E+04 0.  0.
        4    1    3    3  502    0  0.11662591698E+04 -0.31490505054E+03 -0.47531940246E+03  0.12981740211E+04  0.12699999809E+01 0. -1.
       -4    1    3    3    0  502 -0.11662591698E+04  0.31490505054E+03  0.73479378439E+03  0.14139480756E+04  0.12699999809E+01 0.  1.
</event>
<event>
 5   0  0.7729970E-06  0.2687773E+04  0.7818609E-02  0.8338983E-01
       -2   -1    0    0    0  501  0.00000000000E+00  0.00000000000E+00  0.86807964902E+03  0.86807964902E+03  0.25500000920E-02 0.  1.
        2   -1    0    0  501    0  0.00000000000E+00  0.00000000000E+00 -0.20804906049E+04  0.20804906049E+04  0.25500000920E-02 0. -1.
    10030    2    1    2    0    0  0.00000000000E+00  0.00000000000E+00 -0.12124109559E+04  0.29485702539E+04  0.26877734682E+04 0.  0.
        4    1    3    3  502    0  0.52498284113E+03 -0.10187425323E+04 -0.13761512150E+04  0.17908760733E+04  0.12699999809E+01 0. -1.
       -4    1    3    3    0  502 -0.52498284113E+03  0.10187425323E+04  0.16374025905E+03  0.11576941807E+04  0.12699999809E+01 0.  1.
</event>
<event>
 5   0  0.8407622E-06  0.2678152E+04  0.7818609E-02  0.8342129E-01
       -2   -1    0    0    0  501  0.00000000000E+00  0.00000000000E+00  0.10726468843E+04  0.10726468843E+04  0.25500000920E-02 0. -1.
        2   -1    0    0  501    0  0.00000000000E+00  0.00000000000E+00 -0.16716819430E+04  0.16716819430E+04  0.25500000920E-02 0.  1.
    10030    2    1    2    0    0  0.00000000000E+00  0.00000000000E+00 -0.59903505865E+03  0.27443288273E+04  0.26781519208E+04 0.  0.
        1    1    3    3  502    0 -0.10457135557E+04 -0.82990927435E+03 -0.40629497521E+03  0.13954719098E+04  0.50400001928E-02 0.  1.
       -1    1    3    3    0  502  0.10457135557E+04  0.82990927435E+03 -0.19274008344E+03  0.13488569175E+04  0.50400001928E-02 0. -1.
</event>
<event>
 5   0  0.3013407E-06  0.2663504E+04  0.7818609E-02  0.8346945E-01
        1   -1    0    0  501    0  0.00000000000E+00  0.00000000000E+00  0.86942438939E+03  0.86942438941E+03  0.50400001928E-02 0. -1.
       -1   -1    0    0    0  501  0.00000000000E+00  0.00000000000E+00 -0.20399280883E+04  0.20399280883E+04  0.50400001928E-02 0.  1.
    10030    2    1    2    0    0  0.00000000000E+00  0.00000000000E+00 -0.11705036989E+04  0.29093524777E+04  0.26635038822E+04 0.  0.
        4    1    3    3  502    0  0.39523713541E+03  0.10630381807E+04  0.17724980473E+03  0.11479031636E+04  0.12699999809E+01 0. -1.
       -4    1    3    3    0  502 -0.39523713541E+03 -0.10630381807E+04 -0.13477535036E+04  0.17614493141E+04  0.12699999809E+01 0.  1.
</event>
<event>
 5   0  0.3089218E-06  0.2702913E+04  0.7818609E-02  0.8334060E-01
       -1   -1    0    0    0  501  0.00000000000E+00  0.00000000000E+00  0.10769589881E+04  0.10769589881E+04  0.50400001928E-02 0. -1.
        1   -1    0    0  501    0  0.00000000000E+00  0.00000000000E+00 -0.16959187253E+04  0.16959187253E+04  0.50400001928E-02 0.  1.
    10030    2    1    2    0    0  0.00000000000E+00  0.00000000000E+00 -0.61895973715E+03  0.27728777134E+04  0.27029131798E+04 0.  0.
        5    1    3    3  502    0  0.69822458466E+03  0.15988766298E+03 -0.14851507185E+04  0.16488712448E+04  0.46999998093E+01 0.  1.
       -5    1    3    3    0  502 -0.69822458466E+03 -0.15988766298E+03  0.86619098132E+03  0.11240064686E+04  0.46999998093E+01 0. -1.
</event>
<event>
 5   0  0.7729970E-06  0.2692692E+04  0.7818609E-02  0.8337380E-01
        2   -1    0    0  501    0  0.00000000000E+00  0.00000000000E+00  0.22573360032E+04  0.22573360032E+04  0.25500000920E-02 0. -1.
       -2   -1    0    0    0  501  0.00000000000E+00  0.00000000000E+00 -0.80300320160E+03  0.80300320160E+03  0.25500000920E-02 0.  1.
    10030    2    1    2    0    0  0.00000000000E+00  0.00000000000E+00  0.14543328016E+04  0.30603392048E+04  0.26926923609E+04 0.  0.
        4    1    3    3  502    0 -0.99003900816E+03  0.80383375077E+03  0.23658267819E+03  0.12970346615E+04  0.12699999809E+01 0.  1.
       -4    1    3    3    0  502  0.99003900816E+03 -0.80383375077E+03  0.12177501234E+04  0.17633045433E+04  0.12699999809E+01 0. -1.
</event>
<event>
 5   0  0.8407622E-06  0.2662442E+04  0.7818609E-02  0.8347295E-01
       -2   -1    0    0    0  501  0.00000000000E+00  0.00000000000E+00  0.17428400416E+04  0.17428400416E+04  0.25500000920E-02 0.  1.
        2   -1    0    0  501    0  0.00000000000E+00  0.00000000000E+00 -0.10168172633E+04  0.10168172633E+04  0.25500000920E-02 0. -1.
    10030    2    1    2    0    0  0.00000000000E+00  0.00000000000E+00  0.72602277831E+03  0.27596573048E+04  0.26624423685E+04 0.  0.
        1    1    3    3  502    0 -0.62590751017E+03 -0.44699113326E+03 -0.76321117299E+03  0.10835370686E+04  0.50400001928E-02 0. -1.
       -1    1    3    3    0  502  0.62590751017E+03  0.44699113326E+03  0.14892339513E+04  0.16761202362E+04  0.50400001928E-02 0.  1.
</event>
<event>
 5   0  0.7838364E-06  0.2673775E+04  0.7818609E-02  0.8343564E-01
       -2   -1    0    0    0  501  0.00000000000E+00  0.00000000000E+00  0.97002607953E+03  0.97002607953E+03  0.25500000920E-02 0. -1.
        2   -1    0    0  501    0  0.00000000000E+00  0.00000000000E+00 -0.18424953192E+04  0.18424953192E+04  0.25500000920E-02 0.  1.
    10030    2    1    2    0    0  0.00000000000E+00  0.00000000000E+00 -0.87246923964E+03  0.28125213987E+04  0.26737752419E+04 0.  0.
        2    1    3    3  502    0 -0.21856999618E+03  0.12951687233E+04 -0.69822454533E+03  0.14875323125E+04  0.25500000920E-02 0.  1.
       -2    1    3    3    0  502  0.21856999618E+03 -0.12951687233E+04 -0.17424469431E+03  0.13249890862E+04  0.25500000920E-02 0. -1.
</event>
<event>
 5   0  0.7812908E-06  0.2670317E+04  0.7818609E-02  0.8344701E-01
        2   -1    0    0  501    0  0.00000000000E+00  0.00000000000E+00  0.17253140446E+04  0.17253140446E+04  0.25500000920E-02 0.  1.
       -2   -1    0    0    0  501  0.00000000000E+00  0.00000000000E+00 -0.10332308133E+04  0.10332308133E+04  0.25500000920E-02 0. -1.
    10030    2    1    2    0    0  0.00000000000E+00  0.00000000000E+00  0.69208323130E+03  0.27585448579E+04  0.26703165607E+04 0.  0.
        5    1    3    3  502    0 -0.24056152495E+03 -0.13062006081E+04  0.20517009955E+03  0.13439295873E+04  0.46999998093E+01 0. -1.
       -5    1    3    3    0  502  0.24056152495E+03  0.13062006081E+04  0.48691313175E+03  0.14146152706E+04  0.46999998093E+01 0.  1.
</event>
<event>
 5   0  0.7838364E-06  0.2707610E+04  0.7818609E-02  0.8332540E-01
       -2   -1    0    0    0  501  0.00000000000E+00  0.00000000000E+00  0.18010862701E+04  0.18010862701E+04  0.25500000920E-02 0.  1.
        2   -1    0    0  501    0  0.00000000000E+00  0.00000000000E+00 -0.10176014708E+04  0.10176014708E+04  0.25500000920E-02 0. -1.
    10030    2    1    2    0    0  0.00000000000E+00  0.00000000000E+00  0.78348479929E+03  0.28186877409E+04  0.27076100439E+04 0.  0.
        2    1    3    3  502    0 -0.49698478735E+03 -0.12087950415E+04  0.24261269181E+02  0.13071985084E+04  0.25500000920E-02 0.  1.
       -2    1    3    3    0  502  0.49698478735E+03  0.12087950415E+04  0.75922353011E+03  0.15114892325E+04  0.25500000920E-02 0. -1.
</event>
<event>
 5   0  0.3028601E-06  0.2570299E+04  0.7818609E-02  0.8378361E-01
        1   -1    0    0  501    0  0.00000000000E+00  0.00000000000E+00  0.28864020182E+04  0.28864020182E+04  0.50400001928E-02 0. -1.
       -1   -1    0    0    0  501  0.00000000000E+00  0.00000000000E+00 -0.57220339928E+03  0.57220339931E+03  0.50400001928E-02 0.  1.
    10030    2    1    2    0    0  0.00000000000E+00  0.00000000000E+00  0.23141986189E+04  0.34586054175E+04  0.25702988515E+04 0.  0.
        3    1    3    3  502    0 -0.40721110118E+02 -0.64174480366E+03 -0.34016264289E+03  0.72746493775E+03  0.10100000352E+00 0.  1.
       -3    1    3    3    0  502  0.40721110118E+02  0.64174480366E+03  0.26543612618E+04  0.27311404797E+04  0.10100000352E+00 0. -1.
</event>
<event>
 5   0  0.8407622E-06  0.2704096E+04  0.7818609E-02  0.8333677E-01
       -2   -1    0    0    0  501  0.00000000000E+00  0.00000000000E+00  0.82165372390E+03  0.82165372391E+03  0.25500000920E-02 0.  1.
        2   -1    0    0  501    0  0.00000000000E+00  0.00000000000E+00 -0.22248227788E+04  0.22248227788E+04  0.25500000920E-02 0. -1.
    10030    2    1    2    0    0  0.00000000000E+00  0.00000000000E+00 -0.14031690549E+04  0.30464765027E+04  0.27040960939E+04 0.  0.
        1    1    3    3  502    0  0.11048984523E+03 -0.58914509269E+03  0.66377580921E+03  0.89437032098E+03  0.50400001928E-02 0.  1.
       -1    1    3    3    0  502 -0.11048984523E+03  0.58914509269E+03 -0.20669448641E+04  0.21521061817E+04  0.50400001928E-02 0. -1.
</event>
<event>
 5   0  0.3013407E-06  0.2707472E+04  0.7818609E-02  0.8332585E-01
       -1   -1    0    0    0  501  0.00000000000E+00  0.00000000000E+00  0.14788612428E+04  0.14788612428E+04  0.50400001928E-02 0. -1.
        1   -1    0    0  501    0  0.00000000000E+00  0.00000000000E+00 -0.12391973028E+04  0.12391973028E+04  0.50400001928E-02 0.  1.
    10030    2    1    2    0    0  0.00000000000E+00  0.00000000000E+00  0.23966394001E+03  0.27180585456E+04  0.27074717825E+04 0.  0.
        4    1    3    3  502    0  0.38112141982E+03 -0.10767307376E+04  0.84930702300E+03  0.14233505015E+04  0.12699999809E+01 0. -1.
       -4    1    3    3    0  502 -0.38112141982E+03  0.10767307376E+04 -0.60964308300E+03  0.12947080441E+04  0.12699999809E+01 0.  1.
</event>
<event>
 5   0  0.3013407E-06  0.2692553E+04  0.7818609E-02  0.8337425E-01
       -1   -1    0    0    0  501  0.00000000000E+00  0.00000000000E+00  0.10276467407E+04  0.10276467407E+04  0.50400001928E-02 0.  1.
        1   -1    0    0  501    0  0.00000000000E+00  0.00000000000E+00 -0.17636999328E+04  0.17636999328E+04  0.50400001928E-02 0. -1.
    10030    2    1    2    0    0  0.00000000000E+00  0.00000000000E+00 -0.73605319213E+03  0.27913466735E+04  0.26925530543E+04 0.  0.
        4    1    3    3  502    0  0.13448908057E+04 -0.59346266247E+02 -0.38289204619E+03  0.13995932232E+04  0.12699999809E+01 0. -1.
       -4    1    3    3    0  502 -0.13448908057E+04  0.59346266247E+02 -0.35316114594E+03  0.13917534503E+04  0.12699999809E+01 0.  1.
</event>
<event>
 5   0  0.8213334E-06  0.2586253E+04  0.7818609E-02  0.8372886E-01
        2   -1    0    0  501    0  0.00000000000E+00  0.00000000000E+00  0.89979488612E+03  0.89979488612E+03  0.25500000920E-02 0.  1.
       -2   -1    0    0    0  501  0.00000000000E+00  0.00000000000E+00 -0.18583967220E+04  0.18583967220E+04  0.25500000920E-02 0. -1.
    10030    2    1    2    0    0  0.00000000000E+00  0.00000000000E+00 -0.95860183588E+03  0.27581916081E+04  0.25862527849E+04 0.  0.
        3    1    3    3  502    0  0.69616592519E+03  0.89647893729E+03  0.18144837882E+03  0.11494542204E+04  0.10100000352E+00 0.  1.
       -3    1    3    3    0  502 -0.69616592519E+03 -0.89647893729E+03 -0.11400502147E+04  0.16087373877E+04  0.10100000352E+00 0. -1.
</event>
<event>
 5   0  0.7812908E-06  0.2727305E+04  0.7818609E-02  0.8326199E-01
        2   -1    0    0  501    0  0.00000000000E+00  0.00000000000E+00  0.13673510129E+04  0.13673510129E+04  0.25500000920E-02 0. -1.
       -2   -1    0    0    0  501  0.00000000000E+00  0.00000000000E+00 -0.13599639133E+04  0.13599639133E+04  0.25500000920E-02 0.  1.
    10030    2    1    2    0    0  0.00000000000E+00  0.00000000000E+00  0.73870995808E+01  0.27273149262E+04  0.27273049219E+04 0.  0.
        5    1    3    3  502    0  0.55503658164E+03 -0.94050320936E+02 -0.12383314868E+04  0.13602933622E+04  0.46999998093E+01 0.  1.
       -5    1    3    3    0  502 -0.55503658164E+03  0.94050320936E+02  0.12457185864E+04  0.13670215640E+04  0.46999998093E+01 0. -1.
</event>
<event>
 5   0  0.7812908E-06  0.2649550E+04  0.7818609E-02  0.8351562E-01
       -2   -1    0    0    0  501  0.00000000000E+00  0.00000000000E+00  0.12211145670E+04  0.12211145670E+04  0.25500000920E-02 0.  1.
        2   -1    0    0  501    0  0.00000000000E+00  0.00000000000E+00 -0.14372347908E+04  0.14372347908E+04  0.25500000920E-02 0. -1.
    10030    2    1    2    0    0  0.00000000000E+00  0.00000000000E+00 -0.21612022380E+03  0.26583493577E+04  0.26495496517E+04 0.  0.
        5    1    3    3  502    0 -0.95981154220E+02  0.17527326588E+03 -0.14220176065E+04  0.14359976542E+04  0.46999998093E+01 0. -1.
       -5    1    3    3    0  502  0.95981154220E+02 -0.17527326588E+03  0.12058973827E+04  0.12223517036E+04  0.46999998093E+01 0.  1.
</event>
<event>
 5   0  0.8407622E-06  0.2681605E+04  0.7818609E-02  0.8340998E-01
       -2   -1    0    0    0  501  0.00000000000E+00  0.00000000000E+00  0.16818461350E+04  0.16818461350E+04  0.25500000920E-02 0. -1.
        2   -1    0    0  501    0  0.00000000000E+00  0.00000000000E+00 -0.10689158639E+04  0.10689158639E+04  0.25500000920E-02 0.  1.
    10030    2    1    2    0    0  0.00000000000E+00  0.00000000000E+00  0.61293027114E+03  0.27507619989E+04  0.26816054999E+04 0.  0.
        1    1    3    3  502    0 -0.20650388849E+02  0.74772865207E+03 -0.83498866941E+03  0.11210399876E+04  0.50400001928E-02 0.  1.
       -1    1    3    3    0  502  0.20650388849E+02 -0.74772865207E+03  0.14479189405E+04  0.16297220113E+04  0.50400001928E-02 0. -1.
</event>
<event>
 5   0  0.3013407E-06  0.2791641E+04  0.7818609E-02  0.8305868E-01
       -1   -1    0    0    0  501  0.00000000000E+00  0.00000000000E+00  0.60573864533E+03  0.60573864535E+03  0.50400001928E-02 0. -1.
        1   -1    0    0  501    0  0.00000000000E+00  0.00000000000E+00 -0.32164272769E+04  0.32164272769E+04  0.50400001928E-02 0.  1.
    10030    2    1    2    0    0  0.00000000000E+00  0.00000000000E+00 -0.26106886315E+04  0.38221659222E+04  0.27916405940E+04 0.  0.
        4    1    3    3  502    0  0.13918091849E+04 -0.85728823517E+01 -0.11610542478E+04  0.18125272082E+04  0.12699999809E+01 0. -1.
       -4    1    3    3    0  502 -0.13918091849E+04  0.85728823517E+01 -0.14496343838E+04  0.20096387140E+04  0.12699999809E+01 0.  1.
</event>
<event>
 5   0  0.2654625E-06  0.2711647E+04  0.7818609E-02  0.8331236E-01
       -3   -1    0    0    0  501  0.00000000000E+00  0.00000000000E+00  0.28144510399E+04  0.28144510417E+04  0.10100000352E+00 0.  1.
        3   -1    0    0  501    0  0.00000000000E+00  0.00000000000E+00 -0.65314946965E+03  0.65314947746E+03  0.10100000352E+00 0. -1.
    10030    2    1    2    0    0  0.00000000000E+00  0.00000000000E+00  0.21613015702E+04  0.34676005191E+04  0.27116468950E+04 0.  0.
        2    1    3    3  502    0  0.10117350501E+04 -0.57948889354E+03  0.19575514440E+03  0.11822585444E+04  0.25500000920E-02 0. -1.
       -2    1    3    3    0  502 -0.10117350501E+04  0.57948889354E+03  0.19655464258E+04  0.22853419747E+04  0.25500000920E-02 0.  1.
</event>
<event>
 5   0  0.7812908E-06  0.2701705E+04  0.7818609E-02  0.8334452E-01
       -2   -1    0    0    0  501  0.00000000000E+00  0.00000000000E+00  0.98493364513E+03  0.98493364513E+03  0.25500000920E-02 0. -1.
        2   -1    0    0  501    0  0.00000000000E+00  0.00000000000E+00 -0.18527159505E+04  0.18527159505E+04  0.25500000920E-02 0.  1.
    10030    2    1    2    0    0  0.00000000000E+00  0.00000000000E+00 -0.86778230532E+03  0.28376495956E+04  0.27017048503E+04 0.  0.
        5    1    3    3  502    0  0.60903881920E+03 -0.66920795707E+03 -0.14873621314E+04  0.17409870112E+04  0.46999998093E+01 0.  1.
       -5    1    3    3    0  502 -0.60903881920E+03  0.66920795707E+03  0.61957982611E+03  0.10966625844E+04  0.46999998093E+01 0. -1.
</event>
<event>
 5   0  0.7838364E-06  0.2774830E+04  0.7818609E-02  0.8311125E-01
       -2   -1    0    0    0  501  0.00000000000E+00  0.00000000000E+00  0.12292823948E+04  0.12292823948E+04  0.25500000920E-02 0. -1.
        2   -1    0    0  501    0  0.00000000000E+00  0.00000000000E+00 -0.15658900385E+04  0.15658900385E+04  0.25500000920E-02 0.  1.
    10030    2    1    2    0    0  0.00000000000E+00  0.00000000000E+00 -0.33660764362E+03  0.27951724333E+04  0.27748304860E+04 0.  0.
        2    1    3    3  502    0  0.67165821716E+03  0.12091690669E+04 -0.59314235563E+02  0.13844611846E+04  0.25500000920E-02 0. -1.
       -2    1    3    3    0  502 -0.67165821716E+03 -0.12091690669E+04 -0.27729340806E+03  0.14107112487E+04  0.25500000920E-02 0.  1.
</event>
<event>
 5   0  0.8213334E-06  0.2719420E+04  0.7818609E-02  0.8328731E-01
        2   -1    0    0  501    0  0.00000000000E+00  0.00000000000E+00  0.14508519813E+04  0.14508519813E+04  0.25500000920E-02 0. -1.
       -2   -1    0    0    0  501  0.00000000000E+00  0.00000000000E+00 -0.12742938814E+04  0.12742938814E+04  0.25500000920E-02 0.  1.
    10030    2    1    2    0    0  0.00000000000E+00  0.00000000000E+00  0.17655809982E+03  0.27251458627E+04  0.27194203813E+04 0.  0.
        3    1    3    3  502    0 -0.50232655928E+03  0.99795030042E+03 -0.68832032407E+03  0.13122582265E+04  0.10100000352E+00 0.  1.
       -3    1    3    3    0  502  0.50232655928E+03 -0.99795030042E+03  0.86487842389E+03  0.14128876362E+04  0.10100000352E+00 0. -1.
</event>
<event>
 5   0  0.3199840E-06  0.2733262E+04  0.7818609E-02  0.8324293E-01
        1   -1    0    0  501    0  0.00000000000E+00  0.00000000000E+00  0.29418213524E+04  0.29418213524E+04  0.50400001928E-02 0.  1.
       -1   -1    0    0    0  501  0.00000000000E+00  0.00000000000E+00 -0.63487210090E+03  0.63487210092E+03  0.50400001928E-02 0. -1.
    10030    2    1    2    0    0  0.00000000000E+00  0.00000000000E+00  0.23069492515E+04  0.35766934533E+04  0.27332620090E+04 0.  0.
        1    1    3    3  502    0  0.77708644873E+03  0.74606274842E+03  0.22539335362E+04  0.24981371778E+04  0.50400001928E-02 0. -1.
       -1    1    3    3    0  502 -0.77708644873E+03 -0.74606274842E+03  0.53015715287E+02  0.10785562755E+04  0.50400001928E-02 0.  1.
</event>
<event>
 5   0  0.8213334E-06  0.2665869E+04  0.7818609E-02  0.8346165E-01
       -2   -1    0    0    0  501  0.00000000000E+00  0.00000000000E+00  0.14839942005E+04  0.14839942005E+04  0.25500000920E-02 0. -1.
        2   -1    0    0  501    0  0.00000000000E+00  0.00000000000E+00 -0.11972517781E+04  0.11972517782E+04  0.25500000920E-02 0.  1.
    10030    2    1    2    0    0  0.00000000000E+00  0.00000000000E+00  0.28674242237E+03  0.26812459787E+04  0.26658692356E+04 0.  0.
        3    1    3    3  502    0  0.29429857460E+03 -0.91487186630E+03  0.10723396698E+04  0.14399703332E+04  0.10100000352E+00 0. -1.
       -3    1    3    3    0  502 -0.29429857460E+03  0.91487186630E+03 -0.78559724743E+03  0.12412756455E+04  0.10100000352E+00 0.  1.
</event>
<event>
 5   0  0.7812908E-06  0.2703387E+04  0.7818609E-02  0.8333907E-01
       -2   -1    0    0    0  501  0.00000000000E+00  0.00000000000E+00  0.80678893083E+03  0.80678893083E+03  0.25500000920E-02 0. -1.
        2   -1    0    0  501    0  0.00000000000E+00  0.00000000000E+00 -0.22646257986E+04  0.22646257986E+04  0.25500000920E-02 0.  1.
    10030    2    1    2    0    0  0.00000000000E+00  0.00000000000E+00 -0.14578368677E+04  0.30714147294E+04  0.27033867846E+04 0.  0.
        5    1    3    3  502    0 -0.68792256868E+03  0.40718080020E+03  0.50942760464E+03  0.94793050321E+03  0.46999998093E+01 0. -1.
       -5    1    3    3    0  502  0.68792256868E+03 -0.40718080020E+03 -0.19672644724E+04  0.21234842262E+04  0.46999998093E+01 0.  1.
</event>
<event>
 5   0  0.3199840E-06  0.2720139E+04  0.7818609E-02  0.8328500E-01
        1   -1    0    0  501    0  0.00000000000E+00  0.00000000000E+00  0.24583352775E+04  0.24583352775E+04  0.50400001928E-02 0.  1.
       -1   -1    0    0    0  501  0.00000000000E+00  0.00000000000E+00 -0.75245597594E+03  0.75245597596E+03  0.50400001928E-02 0. -1.
    10030    2    1    2    0    0  0.00000000000E+00  0.00000000000E+00  0.17058793016E+04  0.32107912535E+04  0.27201390188E+04 0.  0.
        1    1    3    3  502    0  0.47344579343E+03  0.11427663891E+04  0.15203731486E+04  0.19600001149E+04  0.50400001928E-02 0.  1.
       -1    1    3    3    0  502 -0.47344579343E+03 -0.11427663891E+04  0.18550615297E+03  0.12507911386E+04  0.50400001928E-02 0. -1.
</event>
<event>
 5   0  0.3046300E-06  0.2599307E+04  0.7818609E-02  0.8368436E-01
       -1   -1    0    0    0  501  0.00000000000E+00  0.00000000000E+00  0.10851301312E+04  0.10851301312E+04  0.50400001928E-02 0. -1.
        1   -1    0    0  501    0  0.00000000000E+00  0.00000000000E+00 -0.15565872888E+04  0.15565872888E+04  0.50400001928E-02 0.  1.
    10030    2    1    2    0    0  0.00000000000E+00  0.00000000000E+00 -0.47145715755E+03  0.26417174200E+04  0.25993074223E+04 0.  0.
        2    1    3    3  502    0 -0.37263721427E+03  0.11469893490E+04  0.25658883854E+03  0.12329967122E+04  0.25500000920E-02 0. -1.
       -2    1    3    3    0  502  0.37263721427E+03 -0.11469893490E+04 -0.72804599609E+03  0.14087207078E+04  0.25500000920E-02 0.  1.
</event>
<event>
 5   0  0.7729970E-06  0.2692118E+04  0.7818609E-02  0.8337567E-01
        2   -1    0    0  501    0  0.00000000000E+00  0.00000000000E+00  0.85571039667E+03  0.85571039667E+03  0.25500000920E-02 0.  1.
       -2   -1    0    0    0  501  0.00000000000E+00  0.00000000000E+00 -0.21173919778E+04  0.21173919778E+04  0.25500000920E-02 0. -1.
    10030    2    1    2    0    0  0.00000000000E+00  0.00000000000E+00 -0.12616815811E+04  0.29731023744E+04  0.26921176269E+04 0.  0.
        4    1    3    3  502    0  0.89387929195E+03  0.65478048289E+02 -0.17399334004E+04  0.19572116426E+04  0.12699999809E+01 0. -1.
       -4    1    3    3    0  502 -0.89387929195E+03 -0.65478048289E+02  0.47825181930E+03  0.10158907318E+04  0.12699999809E+01 0.  1.
</event>
<event>
 5   0  0.7729970E-06  0.2717241E+04  0.7818609E-02  0.8329433E-01
       -2   -1    0    0    0  501  0.00000000000E+00  0.00000000000E+00  0.13798202368E+04  0.13798202368E+04  0.25500000920E-02 0.  1.
        2   -1    0    0  501    0  0.00000000000E+00  0.00000000000E+00 -0.13377461396E+04  0.13377461396E+04  0.25500000920E-02 0. -1.
    10030    2    1    2    0    0  0.00000000000E+00  0.00000000000E+00  0.42074097191E+02  0.27175663764E+04  0.27172406556E+04 0.  0.
        4    1    3    3  502    0 -0.60477068341E+03 -0.53914407524E+02  0.12365811278E+04  0.13776025702E+04  0.12699999809E+01 0.  1.
       -4    1    3    3    0  502  0.60477068341E+03  0.53914407524E+02 -0.11945070306E+04  0.13399638062E+04  0.12699999809E+01 0. -1.
</event>
<event>
 5   0  0.7838364E-06  0.2699306E+04  0.7818609E-02  0.8335230E-01
       -2   -1    0    0    0  501  0.00000000000E+00  0.00000000000E+00  0.17839056185E+04  0.17839056185E+04  0.25500000920E-02 0. -1.
        2   -1    0    0  501    0  0.00000000000E+00  0.00000000000E+00 -0.10211098840E+04  0.10211098840E+04  0.25500000920E-02 0.  1.
    10030    2    1    2    0    0  0.00000000000E+00  0.00000000000E+00  0.76279573454E+03  0.28050155025E+04  0.26993063251E+04 0.  0.
        2    1    3    3  502    0 -0.87487226436E+03 -0.98911122877E+03  0.67128700081E+03  0.14813401835E+04  0.25500000920E-02 0. -1.
       -2    1    3    3    0  502  0.87487226436E+03  0.98911122877E+03  0.91508733722E+02  0.13236753190E+04  0.25500000920E-02 0.  1.
</event>
<event>
 5   0  0.8407622E-06  0.2734754E+04  0.7818609E-02  0.8323816E-01
       -2   -1    0    0    0  501  0.00000000000E+00  0.00000000000E+00  0.98952238002E+03  0.98952238002E+03  0.25500000920E-02 0. -1.
        2   -1    0    0  501    0  0.00000000000E+00  0.00000000000E+00 -0.18895176253E+04  0.18895176253E+04  0.25500000920E-02 0.  1.
    10030    2    1    2    0    0  0.00000000000E+00  0.00000000000E+00 -0.89999524526E+03  0.28790400053E+04  0.27347540860E+04 0.  0.
        1    1    3    3  502    0 -0.41222927631E+03  0.63091411005E+03 -0.16511292661E+04  0.18149968165E+04  0.50400001928E-02 0.  1.
       -1    1    3    3    0  502  0.41222927631E+03 -0.63091411005E+03  0.75113402080E+03  0.10640431888E+04  0.50400001928E-02 0. -1.
</event>
<event>
 5   0  0.7729970E-06  0.2697405E+04  0.7818609E-02  0.8335848E-01
       -2   -1    0    0    0  501  0.00000000000E+00  0.00000000000E+00  0.70201373494E+03  0.70201373495E+03  0.25500000920E-02 0. -1.
        2   -1    0    0  501    0  0.00000000000E+00  0.00000000000E+00 -0.25911146623E+04  0.25911146623E+04  0.25500000920E-02 0.  1.
    10030    2    1    2    0    0  0.00000000000E+00  0.00000000000E+00 -0.18891009273E+04  0.32931283972E+04  0.26974047392E+04 0.  0.
        4    1    3    3  502    0 -0.16351399938E+03  0.24041008987E+03  0.66329765295E+03  0.72422318978E+03  0.12699999809E+01 0. -1.
       -4    1    3    3    0  502  0.16351399938E+03 -0.24041008987E+03 -0.25523985803E+04  0.25689052074E+04  0.12699999809E+01 0.  1.
</event>
<event>
 5   0  0.7812908E-06  0.2729962E+04  0.7818609E-02  0.8325348E-01
       -2   -1    0    0    0  501  0.00000000000E+00  0.00000000000E+00  0.75543885325E+03  0.75543885325E+03  0.25500000920E-02 0. -1.
        2   -1    0    0  501    0  0.00000000000E+00  0.00000000000E+00 -0.24663448690E+04  0.24663448690E+04  0.25500000920E-02 0.  1.
    10030    2    1    2    0    0  0.00000000000E+00  0.00000000000E+00 -0.17109060158E+04  0.32217837223E+04  0.27299617137E+04 0.  0.
        5    1    3    3  502    0 -0.11126580784E+04 -0.60227257638E+03 -0.14600003877E+04  0.19319325759E+04  0.46999998093E+01 0.  1.
       -5    1    3    3    0  502  0.11126580784E+04  0.60227257638E+03 -0.25090562809E+03  0.12898511464E+04  0.46999998093E+01 0. -1.
</event>
<event>
 5   0  0.3028601E-06  0.2654605E+04  0.7818609E-02  0.8349886E-01
        1   -1    0    0  501    0  0.00000000000E+00  0.00000000000E+00  0.10408115504E+04  0.10408115504E+04  0.50400001928E-02 0.  1.
       -1   -1    0    0    0  501  0.00000000000E+00  0.00000000000E+00 -0.16926527977E+04  0.16926527977E+04  0.50400001928E-02 0. -1.
    10030    2    1    2    0    0  0.00000000000E+00  0.00000000000E+00 -0.65184124729E+03  0.27334643480E+04  0.26546054943E+04 0.  0.
        3    1    3    3  502    0  0.36859711981E+03  0.49674424870E+03  0.88332212214E+03  0.10783675936E+04  0.10100000352E+00 0.  1.
       -3    1    3    3    0  502 -0.36859711981E+03 -0.49674424870E+03 -0.15351633694E+04  0.16550967544E+04  0.10100000352E+00 0. -1.
</event>
<event>
 5   0  0.3028601E-06  0.2702300E+04  0.7818609E-02  0.8334259E-01
        1   -1    0    0  501    0  0.00000000000E+00  0.00000000000E+00  0.14436025439E+04  0.14436025439E+04  0.50400001928E-02 0. -1.
       -1   -1    0    0    0  501  0.00000000000E+00  0.00000000000E+00 -0.12646186099E+04  0.12646186099E+04  0.50400001928E-02 0.  1.
    10030    2    1    2    0    0  0.00000000000E+00  0.00000000000E+00  0.17898393405E+03  0.27082211538E+04  0.27023002367E+04 0.  0.
        3    1    3    3  502    0  0.84485440997E+03 -0.22428114426E+03 -0.94306915324E+03  0.12858695283E+04  0.10100000352E+00 0.  1.
       -3    1    3    3    0  502 -0.84485440997E+03  0.22428114426E+03  0.11220530873E+04  0.14223516255E+04  0.10100000352E+00 0. -1.
</event>
<event>
 5   0  0.3013407E-06  0.2710921E+04  0.7818609E-02  0.8331470E-01
        1   -1    0    0  501    0  0.00000000000E+00  0.00000000000E+00  0.19405251753E+04  0.19405251753E+04  0.50400001928E-02 0.  1.
       -1   -1    0    0    0  501  0.00000000000E+00  0.00000000000E+00 -0.94679153860E+03  0.94679153861E+03  0.50400001928E-02 0. -1.
    10030    2    1    2    0    0  0.00000000000E+00  0.00000000000E+00  0.99373363665E+03  0.28873167139E+04  0.27109207413E+04 0.  0.
        4    1    3    3  502    0  0.12967128658E+04  0.33942728321E+03  0.71146181026E+03  0.15175159496E+04  0.12699999809E+01 0.  1.
       -4    1    3    3    0  502 -0.12967128658E+04 -0.33942728321E+03  0.28227182639E+03  0.13698007643E+04  0.12699999809E+01 0. -1.
</event>
<event>
 5   0  0.3199840E-06  0.2688473E+04  0.7818609E-02  0.8338755E-01
       -1   -1    0    0    0  501  0.00000000000E+00  0.00000000000E+00  0.14143108859E+04  0.14143108859E+04  0.50400001928E-02 0.  1.
        1   -1    0    0  501    0  0.00000000000E+00  0.00000000000E+00 -0.12776338188E+04  0.12776338188E+04  0.50400001928E-02 0. -1.
    10030    2    1    2    0    0  0.00000000000E+00  0.00000000000E+00  0.13667706703E+03  0.26919447047E+04  0.26884727398E+04 0.  0.
        1    1    3    3  502    0 -0.63754775438E+03 -0.11060812944E+04 -0.35302370735E+03  0.13245786903E+04  0.50400001928E-02 0. -1.
       -1    1    3    3    0  502  0.63754775438E+03  0.11060812944E+04  0.48970077438E+03  0.13673660144E+04  0.50400001928E-02 0.  1.
</event>
<event>
 5   0  0.8407622E-06  0.2520678E+04  0.7818609E-02  0.8395656E-01
       -2   -1    0    0    0  501  0.00000000000E+00  0.00000000000E+00  0.86429770196E+03  0.86429770196E+03  0.25500000920E-02 0.  1.
        2   -1    0    0  501    0  0.00000000000E+00  0.00000000000E+00 -0.18378560281E+04  0.18378560281E+04  0.25500000920E-02 0. -1.
    10030    2    1    2    0    0  0.00000000000E+00  0.00000000000E+00 -0.97355832614E+03  0.27021537301E+04  0.25206782751E+04 0.  0.
        1    1    3    3  502    0 -0.30824768208E+03 -0.11227318194E+04  0.30575037297E+02  0.11646794430E+04  0.50400001928E-02 0. -1.
       -1    1    3    3    0  502  0.30824768208E+03  0.11227318194E+04 -0.10041333634E+04  0.15374742871E+04  0.50400001928E-02 0.  1.
</event>
<event>
 5   0  0.7729970E-06  0.2710719E+04  0.7818609E-02  0.8331535E-01
        2   -1    0    0  501    0  0.00000000000E+00  0.00000000000E+00  0.12118526549E+04  0.12118526549E+04  0.25500000920E-02 0.  1.
       -2   -1    0    0    0  501  0.00000000000E+00  0.00000000000E+00 -0.15158604819E+04  0.15158604819E+04  0.25500000920E-02 0. -1.
    10030    2    1    2    0    0  0.00000000000E+00  0.00000000000E+00 -0.30400782706E+03  0.27277131368E+04  0.27107191292E+04 0.  0.
        4    1    3    3  502    0  0.58723715171E+03 -0.10021095684E+04  0.55089285310E+03  0.12855176420E+04  0.12699999809E+01 0.  1.
       -4    1    3    3    0  502 -0.58723715171E+03  0.10021095684E+04 -0.85490068016E+03  0.14421954948E+04  0.12699999809E+01 0. -1.
</event>
<event>
 5   0  0.7838364E-06  0.2690307E+04  0.7818609E-02  0.8338157E-01
        2   -1    0    0  501    0  0.00000000000E+00  0.00000000000E+00  0.13302809380E+04  0.13302809380E+04  0.25500000920E-02 0. -1.
       -2   -1    0    0    0  501  0.00000000000E+00  0.00000000000E+00 -0.13601923092E+04  0.13601923092E+04  0.25500000920E-02 0.  1.
    10030    2    1    2    0    0  0.00000000000E+00  0.00000000000E+00 -0.29911371244E+02  0.26904732471E+04  0.26903069720E+04 0.  0.
        2    1    3    3  502    0  0.36580339111E+03 -0.90478698090E+03  0.91083707463E+03  0.13349441105E+04  0.25500000920E-02 0. -1.
       -2    1    3    3    0  502 -0.36580339111E+03  0.90478698090E+03 -0.94074844588E+03  0.13555291366E+04  0.25500000920E-02 0.  1.
</event>
<event>
 5   0  0.3089218E-06  0.2743954E+04  0.7818609E-02  0.8320883E-01
        1   -1    0    0  501    0  0.00000000000E+00  0.00000000000E+00  0.26215255745E+04  0.26215255745E+04  0.50400001928E-02 0.  1.
       -1   -1    0    0    0  501  0.00000000000E+00  0.00000000000E+00 -0.71802495578E+03  0.71802495579E+03  0.50400001928E-02 0. -1.
    10030    2    1    2    0    0  0.00000000000E+00  0.00000000000E+00  0.19035006187E+04  0.33395505303E+04  0.27439539243E+04 0.  0.
        5    1    3    3  502    0  0.42591747800E+03 -0.12577760850E+04  0.53209946707E+03  0.14305797115E+04  0.46999998093E+01 0. -1.
       -5    1    3    3    0  502 -0.42591747800E+03  0.12577760850E+04  0.13714011516E+04  0.19089708187E+04  0.46999998093E+01 0.  1.
</event>
<event>
 5   0  0.3028601E-06  0.2716701E+04  0.7818609E-02  0.8329606E-01
        1   -1    0    0  501    0  0.00000000000E+00  0.00000000000E+00  0.15261884723E+04  0.15261884723E+04  0.50400001928E-02 0.  1.
       -1   -1    0    0    0  501  0.00000000000E+00  0.00000000000E+00 -0.12089696883E+04  0.12089696883E+04  0.50400001928E-02 0. -1.
    10030    2    1    2    0    0  0.00000000000E+00  0.00000000000E+00  0.31721878403E+03  0.27351581606E+04  0.27167006472E+04 0.  0.
        3    1    3    3  502    0 -0.53045472640E+03 -0.11140116306E+04  0.73054594482E+03  0.14339112656E+04  0.10100000352E+00 0.  1.
       -3    1    3    3    0  502  0.53045472640E+03  0.11140116306E+04 -0.41332716080E+03  0.13012468951E+04  0.10100000352E+00 0. -1.
</event>
<event>
 5   0  0.8407622E-06  0.2738224E+04  0.7818609E-02  0.8322708E-01
       -2   -1    0    0    0  501  0.00000000000E+00  0.00000000000E+00  0.10172556733E+04  0.10172556733E+04  0.25500000920E-02 0.  1.
        2   -1    0    0  501    0  0.00000000000E+00  0.00000000000E+00 -0.18426709964E+04  0.18426709964E+04  0.25500000920E-02 0. -1.
    10030    2    1    2    0    0  0.00000000000E+00  0.00000000000E+00 -0.82541532310E+03  0.28599266697E+04  0.27382238953E+04 0.  0.
        1    1    3    3  502    0  0.67847619221E+03 -0.18663497167E+02  0.82916846973E+03  0.10715403029E+04  0.50400001928E-02 0.  1.
       -1    1    3    3    0  502 -0.67847619221E+03  0.18663497167E+02 -0.16545837928E+04  0.17883863668E+04  0.50400001928E-02 0. -1.
</event>
<event>
 5   0  0.3013407E-06  0.2682296E+04  0.7818609E-02  0.8340772E-01
        1   -1    0    0  501    0  0.00000000000E+00  0.00000000000E+00  0.14269560789E+04  0.14269560789E+04  0.50400001928E-02 0. -1.
       -1   -1    0    0    0  501  0.00000000000E+00  0.00000000000E+00 -0.12604996143E+04  0.12604996143E+04  0.50400001928E-02 0.  1.
    10030    2    1    2    0    0  0.00000000000E+00  0.00000000000E+00  0.16645646462E+03  0.26874556932E+04  0.26822957235E+04 0.  0.
        4    1    3    3  502    0  0.10536709790E+04  0.28824008251E+03 -0.69632449767E+03  0.12954436677E+04  0.12699999809E+01 0. -1.
       -4    1    3    3    0  502 -0.10536709790E+04 -0.28824008251E+03  0.86278096229E+03  0.13920120255E+04  0.12699999809E+01 0.  1.
</event>
<event>
 5   0  0.3028601E-06  0.2694489E+04  0.7818609E-02  0.8336795E-01
       -1   -1    0    0    0  501  0.00000000000E+00  0.00000000000E+00  0.12451204190E+04  0.12451204190E+04  0.50400001928E-02 0. -1.
        1   -1    0    0  501    0  0.00000000000E+00  0.00000000000E+00 -0.14577450725E+04  0.14577450725E+04  0.50400001928E-02 0.  1.
    10030    2    1    2    0    0  0.00000000000E+00  0.00000000000E+00 -0.21262465350E+03  0.27028654915E+04  0.26944893063E+04 0.  0.
        3    1    3    3  502    0  0.28769698057E+03 -0.16483073070E+03  0.12035529917E+04  0.12483903782E+04  0.10100000352E+00 0. -1.
       -3    1    3    3    0  502 -0.28769698057E+03  0.16483073070E+03 -0.14161776451E+04  0.14544751133E+04  0.10100000352E+00 0.  1.
</event>
<event>
 5   0  0.3199840E-06  0.2744640E+04  0.7818609E-02  0.8320665E-01
       -1   -1    0    0    0  501  0.00000000000E+00  0.00000000000E+00  0.13209128068E+04  0.13209128068E+04  0.50400001928E-02 0.  1.
        1   -1    0    0  501    0  0.00000000000E+00  0.00000000000E+00 -0.14257274377E+04  0.14257274377E+04  0.50400001928E-02 0. -1.
    10030    2    1    2    0    0  0.00000000000E+00  0.00000000000E+00 -0.10481463084E+03  0.27466402445E+04  0.27446395986E+04 0.  0.
        1    1    3    3  502    0 -0.69980808404E+03 -0.25698698001E+03 -0.12054138037E+04  0.14173200417E+04  0.50400001928E-02 0. -1.
       -1    1    3    3    0  502  0.69980808404E+03  0.25698698001E+03  0.11005991729E+04  0.13293202028E+04  0.50400001928E-02 0.  1.
</event>
<event>
 5   0  0.3089218E-06  0.2696747E+04  0.7818609E-02  0.8336061E-01
       -1   -1    0    0    0  501  0.00000000000E+00  0.00000000000E+00  0.10415144861E+04  0.10415144861E+04  0.50400001928E-02 0.  1.
        1   -1    0    0  501    0  0.00000000000E+00  0.00000000000E+00 -0.17456410891E+04  0.17456410891E+04  0.50400001928E-02 0. -1.
    10030    2    1    2    0    0  0.00000000000E+00  0.00000000000E+00 -0.70412660300E+03  0.27871555753E+04  0.26967465450E+04 0.  0.
        5    1    3    3  502    0  0.78273968500E+03 -0.98025757022E+03  0.15898547561E+03  0.12644701617E+04  0.46999998093E+01 0. -1.
       -5    1    3    3    0  502 -0.78273968500E+03  0.98025757022E+03 -0.86311207861E+03  0.15226854136E+04  0.46999998093E+01 0.  1.
</event>
<event>
 5   0  0.3028601E-06  0.2697134E+04  0.7818609E-02  0.8335935E-01
       -1   -1    0    0    0  501  0.00000000000E+00  0.00000000000E+00  0.91129180398E+03  0.91129180399E+03  0.50400001928E-02 0. -1.
        1   -1    0    0  501    0  0.00000000000E+00  0.00000000000E+00 -0.19956650519E+04  0.19956650519E+04  0.50400001928E-02 0.  1.
    10030    2    1    2    0    0  0.00000000000E+00  0.00000000000E+00 -0.10843732479E+04  0.29069568559E+04  0.26971341867E+04 0.  0.
        3    1    3    3  502    0 -0.48048956579E+03  0.12547786943E+04 -0.41792012083E+03  0.14071236734E+04  0.10100000352E+00 0. -1.
       -3    1    3    3    0  502  0.48048956579E+03 -0.12547786943E+04 -0.66645312706E+03  0.14998331825E+04  0.10100000352E+00 0.  1.
</event>
<event>
 5   0  0.7729970E-06  0.2777096E+04  0.7818609E-02  0.8310415E-01
        2   -1    0    0  501    0  0.00000000000E+00  0.00000000000E+00  0.13501945361E+04  0.13501945361E+04  0.25500000920E-02 0. -1.
       -2   -1    0    0    0  501  0.00000000000E+00  0.00000000000E+00 -0.14279904520E+04  0.14279904520E+04  0.25500000920E-02 0.  1.
    10030    2    1    2    0    0  0.00000000000E+00  0.00000000000E+00 -0.77795915919E+02  0.27781849881E+04  0.27770955373E+04 0.  0.
        4    1    3    3  502    0  0.21895751671E+03  0.31543883094E+03 -0.13738198979E+04  0.14264735451E+04  0.12699999809E+01 0.  1.
       -4    1    3    3    0  502 -0.21895751671E+03 -0.31543883094E+03  0.12960239820E+04  0.13517114429E+04  0.12699999809E+01 0. -1.
</event>
<event>
 5   0  0.8407622E-06  0.2714981E+04  0.7818609E-02  0.8330161E-01
        2   -1    0    0  501    0  0.00000000000E+00  0.00000000000E+00  0.18617687264E+04  0.18617687264E+04  0.25500000920E-02 0. -1.
       -2   -1    0    0    0  501  0.00000000000E+00  0.00000000000E+00 -0.98980073634E+03  0.98980073635E+03  0.25500000920E-02 0.  1.
    10030    2    1    2    0    0  0.00000000000E+00  0.00000000000E+00  0.87196799007E+03  0.28515694628E+04  0.27149807044E+04 0.  0.
        1    1    3    3  502    0  0.11261774233E+04  0.58916158806E+03  0.93683187546E+03  0.15789366449E+04  0.50400001928E-02 0. -1.
       -1    1    3    3    0  502 -0.11261774233E+04 -0.58916158806E+03 -0.64863885393E+02  0.12726328179E+04  0.50400001928E-02 0.  1.
</event>
<event>
 5   0  0.3013407E-06  0.2717036E+04  0.7818609E-02  0.8329498E-01
       -1   -1    0    0    0  501  0.00000000000E+00  0.00000000000E+00  0.13217557854E+04  0.13217557854E+04  0.50400001928E-02 0. -1.
        1   -1    0    0  501    0  0.00000000000E+00  0.00000000000E+00 -0.13963028485E+04  0.13963028486E+04  0.50400001928E-02 0.  1.
    10030    2    1    2    0    0  0.00000000000E+00  0.00000000000E+00 -0.74547063134E+02  0.27180586340E+04  0.27170361560E+04 0.  0.
        4    1    3    3  502    0 -0.20858816980E+03  0.12830478177E+04  0.35765221957E+03  0.13481978527E+04  0.12699999809E+01 0.  1.
       -4    1    3    3    0  502  0.20858816980E+03 -0.12830478177E+04 -0.43219928271E+03  0.13698607812E+04  0.12699999809E+01 0. -1.
</event>
<event>
 5   0  0.7812908E-06  0.2718944E+04  0.7818609E-02  0.8328884E-01
       -2   -1    0    0    0  501  0.00000000000E+00  0.00000000000E+00  0.11116273612E+04  0.11116273612E+04  0.25500000920E-02 0.  1.
        2   -1    0    0  501    0  0.00000000000E+00  0.00000000000E+00 -0.16625754875E+04  0.16625754875E+04  0.25500000920E-02 0. -1.
    10030    2    1    2    0    0  0.00000000000E+00  0.00000000000E+00 -0.55094812629E+03  0.27742028487E+04  0.27189442083E+04 0.  0.
        5    1    3    3  502    0  0.54684178958E+03  0.37301087327E+03 -0.14870279606E+04  0.16277122903E+04  0.46999998093E+01 0. -1.
       -5    1    3    3    0  502 -0.54684178958E+03 -0.37301087327E+03  0.93607983427E+03  0.11464905584E+04  0.46999998093E+01 0.  1.
</event>
<event>
 5   0  0.3013407E-06  0.2601528E+04  0.7818609E-02  0.8367682E-01
        1   -1    0    0  501    0  0.00000000000E+00  0.00000000000E+00  0.13460202412E+04  0.13460202413E+04  0.50400001928E-02 0.  1.
       -1   -1    0    0    0  501  0.00000000000E+00  0.00000000000E+00 -0.12570296459E+04  0.12570296459E+04  0.50400001928E-02 0. -1.
    10030    2    1    2    0    0  0.00000000000E+00  0.00000000000E+00  0.88990595342E+02  0.26030498872E+04  0.26015282795E+04 0.  0.
        4    1    3    3  502    0 -0.48068831848E+03  0.38270380189E+03 -0.11026752895E+04  0.12623065659E+04  0.12699999809E+01 0. -1.
       -4    1    3    3    0  502  0.48068831848E+03 -0.38270380189E+03  0.11916658848E+04  0.13407433212E+04  0.12699999809E+01 0.  1.
</event>
<event>
 5   0  0.3199840E-06  0.2696455E+04  0.7818609E-02  0.8336156E-01
        1   -1    0    0  501    0  0.00000000000E+00  0.00000000000E+00  0.12376925695E+04  0.12376925695E+04  0.50400001928E-02 0. -1.
       -1   -1    0    0    0  501  0.00000000000E+00  0.00000000000E+00 -0.14686335173E+04  0.14686335173E+04  0.50400001928E-02 0.  1.
    10030    2    1    2    0    0  0.00000000000E+00  0.00000000000E+00 -0.23094094779E+03  0.27063260868E+04  0.26964545549E+04 0.  0.
        1    1    3    3  502    0 -0.97930007796E+03 -0.90255967597E+03  0.95236611761E+02  0.13351826181E+04  0.50400001928E-02 0. -1.
       -1    1    3    3    0  502  0.97930007796E+03  0.90255967597E+03 -0.32617755955E+03  0.13711434687E+04  0.50400001928E-02 0.  1.
</event>
<event>
 5   0  0.3199840E-06  0.2707336E+04  0.7818609E-02  0.8332629E-01
       -1   -1    0    0    0  501  0.00000000000E+00  0.00000000000E+00  0.14858890449E+04  0.14858890449E+04  0.50400001928E-02 0. -1.
        1   -1    0    0  501    0  0.00000000000E+00  0.00000000000E+00 -0.12332123497E+04  0.12332123497E+04  0.50400001928E-02 0.  1.
    10030    2    1    2    0    0  0.00000000000E+00  0.00000000000E+00  0.25267669518E+03  0.27191013946E+04  0.27073357534E+04 0.  0.
        1    1    3    3  502    0 -0.10286997961E+04  0.16012440163E+03 -0.74261156354E+03  0.12788021852E+04  0.50400001928E-02 0.  1.
       -1    1    3    3    0  502  0.10286997961E+04 -0.16012440163E+03  0.99528825872E+03  0.14402992094E+04  0.50400001928E-02 0. -1.
</event>
<event>
 5   0  0.3028601E-06  0.2662999E+04  0.7818609E-02  0.8347111E-01
       -1   -1    0    0    0  501  0.00000000000E+00  0.00000000000E+00  0.96283570038E+03  0.96283570040E+03  0.50400001928E-02 0. -1.
        1   -1    0    0  501    0  0.00000000000E+00  0.00000000000E+00 -0.18413225562E+04  0.18413225562E+04  0.50400001928E-02 0.  1.
    10030    2    1    2    0    0  0.00000000000E+00  0.00000000000E+00 -0.87848685578E+03  0.28041582566E+04  0.26629991311E+04 0.  0.
        3    1    3    3  502    0  0.12178298748E+04  0.28398329124E+03  0.42310382478E+02  0.12512179236E+04  0.10100000352E+00 0.  1.
       -3    1    3    3    0  502 -0.12178298748E+04 -0.28398329124E+03 -0.92079723826E+03  0.15529403330E+04  0.10100000352E+00 0. -1.
</event>
<event>
 5   0  0.7812908E-06  0.2723342E+04  0.7818609E-02  0.8327471E-01
       -2   -1    0    0    0  501  0.00000000000E+00  0.00000000000E+00  0.84257334087E+03  0.84257334088E+03  0.25500000920E-02 0.  1.
        2   -1    0    0  501    0  0.00000000000E+00  0.00000000000E+00 -0.22005782375E+04  0.22005782375E+04  0.25500000920E-02 0. -1.
    10030    2    1    2    0    0  0.00000000000E+00  0.00000000000E+00 -0.13580048966E+04  0.30431515783E+04  0.27233424738E+04 0.  0.
        5    1    3    3  502    0  0.39943550951E+03  0.68734495570E+03 -0.19143263792E+04  0.20728384864E+04  0.46999998093E+01 0. -1.
       -5    1    3    3    0  502 -0.39943550951E+03 -0.68734495570E+03  0.55632148264E+03  0.97031309197E+03  0.46999998093E+01 0.  1.
</event>
<event>
 5   0  0.8407622E-06  0.2713209E+04  0.7818609E-02  0.8330732E-01
       -2   -1    0    0    0  501  0.00000000000E+00  0.00000000000E+00  0.95448261864E+03  0.95448261865E+03  0.25500000920E-02 0.  1.
        2   -1    0    0  501    0  0.00000000000E+00  0.00000000000E+00 -0.19281398946E+04  0.19281398946E+04  0.25500000920E-02 0. -1.
    10030    2    1    2    0    0  0.00000000000E+00  0.00000000000E+00 -0.97365727592E+03  0.28826225132E+04  0.27132091815E+04 0.  0.
        1    1    3    3  502    0 -0.69365514729E+02 -0.20717534947E+03 -0.19093257015E+04  0.19217850646E+04  0.50400001928E-02 0. -1.
       -1    1    3    3    0  502  0.69365514729E+02  0.20717534947E+03  0.93566842557E+03  0.96083744863E+03  0.50400001928E-02 0.  1.
</event>
<event>
 5   0  0.3013407E-06  0.2708128E+04  0.7818609E-02  0.8332372E-01
        1   -1    0    0  501    0  0.00000000000E+00  0.00000000000E+00  0.21119791383E+04  0.21119791384E+04  0.50400001928E-02 0.  1.
       -1   -1    0    0    0  501  0.00000000000E+00  0.00000000000E+00 -0.86813810386E+03  0.86813810387E+03  0.50400001928E-02 0. -1.
    10030    2    1    2    0    0  0.00000000000E+00  0.00000000000E+00  0.12438410345E+04  0.29801172422E+04  0.27081281835E+04 0.  0.
        4    1    3    3  502    0  0.11696690490E+04 -0.34880939133E+03  0.12670550403E+04  0.17593248034E+04  0.12699999809E+01 0.  1.
       -4    1    3    3    0  502 -0.11696690490E+04  0.34880939133E+03 -0.23214005828E+02  0.12207924388E+04  0.12699999809E+01 0. -1.
</event>
<event>
 5   0  0.3028601E-06  0.2692497E+04  0.7818609E-02  0.8337443E-01
       -1   -1    0    0    0  501  0.00000000000E+00  0.00000000000E+00  0.11447999757E+04  0.11447999757E+04  0.50400001928E-02 0. -1.
        1   -1    0    0  501    0  0.00000000000E+00  0.00000000000E+00 -0.15831461381E+04  0.15831461381E+04  0.50400001928E-02 0.  1.
    10030    2    1    2    0    0  0.00000000000E+00  0.00000000000E+00 -0.43834616233E+03  0.27279461138E+04  0.26924974729E+04 0.  0.
        3    1    3    3  502    0  0.74087274886E+03  0.98030450841E+03 -0.77641080547E+03  0.14535140551E+04  0.10100000352E+00 0.  1.
       -3    1    3    3    0  502 -0.74087274886E+03 -0.98030450841E+03  0.33806464314E+03  0.12744320587E+04  0.10100000352E+00 0. -1.
</event>
<event>
 5   0  0.7812908E-06  0.2677362E+04  0.7818609E-02  0.8342388E-01
        2   -1    0    0  501    0  0.00000000000E+00  0.00000000000E+00  0.17517146690E+04  0.17517146690E+04  0.25500000920E-02 0. -1.
       -2   -1    0    0    0  501  0.00000000000E+00  0.00000000000E+00 -0.10230355294E+04  0.10230355294E+04  0.25500000920E-02 0.  1.
    10030    2    1    2    0    0  0.00000000000E+00  0.00000000000E+00  0.72867913958E+03  0.27747501984E+04  0.26773616445E+04 0.  0.
        5    1    3    3  502    0  0.45611419045E+03 -0.12566262848E+04  0.29183421039E+03  0.13683344148E+04  0.46999998093E+01 0.  1.
       -5    1    3    3    0  502 -0.45611419045E+03  0.12566262848E+04  0.43684492919E+03  0.14064157836E+04  0.46999998093E+01 0. -1.
</event>
<event>
 5   0  0.3028601E-06  0.2668727E+04  0.7818609E-02  0.8345224E-01
       -1   -1    0    0    0  501  0.00000000000E+00  0.00000000000E+00  0.72990995069E+03  0.72990995071E+03  0.50400001928E-02 0. -1.
        1   -1    0    0  501    0  0.00000000000E+00  0.00000000000E+00 -0.24393767999E+04  0.24393767999E+04  0.50400001928E-02 0.  1.
    10030    2    1    2    0    0  0.00000000000E+00  0.00000000000E+00 -0.17094668492E+04  0.31692867506E+04  0.26687265876E+04 0.  0.
        3    1    3    3  502    0 -0.52836722582E+03 -0.67714403827E+03 -0.20674633356E+04  0.22387721251E+04  0.10100000352E+00 0.  1.
       -3    1    3    3    0  502  0.52836722582E+03  0.67714403827E+03  0.35799648637E+03  0.93051462554E+03  0.10100000352E+00 0. -1.
</event>
<event>
 5   0  0.3028601E-06  0.2702049E+04  0.7818609E-02  0.8334340E-01
        1   -1    0    0  501    0  0.00000000000E+00  0.00000000000E+00  0.15435690185E+04  0.15435690185E+04  0.50400001928E-02 0.  1.
       -1   -1    0    0    0  501  0.00000000000E+00  0.00000000000E+00 -0.11824978729E+04  0.11824978729E+04  0.50400001928E-02 0. -1.
    10030    2    1    2    0    0  0.00000000000E+00  0.00000000000E+00  0.36107114555E+03  0.27260668915E+04  0.27020489123E+04 0.  0.
        3    1    3    3  502    0 -0.92574393198E+03  0.77579603307E+03 -0.43015954368E+03  0.12821460743E+04  0.10100000352E+00 0. -1.
       -3    1    3    3    0  502  0.92574393198E+03 -0.77579603307E+03  0.79123068923E+03  0.14439208172E+04  0.10100000352E+00 0.  1.
</event>
<event>
 5   0  0.7729970E-06  0.2702301E+04  0.7818609E-02  0.8334259E-01
        2   -1    0    0  501    0  0.00000000000E+00  0.00000000000E+00  0.18742230904E+04  0.18742230904E+04  0.25500000920E-02 0. -1.
       -2   -1    0    0    0  501  0.00000000000E+00  0.00000000000E+00 -0.97406107687E+03  0.97406107687E+03  0.25500000920E-02 0.  1.
    10030    2    1    2    0    0  0.00000000000E+00  0.00000000000E+00  0.90016201356E+03  0.28482841673E+04  0.27023010652E+04 0.  0.
        4    1    3    3  502    0 -0.17797217258E+03 -0.11188261781E+04  0.12261732358E+04  0.16694156247E+04  0.12699999809E+01 0. -1.
       -4    1    3    3    0  502  0.17797217258E+03  0.11188261781E+04 -0.32601122219E+03  0.11788685426E+04  0.12699999809E+01 0.  1.
</event>
<event>
 5   0  0.7838364E-06  0.2678417E+04  0.7818609E-02  0.8342042E-01
       -2   -1    0    0    0  501  0.00000000000E+00  0.00000000000E+00  0.10612918813E+04  0.10612918813E+04  0.25500000920E-02 0.  1.
        2   -1    0    0  501    0  0.00000000000E+00  0.00000000000E+00 -0.16899024463E+04  0.16899024463E+04  0.25500000920E-02 0. -1.
    10030    2    1    2    0    0  0.00000000000E+00  0.00000000000E+00 -0.62861056495E+03  0.27511943276E+04  0.26784172539E+04 0.  0.
        2    1    3    3  502    0 -0.10937813228E+04  0.41831188134E+03 -0.98168025363E+03  0.15280832872E+04  0.25500000920E-02 0. -1.
       -2    1    3    3    0  502  0.10937813228E+04 -0.41831188134E+03  0.35306968868E+03  0.12231110404E+04  0.25500000920E-02 0.  1.
</event>
<event>
 5   0  0.3046300E-06  0.2768684E+04  0.7818609E-02  0.8313057E-01
        1   -1    0    0  501    0  0.00000000000E+00  0.00000000000E+00  0.29992650527E+04  0.29992650527E+04  0.50400001928E-02 0.  1.
       -1   -1    0    0    0  501  0.00000000000E+00  0.00000000000E+00 -0.63895756416E+03  0.63895756418E+03  0.50400001928E-02 0. -1.
    10030    2    1    2    0    0  0.00000000000E+00  0.00000000000E+00  0.23603074886E+04  0.36382226169E+04  0.27686842308E+04 0.  0.
        2    1    3    3  502    0 -0.48635086803E+02  0.11341080529E+04  0.22213657629E+04  0.24946006293E+04  0.25500000920E-02 0.  1.
       -2    1    3    3    0  502  0.48635086803E+02 -0.11341080529E+04  0.13894172567E+03  0.11436219876E+04  0.25500000920E-02 0. -1.
</event>
<event>
 5   0  0.7838364E-06  0.2723740E+04  0.7818609E-02  0.8327343E-01
       -2   -1    0    0    0  501  0.00000000000E+00  0.00000000000E+00  0.16692852430E+04  0.16692852430E+04  0.25500000920E-02 0. -1.
        2   -1    0    0  501    0  0.00000000000E+00  0.00000000000E+00 -0.11110683516E+04  0.11110683516E+04  0.25500000920E-02 0.  1.
    10030    2    1    2    0    0  0.00000000000E+00  0.00000000000E+00  0.55821689136E+03  0.27803535946E+04  0.27237400781E+04 0.  0.
        2    1    3    3  502    0  0.10510647432E+04  0.71686085833E+03  0.77507080368E+03  0.14897521053E+04  0.25500000920E-02 0. -1.
       -2    1    3    3    0  502 -0.10510647432E+04 -0.71686085833E+03 -0.21685391232E+03  0.12906014892E+04  0.25500000920E-02 0.  1.
</event>
<event>
 5   0  0.3046300E-06  0.2596420E+04  0.7818609E-02  0.8369418E-01
       -1   -1    0    0    0  501  0.00000000000E+00  0.00000000000E+00  0.95332522884E+03  0.95332522885E+03  0.50400001928E-02 0.  1.
        1   -1    0    0  501    0  0.00000000000E+00  0.00000000000E+00 -0.17678636914E+04  0.17678636914E+04  0.50400001928E-02 0. -1.
    10030    2    1    2    0    0  0.00000000000E+00  0.00000000000E+00 -0.81453846256E+03  0.27211889203E+04  0.25964198876E+04 0.  0.
        2    1    3    3  502    0 -0.90552831338E+03 -0.42825980689E+03 -0.12727622291E+04  0.16196640641E+04  0.25500000920E-02 0. -1.
       -2    1    3    3    0  502  0.90552831338E+03  0.42825980689E+03  0.45822376658E+03  0.11015248562E+04  0.25500000920E-02 0.  1.
</event>
<event>
 5   0  0.2654625E-06  0.2718262E+04  0.7818609E-02  0.8329104E-01
        3   -1    0    0  501    0  0.00000000000E+00  0.00000000000E+00  0.22920036400E+04  0.22920036423E+04  0.10100000352E+00 0. -1.
       -3   -1    0    0    0  501  0.00000000000E+00  0.00000000000E+00 -0.80594833359E+03  0.80594833992E+03  0.10100000352E+00 0.  1.
    10030    2    1    2    0    0  0.00000000000E+00  0.00000000000E+00  0.14860553064E+04  0.30979519822E+04  0.27182615971E+04 0.  0.
        5    1    3    3  502    0 -0.65814787662E+03  0.11613467278E+04  0.10343262496E+04  0.16887088944E+04  0.46999998093E+01 0.  1.
       -5    1    3    3    0  502  0.65814787662E+03 -0.11613467278E+04  0.45172905686E+03  0.14092430877E+04  0.46999998093E+01 0. -1.
</event>
<event>
 5   0  0.3199840E-06  0.2783317E+04  0.7818609E-02  0.8308467E-01
        1   -1    0    0  501    0  0.00000000000E+00  0.00000000000E+00  0.11148124926E+04  0.11148124926E+04  0.50400001928E-02 0. -1.
       -1   -1    0    0    0  501  0.00000000000E+00  0.00000000000E+00 -0.17372545071E+04  0.17372545071E+04  0.50400001928E-02 0.  1.
    10030    2    1    2    0    0  0.00000000000E+00  0.00000000000E+00 -0.62244201446E+03  0.28520669997E+04  0.27833167461E+04 0.  0.
        1    1    3    3  502    0  0.45676883456E+02 -0.61443840540E+03 -0.15898785387E+04  0.17050908185E+04  0.50400001928E-02 0.  1.
       -1    1    3    3    0  502 -0.45676883456E+02  0.61443840540E+03  0.96743652422E+03  0.11469761811E+04  0.50400001928E-02 0. -1.
</event>
<event>
 5   0  0.7838364E-06  0.2711770E+04  0.7818609E-02  0.8331196E-01
        2   -1    0    0  501    0  0.00000000000E+00  0.00000000000E+00  0.13104135553E+04  0.13104135553E+04  0.25500000920E-02 0. -1.
       -2   -1    0    0    0  501  0.00000000000E+00  0.00000000000E+00 -0.14029343724E+04  0.14029343724E+04  0.25500000920E-02 0.  1.
    10030    2    1    2    0    0  0.00000000000E+00  0.00000000000E+00 -0.92520817108E+02  0.27133479277E+04  0.27117700631E+04 0.  0.
        2    1    3    3  502    0  0.97409833649E+02  0.13394319923E+04  0.14054980805E+03  0.13503040347E+04  0.25500000920E-02 0. -1.
       -2    1    3    3    0  502 -0.97409833649E+02 -0.13394319923E+04 -0.23307062515E+03  0.13630438929E+04  0.25500000920E-02 0.  1.
</event>
<event>
 5   0  0.7729970E-06  0.2602437E+04  0.7818609E-02  0.8367374E-01
       -2   -1    0    0    0  501  0.00000000000E+00  0.00000000000E+00  0.12006303406E+04  0.12006303406E+04  0.25500000920E-02 0. -1.
        2   -1    0    0  501    0  0.00000000000E+00  0.00000000000E+00 -0.14102338564E+04  0.14102338564E+04  0.25500000920E-02 0.  1.
    10030    2    1    2    0    0  0.00000000000E+00  0.00000000000E+00 -0.20960351575E+03  0.26108641970E+04  0.26024369774E+04 0.  0.
        4    1    3    3  502    0  0.12370311863E+04  0.31586921991E+03 -0.35690899567E+03  0.13256715899E+04  0.12699999809E+01 0. -1.
       -4    1    3    3    0  502 -0.12370311863E+04 -0.31586921991E+03  0.14730547992E+03  0.12851926071E+04  0.12699999809E+01 0.  1.
</event>
<event>
 5   0  0.8407622E-06  0.2699848E+04  0.7818609E-02  0.8335054E-01
       -2   -1    0    0    0  501  0.00000000000E+00  0.00000000000E+00  0.12460043391E+04  0.12460043391E+04  0.25500000920E-02 0.  1.
        2   -1    0    0  501    0  0.00000000000E+00  0.00000000000E+00 -0.14625108271E+04  0.14625108271E+04  0.25500000920E-02 0. -1.
    10030    2    1    2    0    0  0.00000000000E+00  0.00000000000E+00 -0.21650648803E+03  0.27085151662E+04  0.26998480228E+04 0.  0.
        1    1    3    3  502    0  0.12783212951E+04 -0.33307828127E+02  0.32566283217E+03  0.13195722887E+04  0.50400001928E-02 0.  1.
       -1    1    3    3    0  502 -0.12783212951E+04  0.33307828127E+02 -0.54216932020E+03  0.13889428774E+04  0.50400001928E-02 0. -1.
</event>
<event>
 5   0  0.8407622E-06  0.2703700E+04  0.7818609E-02  0.8333805E-01
        2   -1    0    0  501    0  0.00000000000E+00  0.00000000000E+00  0.18241898024E+04  0.18241898024E+04  0.25500000920E-02 0. -1.
       -2   -1    0    0    0  501  0.00000000000E+00  0.00000000000E+00 -0.10018139123E+04  0.10018139123E+04  0.25500000920E-02 0.  1.
    10030    2    1    2    0    0  0.00000000000E+00  0.00000000000E+00  0.82237589011E+03  0.28260037148E+04  0.27037002221E+04 0.  0.
        1    1    3    3  502    0  0.11164513859E+04  0.25331420077E+03 -0.34026807770E+03  0.11943258124E+04  0.50400001928E-02 0.  1.
       -1    1    3    3    0  502 -0.11164513859E+04 -0.25331420077E+03  0.11626439678E+04  0.16316779024E+04  0.50400001928E-02 0. -1.
</event>
<event>
 5   0  0.3046300E-06  0.2767568E+04  0.7818609E-02  0.8313409E-01
        1   -1    0    0  501    0  0.00000000000E+00  0.00000000000E+00  0.17240710474E+04  0.17240710474E+04  0.50400001928E-02 0. -1.
       -1   -1    0    0    0  501  0.00000000000E+00  0.00000000000E+00 -0.11106605940E+04  0.11106605940E+04  0.50400001928E-02 0.  1.
    10030    2    1    2    0    0  0.00000000000E+00  0.00000000000E+00  0.61341045343E+03  0.28347316414E+04  0.27675677217E+04 0.  0.
        2    1    3    3  502    0 -0.14165455024E+03 -0.12304743663E+04 -0.32529780511E+03  0.12806060440E+04  0.25500000920E-02 0.  1.
       -2    1    3    3    0  502  0.14165455024E+03  0.12304743663E+04  0.93870825854E+03  0.15541255974E+04  0.25500000920E-02 0. -1.
</event>
<event>
 5   0  0.3046300E-06  0.2694660E+04  0.7818609E-02  0.8336740E-01
       -1   -1    0    0    0  501  0.00000000000E+00  0.00000000000E+00  0.98797380290E+03  0.98797380291E+03  0.50400001928E-02 0. -1.
        1   -1    0    0  501    0  0.00000000000E+00  0.00000000000E+00 -0.18373953189E+04  0.18373953189E+04  0.50400001928E-02 0.  1.
    10030    2    1    2    0    0  0.00000000000E+00  0.00000000000E+00 -0.84942151598E+03  0.28253691218E+04  0.26946602314E+04 0.  0.
        2    1    3    3  502    0  0.91657054537E+03 -0.20902895863E+03  0.58724957690E+03  0.11084478949E+04  0.25500000920E-02 0. -1.
       -2    1    3    3    0  502 -0.91657054537E+03  0.20902895863E+03 -0.14366710929E+04  0.17169212269E+04  0.25500000920E-02 0.  1.
</event>
<event>
 5   0  0.8407622E-06  0.2696679E+04  0.7818609E-02  0.8336083E-01
        2   -1    0    0  501    0  0.00000000000E+00  0.00000000000E+00  0.18596958779E+04  0.18596958779E+04  0.25500000920E-02 0.  1.
       -2   -1    0    0    0  501  0.00000000000E+00  0.00000000000E+00 -0.97758992748E+03  0.97758992749E+03  0.25500000920E-02 0. -1.
    10030    2    1    2    0    0  0.00000000000E+00  0.00000000000E+00  0.88210595037E+03  0.28372858053E+04  0.26966794087E+04 0.  0.
        1    1    3    3  502    0  0.23714543620E+03 -0.13667834067E+03  0.18301578849E+04  0.18505125805E+04  0.50400001928E-02 0.  1.
       -1    1    3    3    0  502 -0.23714543620E+03  0.13667834067E+03 -0.94805193454E+03  0.98677322488E+03  0.50400001928E-02 0. -1.
</event>
<event>
 5   0  0.7812908E-06  0.2769499E+04  0.7818609E-02  0.8312801E-01
       -2   -1    0    0    0  501  0.00000000000E+00  0.00000000000E+00  0.78215265055E+03  0.78215265056E+03  0.25500000920E-02 0.  1.
        2   -1    0    0  501    0  0.00000000000E+00  0.00000000000E+00 -0.24516067326E+04  0.24516067326E+04  0.25500000920E-02 0. -1.
    10030    2    1    2    0    0  0.00000000000E+00  0.00000000000E+00 -0.16694540821E+04  0.32337593832E+04  0.27694986579E+04 0.  0.
        5    1    3    3  502    0 -0.68202676269E-01  0.23874041970E+03 -0.24273858075E+04  0.24391024868E+04  0.46999998093E+01 0. -1.
       -5    1    3    3    0  502  0.68202676269E-01 -0.23874041970E+03  0.75793172540E+03  0.79465689641E+03  0.46999998093E+01 0.  1.
</event>
<event>
 5   0  0.7729970E-06  0.2668828E+04  0.7818609E-02  0.8345191E-01
        2   -1    0    0  501    0  0.00000000000E+00  0.00000000000E+00  0.10241328760E+04  0.10241328760E+04  0.25500000920E-02 0.  1.
       -2   -1    0    0    0  501  0.00000000000E+00  0.00000000000E+00 -0.17387010649E+04  0.17387010649E+04  0.25500000920E-02 0. -1.
    10030    2    1    2    0    0  0.00000000000E+00  0.00000000000E+00 -0.71456818890E+03  0.27628339409E+04  0.26688281489E+04 0.  0.
        4    1    3    3  502    0  0.10827244545E+04 -0.34650139401E+03 -0.10806853308E+04  0.15685145385E+04  0.12699999809E+01 0. -1.
       -4    1    3    3    0  502 -0.10827244545E+04  0.34650139401E+03  0.36611714188E+03  0.11943194024E+04  0.12699999809E+01 0.  1.
</event>
<event>
 5   0  0.3199840E-06  0.2704787E+04  0.7818609E-02  0.8333453E-01
        1   -1    0    0  501    0  0.00000000000E+00  0.00000000000E+00  0.23949433884E+04  0.23949433884E+04  0.50400001928E-02 0. -1.
       -1   -1    0    0    0  501  0.00000000000E+00  0.00000000000E+00 -0.76367934116E+03  0.76367934117E+03  0.50400001928E-02 0.  1.
    10030    2    1    2    0    0  0.00000000000E+00  0.00000000000E+00  0.16312640473E+04  0.31586227296E+04  0.27047874512E+04 0.  0.
        1    1    3    3  502    0 -0.39809980525E+02 -0.71103840376E+03  0.21582388708E+04  0.22726978395E+04  0.50400001928E-02 0. -1.
       -1    1    3    3    0  502  0.39809980525E+02  0.71103840376E+03 -0.52697482356E+03  0.88592489008E+03  0.50400001928E-02 0.  1.
</event>
<event>
 5   0  0.8213334E-06  0.2676984E+04  0.7818609E-02  0.8342512E-01
       -2   -1    0    0    0  501  0.00000000000E+00  0.00000000000E+00  0.87582468066E+03  0.87582468067E+03  0.25500000920E-02 0. -1.
        2   -1    0    0  501    0  0.00000000000E+00  0.00000000000E+00 -0.20455699520E+04  0.20455699520E+04  0.25500000920E-02 0.  1.
    10030    2    1    2    0    0  0.00000000000E+00  0.00000000000E+00 -0.11697452713E+04  0.29213946327E+04  0.26769838625E+04 0.  0.
        3    1    3    3  502    0 -0.34081524039E+03  0.10398432678E+04  0.25630127834E+03  0.11238858506E+04  0.10100000352E+00 0. -1.
       -3    1    3    3    0  502  0.34081524039E+03 -0.10398432678E+04 -0.14260465497E+04  0.17975087821E+04  0.10100000352E+00 0.  1.
</event>
<event>
 5   0  0.8407622E-06  0.2580295E+04  0.7818609E-02  0.8374925E-01
       -2   -1    0    0    0  501  0.00000000000E+00  0.00000000000E+00  0.12913935066E+04  0.12913935067E+04  0.25500000920E-02 0.  1.
        2   -1    0    0  501    0  0.00000000000E+00  0.00000000000E+00 -0.12889028676E+04  0.12889028676E+04  0.25500000920E-02 0. -1.
    10030    2    1    2    0    0  0.00000000000E+00  0.00000000000E+00  0.24906390574E+01  0.25802963742E+04  0.25802951722E+04 0.  0.
        1    1    3    3  502    0  0.38370446470E+03 -0.50828284371E+03  0.11232530741E+04  0.12912312086E+04  0.50400001928E-02 0.  1.
       -1    1    3    3    0  502 -0.38370446470E+03  0.50828284371E+03 -0.11207624351E+04  0.12890651657E+04  0.50400001928E-02 0. -1.
</event>
<event>
 5   0  0.3013407E-06  0.2785514E+04  0.7818609E-02  0.8307780E-01
       -1   -1    0    0    0  501  0.00000000000E+00  0.00000000000E+00  0.18850404910E+04  0.18850404910E+04  0.50400001928E-02 0. -1.
        1   -1    0    0  501    0  0.00000000000E+00  0.00000000000E+00 -0.10290345054E+04  0.10290345054E+04  0.50400001928E-02 0.  1.
    10030    2    1    2    0    0  0.00000000000E+00  0.00000000000E+00  0.85600598559E+03  0.29140749964E+04  0.27855137475E+04 0.  0.
        4    1    3    3  502    0  0.38527084101E+03  0.61341327129E+02  0.18267120871E+04  0.18679065933E+04  0.12699999809E+01 0. -1.
       -4    1    3    3    0  502 -0.38527084101E+03 -0.61341327129E+02 -0.97070610147E+03  0.10461684031E+04  0.12699999809E+01 0.  1.
</event>
<event>
 5   0  0.8213334E-06  0.2691117E+04  0.7818609E-02  0.8337893E-01
       -2   -1    0    0    0  501  0.00000000000E+00  0.00000000000E+00  0.12224453742E+04  0.12224453742E+04  0.25500000920E-02 0.  1.
        2   -1    0    0  501    0  0.00000000000E+00  0.00000000000E+00 -0.14810709331E+04  0.14810709331E+04  0.25500000920E-02 0. -1.
    10030    2    1    2    0    0  0.00000000000E+00  0.00000000000E+00 -0.25862555887E+03  0.27035163073E+04  0.26911174713E+04 0.  0.
        3    1    3    3  502    0  0.28495236323E+03 -0.19116665665E+03 -0.14363782336E+04  0.14767955106E+04  0.10100000352E+00 0. -1.
       -3    1    3    3    0  502 -0.28495236323E+03  0.19116665665E+03  0.11777526748E+04  0.12267207967E+04  0.10100000352E+00 0.  1.
</event>
<event>
 5   0  0.8407622E-06  0.2728456E+04  0.7818609E-02  0.8325831E-01
       -2   -1    0    0    0  501  0.00000000000E+00  0.00000000000E+00  0.96893060520E+03  0.96893060520E+03  0.25500000920E-02 0.  1.
        2   -1    0    0  501    0  0.00000000000E+00  0.00000000000E+00 -0.19207959883E+04  0.19207959883E+04  0.25500000920E-02 0. -1.
    10030    2    1    2    0    0  0.00000000000E+00  0.00000000000E+00 -0.95186538313E+03  0.28897265935E+04  0.27284559879E+04 0.  0.
        1    1    3    3  502    0 -0.12533728991E+03  0.10441675811E+04  0.44440784151E+03  0.11417064874E+04  0.50400001928E-02 0.  1.
       -1    1    3    3    0  502  0.12533728991E+03 -0.10441675811E+04 -0.13962732246E+04  0.17480201062E+04  0.50400001928E-02 0. -1.
</event>
<event>
 5   0  0.3046300E-06  0.2693706E+04  0.7818609E-02  0.8337050E-01
        1   -1    0    0  501    0  0.00000000000E+00  0.00000000000E+00  0.12804868258E+04  0.12804868258E+04  0.50400001928E-02 0.  1.
       -1   -1    0    0    0  501  0.00000000000E+00  0.00000000000E+00 -0.14166584566E+04  0.14166584566E+04  0.50400001928E-02 0. -1.
    10030    2    1    2    0    0  0.00000000000E+00  0.00000000000E+00 -0.13617163081E+03  0.26971452825E+04  0.26937056190E+04 0.  0.
        2    1    3    3  502    0  0.12565868415E+04  0.22594235513E+03 -0.49752980327E+03  0.13702541163E+04  0.25500000920E-02 0. -1.
       -2    1    3    3    0  502 -0.12565868415E+04 -0.22594235513E+03  0.36135817246E+03  0.13268911662E+04  0.25500000920E-02 0.  1.
</event>
<event>
 5   0  0.7812908E-06  0.2681986E+04  0.7818609E-02  0.8340874E-01
        2   -1    0    0  501    0  0.00000000000E+00  0.00000000000E+00  0.12398586907E+04  0.12398586907E+04  0.25500000920E-02 0. -1.
       -2   -1    0    0    0  501  0.00000000000E+00  0.00000000000E+00 -0.14503766388E+04  0.14503766388E+04  0.25500000920E-02 0.  1.
    10030    2    1    2    0    0  0.00000000000E+00  0.00000000000E+00 -0.21051794808E+03  0.26902353296E+04  0.26819858915E+04 0.  0.
        5    1    3    3  502    0  0.68992024903E+03 -0.75913022227E+03  0.76109397048E+03  0.12773232818E+04  0.46999998093E+01 0. -1.
       -5    1    3    3    0  502 -0.68992024903E+03  0.75913022227E+03 -0.97161191856E+03  0.14129120478E+04  0.46999998093E+01 0.  1.
</event>
<event>
 5   0  0.3199840E-06  0.2706449E+04  0.7818609E-02  0.8332916E-01
        1   -1    0    0  501    0  0.00000000000E+00  0.00000000000E+00  0.20865287460E+04  0.20865287461E+04  0.50400001928E-02 0. -1.
       -1   -1    0    0    0  501  0.00000000000E+00  0.00000000000E+00 -0.87763781859E+03  0.87763781861E+03  0.50400001928E-02 0.  1.
    10030    2    1    2    0    0  0.00000000000E+00  0.00000000000E+00  0.12088909275E+04  0.29641665647E+04  0.27064489924E+04 0.  0.
        1    1    3    3  502    0 -0.49652217027E+02 -0.55477544670E+03 -0.74626993923E+03  0.93121424019E+03  0.50400001928E-02 0.  1.
       -1    1    3    3    0  502  0.49652217027E+02  0.55477544670E+03  0.19551608667E+04  0.20329523245E+04  0.50400001928E-02 0. -1.
</event>
<event>
 5   0  0.8407622E-06  0.2730239E+04  0.7818609E-02  0.8325260E-01
       -2   -1    0    0    0  501  0.00000000000E+00  0.00000000000E+00  0.21934597575E+04  0.21934597575E+04  0.25500000920E-02 0.  1.
        2   -1    0    0  501    0  0.00000000000E+00  0.00000000000E+00 -0.84959442644E+03  0.84959442644E+03  0.25500000920E-02 0. -1.
    10030    2    1    2    0    0  0.00000000000E+00  0.00000000000E+00  0.13438653310E+04  0.30430541839E+04  0.27302389526E+04 0.  0.
        1    1    3    3  502    0 -0.12089930921E+04  0.55479776819E+03  0.33005378146E+03  0.13705474669E+04  0.50400001928E-02 0. -1.
       -1    1    3    3    0  502  0.12089930921E+04 -0.55479776819E+03  0.10138115496E+04  0.16725067170E+04  0.50400001928E-02 0.  1.
</event>
<event>
 5   0  0.7838364E-06  0.2711452E+04  0.7818609E-02  0.8331299E-01
       -2   -1    0    0    0  501  0.00000000000E+00  0.00000000000E+00  0.11264762475E+04  0.11264762475E+04  0.25500000920E-02 0. -1.
        2   -1    0    0  501    0  0.00000000000E+00  0.00000000000E+00 -0.16316309332E+04  0.16316309332E+04  0.25500000920E-02 0.  1.
    10030    2    1    2    0    0  0.00000000000E+00  0.00000000000E+00 -0.50515468568E+03  0.27581071807E+04  0.27114523716E+04 0.  0.
        2    1    3    3  502    0  0.79324535717E+03  0.49879641588E+03 -0.12492100736E+04  0.15615895329E+04  0.25500000920E-02 0. -1.
       -2    1    3    3    0  502 -0.79324535717E+03 -0.49879641588E+03  0.74405538794E+03  0.11965176478E+04  0.25500000920E-02 0.  1.
</event>
<event>
 5   0  0.3089218E-06  0.2696791E+04  0.7818609E-02  0.8336047E-01
        1   -1    0    0  501    0  0.00000000000E+00  0.00000000000E+00  0.13112055769E+04  0.13112055769E+04  0.50400001928E-02 0. -1.
       -1   -1    0    0    0  501  0.00000000000E+00  0.00000000000E+00 -0.13866406005E+04  0.13866406005E+04  0.50400001928E-02 0.  1.
    10030    2    1    2    0    0  0.00000000000E+00  0.00000000000E+00 -0.75435023633E+02  0.26978461774E+04  0.26967913442E+04 0.  0.
        5    1    3    3  502    0 -0.58675684758E+03 -0.58433454841E+03 -0.11022852109E+04  0.13786896818E+04  0.46999998093E+01 0.  1.
       -5    1    3    3    0  502  0.58675684758E+03  0.58433454841E+03  0.10268501873E+04  0.13191564955E+04  0.46999998093E+01 0. -1.
</event>
<event>
 5   0  0.3028601E-06  0.2685064E+04  0.7818609E-02  0.8339867E-01
       -1   -1    0    0    0  501  0.00000000000E+00  0.00000000000E+00  0.94455202252E+03  0.94455202253E+03  0.50400001928E-02 0.  1.
        1   -1    0    0  501    0  0.00000000000E+00  0.00000000000E+00 -0.19081983984E+04  0.19081983984E+04  0.50400001928E-02 0. -1.
    10030    2    1    2    0    0  0.00000000000E+00  0.00000000000E+00 -0.96364637592E+03  0.28527504210E+04  0.26850643617E+04 0.  0.
        3    1    3    3  502    0  0.46645952588E+03  0.10343283079E+04 -0.12442556052E+04  0.16839214824E+04  0.10100000352E+00 0. -1.
       -3    1    3    3    0  502 -0.46645952588E+03 -0.10343283079E+04  0.28060922925E+03  0.11688289385E+04  0.10100000352E+00 0.  1.
</event>
<event>
 5   0  0.8213334E-06  0.2706967E+04  0.7818609E-02  0.8332748E-01
        2   -1    0    0  501    0  0.00000000000E+00  0.00000000000E+00  0.23786147309E+04  0.23786147309E+04  0.25500000920E-02 0.  1.
       -2   -1    0    0    0  501  0.00000000000E+00  0.00000000000E+00 -0.77016164662E+03  0.77016164663E+03  0.25500000920E-02 0. -1.
    10030    2    1    2    0    0  0.00000000000E+00  0.00000000000E+00  0.16084530843E+04  0.31487763776E+04  0.27069671870E+04 0.  0.
        3    1    3    3  502    0  0.12508793845E+04 -0.46917710179E+03  0.10566500596E+04  0.17033307799E+04  0.10100000352E+00 0.  1.
       -3    1    3    3    0  502 -0.12508793845E+04  0.46917710179E+03  0.55180302474E+03  0.14454455976E+04  0.10100000352E+00 0. -1.
</event>
<event>
 5   0  0.7812908E-06  0.2715312E+04  0.7818609E-02  0.8330054E-01
        2   -1    0    0  501    0  0.00000000000E+00  0.00000000000E+00  0.16307611268E+04  0.16307611268E+04  0.25500000920E-02 0. -1.
       -2   -1    0    0    0  501  0.00000000000E+00  0.00000000000E+00 -0.11302879709E+04  0.11302879709E+04  0.25500000920E-02 0.  1.
    10030    2    1    2    0    0  0.00000000000E+00  0.00000000000E+00  0.50047315592E+03  0.27610490976E+04  0.27153119047E+04 0.  0.
        5    1    3    3  502    0 -0.98207171959E+03  0.24514010512E+03 -0.66979617807E+03  0.12137576133E+04  0.46999998093E+01 0.  1.
       -5    1    3    3    0  502  0.98207171959E+03 -0.24514010512E+03  0.11702693340E+04  0.15472914844E+04  0.46999998093E+01 0. -1.
</event>
<event>
 5   0  0.3089218E-06  0.2660132E+04  0.7818609E-02  0.8348058E-01
       -1   -1    0    0    0  501  0.00000000000E+00  0.00000000000E+00  0.78289754710E+03  0.78289754712E+03  0.50400001928E-02 0.  1.
        1   -1    0    0  501    0  0.00000000000E+00  0.00000000000E+00 -0.22596516044E+04  0.22596516044E+04  0.50400001928E-02 0. -1.
    10030    2    1    2    0    0  0.00000000000E+00  0.00000000000E+00 -0.14767540573E+04  0.30425491515E+04  0.26601321008E+04 0.  0.
        5    1    3    3  502    0  0.10788721036E+04  0.63795367507E+03 -0.22930329048E+03  0.12741867981E+04  0.46999998093E+01 0.  1.
       -5    1    3    3    0  502 -0.10788721036E+04 -0.63795367507E+03 -0.12474507668E+04  0.17683623534E+04  0.46999998093E+01 0. -1.
</event>
<event>
 5   0  0.8407622E-06  0.2682771E+04  0.7818609E-02  0.8340617E-01
        2   -1    0    0  501    0  0.00000000000E+00  0.00000000000E+00  0.13568694461E+04  0.13568694461E+04  0.25500000920E-02 0.  1.
       -2   -1    0    0    0  501  0.00000000000E+00  0.00000000000E+00 -0.13260782900E+04  0.13260782900E+04  0.25500000920E-02 0. -1.
    10030    2    1    2    0    0  0.00000000000E+00  0.00000000000E+00  0.30791156117E+02  0.26829477361E+04  0.26827710412E+04 0.  0.
        1    1    3    3  502    0 -0.11007537759E+04 -0.28530433743E+03 -0.69616915122E+03  0.13333075142E+04  0.50400001928E-02 0. -1.
       -1    1    3    3    0  502  0.11007537759E+04  0.28530433743E+03  0.72696030734E+03  0.13496402219E+04  0.50400001928E-02 0.  1.
</event>
<event>
 5   0  0.3199840E-06  0.2687941E+04  0.7818609E-02  0.8338928E-01
       -1   -1    0    0    0  501  0.00000000000E+00  0.00000000000E+00  0.92487735898E+03  0.92487735899E+03  0.50400001928E-02 0. -1.
        1   -1    0    0  501    0  0.00000000000E+00  0.00000000000E+00 -0.19529693013E+04  0.19529693013E+04  0.50400001928E-02 0.  1.
    10030    2    1    2    0    0  0.00000000000E+00  0.00000000000E+00 -0.10280919423E+04  0.28778466603E+04  0.26879412863E+04 0.  0.
        1    1    3    3  502    0  0.10095581825E+04  0.84145149386E+03 -0.81498981578E+03  0.15464335551E+04  0.50400001928E-02 0. -1.
       -1    1    3    3    0  502 -0.10095581825E+04 -0.84145149386E+03 -0.21310212657E+03  0.13314131052E+04  0.50400001928E-02 0.  1.
</event>
<event>
 5   0  0.8213334E-06  0.2692584E+04  0.7818609E-02  0.8337415E-01
       -2   -1    0    0    0  501  0.00000000000E+00  0.00000000000E+00  0.10086950843E+04  0.10086950843E+04  0.25500000920E-02 0.  1.
        2   -1    0    0  501    0  0.00000000000E+00  0.00000000000E+00 -0.17968777920E+04  0.17968777920E+04  0.25500000920E-02 0. -1.
    10030    2    1    2    0    0  0.00000000000E+00  0.00000000000E+00 -0.78818270778E+03  0.28055728763E+04  0.26925837375E+04 0.  0.
        3    1    3    3  502    0 -0.82162448554E+03 -0.28174553363E+03  0.67769036163E+03  0.11016857889E+04  0.10100000352E+00 0.  1.
       -3    1    3    3    0  502  0.82162448554E+03  0.28174553363E+03 -0.14658730694E+04  0.17038870874E+04  0.10100000352E+00 0. -1.
</event>
<event>
 5   0  0.7729970E-06  0.2657692E+04  0.7818609E-02  0.8348864E-01
        2   -1    0    0  501    0  0.00000000000E+00  0.00000000000E+00  0.15618618929E+04  0.15618618929E+04  0.25500000920E-02 0. -1.
       -2   -1    0    0    0  501  0.00000000000E+00  0.00000000000E+00 -0.11305943441E+04  0.11305943441E+04  0.25500000920E-02 0.  1.
    10030    2    1    2    0    0  0.00000000000E+00  0.00000000000E+00  0.43126754874E+03  0.26924562370E+04  0.26576923994E+04 0.  0.
        4    1    3    3  502    0  0.79170914019E+03 -0.49313933115E+03 -0.74323542610E+03  0.11926400438E+04  0.12699999809E+01 0.  1.
       -4    1    3    3    0  502 -0.79170914019E+03  0.49313933115E+03  0.11745029748E+04  0.14998161932E+04  0.12699999809E+01 0. -1.
</event>
<event>
 5   0  0.7838364E-06  0.2710194E+04  0.7818609E-02  0.8331705E-01
       -2   -1    0    0    0  501  0.00000000000E+00  0.00000000000E+00  0.97895349341E+03  0.97895349342E+03  0.25500000920E-02 0. -1.
        2   -1    0    0  501    0  0.00000000000E+00  0.00000000000E+00 -0.18757665415E+04  0.18757665415E+04  0.25500000920E-02 0.  1.
    10030    2    1    2    0    0  0.00000000000E+00  0.00000000000E+00 -0.89681304807E+03  0.28547200349E+04  0.27101942429E+04 0.  0.
        2    1    3    3  502    0  0.62694246290E+03 -0.57510062974E+03 -0.15593994254E+04  0.17763795073E+04  0.25500000920E-02 0.  1.
       -2    1    3    3    0  502 -0.62694246290E+03  0.57510062974E+03  0.66258637728E+03  0.10783405276E+04  0.25500000920E-02 0. -1.
</event>
<event>
 5   0  0.7838364E-06  0.2685496E+04  0.7818609E-02  0.8339726E-01
       -2   -1    0    0    0  501  0.00000000000E+00  0.00000000000E+00  0.12039623743E+04  0.12039623743E+04  0.25500000920E-02 0.  1.
        2   -1    0    0  501    0  0.00000000000E+00  0.00000000000E+00 -0.14975324620E+04  0.14975324620E+04  0.25500000920E-02 0. -1.
    10030    2    1    2    0    0  0.00000000000E+00  0.00000000000E+00 -0.29357008769E+03  0.27014948363E+04  0.26854964074E+04 0.  0.
        2    1    3    3  502    0  0.67298073619E+03  0.88554334262E+03  0.60994810284E+03  0.12685136070E+04  0.25500000920E-02 0.  1.
       -2    1    3    3    0  502 -0.67298073619E+03 -0.88554334262E+03 -0.90351819054E+03  0.14329812293E+04  0.25500000920E-02 0. -1.
</event>
<event>
 5   0  0.8407622E-06  0.2699437E+04  0.7818609E-02  0.8335188E-01
        2   -1    0    0  501    0  0.00000000000E+00  0.00000000000E+00  0.13854255503E+04  0.13854255503E+04  0.25500000920E-02 0.  1.
       -2   -1    0    0    0  501  0.00000000000E+00  0.00000000000E+00 -0.13149319523E+04  0.13149319523E+04  0.25500000920E-02 0. -1.
    10030    2    1    2    0    0  0.00000000000E+00  0.00000000000E+00  0.70493597994E+02  0.27003575026E+04  0.26994372181E+04 0.  0.
        1    1    3    3  502    0 -0.90206798199E+03  0.86053200779E+03 -0.48213194392E+03  0.13366724326E+04  0.50400001928E-02 0. -1.
       -1    1    3    3    0  502  0.90206798199E+03 -0.86053200779E+03  0.55262554192E+03  0.13636850700E+04  0.50400001928E-02 0.  1.
</event>
<event>
 5   0  0.3089218E-06  0.2687062E+04  0.7818609E-02  0.8339215E-01
       -1   -1    0    0    0  501  0.00000000000E+00  0.00000000000E+00  0.62809513647E+03  0.62809513649E+03  0.50400001928E-02 0.  1.
        1   -1    0    0  501    0  0.00000000000E+00  0.00000000000E+00 -0.28738890202E+04  0.28738890202E+04  0.50400001928E-02 0. -1.
    10030    2    1    2    0    0  0.00000000000E+00  0.00000000000E+00 -0.22457938837E+04  0.35019841567E+04  0.26870621253E+04 0.  0.
        5    1    3    3  502    0  0.10786415810E+03 -0.43424670962E+03 -0.27739214608E+04  0.28097806395E+04  0.46999998093E+01 0. -1.
       -5    1    3    3    0  502 -0.10786415810E+03  0.43424670962E+03  0.52812757712E+03  0.69220351713E+03  0.46999998093E+01 0.  1.
</event>
<event>
 5   0  0.3199840E-06  0.2703278E+04  0.7818609E-02  0.8333942E-01
        1   -1    0    0  501    0  0.00000000000E+00  0.00000000000E+00  0.15301944411E+04  0.15301944411E+04  0.50400001928E-02 0. -1.
       -1   -1    0    0    0  501  0.00000000000E+00  0.00000000000E+00 -0.11939192028E+04  0.11939192028E+04  0.50400001928E-02 0.  1.
    10030    2    1    2    0    0  0.00000000000E+00  0.00000000000E+00  0.33627523828E+03  0.27241136440E+04  0.27032784003E+04 0.  0.
        1    1    3    3  502    0  0.12631871046E+03 -0.12185341289E+04 -0.40735655693E+03  0.12910155710E+04  0.50400001928E-02 0.  1.
       -1    1    3    3    0  502 -0.12631871046E+03  0.12185341289E+04  0.74363179521E+03  0.14330980730E+04  0.50400001928E-02 0. -1.
</event>
<event>
 5   0  0.8407622E-06  0.2415293E+04  0.7818609E-02  0.8433800E-01
        2   -1    0    0  501    0  0.00000000000E+00  0.00000000000E+00  0.10678013778E+04  0.10678013778E+04  0.25500000920E-02 0. -1.
       -2   -1    0    0    0  501  0.00000000000E+00  0.00000000000E+00 -0.13658065006E+04  0.13658065006E+04  0.25500000920E-02 0.  1.
    10030    2    1    2    0    0  0.00000000000E+00  0.00000000000E+00 -0.29800512273E+03  0.24336078784E+04  0.24152929952E+04 0.  0.
        1    1    3    3  502    0 -0.28394002404E+03 -0.18547845299E+03 -0.13168367058E+04  0.13598099512E+04  0.50400001928E-02 0.  1.
       -1    1    3    3    0  502  0.28394002404E+03  0.18547845299E+03  0.10188315830E+04  0.10737979272E+04  0.50400001928E-02 0. -1.
</event>
<event>
 5   0  0.3046300E-06  0.2721848E+04  0.7818609E-02  0.8327951E-01
        1   -1    0    0  501    0  0.00000000000E+00  0.00000000000E+00  0.12585583124E+04  0.12585583124E+04  0.50400001928E-02 0.  1.
       -1   -1    0    0    0  501  0.00000000000E+00  0.00000000000E+00 -0.14716161105E+04  0.14716161105E+04  0.50400001928E-02 0. -1.
    10030    2    1    2    0    0  0.00000000000E+00  0.00000000000E+00 -0.21305779809E+03  0.27301744229E+04  0.27218484076E+04 0.  0.
        2    1    3    3  502    0  0.62351419714E+03 -0.19518528117E+03  0.10909602725E+04  0.12716373557E+04  0.25500000920E-02 0.  1.
       -2    1    3    3    0  502 -0.62351419714E+03  0.19518528117E+03 -0.13040180706E+04  0.14585370673E+04  0.25500000920E-02 0. -1.
</event>
<event>
 5   0  0.3028601E-06  0.2693039E+04  0.7818609E-02  0.8337267E-01
        1   -1    0    0  501    0  0.00000000000E+00  0.00000000000E+00  0.15591679408E+04  0.15591679408E+04  0.50400001928E-02 0. -1.
       -1   -1    0    0    0  501  0.00000000000E+00  0.00000000000E+00 -0.11628735227E+04  0.11628735227E+04  0.50400001928E-02 0.  1.
    10030    2    1    2    0    0  0.00000000000E+00  0.00000000000E+00  0.39629441808E+03  0.27220414635E+04  0.26930392613E+04 0.  0.
        3    1    3    3  502    0  0.41098672033E+03 -0.47191017942E+03  0.14032563203E+04  0.15364692032E+04  0.10100000352E+00 0. -1.
       -3    1    3    3    0  502 -0.41098672033E+03  0.47191017942E+03 -0.10069619022E+04  0.11855722603E+04  0.10100000352E+00 0.  1.
</event>
<event>
 5   0  0.3013407E-06  0.2687484E+04  0.7818609E-02  0.8339078E-01
       -1   -1    0    0    0  501  0.00000000000E+00  0.00000000000E+00  0.18459350457E+04  0.18459350457E+04  0.50400001928E-02 0.  1.
        1   -1    0    0  501    0  0.00000000000E+00  0.00000000000E+00 -0.97817204555E+03  0.97817204556E+03  0.50400001928E-02 0. -1.
    10030    2    1    2    0    0  0.00000000000E+00  0.00000000000E+00  0.86776300019E+03  0.28241070913E+04  0.26874836257E+04 0.  0.
        4    1    3    3  502    0 -0.10981620916E+04  0.71569834180E+03  0.12311727975E+03  0.13165650661E+04  0.12699999809E+01 0. -1.
       -4    1    3    3    0  502  0.10981620916E+04 -0.71569834180E+03  0.74464572044E+03  0.15075420252E+04  0.12699999809E+01 0.  1.
</event>
<event>
 5   0  0.8407622E-06  0.2722937E+04  0.7818609E-02  0.8327601E-01
       -2   -1    0    0    0  501  0.00000000000E+00  0.00000000000E+00  0.28036717793E+04  0.28036717793E+04  0.25500000920E-02 0.  1.
        2   -1    0    0  501    0  0.00000000000E+00  0.00000000000E+00 -0.66113199828E+03  0.66113199828E+03  0.25500000920E-02 0. -1.
    10030    2    1    2    0    0  0.00000000000E+00  0.00000000000E+00  0.21425397810E+04  0.34648037776E+04  0.27229374770E+04 0.  0.
        1    1    3    3  502    0 -0.11871078368E+04  0.51284743115E+03  0.52937971655E+03  0.13973118435E+04  0.50400001928E-02 0.  1.
       -1    1    3    3    0  502  0.11871078368E+04 -0.51284743115E+03  0.16131600644E+04  0.20674919340E+04  0.50400001928E-02 0. -1.
</event>
<event>
 5   0  0.3046300E-06  0.2694379E+04  0.7818609E-02  0.8336831E-01
       -1   -1    0    0    0  501  0.00000000000E+00  0.00000000000E+00  0.10747956048E+04  0.10747956048E+04  0.50400001928E-02 0.  1.
        1   -1    0    0  501    0  0.00000000000E+00  0.00000000000E+00 -0.16886183609E+04  0.16886183609E+04  0.50400001928E-02 0. -1.
    10030    2    1    2    0    0  0.00000000000E+00  0.00000000000E+00 -0.61382275617E+03  0.27634139657E+04  0.26943790323E+04 0.  0.
        2    1    3    3  502    0 -0.47543460681E+01 -0.66816461498E+03 -0.15066930040E+04  0.16482082286E+04  0.25500000920E-02 0. -1.
       -2    1    3    3    0  502  0.47543460681E+01  0.66816461498E+03  0.89287024784E+03  0.11152057371E+04  0.25500000920E-02 0.  1.
</event>
<event>
 5   0  0.3089218E-06  0.2691146E+04  0.7818609E-02  0.8337883E-01
       -1   -1    0    0    0  501  0.00000000000E+00  0.00000000000E+00  0.15656817189E+04  0.15656817189E+04  0.50400001928E-02 0. -1.
        1   -1    0    0  501    0  0.00000000000E+00  0.00000000000E+00 -0.11564081874E+04  0.11564081874E+04  0.50400001928E-02 0.  1.
    10030    2    1    2    0    0  0.00000000000E+00  0.00000000000E+00  0.40927353146E+03  0.27220899063E+04  0.26911463421E+04 0.  0.
        5    1    3    3  502    0  0.73941876648E+03 -0.47145668505E+03 -0.82765338188E+03  0.12058373558E+04  0.46999998093E+01 0.  1.
       -5    1    3    3    0  502 -0.73941876648E+03  0.47145668505E+03  0.12369269133E+04  0.15162525505E+04  0.46999998093E+01 0. -1.
</event>
<event>
 5   0  0.3089218E-06  0.2750101E+04  0.7818609E-02  0.8318930E-01
        1   -1    0    0  501    0  0.00000000000E+00  0.00000000000E+00  0.15038268993E+04  0.15038268993E+04  0.50400001928E-02 0.  1.
       -1   -1    0    0    0  501  0.00000000000E+00  0.00000000000E+00 -0.12573013004E+04  0.12573013004E+04  0.50400001928E-02 0. -1.
    10030    2    1    2    0    0  0.00000000000E+00  0.00000000000E+00  0.24652559893E+03  0.27611281997E+04  0.27501007371E+04 0.  0.
        5    1    3    3  502    0  0.34056129598E+03  0.12599034278E+04  0.55789909071E+03  0.14193703284E+04  0.46999998093E+01 0.  1.
       -5    1    3    3    0  502 -0.34056129598E+03 -0.12599034278E+04 -0.31137349178E+03  0.13417578713E+04  0.46999998093E+01 0. -1.
</event>
<event>
 5   0  0.8407622E-06  0.2663618E+04  0.7818609E-02  0.8346907E-01
        2   -1    0    0  501    0  0.00000000000E+00  0.00000000000E+00  0.11260476454E+04  0.11260476454E+04  0.25500000920E-02 0.  1.
       -2   -1    0    0    0  501  0.00000000000E+00  0.00000000000E+00 -0.15751692603E+04  0.15751692603E+04  0.25500000920E-02 0. -1.
    10030    2    1    2    0    0  0.00000000000E+00  0.00000000000E+00 -0.44912161488E+03  0.27012169058E+04  0.26636183186E+04 0.  0.
        1    1    3    3  502    0  0.15872008652E+03 -0.14650620719E+03  0.11081659473E+04  0.11290207710E+04  0.50400001928E-02 0.  1.
       -1    1    3    3    0  502 -0.15872008652E+03  0.14650620719E+03 -0.15572875622E+04  0.15721961347E+04  0.50400001928E-02 0. -1.
</event>
<event>
 5   0  0.3089218E-06  0.2689258E+04  0.7818609E-02  0.8338499E-01
       -1   -1    0    0    0  501  0.00000000000E+00  0.00000000000E+00  0.17553356840E+04  0.17553356840E+04  0.50400001928E-02 0. -1.
        1   -1    0    0  501    0  0.00000000000E+00  0.00000000000E+00 -0.10300177965E+04  0.10300177965E+04  0.50400001928E-02 0.  1.
    10030    2    1    2    0    0  0.00000000000E+00  0.00000000000E+00  0.72531788749E+03  0.27853534805E+04  0.26892578852E+04 0.  0.
        5    1    3    3  502    0 -0.10989343316E+04  0.43236166125E+03 -0.30328736081E+03  0.12192614914E+04  0.46999998093E+01 0. -1.
       -5    1    3    3    0  502  0.10989343316E+04 -0.43236166125E+03  0.10286052483E+04  0.15660919890E+04  0.46999998093E+01 0.  1.
</event>
<event>
 5   0  0.7838364E-06  0.2722826E+04  0.7818609E-02  0.8327637E-01
        2   -1    0    0  501    0  0.00000000000E+00  0.00000000000E+00  0.25618558430E+04  0.25618558430E+04  0.25500000920E-02 0. -1.
       -2   -1    0    0    0  501  0.00000000000E+00  0.00000000000E+00 -0.72347760856E+03  0.72347760856E+03  0.25500000920E-02 0.  1.
    10030    2    1    2    0    0  0.00000000000E+00  0.00000000000E+00  0.18383782344E+04  0.32853334515E+04  0.27228259869E+04 0.  0.
        2    1    3    3  502    0  0.63383651448E+03 -0.73683385425E+03  0.20694256390E+04  0.22863060450E+04  0.25500000920E-02 0. -1.
       -2    1    3    3    0  502 -0.63383651448E+03  0.73683385425E+03 -0.23104740461E+03  0.99902740655E+03  0.25500000920E-02 0.  1.
</event>
<event>
 5   0  0.3046300E-06  0.2693120E+04  0.7818609E-02  0.8337241E-01
        1   -1    0    0  501    0  0.00000000000E+00  0.00000000000E+00  0.13401930517E+04  0.13401930517E+04  0.50400001928E-02 0.  1.
       -1   -1    0    0    0  501  0.00000000000E+00  0.00000000000E+00 -0.13529573443E+04  0.13529573443E+04  0.50400001928E-02 0. -1.
    10030    2    1    2    0    0  0.00000000000E+00  0.00000000000E+00 -0.12764292614E+02  0.26931503961E+04  0.26931201475E+04 0.  0.
        2    1    3    3  502    0 -0.50086829068E+03 -0.12488696095E+04 -0.58148410769E+02  0.13468205463E+04  0.25500000920E-02 0. -1.
       -2    1    3    3    0  502  0.50086829068E+03  0.12488696095E+04  0.45384118155E+02  0.13463298498E+04  0.25500000920E-02 0.  1.
</event>
<event>
 5   0  0.7812908E-06  0.2663448E+04  0.7818609E-02  0.8346963E-01
       -2   -1    0    0    0  501  0.00000000000E+00  0.00000000000E+00  0.10732628065E+04  0.10732628065E+04  0.25500000920E-02 0. -1.
        2   -1    0    0  501    0  0.00000000000E+00  0.00000000000E+00 -0.16524278571E+04  0.16524278571E+04  0.25500000920E-02 0.  1.
    10030    2    1    2    0    0  0.00000000000E+00  0.00000000000E+00 -0.57916505064E+03  0.27256906636E+04  0.26634484109E+04 0.  0.
        5    1    3    3  502    0  0.12220432653E+04  0.42178055488E+03 -0.61670655244E+03  0.14323538810E+04  0.46999998093E+01 0.  1.
       -5    1    3    3    0  502 -0.12220432653E+04 -0.42178055488E+03  0.37541501804E+02  0.12933367825E+04  0.46999998093E+01 0. -1.
</event>
<event>
 5   0  0.7729970E-06  0.2656432E+04  0.7818609E-02  0.8349281E-01
        2   -1    0    0  501    0  0.00000000000E+00  0.00000000000E+00  0.24354302402E+04  0.24354302402E+04  0.25500000920E-02 0. -1.
       -2   -1    0    0    0  501  0.00000000000E+00  0.00000000000E+00 -0.72437191762E+03  0.72437191762E+03  0.25500000920E-02 0.  1.
    10030    2    1    2    0    0  0.00000000000E+00  0.00000000000E+00  0.17110583225E+04  0.31598021578E+04  0.26564316466E+04 0.  0.
        4    1    3    3  502    0  0.72453370743E+03  0.33137047162E+03  0.21196400486E+04  0.22644273075E+04  0.12699999809E+01 0. -1.
       -4    1    3    3    0  502 -0.72453370743E+03 -0.33137047162E+03 -0.40858172605E+03  0.89537485023E+03  0.12699999809E+01 0.  1.
</event>
<event>
 5   0  0.7729970E-06  0.2682544E+04  0.7818609E-02  0.8340691E-01
       -2   -1    0    0    0  501  0.00000000000E+00  0.00000000000E+00  0.17594661363E+04  0.17594661363E+04  0.25500000920E-02 0. -1.
        2   -1    0    0  501    0  0.00000000000E+00  0.00000000000E+00 -0.10224754314E+04  0.10224754314E+04  0.25500000920E-02 0.  1.
    10030    2    1    2    0    0  0.00000000000E+00  0.00000000000E+00  0.73699070486E+03  0.27819415677E+04  0.26825442377E+04 0.  0.
        4    1    3    3  502    0 -0.11111900477E+04  0.58600755137E+03 -0.11887683047E+03  0.12618563651E+04  0.12699999809E+01 0.  1.
       -4    1    3    3    0  502  0.11111900477E+04 -0.58600755137E+03  0.85586753533E+03  0.15200852026E+04  0.12699999809E+01 0. -1.
</event>
<event>
 5   0  0.3089218E-06  0.2765472E+04  0.7818609E-02  0.8314069E-01
       -1   -1    0    0    0  501  0.00000000000E+00  0.00000000000E+00  0.95388094618E+03  0.95388094620E+03  0.50400001928E-02 0.  1.
        1   -1    0    0  501    0  0.00000000000E+00  0.00000000000E+00 -0.20043996161E+04  0.20043996161E+04  0.50400001928E-02 0. -1.
    10030    2    1    2    0    0  0.00000000000E+00  0.00000000000E+00 -0.10505186699E+04  0.29582805623E+04  0.27654718240E+04 0.  0.
        5    1    3    3  502    0  0.50029744511E+03 -0.49966060648E+02  0.85262241904E+03  0.98983898703E+03  0.46999998093E+01 0.  1.
       -5    1    3    3    0  502 -0.50029744511E+03  0.49966060648E+02 -0.19031410889E+04  0.19684415753E+04  0.46999998093E+01 0. -1.
</event>
<event>
 5   0  0.2654625E-06  0.2711290E+04  0.7818609E-02  0.8331351E-01
        3   -1    0    0  501    0  0.00000000000E+00  0.00000000000E+00  0.11428535391E+04  0.11428535435E+04  0.10100000352E+00 0. -1.
       -3   -1    0    0    0  501  0.00000000000E+00  0.00000000000E+00 -0.16080572509E+04  0.16080572541E+04  0.10100000352E+00 0.  1.
    10030    2    1    2    0    0  0.00000000000E+00  0.00000000000E+00 -0.46520371183E+03  0.27509107976E+04  0.27112904166E+04 0.  0.
        4    1    3    3  502    0  0.12356573202E+04 -0.38994941440E+03 -0.63700220290E+03  0.14438431279E+04  0.12699999809E+01 0.  1.
       -4    1    3    3    0  502 -0.12356573202E+04  0.38994941440E+03  0.17179849107E+03  0.13070676697E+04  0.12699999809E+01 0. -1.
</event>
<event>
 5   0  0.3089218E-06  0.2731825E+04  0.7818609E-02  0.8324752E-01
        1   -1    0    0  501    0  0.00000000000E+00  0.00000000000E+00  0.26588135381E+04  0.26588135381E+04  0.50400001928E-02 0. -1.
       -1   -1    0    0    0  501  0.00000000000E+00  0.00000000000E+00 -0.70171025163E+03  0.70171025165E+03  0.50400001928E-02 0.  1.
    10030    2    1    2    0    0  0.00000000000E+00  0.00000000000E+00  0.19571032865E+04  0.33605237897E+04  0.27318248237E+04 0.  0.
        5    1    3    3  502    0 -0.12989143182E+04  0.84332598120E+02  0.46926193565E+03  0.13836615365E+04  0.46999998093E+01 0.  1.
       -5    1    3    3    0  502  0.12989143182E+04 -0.84332598120E+02  0.14878413508E+04  0.19768622533E+04  0.46999998093E+01 0. -1.
</event>
<event>
 5   0  0.7729970E-06  0.2641396E+04  0.7818609E-02  0.8354274E-01
        2   -1    0    0  501    0  0.00000000000E+00  0.00000000000E+00  0.31870941951E+04  0.31870941951E+04  0.25500000920E-02 0.  1.
       -2   -1    0    0    0  501  0.00000000000E+00  0.00000000000E+00 -0.54728325003E+03  0.54728325004E+03  0.25500000920E-02 0. -1.
    10030    2    1    2    0    0  0.00000000000E+00  0.00000000000E+00  0.26398109450E+04  0.37343774451E+04  0.26413960470E+04 0.  0.
        4    1    3    3  502    0 -0.38982583741E+03 -0.12599366957E+04  0.12215785300E+04  0.17976819459E+04  0.12699999809E+01 0. -1.
       -4    1    3    3    0  502  0.38982583741E+03  0.12599366957E+04  0.14182324150E+04  0.19366954992E+04  0.12699999809E+01 0.  1.
</event>
<event>
 5   0  0.7812908E-06  0.2706681E+04  0.7818609E-02  0.8332840E-01
       -2   -1    0    0    0  501  0.00000000000E+00  0.00000000000E+00  0.14458469378E+04  0.14458469378E+04  0.25500000920E-02 0. -1.
        2   -1    0    0  501    0  0.00000000000E+00  0.00000000000E+00 -0.12667530341E+04  0.12667530341E+04  0.25500000920E-02 0.  1.
    10030    2    1    2    0    0  0.00000000000E+00  0.00000000000E+00  0.17909390369E+03  0.27125999719E+04  0.27066813594E+04 0.  0.
        5    1    3    3  502    0 -0.11555742341E+04  0.70376583851E+03  0.59974133640E+02  0.13543475007E+04  0.46999998093E+01 0. -1.
       -5    1    3    3    0  502  0.11555742341E+04 -0.70376583851E+03  0.11911977005E+03  0.13582524712E+04  0.46999998093E+01 0.  1.
</event>
<event>
 5   0  0.3028601E-06  0.2705484E+04  0.7818609E-02  0.8333228E-01
        1   -1    0    0  501    0  0.00000000000E+00  0.00000000000E+00  0.14705975684E+04  0.14705975684E+04  0.50400001928E-02 0. -1.
       -1   -1    0    0    0  501  0.00000000000E+00  0.00000000000E+00 -0.12443315627E+04  0.12443315627E+04  0.50400001928E-02 0.  1.
    10030    2    1    2    0    0  0.00000000000E+00  0.00000000000E+00  0.22626600575E+03  0.27149291311E+04  0.27054840383E+04 0.  0.
        3    1    3    3  502    0  0.10970975076E+04 -0.58073547751E+03 -0.42636300039E+03  0.13125022111E+04  0.10100000352E+00 0.  1.
       -3    1    3    3    0  502 -0.10970975076E+04  0.58073547751E+03  0.65262900614E+03  0.14024269200E+04  0.10100000352E+00 0. -1.
</event>
<event>
 5   0  0.7729970E-06  0.2670844E+04  0.7818609E-02  0.8344528E-01
        2   -1    0    0  501    0  0.00000000000E+00  0.00000000000E+00  0.18434382758E+04  0.18434382758E+04  0.25500000920E-02 0.  1.
       -2   -1    0    0    0  501  0.00000000000E+00  0.00000000000E+00 -0.96740493348E+03  0.96740493348E+03  0.25500000920E-02 0. -1.
    10030    2    1    2    0    0  0.00000000000E+00  0.00000000000E+00  0.87603334237E+03  0.28108432093E+04  0.26708435242E+04 0.  0.
        4    1    3    3  502    0 -0.10788435607E+04 -0.45484931031E+03  0.11139920298E+04  0.16160975153E+04  0.12699999809E+01 0.  1.
       -4    1    3    3    0  502  0.10788435607E+04  0.45484931031E+03 -0.23795868742E+03  0.11947456940E+04  0.12699999809E+01 0. -1.
</event>
<event>
 5   0  0.8407622E-06  0.2723985E+04  0.7818609E-02  0.8327264E-01
        2   -1    0    0  501    0  0.00000000000E+00  0.00000000000E+00  0.15542603880E+04  0.15542603880E+04  0.25500000920E-02 0. -1.
       -2   -1    0    0    0  501  0.00000000000E+00  0.00000000000E+00 -0.11935089919E+04  0.11935089920E+04  0.25500000920E-02 0.  1.
    10030    2    1    2    0    0  0.00000000000E+00  0.00000000000E+00  0.36075139610E+03  0.27477693800E+04  0.27239851314E+04 0.  0.
        1    1    3    3  502    0 -0.11212615234E+04 -0.14819902641E+03 -0.58508689165E+03  0.12733880108E+04  0.50400001928E-02 0.  1.
       -1    1    3    3    0  502  0.11212615234E+04  0.14819902641E+03  0.94583828775E+03  0.14743813692E+04  0.50400001928E-02 0. -1.
</event>
<event>
 5   0  0.3028601E-06  0.2704191E+04  0.7818609E-02  0.8333646E-01
        1   -1    0    0  501    0  0.00000000000E+00  0.00000000000E+00  0.82791586722E+03  0.82791586724E+03  0.50400001928E-02 0. -1.
       -1   -1    0    0    0  501  0.00000000000E+00  0.00000000000E+00 -0.22081495006E+04  0.22081495006E+04  0.50400001928E-02 0.  1.
    10030    2    1    2    0    0  0.00000000000E+00  0.00000000000E+00 -0.13802336334E+04  0.30360653678E+04  0.27041908282E+04 0.  0.
        3    1    3    3  502    0  0.12398460798E+03  0.11894779885E+04  0.18119474305E+02  0.11960595276E+04  0.10100000352E+00 0. -1.
       -3    1    3    3    0  502 -0.12398460798E+03 -0.11894779885E+04 -0.13983531077E+04  0.18400058402E+04  0.10100000352E+00 0.  1.
</event>
<event>
 5   0  0.8213334E-06  0.2715627E+04  0.7818609E-02  0.8329952E-01
        2   -1    0    0  501    0  0.00000000000E+00  0.00000000000E+00  0.17208395983E+04  0.17208395983E+04  0.25500000920E-02 0. -1.
       -2   -1    0    0    0  501  0.00000000000E+00  0.00000000000E+00 -0.10713705380E+04  0.10713705380E+04  0.25500000920E-02 0.  1.
    10030    2    1    2    0    0  0.00000000000E+00  0.00000000000E+00  0.64946906031E+03  0.27922101364E+04  0.27156265180E+04 0.  0.
        3    1    3    3  502    0  0.67617245521E+03  0.10676439737E+04  0.83531064978E+03  0.15148652533E+04  0.10100000352E+00 0.  1.
       -3    1    3    3    0  502 -0.67617245521E+03 -0.10676439737E+04 -0.18584158947E+03  0.12773448831E+04  0.10100000352E+00 0. -1.
</event>
<event>
 5   0  0.3028601E-06  0.2700934E+04  0.7818609E-02  0.8334702E-01
       -1   -1    0    0    0  501  0.00000000000E+00  0.00000000000E+00  0.11074218460E+04  0.11074218460E+04  0.50400001928E-02 0.  1.
        1   -1    0    0  501    0  0.00000000000E+00  0.00000000000E+00 -0.16468536156E+04  0.16468536156E+04  0.50400001928E-02 0. -1.
    10030    2    1    2    0    0  0.00000000000E+00  0.00000000000E+00 -0.53943176961E+03  0.27542754616E+04  0.27009344095E+04 0.  0.
        3    1    3    3  502    0 -0.72301582510E+03  0.41195022704E+03 -0.13543506778E+04  0.15895661803E+04  0.10100000352E+00 0. -1.
       -3    1    3    3    0  502  0.72301582510E+03 -0.41195022704E+03  0.81491890817E+03  0.11647092813E+04  0.10100000352E+00 0.  1.
</event>
<event>
 5   0  0.3089218E-06  0.2686571E+04  0.7818609E-02  0.8339375E-01
        1   -1    0    0  501    0  0.00000000000E+00  0.00000000000E+00  0.14289922074E+04  0.14289922074E+04  0.50400001928E-02 0.  1.
       -1   -1    0    0    0  501  0.00000000000E+00  0.00000000000E+00 -0.12627191320E+04  0.12627191320E+04  0.50400001928E-02 0. -1.
    10030    2    1    2    0    0  0.00000000000E+00  0.00000000000E+00  0.16627307543E+03  0.26917113395E+04  0.26865708997E+04 0.  0.
        5    1    3    3  502    0 -0.33500453177E+03  0.92823366793E+00  0.13864578820E+04  0.14263647663E+04  0.46999998093E+01 0.  1.
       -5    1    3    3    0  502  0.33500453177E+03 -0.92823366793E+00 -0.12201848066E+04  0.12653465731E+04  0.46999998093E+01 0. -1.
</event>
<event>
 5   0  0.3199840E-06  0.2694821E+04  0.7818609E-02  0.8336687E-01
       -1   -1    0    0    0  501  0.00000000000E+00  0.00000000000E+00  0.73625597661E+03  0.73625597663E+03  0.50400001928E-02 0.  1.
        1   -1    0    0  501    0  0.00000000000E+00  0.00000000000E+00 -0.24658744258E+04  0.24658744258E+04  0.50400001928E-02 0. -1.
    10030    2    1    2    0    0  0.00000000000E+00  0.00000000000E+00 -0.17296184492E+04  0.32021304024E+04  0.26948207982E+04 0.  0.
        1    1    3    3  502    0 -0.16862796583E+02  0.12788883972E+04 -0.13684870437E+04  0.18731248424E+04  0.50400001928E-02 0.  1.
       -1    1    3    3    0  502  0.16862796583E+02 -0.12788883972E+04 -0.36113140552E+03  0.13290055600E+04  0.50400001928E-02 0. -1.
</event>
<event>
 5   0  0.3199840E-06  0.2688495E+04  0.7818609E-02  0.8338747E-01
       -1   -1    0    0    0  501  0.00000000000E+00  0.00000000000E+00  0.11712750585E+04  0.11712750585E+04  0.50400001928E-02 0.  1.
        1   -1    0    0  501    0  0.00000000000E+00  0.00000000000E+00 -0.15427646425E+04  0.15427646425E+04  0.50400001928E-02 0. -1.
    10030    2    1    2    0    0  0.00000000000E+00  0.00000000000E+00 -0.37148958398E+03  0.27140397010E+04  0.26884953017E+04 0.  0.
        1    1    3    3  502    0  0.96548289751E+03  0.84589547326E+03 -0.58866785042E+03  0.14121707458E+04  0.50400001928E-02 0. -1.
       -1    1    3    3    0  502 -0.96548289751E+03 -0.84589547326E+03  0.21717826644E+03  0.13018689552E+04  0.50400001928E-02 0.  1.
</event>
<event>
 5   0  0.8213334E-06  0.2685846E+04  0.7818609E-02  0.8339612E-01
       -2   -1    0    0    0  501  0.00000000000E+00  0.00000000000E+00  0.11923563452E+04  0.11923563452E+04  0.25500000920E-02 0. -1.
        2   -1    0    0  501    0  0.00000000000E+00  0.00000000000E+00 -0.15125028364E+04  0.15125028364E+04  0.25500000920E-02 0.  1.
    10030    2    1    2    0    0  0.00000000000E+00  0.00000000000E+00 -0.32014649119E+03  0.27048591817E+04  0.26858461268E+04 0.  0.
        3    1    3    3  502    0  0.88823371202E+03  0.69077806870E+03 -0.89827579328E+03  0.14398030693E+04  0.10100000352E+00 0.  1.
       -3    1    3    3    0  502 -0.88823371202E+03 -0.69077806870E+03  0.57812930209E+03  0.12650561124E+04  0.10100000352E+00 0. -1.
</event>
<event>
 5   0  0.3199840E-06  0.2697701E+04  0.7818609E-02  0.8335751E-01
       -1   -1    0    0    0  501  0.00000000000E+00  0.00000000000E+00  0.91658063346E+03  0.91658063348E+03  0.50400001928E-02 0.  1.
        1   -1    0    0  501    0  0.00000000000E+00  0.00000000000E+00 -0.19849838529E+04  0.19849838529E+04  0.50400001928E-02 0. -1.
    10030    2    1    2    0    0  0.00000000000E+00  0.00000000000E+00 -0.10684032195E+04  0.29015644864E+04  0.26977010638E+04 0.  0.
        1    1    3    3  502    0 -0.59968951814E+03  0.10879498284E+04 -0.10993980979E+04  0.16588967795E+04  0.50400001928E-02 0. -1.
       -1    1    3    3    0  502  0.59968951814E+03 -0.10879498284E+04  0.30994878425E+02  0.12426677069E+04  0.50400001928E-02 0.  1.
</event>
<event>
 5   0  0.3046300E-06  0.2722603E+04  0.7818609E-02  0.8327708E-01
       -1   -1    0    0    0  501  0.00000000000E+00  0.00000000000E+00  0.11281948156E+04  0.11281948157E+04  0.50400001928E-02 0. -1.
        1   -1    0    0  501    0  0.00000000000E+00  0.00000000000E+00 -0.16425723360E+04  0.16425723360E+04  0.50400001928E-02 0.  1.
    10030    2    1    2    0    0  0.00000000000E+00  0.00000000000E+00 -0.51437752035E+03  0.27707671517E+04  0.27226028677E+04 0.  0.
        2    1    3    3  502    0  0.60311003638E+03 -0.45322735688E+03 -0.14103649875E+04  0.15994643325E+04  0.25500000920E-02 0.  1.
       -2    1    3    3    0  502 -0.60311003638E+03  0.45322735688E+03  0.89598746711E+03  0.11713028192E+04  0.25500000920E-02 0. -1.
</event>
<event>
 5   0  0.3089218E-06  0.2710304E+04  0.7818609E-02  0.8331669E-01
       -1   -1    0    0    0  501  0.00000000000E+00  0.00000000000E+00  0.10961932955E+04  0.10961932955E+04  0.50400001928E-02 0. -1.
        1   -1    0    0  501    0  0.00000000000E+00  0.00000000000E+00 -0.16752854917E+04  0.16752854917E+04  0.50400001928E-02 0.  1.
    10030    2    1    2    0    0  0.00000000000E+00  0.00000000000E+00 -0.57909219618E+03  0.27714787872E+04  0.27103038383E+04 0.  0.
        5    1    3    3  502    0 -0.12870919361E+04  0.30038246310E+03  0.16507543269E+02  0.13217904014E+04  0.46999998093E+01 0. -1.
       -5    1    3    3    0  502  0.12870919361E+04 -0.30038246310E+03 -0.59559973945E+03  0.14496883858E+04  0.46999998093E+01 0.  1.
</event>
<event>
 5   0  0.7729970E-06  0.2687637E+04  0.7818609E-02  0.8339027E-01
        2   -1    0    0  501    0  0.00000000000E+00  0.00000000000E+00  0.16212288271E+04  0.16212288271E+04  0.25500000920E-02 0. -1.
       -2   -1    0    0    0  501  0.00000000000E+00  0.00000000000E+00 -0.11138762480E+04  0.11138762480E+04  0.25500000920E-02 0.  1.
    10030    2    1    2    0    0  0.00000000000E+00  0.00000000000E+00  0.50735257907E+03  0.27351050751E+04  0.26876370909E+04 0.  0.
        4    1    3    3  502    0  0.83340347407E+03 -0.13746466912E+03 -0.80995720639E+03  0.11702521843E+04  0.12699999809E+01 0.  1.
       -4    1    3    3    0  502 -0.83340347407E+03  0.13746466912E+03  0.13173097855E+04  0.15648528907E+04  0.12699999809E+01 0. -1.
</event>
<event>
 5   0  0.8213334E-06  0.2816139E+04  0.7818609E-02  0.8298275E-01
        2   -1    0    0  501    0  0.00000000000E+00  0.00000000000E+00  0.17505412841E+04  0.17505412841E+04  0.25500000920E-02 0.  1.
       -2   -1    0    0    0  501  0.00000000000E+00  0.00000000000E+00 -0.11325981136E+04  0.11325981136E+04  0.25500000920E-02 0. -1.
    10030    2    1    2    0    0  0.00000000000E+00  0.00000000000E+00  0.61794317053E+03  0.28831393977E+04  0.28161390280E+04 0.  0.
        3    1    3    3  502    0 -0.12682709396E+03 -0.89446487147E+02 -0.11238151014E+04  0.11344805763E+04  0.10100000352E+00 0. -1.
       -3    1    3    3    0  502  0.12682709396E+03  0.89446487147E+02  0.17417582719E+04  0.17486588214E+04  0.10100000352E+00 0.  1.
</event>
<event>
 5   0  0.3013407E-06  0.2707103E+04  0.7818609E-02  0.8332704E-01
        1   -1    0    0  501    0  0.00000000000E+00  0.00000000000E+00  0.20571651693E+04  0.20571651693E+04  0.50400001928E-02 0. -1.
       -1   -1    0    0    0  501  0.00000000000E+00  0.00000000000E+00 -0.89059545764E+03  0.89059545766E+03  0.50400001928E-02 0.  1.
    10030    2    1    2    0    0  0.00000000000E+00  0.00000000000E+00  0.11665697116E+04  0.29477606269E+04  0.27071032159E+04 0.  0.
        4    1    3    3  502    0 -0.55383846743E+03  0.12337459676E+04  0.64521036929E+03  0.14983871977E+04  0.12699999809E+01 0.  1.
       -4    1    3    3    0  502  0.55383846743E+03 -0.12337459676E+04  0.52135934235E+03  0.14493734293E+04  0.12699999809E+01 0. -1.
</event>
<event>
 5   0  0.3046300E-06  0.2712722E+04  0.7818609E-02  0.8330889E-01
       -1   -1    0    0    0  501  0.00000000000E+00  0.00000000000E+00  0.17562649627E+04  0.17562649627E+04  0.50400001928E-02 0. -1.
        1   -1    0    0  501    0  0.00000000000E+00  0.00000000000E+00 -0.10475157712E+04  0.10475157713E+04  0.50400001928E-02 0.  1.
    10030    2    1    2    0    0  0.00000000000E+00  0.00000000000E+00  0.70874919148E+03  0.28037807340E+04  0.27127220624E+04 0.  0.
        2    1    3    3  502    0  0.79541367530E+03  0.61446960287E+03 -0.58694332013E+03  0.11639408356E+04  0.25500000920E-02 0.  1.
       -2    1    3    3    0  502 -0.79541367530E+03 -0.61446960287E+03  0.12956925116E+04  0.16398398984E+04  0.25500000920E-02 0. -1.
</event>
<event>
 5   0  0.3013407E-06  0.2704976E+04  0.7818609E-02  0.8333392E-01
       -1   -1    0    0    0  501  0.00000000000E+00  0.00000000000E+00  0.77866778063E+03  0.77866778065E+03  0.50400001928E-02 0.  1.
        1   -1    0    0  501    0  0.00000000000E+00  0.00000000000E+00 -0.23491716337E+04  0.23491716337E+04  0.50400001928E-02 0. -1.
    10030    2    1    2    0    0  0.00000000000E+00  0.00000000000E+00 -0.15705038531E+04  0.31278394144E+04  0.27049763492E+04 0.  0.
        4    1    3    3  502    0 -0.23581050250E+03 -0.15414634436E+03  0.74436261017E+03  0.79589257874E+03  0.12699999809E+01 0.  1.
       -4    1    3    3    0  502  0.23581050250E+03  0.15414634436E+03 -0.23148664633E+04  0.23319468356E+04  0.12699999809E+01 0. -1.
</event>
<event>
 5   0  0.3028601E-06  0.2704027E+04  0.7818609E-02  0.8333700E-01
        1   -1    0    0  501    0  0.00000000000E+00  0.00000000000E+00  0.12994038373E+04  0.12994038373E+04  0.50400001928E-02 0. -1.
       -1   -1    0    0    0  501  0.00000000000E+00  0.00000000000E+00 -0.14067527266E+04  0.14067527266E+04  0.50400001928E-02 0.  1.
    10030    2    1    2    0    0  0.00000000000E+00  0.00000000000E+00 -0.10734888935E+03  0.27061565639E+04  0.27040265465E+04 0.  0.
        3    1    3    3  502    0  0.12349641705E+04 -0.28064311863E+03 -0.52737891339E+03  0.13718693782E+04  0.10100000352E+00 0. -1.
       -3    1    3    3    0  502 -0.12349641705E+04  0.28064311863E+03  0.42003002404E+03  0.13342871856E+04  0.10100000352E+00 0.  1.
</event>
<event>
 5   0  0.3199840E-06  0.2727049E+04  0.7818609E-02  0.8326282E-01
        1   -1    0    0  501    0  0.00000000000E+00  0.00000000000E+00  0.14066738181E+04  0.14066738181E+04  0.50400001928E-02 0. -1.
       -1   -1    0    0    0  501  0.00000000000E+00  0.00000000000E+00 -0.13216988029E+04  0.13216988029E+04  0.50400001928E-02 0.  1.
    10030    2    1    2    0    0  0.00000000000E+00  0.00000000000E+00  0.84975015239E+02  0.27283726210E+04  0.27270490288E+04 0.  0.
        1    1    3    3  502    0 -0.63549449276E+03 -0.10549079399E+04 -0.54304443365E+03  0.13459499504E+04  0.50400001928E-02 0.  1.
       -1    1    3    3    0  502  0.63549449276E+03  0.10549079399E+04  0.62801944889E+03  0.13824226706E+04  0.50400001928E-02 0. -1.
</event>
<event>
 5   0  0.7729970E-06  0.2691737E+04  0.7818609E-02  0.8337691E-01
       -2   -1    0    0    0  501  0.00000000000E+00  0.00000000000E+00  0.12042153438E+04  0.12042153438E+04  0.25500000920E-02 0.  1.
        2   -1    0    0  501    0  0.00000000000E+00  0.00000000000E+00 -0.15041847104E+04  0.15041847104E+04  0.25500000920E-02 0. -1.
    10030    2    1    2    0    0  0.00000000000E+00  0.00000000000E+00 -0.29996936657E+03  0.27084000543E+04  0.26917372147E+04 0.  0.
        4    1    3    3  502    0  0.79865935590E+03  0.52131682871E+03  0.80548973246E+03  0.12483762753E+04  0.12699999809E+01 0.  1.
       -4    1    3    3    0  502 -0.79865935590E+03 -0.52131682871E+03 -0.11054590990E+04  0.14600237790E+04  0.12699999809E+01 0. -1.
</event>
<event>
 5   0  0.7729970E-06  0.2735949E+04  0.7818609E-02  0.8323434E-01
        2   -1    0    0  501    0  0.00000000000E+00  0.00000000000E+00  0.19711837535E+04  0.19711837535E+04  0.25500000920E-02 0. -1.
       -2   -1    0    0    0  501  0.00000000000E+00  0.00000000000E+00 -0.94935559351E+03  0.94935559351E+03  0.25500000920E-02 0.  1.
    10030    2    1    2    0    0  0.00000000000E+00  0.00000000000E+00  0.10218281600E+04  0.29205393470E+04  0.27359490655E+04 0.  0.
        4    1    3    3  502    0 -0.32544064815E+03  0.84303089556E+03 -0.58538175098E+03  0.10767014970E+04  0.12699999809E+01 0.  1.
       -4    1    3    3    0  502  0.32544064815E+03 -0.84303089556E+03  0.16072099110E+04  0.18438378500E+04  0.12699999809E+01 0. -1.
</event>
<event>
 5   0  0.3199840E-06  0.2652609E+04  0.7818609E-02  0.8350548E-01
       -1   -1    0    0    0  501  0.00000000000E+00  0.00000000000E+00  0.13815459107E+04  0.13815459107E+04  0.50400001928E-02 0. -1.
        1   -1    0    0  501    0  0.00000000000E+00  0.00000000000E+00 -0.12732715011E+04  0.12732715011E+04  0.50400001928E-02 0.  1.
    10030    2    1    2    0    0  0.00000000000E+00  0.00000000000E+00  0.10827440958E+03  0.26548174118E+04  0.26526085543E+04 0.  0.
        1    1    3    3  502    0  0.19988605297E+02 -0.96554270916E+03  0.96396557569E+03  0.13645152614E+04  0.50400001928E-02 0. -1.
       -1    1    3    3    0  502 -0.19988605297E+02  0.96554270916E+03 -0.85569116611E+03  0.12903021504E+04  0.50400001928E-02 0.  1.
</event>
<event>
 5   0  0.3013407E-06  0.2689992E+04  0.7818609E-02  0.8338260E-01
       -1   -1    0    0    0  501  0.00000000000E+00  0.00000000000E+00  0.85553171191E+03  0.85553171192E+03  0.50400001928E-02 0.  1.
        1   -1    0    0  501    0  0.00000000000E+00  0.00000000000E+00 -0.21144904183E+04  0.21144904183E+04  0.50400001928E-02 0. -1.
    10030    2    1    2    0    0  0.00000000000E+00  0.00000000000E+00 -0.12589587064E+04  0.29700221302E+04  0.26899915297E+04 0.  0.
        4    1    3    3  502    0  0.74692939375E+03  0.61174385492E+03  0.40442018878E+03  0.10467527718E+04  0.12699999809E+01 0.  1.
       -4    1    3    3    0  502 -0.74692939375E+03 -0.61174385492E+03 -0.16633788952E+04  0.19232693584E+04  0.12699999809E+01 0. -1.
</event>
<event>
 5   0  0.7729970E-06  0.2673070E+04  0.7818609E-02  0.8343796E-01
        2   -1    0    0  501    0  0.00000000000E+00  0.00000000000E+00  0.11456038196E+04  0.11456038196E+04  0.25500000920E-02 0.  1.
       -2   -1    0    0    0  501  0.00000000000E+00  0.00000000000E+00 -0.15592870334E+04  0.15592870334E+04  0.25500000920E-02 0. -1.
    10030    2    1    2    0    0  0.00000000000E+00  0.00000000000E+00 -0.41368321380E+03  0.27048908530E+04  0.26730695325E+04 0.  0.
        4    1    3    3  502    0  0.72508307679E+03 -0.10205946679E+03  0.92457521193E+03  0.11794077066E+04  0.12699999809E+01 0.  1.
       -4    1    3    3    0  502 -0.72508307679E+03  0.10205946679E+03 -0.13382584257E+04  0.15254831464E+04  0.12699999809E+01 0. -1.
</event>
<event>
 5   0  0.7729970E-06  0.2700787E+04  0.7818609E-02  0.8334750E-01
        2   -1    0    0  501    0  0.00000000000E+00  0.00000000000E+00  0.28038652463E+04  0.28038652463E+04  0.25500000920E-02 0.  1.
       -2   -1    0    0    0  501  0.00000000000E+00  0.00000000000E+00 -0.65037456217E+03  0.65037456218E+03  0.25500000920E-02 0. -1.
    10030    2    1    2    0    0  0.00000000000E+00  0.00000000000E+00  0.21534906842E+04  0.34542398085E+04  0.27007870201E+04 0.  0.
        4    1    3    3  502    0 -0.97309159001E+03  0.93378544724E+03  0.11644136165E+04  0.17817752909E+04  0.12699999809E+01 0.  1.
       -4    1    3    3    0  502  0.97309159001E+03 -0.93378544724E+03  0.98907706763E+03  0.16724645176E+04  0.12699999809E+01 0. -1.
</event>
<event>
 5   0  0.7812908E-06  0.2689641E+04  0.7818609E-02  0.8338374E-01
        2   -1    0    0  501    0  0.00000000000E+00  0.00000000000E+00  0.20401760698E+04  0.20401760698E+04  0.25500000920E-02 0.  1.
       -2   -1    0    0    0  501  0.00000000000E+00  0.00000000000E+00 -0.88646397471E+03  0.88646397471E+03  0.25500000920E-02 0. -1.
    10030    2    1    2    0    0  0.00000000000E+00  0.00000000000E+00  0.11537120951E+04  0.29266400445E+04  0.26896413054E+04 0.  0.
        5    1    3    3  502    0  0.76351308491E+03  0.47808929982E+03  0.16633374130E+04  0.18916223325E+04  0.46999998093E+01 0.  1.
       -5    1    3    3    0  502 -0.76351308491E+03 -0.47808929982E+03 -0.50962531792E+03  0.10350177120E+04  0.46999998093E+01 0. -1.
</event>
<event>
 5   0  0.8407622E-06  0.2689518E+04  0.7818609E-02  0.8338414E-01
       -2   -1    0    0    0  501  0.00000000000E+00  0.00000000000E+00  0.63241922824E+03  0.63241922825E+03  0.25500000920E-02 0. -1.
        2   -1    0    0  501    0  0.00000000000E+00  0.00000000000E+00 -0.28594579588E+04  0.28594579588E+04  0.25500000920E-02 0.  1.
    10030    2    1    2    0    0  0.00000000000E+00  0.00000000000E+00 -0.22270387306E+04  0.34918771871E+04  0.26895175742E+04 0.  0.
        1    1    3    3  502    0  0.11506295436E+04  0.50790888303E+03 -0.17313605983E+04  0.21399834816E+04  0.50400001928E-02 0. -1.
       -1    1    3    3    0  502 -0.11506295436E+04 -0.50790888303E+03 -0.49567813224E+03  0.13518937055E+04  0.50400001928E-02 0.  1.
</event>
<event>
 5   0  0.3089218E-06  0.2690641E+04  0.7818609E-02  0.8338048E-01
       -1   -1    0    0    0  501  0.00000000000E+00  0.00000000000E+00  0.95958595149E+03  0.95958595150E+03  0.50400001928E-02 0. -1.
        1   -1    0    0  501    0  0.00000000000E+00  0.00000000000E+00 -0.18861130937E+04  0.18861130937E+04  0.50400001928E-02 0.  1.
    10030    2    1    2    0    0  0.00000000000E+00  0.00000000000E+00 -0.92652714224E+03  0.28456990452E+04  0.26906412824E+04 0.  0.
        5    1    3    3  502    0 -0.58340084764E+03 -0.32502518672E+03  0.77188521458E+03  0.10206991699E+04  0.46999998093E+01 0. -1.
       -5    1    3    3    0  502  0.58340084764E+03  0.32502518672E+03 -0.16984123568E+04  0.18249998753E+04  0.46999998093E+01 0.  1.
</event>
<event>
 5   0  0.7812908E-06  0.2504713E+04  0.7818609E-02  0.8401309E-01
       -2   -1    0    0    0  501  0.00000000000E+00  0.00000000000E+00  0.13810997187E+04  0.13810997187E+04  0.25500000920E-02 0. -1.
        2   -1    0    0  501    0  0.00000000000E+00  0.00000000000E+00 -0.11356140059E+04  0.11356140059E+04  0.25500000920E-02 0.  1.
    10030    2    1    2    0    0  0.00000000000E+00  0.00000000000E+00  0.24548571277E+03  0.25167137246E+04  0.25047125058E+04 0.  0.
        5    1    3    3  502    0  0.73734206275E+03 -0.87721209916E+03  0.63033632049E+03  0.13078686292E+04  0.46999998093E+01 0. -1.
       -5    1    3    3    0  502 -0.73734206275E+03  0.87721209916E+03 -0.38485060772E+03  0.12088450954E+04  0.46999998093E+01 0.  1.
</event>
<event>
 5   0  0.3046300E-06  0.2702885E+04  0.7818609E-02  0.8334069E-01
       -1   -1    0    0    0  501  0.00000000000E+00  0.00000000000E+00  0.23758876329E+04  0.23758876329E+04  0.50400001928E-02 0. -1.
        1   -1    0    0  501    0  0.00000000000E+00  0.00000000000E+00 -0.76872198682E+03  0.76872198683E+03  0.50400001928E-02 0.  1.
    10030    2    1    2    0    0  0.00000000000E+00  0.00000000000E+00  0.16071656461E+04  0.31446096198E+04  0.27028851708E+04 0.  0.
        2    1    3    3  502    0 -0.54705371285E+02  0.10244391759E+04  0.18270870384E+04  0.20954033857E+04  0.25500000920E-02 0. -1.
       -2    1    3    3    0  502  0.54705371285E+02 -0.10244391759E+04 -0.21992139232E+03  0.10492062341E+04  0.25500000920E-02 0.  1.
</event>
<event>
 5   0  0.7812908E-06  0.2725328E+04  0.7818609E-02  0.8326834E-01
        2   -1    0    0  501    0  0.00000000000E+00  0.00000000000E+00  0.13949232012E+04  0.13949232012E+04  0.25500000920E-02 0. -1.
       -2   -1    0    0    0  501  0.00000000000E+00  0.00000000000E+00 -0.13311504021E+04  0.13311504021E+04  0.25500000920E-02 0.  1.
    10030    2    1    2    0    0  0.00000000000E+00  0.00000000000E+00  0.63772799083E+02  0.27260736033E+04  0.27253275621E+04 0.  0.
        5    1    3    3  502    0  0.91848540299E+03 -0.10017972386E+04  0.12998132066E+03  0.13653315994E+04  0.46999998093E+01 0.  1.
       -5    1    3    3    0  502 -0.91848540299E+03  0.10017972386E+04 -0.66208521573E+02  0.13607420039E+04  0.46999998093E+01 0. -1.
</event>
<event>
 5   0  0.3028601E-06  0.2686644E+04  0.7818609E-02  0.8339351E-01
        1   -1    0    0  501    0  0.00000000000E+00  0.00000000000E+00  0.19112686066E+04  0.19112686066E+04  0.50400001928E-02 0. -1.
       -1   -1    0    0    0  501  0.00000000000E+00  0.00000000000E+00 -0.94414496483E+03  0.94414496484E+03  0.50400001928E-02 0.  1.
    10030    2    1    2    0    0  0.00000000000E+00  0.00000000000E+00  0.96712364175E+03  0.28554135714E+04  0.26866444732E+04 0.  0.
        3    1    3    3  502    0  0.31585723580E+03  0.11062831913E+04 -0.25345947185E+03  0.11780789476E+04  0.10100000352E+00 0.  1.
       -3    1    3    3    0  502 -0.31585723580E+03 -0.11062831913E+04  0.12205831136E+04  0.16773346238E+04  0.10100000352E+00 0. -1.
</event>
<event>
 5   0  0.3013407E-06  0.2684630E+04  0.7818609E-02  0.8340009E-01
       -1   -1    0    0    0  501  0.00000000000E+00  0.00000000000E+00  0.76383503628E+03  0.76383503629E+03  0.50400001928E-02 0. -1.
        1   -1    0    0  501    0  0.00000000000E+00  0.00000000000E+00 -0.23588984807E+04  0.23588984807E+04  0.50400001928E-02 0.  1.
    10030    2    1    2    0    0  0.00000000000E+00  0.00000000000E+00 -0.15950634444E+04  0.31227335170E+04  0.26846298118E+04 0.  0.
        4    1    3    3  502    0 -0.10827605554E+04  0.49663151798E+03 -0.15172015727E+04  0.19289674726E+04  0.12699999809E+01 0.  1.
       -4    1    3    3    0  502  0.10827605554E+04 -0.49663151798E+03 -0.77861871680E+02  0.11937660444E+04  0.12699999809E+01 0. -1.
</event>
<event>
 5   0  0.3028601E-06  0.2711516E+04  0.7818609E-02  0.8331278E-01
        1   -1    0    0  501    0  0.00000000000E+00  0.00000000000E+00  0.12835296306E+04  0.12835296306E+04  0.50400001928E-02 0. -1.
       -1   -1    0    0    0  501  0.00000000000E+00  0.00000000000E+00 -0.14320512002E+04  0.14320512002E+04  0.50400001928E-02 0.  1.
    10030    2    1    2    0    0  0.00000000000E+00  0.00000000000E+00 -0.14852156958E+03  0.27155808307E+04  0.27115162901E+04 0.  0.
        3    1    3    3  502    0 -0.45703649109E+02 -0.99797072593E+03 -0.99217476510E+03  0.14079933125E+04  0.10100000352E+00 0.  1.
       -3    1    3    3    0  502  0.45703649109E+02  0.99797072593E+03  0.84365319552E+03  0.13075875182E+04  0.10100000352E+00 0. -1.
</event>
<event>
 5   0  0.3028601E-06  0.2707907E+04  0.7818609E-02  0.8332444E-01
       -1   -1    0    0    0  501  0.00000000000E+00  0.00000000000E+00  0.66308196560E+03  0.66308196562E+03  0.50400001928E-02 0. -1.
        1   -1    0    0  501    0  0.00000000000E+00  0.00000000000E+00 -0.27646515235E+04  0.27646515235E+04  0.50400001928E-02 0.  1.
    10030    2    1    2    0    0  0.00000000000E+00  0.00000000000E+00 -0.21015695579E+04  0.34277334891E+04  0.27079073592E+04 0.  0.
        3    1    3    3  502    0 -0.81600124607E+03 -0.51199005718E+02 -0.24168843911E+04  0.25514328409E+04  0.10100000352E+00 0.  1.
       -3    1    3    3    0  502  0.81600124607E+03  0.51199005718E+02  0.31531483318E+03  0.87630064818E+03  0.10100000352E+00 0. -1.
</event>
<event>
 5   0  0.7838364E-06  0.2657997E+04  0.7818609E-02  0.8348763E-01
       -2   -1    0    0    0  501  0.00000000000E+00  0.00000000000E+00  0.10048702165E+04  0.10048702165E+04  0.25500000920E-02 0.  1.
        2   -1    0    0  501    0  0.00000000000E+00  0.00000000000E+00 -0.17576772575E+04  0.17576772575E+04  0.25500000920E-02 0. -1.
    10030    2    1    2    0    0  0.00000000000E+00  0.00000000000E+00 -0.75280704102E+03  0.27625474741E+04  0.26579973863E+04 0.  0.
        2    1    3    3  502    0  0.83866931382E+03 -0.43433704664E+02 -0.14469604971E+04  0.16730054945E+04  0.25500000920E-02 0. -1.
       -2    1    3    3    0  502 -0.83866931382E+03  0.43433704664E+02  0.69415345604E+03  0.10895419795E+04  0.25500000920E-02 0.  1.
</event>
<event>
 5   0  0.3089218E-06  0.2716527E+04  0.7818609E-02  0.8329663E-01
       -1   -1    0    0    0  501  0.00000000000E+00  0.00000000000E+00  0.71337570974E+03  0.71337570976E+03  0.50400001928E-02 0.  1.
        1   -1    0    0  501    0  0.00000000000E+00  0.00000000000E+00 -0.25861256438E+04  0.25861256438E+04  0.50400001928E-02 0. -1.
    10030    2    1    2    0    0  0.00000000000E+00  0.00000000000E+00 -0.18727499341E+04  0.32995013536E+04  0.27165266181E+04 0.  0.
        5    1    3    3  502    0  0.33721450231E+03 -0.42613884211E+03 -0.24483235773E+04  0.25079111553E+04  0.46999998093E+01 0. -1.
       -5    1    3    3    0  502 -0.33721450231E+03  0.42613884211E+03  0.57557364324E+03  0.79159019834E+03  0.46999998093E+01 0.  1.
</event>
<event>
 5   0  0.3046300E-06  0.2734059E+04  0.7818609E-02  0.8324038E-01
       -1   -1    0    0    0  501  0.00000000000E+00  0.00000000000E+00  0.11386329725E+04  0.11386329725E+04  0.50400001928E-02 0. -1.
        1   -1    0    0  501    0  0.00000000000E+00  0.00000000000E+00 -0.16412401689E+04  0.16412401689E+04  0.50400001928E-02 0.  1.
    10030    2    1    2    0    0  0.00000000000E+00  0.00000000000E+00 -0.50260719642E+03  0.27798731414E+04  0.27340593791E+04 0.  0.
        2    1    3    3  502    0  0.76326492398E+03  0.77412961510E+03 -0.10939981156E+04  0.15422975985E+04  0.25500000920E-02 0.  1.
       -2    1    3    3    0  502 -0.76326492398E+03 -0.77412961510E+03  0.59139091922E+03  0.12375755429E+04  0.25500000920E-02 0. -1.
</event>
<event>
 5   0  0.3028601E-06  0.2443279E+04  0.7818609E-02  0.8423476E-01
        1   -1    0    0  501    0  0.00000000000E+00  0.00000000000E+00  0.10503949305E+04  0.10503949306E+04  0.50400001928E-02 0. -1.
       -1   -1    0    0    0  501  0.00000000000E+00  0.00000000000E+00 -0.14208020113E+04  0.14208020113E+04  0.50400001928E-02 0.  1.
    10030    2    1    2    0    0  0.00000000000E+00  0.00000000000E+00 -0.37040708078E+03  0.24711969419E+04  0.24432791327E+04 0.  0.
        3    1    3    3  502    0  0.10982054334E+04 -0.22624293217E+03 -0.67567982371E+03  0.13091158362E+04  0.10100000352E+00 0.  1.
       -3    1    3    3    0  502 -0.10982054334E+04  0.22624293217E+03  0.30527274293E+03  0.11620811056E+04  0.10100000352E+00 0. -1.
</event>
<event>
 5   0  0.8407622E-06  0.2699007E+04  0.7818609E-02  0.8335327E-01
        2   -1    0    0  501    0  0.00000000000E+00  0.00000000000E+00  0.19195841319E+04  0.19195841319E+04  0.25500000920E-02 0. -1.
       -2   -1    0    0    0  501  0.00000000000E+00  0.00000000000E+00 -0.94872596075E+03  0.94872596075E+03  0.25500000920E-02 0.  1.
    10030    2    1    2    0    0  0.00000000000E+00  0.00000000000E+00  0.97085817118E+03  0.28683100927E+04  0.26990067060E+04 0.  0.
        1    1    3    3  502    0 -0.53346501201E+03  0.33114295729E+03  0.17548970789E+04  0.18638412848E+04  0.50400001928E-02 0. -1.
       -1    1    3    3    0  502  0.53346501201E+03 -0.33114295729E+03 -0.78403890774E+03  0.10044688079E+04  0.50400001928E-02 0.  1.
</event>
<event>
 5   0  0.7838364E-06  0.2701085E+04  0.7818609E-02  0.8334653E-01
        2   -1    0    0  501    0  0.00000000000E+00  0.00000000000E+00  0.12374448505E+04  0.12374448505E+04  0.25500000920E-02 0.  1.
       -2   -1    0    0    0  501  0.00000000000E+00  0.00000000000E+00 -0.14739764105E+04  0.14739764105E+04  0.25500000920E-02 0. -1.
    10030    2    1    2    0    0  0.00000000000E+00  0.00000000000E+00 -0.23653156001E+03  0.27114212609E+04  0.27010846109E+04 0.  0.
        2    1    3    3  502    0 -0.49059840966E+02  0.71838738574E+03  0.10286815023E+04  0.12556563771E+04  0.25500000920E-02 0.  1.
       -2    1    3    3    0  502  0.49059840966E+02 -0.71838738574E+03 -0.12652130623E+04  0.14557648839E+04  0.25500000920E-02 0. -1.
</event>
<event>
 5   0  0.3028601E-06  0.2727409E+04  0.7818609E-02  0.8326166E-01
       -1   -1    0    0    0  501  0.00000000000E+00  0.00000000000E+00  0.14627421198E+04  0.14627421198E+04  0.50400001928E-02 0. -1.
        1   -1    0    0  501    0  0.00000000000E+00  0.00000000000E+00 -0.12713728056E+04  0.12713728056E+04  0.50400001928E-02 0.  1.
    10030    2    1    2    0    0  0.00000000000E+00  0.00000000000E+00  0.19136931420E+03  0.27341149253E+04  0.27274094321E+04 0.  0.
        3    1    3    3  502    0  0.57929711022E+02 -0.11984660368E+04  0.74536276589E+03  0.14125304795E+04  0.10100000352E+00 0. -1.
       -3    1    3    3    0  502 -0.57929711022E+02  0.11984660368E+04 -0.55399345168E+03  0.13215844458E+04  0.10100000352E+00 0.  1.
</event>
<event>
 5   0  0.8407622E-06  0.2687255E+04  0.7818609E-02  0.8339152E-01
       -2   -1    0    0    0  501  0.00000000000E+00  0.00000000000E+00  0.10149754348E+04  0.10149754348E+04  0.25500000920E-02 0. -1.
        2   -1    0    0  501    0  0.00000000000E+00  0.00000000000E+00 -0.17786974890E+04  0.17786974890E+04  0.25500000920E-02 0.  1.
    10030    2    1    2    0    0  0.00000000000E+00  0.00000000000E+00 -0.76372205422E+03  0.27936729239E+04  0.26872545524E+04 0.  0.
        1    1    3    3  502    0  0.49457171191E+03  0.31917752088E+03  0.87380278880E+03  0.10535685938E+04  0.50400001928E-02 0. -1.
       -1    1    3    3    0  502 -0.49457171191E+03 -0.31917752088E+03 -0.16375248430E+04  0.17401043301E+04  0.50400001928E-02 0.  1.
</event>
<event>
 5   0  0.3199840E-06  0.2698663E+04  0.7818609E-02  0.8335439E-01
        1   -1    0    0  501    0  0.00000000000E+00  0.00000000000E+00  0.16476715287E+04  0.16476715287E+04  0.50400001928E-02 0.  1.
       -1   -1    0    0    0  501  0.00000000000E+00  0.00000000000E+00 -0.11050115570E+04  0.11050115570E+04  0.50400001928E-02 0. -1.
    10030    2    1    2    0    0  0.00000000000E+00  0.00000000000E+00  0.54265997177E+03  0.27526830857E+04  0.26986634331E+04 0.  0.
        1    1    3    3  502    0  0.12678800668E+03 -0.13223257070E+04  0.29786970921E+02  0.13287241014E+04  0.50400001928E-02 0. -1.
       -1    1    3    3    0  502 -0.12678800668E+03  0.13223257070E+04  0.51287300085E+03  0.14239589843E+04  0.50400001928E-02 0.  1.
</event>
<event>
 5   0  0.3028601E-06  0.2713053E+04  0.7818609E-02  0.8330782E-01
        1   -1    0    0  501    0  0.00000000000E+00  0.00000000000E+00  0.18070162322E+04  0.18070162323E+04  0.50400001928E-02 0.  1.
       -1   -1    0    0    0  501  0.00000000000E+00  0.00000000000E+00 -0.10183438239E+04  0.10183438239E+04  0.50400001928E-02 0. -1.
    10030    2    1    2    0    0  0.00000000000E+00  0.00000000000E+00  0.78867240835E+03  0.28253600562E+04  0.27130527601E+04 0.  0.
        3    1    3    3  502    0  0.33632141081E+03  0.25567519119E+03  0.17367595865E+04  0.17874047573E+04  0.10100000352E+00 0.  1.
       -3    1    3    3    0  502 -0.33632141081E+03 -0.25567519119E+03 -0.94808717820E+03  0.10379552989E+04  0.10100000352E+00 0. -1.
</event>
<event>
 5   0  0.7729970E-06  0.2695533E+04  0.7818609E-02  0.8336456E-01
        2   -1    0    0  501    0  0.00000000000E+00  0.00000000000E+00  0.13459704156E+04  0.13459704156E+04  0.25500000920E-02 0. -1.
       -2   -1    0    0    0  501  0.00000000000E+00  0.00000000000E+00 -0.13495645282E+04  0.13495645282E+04  0.25500000920E-02 0.  1.
    10030    2    1    2    0    0  0.00000000000E+00  0.00000000000E+00 -0.35941125881E+01  0.26955349438E+04  0.26955325476E+04 0.  0.
        4    1    3    3  502    0 -0.63095742963E+03 -0.62956904912E+03 -0.10127419941E+04  0.13491154232E+04  0.12699999809E+01 0.  1.
       -4    1    3    3    0  502  0.63095742963E+03  0.62956904912E+03  0.10091478815E+04  0.13464195205E+04  0.12699999809E+01 0. -1.
</event>
<event>
 5   0  0.2654625E-06  0.2704128E+04  0.7818609E-02  0.8333667E-01
        4   -1    0    0  501    0  0.00000000000E+00  0.00000000000E+00  0.18023457874E+04  0.18023462348E+04  0.12699999809E+01 0. -1.
       -4   -1    0    0    0  501  0.00000000000E+00  0.00000000000E+00 -0.10142756873E+04  0.10142764824E+04  0.12699999809E+01 0.  1.
    10030    2    1    2    0    0  0.00000000000E+00  0.00000000000E+00  0.78807010007E+03  0.28166227172E+04  0.27041281494E+04 0.  0.
        5    1    3    3  502    0 -0.59108240086E+03  0.20223841613E+03 -0.85492078853E+03  0.10588627986E+04  0.46999998093E+01 0.  1.
       -5    1    3    3    0  502  0.59108240086E+03 -0.20223841613E+03  0.16429908886E+04  0.17577599186E+04  0.46999998093E+01 0. -1.
</event>
<event>
 5   0  0.8407622E-06  0.2680208E+04  0.7818609E-02  0.8341455E-01
       -2   -1    0    0    0  501  0.00000000000E+00  0.00000000000E+00  0.19392998989E+04  0.19392998989E+04  0.25500000920E-02 0. -1.
        2   -1    0    0  501    0  0.00000000000E+00  0.00000000000E+00 -0.92604505943E+03  0.92604505943E+03  0.25500000920E-02 0.  1.
    10030    2    1    2    0    0  0.00000000000E+00  0.00000000000E+00  0.10132548395E+04  0.28653449583E+04  0.26802082681E+04 0.  0.
        1    1    3    3  502    0  0.18969028471E+03  0.39127252208E+03  0.18617844448E+04  0.19118885714E+04  0.50400001928E-02 0. -1.
       -1    1    3    3    0  502 -0.18969028471E+03 -0.39127252208E+03 -0.84852960531E+03  0.95345638692E+03  0.50400001928E-02 0.  1.
</event>
<event>
 5   0  0.7812908E-06  0.2759693E+04  0.7818609E-02  0.8315892E-01
        2   -1    0    0  501    0  0.00000000000E+00  0.00000000000E+00  0.12661944472E+04  0.12661944472E+04  0.25500000920E-02 0. -1.
       -2   -1    0    0    0  501  0.00000000000E+00  0.00000000000E+00 -0.15037000421E+04  0.15037000421E+04  0.25500000920E-02 0.  1.
    10030    2    1    2    0    0  0.00000000000E+00  0.00000000000E+00 -0.23750559496E+03  0.27698944893E+04  0.27596932029E+04 0.  0.
        5    1    3    3  502    0  0.78647022552E+03  0.71004733149E+03 -0.10059046680E+04  0.14610163995E+04  0.46999998093E+01 0.  1.
       -5    1    3    3    0  502 -0.78647022552E+03 -0.71004733149E+03  0.76839907302E+03  0.13088780898E+04  0.46999998093E+01 0. -1.
</event>
<event>
 5   0  0.7729970E-06  0.2725860E+04  0.7818609E-02  0.8326663E-01
       -2   -1    0    0    0  501  0.00000000000E+00  0.00000000000E+00  0.13814076370E+04  0.13814076370E+04  0.25500000920E-02 0. -1.
        2   -1    0    0  501    0  0.00000000000E+00  0.00000000000E+00 -0.13446997955E+04  0.13446997955E+04  0.25500000920E-02 0.  1.
    10030    2    1    2    0    0  0.00000000000E+00  0.00000000000E+00  0.36707841462E+02  0.27261074326E+04  0.27258602804E+04 0.  0.
        4    1    3    3  502    0 -0.38119445364E+03  0.69283955024E+03  0.11285181264E+04  0.13780024051E+04  0.12699999809E+01 0. -1.
       -4    1    3    3    0  502  0.38119445364E+03 -0.69283955024E+03 -0.10918102850E+04  0.13481050275E+04  0.12699999809E+01 0.  1.
</event>
<event>
 5   0  0.3028601E-06  0.2704586E+04  0.7818609E-02  0.8333518E-01
       -1   -1    0    0    0  501  0.00000000000E+00  0.00000000000E+00  0.71000013766E+03  0.71000013768E+03  0.50400001928E-02 0. -1.
        1   -1    0    0  501    0  0.00000000000E+00  0.00000000000E+00 -0.25756289891E+04  0.25756289891E+04  0.50400001928E-02 0.  1.
    10030    2    1    2    0    0  0.00000000000E+00  0.00000000000E+00 -0.18656288515E+04  0.32856291268E+04  0.27045864282E+04 0.  0.
        3    1    3    3  502    0  0.27797255078E+03 -0.85425119311E+03 -0.21607505544E+04  0.23400548729E+04  0.10100000352E+00 0.  1.
       -3    1    3    3    0  502 -0.27797255078E+03  0.85425119311E+03  0.29512170289E+03  0.94557425390E+03  0.10100000352E+00 0. -1.
</event>
<event>
 5   0  0.3028601E-06  0.2691124E+04  0.7818609E-02  0.8337891E-01
       -1   -1    0    0    0  501  0.00000000000E+00  0.00000000000E+00  0.11081813532E+04  0.11081813532E+04  0.50400001928E-02 0. -1.
        1   -1    0    0  501    0  0.00000000000E+00  0.00000000000E+00 -0.16337918322E+04  0.16337918322E+04  0.50400001928E-02 0.  1.
    10030    2    1    2    0    0  0.00000000000E+00  0.00000000000E+00 -0.52561047901E+03  0.27419731854E+04  0.26911244069E+04 0.  0.
        3    1    3    3  502    0 -0.13202919353E+04  0.24416502637E+03 -0.17310613945E+03  0.13537921186E+04  0.10100000352E+00 0. -1.
       -3    1    3    3    0  502  0.13202919353E+04 -0.24416502637E+03 -0.35250433956E+03  0.13881810668E+04  0.10100000352E+00 0.  1.
</event>
<event>
 5   0  0.8213334E-06  0.2679885E+04  0.7818609E-02  0.8341561E-01
        2   -1    0    0  501    0  0.00000000000E+00  0.00000000000E+00  0.96149084283E+03  0.96149084283E+03  0.25500000920E-02 0.  1.
       -2   -1    0    0    0  501  0.00000000000E+00  0.00000000000E+00 -0.18673555417E+04  0.18673555417E+04  0.25500000920E-02 0. -1.
    10030    2    1    2    0    0  0.00000000000E+00  0.00000000000E+00 -0.90586469884E+03  0.28288463845E+04  0.26798845151E+04 0.  0.
        3    1    3    3  502    0 -0.71792424152E+03  0.12773950386E+03 -0.16395681614E+04  0.17944125400E+04  0.10100000352E+00 0. -1.
       -3    1    3    3    0  502  0.71792424152E+03 -0.12773950386E+03  0.73370346261E+03  0.10344338445E+04  0.10100000352E+00 0.  1.
</event>
<event>
 5   0  0.7729970E-06  0.2688194E+04  0.7818609E-02  0.8338846E-01
        2   -1    0    0  501    0  0.00000000000E+00  0.00000000000E+00  0.18107872809E+04  0.18107872809E+04  0.25500000920E-02 0. -1.
       -2   -1    0    0    0  501  0.00000000000E+00  0.00000000000E+00 -0.99768561437E+03  0.99768561437E+03  0.25500000920E-02 0.  1.
    10030    2    1    2    0    0  0.00000000000E+00  0.00000000000E+00  0.81310166654E+03  0.28084728953E+04  0.26881937585E+04 0.  0.
        4    1    3    3  502    0 -0.50094551344E+03  0.11920977662E+04  0.23326000005E+02  0.12932862045E+04  0.12699999809E+01 0. -1.
       -4    1    3    3    0  502  0.50094551344E+03 -0.11920977662E+04  0.78977566653E+03  0.15151866908E+04  0.12699999809E+01 0.  1.
</event>
<event>
 5   0  0.3046300E-06  0.2710758E+04  0.7818609E-02  0.8331523E-01
        1   -1    0    0  501    0  0.00000000000E+00  0.00000000000E+00  0.15752400921E+04  0.15752400921E+04  0.50400001928E-02 0.  1.
       -1   -1    0    0    0  501  0.00000000000E+00  0.00000000000E+00 -0.11662049037E+04  0.11662049037E+04  0.50400001928E-02 0. -1.
    10030    2    1    2    0    0  0.00000000000E+00  0.00000000000E+00  0.40903518842E+03  0.27414449958E+04  0.27107583587E+04 0.  0.
        2    1    3    3  502    0  0.49633534339E+03  0.12031790761E+04  0.58703746476E+03  0.14277960805E+04  0.25500000920E-02 0.  1.
       -2    1    3    3    0  502 -0.49633534339E+03 -0.12031790761E+04 -0.17800227634E+03  0.13136489153E+04  0.25500000920E-02 0. -1.
</event>
<event>
 5   0  0.3199840E-06  0.2716305E+04  0.7818609E-02  0.8329734E-01
        1   -1    0    0  501    0  0.00000000000E+00  0.00000000000E+00  0.19407931565E+04  0.19407931565E+04  0.50400001928E-02 0. -1.
       -1   -1    0    0    0  501  0.00000000000E+00  0.00000000000E+00 -0.95042516855E+03  0.95042516856E+03  0.50400001928E-02 0.  1.
    10030    2    1    2    0    0  0.00000000000E+00  0.00000000000E+00  0.99036798796E+03  0.28912183251E+04  0.27163053311E+04 0.  0.
        1    1    3    3  502    0 -0.58124043394E+03  0.28791896653E+03  0.17652697114E+04  0.18806687447E+04  0.50400001928E-02 0. -1.
       -1    1    3    3    0  502  0.58124043394E+03 -0.28791896653E+03 -0.77490172344E+03  0.10105495804E+04  0.50400001928E-02 0.  1.
</event>
<event>
 5   0  0.3046300E-06  0.2691036E+04  0.7818609E-02  0.8337919E-01
       -1   -1    0    0    0  501  0.00000000000E+00  0.00000000000E+00  0.92868757720E+03  0.92868757722E+03  0.50400001928E-02 0. -1.
        1   -1    0    0  501    0  0.00000000000E+00  0.00000000000E+00 -0.19494372035E+04  0.19494372035E+04  0.50400001928E-02 0.  1.
    10030    2    1    2    0    0  0.00000000000E+00  0.00000000000E+00 -0.10207496263E+04  0.28781247807E+04  0.26910355727E+04 0.  0.
        2    1    3    3  502    0  0.20016497737E+03 -0.10161405320E+04 -0.14290512982E+04  0.17648782428E+04  0.25500000920E-02 0.  1.
       -2    1    3    3    0  502 -0.20016497737E+03  0.10161405320E+04  0.40830167192E+03  0.11132465379E+04  0.25500000920E-02 0. -1.
</event>
<event>
 5   0  0.7729970E-06  0.2697654E+04  0.7818609E-02  0.8335767E-01
        2   -1    0    0  501    0  0.00000000000E+00  0.00000000000E+00  0.10310314236E+04  0.10310314236E+04  0.25500000920E-02 0. -1.
       -2   -1    0    0    0  501  0.00000000000E+00  0.00000000000E+00 -0.17645771386E+04  0.17645771386E+04  0.25500000920E-02 0.  1.
    10030    2    1    2    0    0  0.00000000000E+00  0.00000000000E+00 -0.73354571507E+03  0.27956085622E+04  0.26976541508E+04 0.  0.
        4    1    3    3  502    0 -0.93601344836E+02  0.67699609655E+03 -0.15718594523E+04  0.17140095324E+04  0.12699999809E+01 0.  1.
       -4    1    3    3    0  502  0.93601344836E+02 -0.67699609655E+03  0.83831373720E+03  0.10815990299E+04  0.12699999809E+01 0. -1.
</event>
<event>
 5   0  0.7729970E-06  0.2714318E+04  0.7818609E-02  0.8330374E-01
       -2   -1    0    0    0  501  0.00000000000E+00  0.00000000000E+00  0.20157189710E+04  0.20157189710E+04  0.25500000920E-02 0.  1.
        2   -1    0    0  501    0  0.00000000000E+00  0.00000000000E+00 -0.91375870771E+03  0.91375870771E+03  0.25500000920E-02 0. -1.
    10030    2    1    2    0    0  0.00000000000E+00  0.00000000000E+00  0.11019602633E+04  0.29294776788E+04  0.27143181553E+04 0.  0.
        4    1    3    3  502    0 -0.10812034920E+03  0.22162599441E+03 -0.88937659409E+03  0.92293034966E+03  0.12699999809E+01 0. -1.
       -4    1    3    3    0  502  0.10812034920E+03 -0.22162599441E+03  0.19913368574E+04  0.20065473291E+04  0.12699999809E+01 0.  1.
</event>
<event>
 5   0  0.7812908E-06  0.2689846E+04  0.7818609E-02  0.8338307E-01
        2   -1    0    0  501    0  0.00000000000E+00  0.00000000000E+00  0.19417479041E+04  0.19417479041E+04  0.25500000920E-02 0.  1.
       -2   -1    0    0    0  501  0.00000000000E+00  0.00000000000E+00 -0.93154091428E+03  0.93154091428E+03  0.25500000920E-02 0. -1.
    10030    2    1    2    0    0  0.00000000000E+00  0.00000000000E+00  0.10102069898E+04  0.28732888183E+04  0.26898458081E+04 0.  0.
        5    1    3    3  502    0 -0.33576476480E+02  0.57734257516E+03  0.18021372134E+04  0.18926627948E+04  0.46999998093E+01 0.  1.
       -5    1    3    3    0  502  0.33576476480E+02 -0.57734257516E+03 -0.79193022365E+03  0.98062602352E+03  0.46999998093E+01 0. -1.
</event>
<event>
 5   0  0.3028601E-06  0.2693515E+04  0.7818609E-02  0.8337112E-01
       -1   -1    0    0    0  501  0.00000000000E+00  0.00000000000E+00  0.11955266506E+04  0.11955266506E+04  0.50400001928E-02 0. -1.
        1   -1    0    0  501    0  0.00000000000E+00  0.00000000000E+00 -0.15171191112E+04  0.15171191112E+04  0.50400001928E-02 0.  1.
    10030    2    1    2    0    0  0.00000000000E+00  0.00000000000E+00 -0.32159246062E+03  0.27126457618E+04  0.26935154201E+04 0.  0.
        3    1    3    3  502    0  0.57179472902E+03 -0.73241292798E+03  0.82100121724E+03  0.12399277875E+04  0.10100000352E+00 0. -1.
       -3    1    3    3    0  502 -0.57179472902E+03  0.73241292798E+03 -0.11425936779E+04  0.14727179744E+04  0.10100000352E+00 0.  1.
</event>
<event>
 5   0  0.3046300E-06  0.2698671E+04  0.7818609E-02  0.8335436E-01
        1   -1    0    0  501    0  0.00000000000E+00  0.00000000000E+00  0.14133305678E+04  0.14133305678E+04  0.50400001928E-02 0.  1.
       -1   -1    0    0    0  501  0.00000000000E+00  0.00000000000E+00 -0.12882376398E+04  0.12882376398E+04  0.50400001928E-02 0. -1.
    10030    2    1    2    0    0  0.00000000000E+00  0.00000000000E+00  0.12509292800E+03  0.27015682076E+04  0.26986705133E+04 0.  0.
        2    1    3    3  502    0  0.11777409987E+04 -0.32656476163E+03  0.63498843703E+03  0.13772903539E+04  0.25500000920E-02 0.  1.
       -2    1    3    3    0  502 -0.11777409987E+04  0.32656476163E+03 -0.50989550903E+03  0.13242778537E+04  0.25500000920E-02 0. -1.
</event>
<event>
 5   0  0.8407622E-06  0.2710051E+04  0.7818609E-02  0.8331751E-01
        2   -1    0    0  501    0  0.00000000000E+00  0.00000000000E+00  0.10993362636E+04  0.10993362636E+04  0.25500000920E-02 0. -1.
       -2   -1    0    0    0  501  0.00000000000E+00  0.00000000000E+00 -0.16701845201E+04  0.16701845201E+04  0.25500000920E-02 0.  1.
    10030    2    1    2    0    0  0.00000000000E+00  0.00000000000E+00 -0.57084825649E+03  0.27695207837E+04  0.27100512245E+04 0.  0.
        1    1    3    3  502    0 -0.99739682425E+03 -0.78755694135E+03 -0.76589877016E+03  0.14837948939E+04  0.50400001928E-02 0. -1.
       -1    1    3    3    0  502  0.99739682425E+03  0.78755694135E+03  0.19505051367E+03  0.12857258898E+04  0.50400001928E-02 0.  1.
</event>
<event>
 5   0  0.3013407E-06  0.2687602E+04  0.7818609E-02  0.8339039E-01
       -1   -1    0    0    0  501  0.00000000000E+00  0.00000000000E+00  0.78946121167E+03  0.78946121169E+03  0.50400001928E-02 0.  1.
        1   -1    0    0  501    0  0.00000000000E+00  0.00000000000E+00 -0.22873837018E+04  0.22873837018E+04  0.50400001928E-02 0. -1.
    10030    2    1    2    0    0  0.00000000000E+00  0.00000000000E+00 -0.14979224901E+04  0.30768449134E+04  0.26876016883E+04 0.  0.
        4    1    3    3  502    0 -0.41019251369E+03  0.10143965454E+03 -0.22093483874E+04  0.22493932097E+04  0.12699999809E+01 0. -1.
       -4    1    3    3    0  502  0.41019251369E+03 -0.10143965454E+03  0.71142589733E+03  0.82745170378E+03  0.12699999809E+01 0.  1.
</event>
<event>
 5   0  0.7729970E-06  0.2698345E+04  0.7818609E-02  0.8335542E-01
        2   -1    0    0  501    0  0.00000000000E+00  0.00000000000E+00  0.17719987980E+04  0.17719987980E+04  0.25500000920E-02 0.  1.
       -2   -1    0    0    0  501  0.00000000000E+00  0.00000000000E+00 -0.10272390614E+04  0.10272390614E+04  0.25500000920E-02 0. -1.
    10030    2    1    2    0    0  0.00000000000E+00  0.00000000000E+00  0.74475973658E+03  0.27992378595E+04  0.26983449610E+04 0.  0.
        4    1    3    3  502    0  0.14113210805E+03  0.10117198374E+03  0.17603569049E+04  0.17689013788E+04  0.12699999809E+01 0.  1.
       -4    1    3    3    0  502 -0.14113210805E+03 -0.10117198374E+03 -0.10155971683E+04  0.10303364807E+04  0.12699999809E+01 0. -1.
</event>
<event>
 5   0  0.7838364E-06  0.2706758E+04  0.7818609E-02  0.8332816E-01
        2   -1    0    0  501    0  0.00000000000E+00  0.00000000000E+00  0.19439982629E+04  0.19439982629E+04  0.25500000920E-02 0. -1.
       -2   -1    0    0    0  501  0.00000000000E+00  0.00000000000E+00 -0.94219952842E+03  0.94219952843E+03  0.25500000920E-02 0.  1.
    10030    2    1    2    0    0  0.00000000000E+00  0.00000000000E+00  0.10017987345E+04  0.28861977913E+04  0.27067576519E+04 0.  0.
        2    1    3    3  502    0  0.66900276315E+03  0.32838587176E+03  0.17054958131E+04  0.18612141054E+04  0.25500000920E-02 0. -1.
       -2    1    3    3    0  502 -0.66900276315E+03 -0.32838587176E+03 -0.70369707861E+03  0.10249836859E+04  0.25500000920E-02 0.  1.
</event>
<event>
 5   0  0.3013407E-06  0.2720064E+04  0.7818609E-02  0.8328524E-01
       -1   -1    0    0    0  501  0.00000000000E+00  0.00000000000E+00  0.12117020517E+04  0.12117020517E+04  0.50400001928E-02 0. -1.
        1   -1    0    0  501    0  0.00000000000E+00  0.00000000000E+00 -0.15265201977E+04  0.15265201977E+04  0.50400001928E-02 0.  1.
    10030    2    1    2    0    0  0.00000000000E+00  0.00000000000E+00 -0.31481814604E+03  0.27382222494E+04  0.27200644519E+04 0.  0.
        4    1    3    3  502    0  0.53511620324E+03 -0.90585013929E+03 -0.10250046426E+04  0.14688600873E+04  0.12699999809E+01 0.  1.
       -4    1    3    3    0  502 -0.53511620324E+03  0.90585013929E+03  0.71018649658E+03  0.12693621621E+04  0.12699999809E+01 0. -1.
</event>
<event>
 5   0  0.7729970E-06  0.2707660E+04  0.7818609E-02  0.8332524E-01
       -2   -1    0    0    0  501  0.00000000000E+00  0.00000000000E+00  0.15603608051E+04  0.15603608051E+04  0.25500000920E-02 0.  1.
        2   -1    0    0  501    0  0.00000000000E+00  0.00000000000E+00 -0.11746360885E+04  0.11746360885E+04  0.25500000920E-02 0. -1.
    10030    2    1    2    0    0  0.00000000000E+00  0.00000000000E+00  0.38572471667E+03  0.27349968936E+04  0.27076603278E+04 0.  0.
        4    1    3    3  502    0 -0.39506011941E+03 -0.34434573881E+03 -0.10680223345E+04  0.11896721421E+04  0.12699999809E+01 0. -1.
       -4    1    3    3    0  502  0.39506011941E+03  0.34434573881E+03  0.14537470512E+04  0.15453247515E+04  0.12699999809E+01 0.  1.
</event>
<event>
 5   0  0.3028601E-06  0.2702905E+04  0.7818609E-02  0.8334063E-01
        1   -1    0    0  501    0  0.00000000000E+00  0.00000000000E+00  0.13025345557E+04  0.13025345557E+04  0.50400001928E-02 0.  1.
       -1   -1    0    0    0  501  0.00000000000E+00  0.00000000000E+00 -0.14022074255E+04  0.14022074255E+04  0.50400001928E-02 0. -1.
    10030    2    1    2    0    0  0.00000000000E+00  0.00000000000E+00 -0.99672869791E+02  0.27047419812E+04  0.27029048270E+04 0.  0.
        3    1    3    3  502    0  0.98544659303E+03 -0.33097366829E+03  0.81433322695E+03  0.13205253392E+04  0.10100000352E+00 0.  1.
       -3    1    3    3    0  502 -0.98544659303E+03  0.33097366829E+03 -0.91400609674E+03  0.13842166420E+04  0.10100000352E+00 0. -1.
</event>
<event>
 5   0  0.7812908E-06  0.2691250E+04  0.7818609E-02  0.8337849E-01
        2   -1    0    0  501    0  0.00000000000E+00  0.00000000000E+00  0.15568360353E+04  0.15568360353E+04  0.25500000920E-02 0. -1.
       -2   -1    0    0    0  501  0.00000000000E+00  0.00000000000E+00 -0.11630687153E+04  0.11630687153E+04  0.25500000920E-02 0.  1.
    10030    2    1    2    0    0  0.00000000000E+00  0.00000000000E+00  0.39376732001E+03  0.27199047506E+04  0.26912504808E+04 0.  0.
        5    1    3    3  502    0  0.37201640794E+03  0.98090254937E+03  0.10485415930E+04  0.14832489951E+04  0.46999998093E+01 0. -1.
       -5    1    3    3    0  502 -0.37201640794E+03 -0.98090254937E+03 -0.65477427302E+03  0.12366557556E+04  0.46999998093E+01 0.  1.
</event>
<event>
 5   0  0.7812908E-06  0.2694407E+04  0.7818609E-02  0.8336822E-01
        2   -1    0    0  501    0  0.00000000000E+00  0.00000000000E+00  0.17410936930E+04  0.17410936930E+04  0.25500000920E-02 0.  1.
       -2   -1    0    0    0  501  0.00000000000E+00  0.00000000000E+00 -0.10424238477E+04  0.10424238477E+04  0.25500000920E-02 0. -1.
    10030    2    1    2    0    0  0.00000000000E+00  0.00000000000E+00  0.69866984530E+03  0.27835175407E+04  0.26944072347E+04 0.  0.
        5    1    3    3  502    0 -0.98631070549E+03  0.26485548292E+03  0.12570159591E+04  0.16195889744E+04  0.46999998093E+01 0.  1.
       -5    1    3    3    0  502  0.98631070549E+03 -0.26485548292E+03 -0.55834611378E+03  0.11639285663E+04  0.46999998093E+01 0. -1.
</event>
<event>
 5   0  0.8407622E-06  0.2701034E+04  0.7818609E-02  0.8334670E-01
        2   -1    0    0  501    0  0.00000000000E+00  0.00000000000E+00  0.19416463530E+04  0.19416463530E+04  0.25500000920E-02 0.  1.
       -2   -1    0    0    0  501  0.00000000000E+00  0.00000000000E+00 -0.93935550684E+03  0.93935550684E+03  0.25500000920E-02 0. -1.
    10030    2    1    2    0    0  0.00000000000E+00  0.00000000000E+00  0.10022908462E+04  0.28810018599E+04  0.27010340198E+04 0.  0.
        1    1    3    3  502    0  0.56460102964E+03  0.26736336851E+03 -0.77597938898E+03  0.99619350813E+03  0.50400001928E-02 0. -1.
       -1    1    3    3    0  502 -0.56460102964E+03 -0.26736336851E+03  0.17782702351E+04  0.18848083517E+04  0.50400001928E-02 0.  1.
</event>
<event>
 5   0  0.3013407E-06  0.2698319E+04  0.7818609E-02  0.8335551E-01
       -1   -1    0    0    0  501  0.00000000000E+00  0.00000000000E+00  0.74813078360E+03  0.74813078362E+03  0.50400001928E-02 0.  1.
        1   -1    0    0  501    0  0.00000000000E+00  0.00000000000E+00 -0.24330391689E+04  0.24330391689E+04  0.50400001928E-02 0. -1.
    10030    2    1    2    0    0  0.00000000000E+00  0.00000000000E+00 -0.16849083853E+04  0.31811699525E+04  0.26983191064E+04 0.  0.
        4    1    3    3  502    0  0.11039956864E+04 -0.77502539534E+03 -0.80997328343E+03  0.15733814451E+04  0.12699999809E+01 0.  1.
       -4    1    3    3    0  502 -0.11039956864E+04  0.77502539534E+03 -0.87493510183E+03  0.16077885074E+04  0.12699999809E+01 0. -1.
</event>
<event>
 5   0  0.3028601E-06  0.2702933E+04  0.7818609E-02  0.8334054E-01
        1   -1    0    0  501    0  0.00000000000E+00  0.00000000000E+00  0.18735033962E+04  0.18735033962E+04  0.50400001928E-02 0. -1.
       -1   -1    0    0    0  501  0.00000000000E+00  0.00000000000E+00 -0.97489134708E+03  0.97489134710E+03  0.50400001928E-02 0.  1.
    10030    2    1    2    0    0  0.00000000000E+00  0.00000000000E+00  0.89861204913E+03  0.28483947433E+04  0.27029334063E+04 0.  0.
        3    1    3    3  502    0 -0.27094339645E+03 -0.43014256653E+03 -0.87029278432E+03  0.10078901191E+04  0.10100000352E+00 0.  1.
       -3    1    3    3    0  502  0.27094339645E+03  0.43014256653E+03  0.17689048335E+04  0.18405046242E+04  0.10100000352E+00 0. -1.
</event>
<event>
 5   0  0.3028601E-06  0.2688154E+04  0.7818609E-02  0.8338859E-01
        1   -1    0    0  501    0  0.00000000000E+00  0.00000000000E+00  0.62187880786E+03  0.62187880788E+03  0.50400001928E-02 0.  1.
       -1   -1    0    0    0  501  0.00000000000E+00  0.00000000000E+00 -0.29049767652E+04  0.29049767652E+04  0.50400001928E-02 0. -1.
    10030    2    1    2    0    0  0.00000000000E+00  0.00000000000E+00 -0.22830979573E+04  0.35268555730E+04  0.26881543762E+04 0.  0.
        3    1    3    3  502    0  0.13833380234E+03  0.77598246918E+03 -0.25699166052E+04  0.26880767104E+04  0.10100000352E+00 0. -1.
       -3    1    3    3    0  502 -0.13833380234E+03 -0.77598246918E+03  0.28681864791E+03  0.83877886259E+03  0.10100000352E+00 0.  1.
</event>
<event>
 5   0  0.7729970E-06  0.2711045E+04  0.7818609E-02  0.8331430E-01
       -2   -1    0    0    0  501  0.00000000000E+00  0.00000000000E+00  0.89964080050E+03  0.89964080050E+03  0.25500000920E-02 0. -1.
        2   -1    0    0  501    0  0.00000000000E+00  0.00000000000E+00 -0.20424166539E+04  0.20424166539E+04  0.25500000920E-02 0.  1.
    10030    2    1    2    0    0  0.00000000000E+00  0.00000000000E+00 -0.11427758534E+04  0.29420574544E+04  0.27110450778E+04 0.  0.
        4    1    3    3  502    0  0.47643357726E+03 -0.45255128485E+03 -0.18580150992E+04  0.19707900296E+04  0.12699999809E+01 0.  1.
       -4    1    3    3    0  502 -0.47643357726E+03  0.45255128485E+03  0.71523924578E+03  0.97126742484E+03  0.12699999809E+01 0. -1.
</event>
<event>
 5   0  0.3089218E-06  0.2438465E+04  0.7818609E-02  0.8425242E-01
       -1   -1    0    0    0  501  0.00000000000E+00  0.00000000000E+00  0.12727735539E+04  0.12727735539E+04  0.50400001928E-02 0. -1.
        1   -1    0    0  501    0  0.00000000000E+00  0.00000000000E+00 -0.11679440723E+04  0.11679440723E+04  0.50400001928E-02 0.  1.
    10030    2    1    2    0    0  0.00000000000E+00  0.00000000000E+00  0.10482948156E+03  0.24407176262E+04  0.24384653598E+04 0.  0.
        5    1    3    3  502    0  0.45315299191E+02  0.51075890282E+02  0.12708492538E+04  0.12726909047E+04  0.46999998093E+01 0. -1.
       -5    1    3    3    0  502 -0.45315299191E+02 -0.51075890282E+02 -0.11660197723E+04  0.11680267216E+04  0.46999998093E+01 0.  1.
</event>
<event>
 5   0  0.3013407E-06  0.2661385E+04  0.7818609E-02  0.8347644E-01
        1   -1    0    0  501    0  0.00000000000E+00  0.00000000000E+00  0.10499196074E+04  0.10499196074E+04  0.50400001928E-02 0. -1.
       -1   -1    0    0    0  501  0.00000000000E+00  0.00000000000E+00 -0.16865506304E+04  0.16865506304E+04  0.50400001928E-02 0.  1.
    10030    2    1    2    0    0  0.00000000000E+00  0.00000000000E+00 -0.63663102307E+03  0.27364702378E+04  0.26613850347E+04 0.  0.
        4    1    3    3  502    0 -0.11902161173E+04  0.83850188580E+01  0.29349812171E+03  0.12258986397E+04  0.12699999809E+01 0. -1.
       -4    1    3    3    0  502  0.11902161173E+04 -0.83850188580E+01 -0.93012914478E+03  0.15105715982E+04  0.12699999809E+01 0.  1.
</event>
<event>
 5   0  0.3046300E-06  0.2710814E+04  0.7818609E-02  0.8331505E-01
       -1   -1    0    0    0  501  0.00000000000E+00  0.00000000000E+00  0.85005246953E+03  0.85005246955E+03  0.50400001928E-02 0.  1.
        1   -1    0    0  501    0  0.00000000000E+00  0.00000000000E+00 -0.21611944375E+04  0.21611944375E+04  0.50400001928E-02 0. -1.
    10030    2    1    2    0    0  0.00000000000E+00  0.00000000000E+00 -0.13111419680E+04  0.30112469071E+04  0.27108143933E+04 0.  0.
        2    1    3    3  502    0  0.47500770021E+03  0.11579191254E+04 -0.77599414325E+02  0.12539659825E+04  0.25500000920E-02 0. -1.
       -2    1    3    3    0  502 -0.47500770021E+03 -0.11579191254E+04 -0.12335425537E+04  0.17572809246E+04  0.25500000920E-02 0.  1.
</event>
<event>
 5   0  0.8213334E-06  0.2657319E+04  0.7818609E-02  0.8348988E-01
       -2   -1    0    0    0  501  0.00000000000E+00  0.00000000000E+00  0.13526196656E+04  0.13526196656E+04  0.25500000920E-02 0.  1.
        2   -1    0    0  501    0  0.00000000000E+00  0.00000000000E+00 -0.13051239734E+04  0.13051239734E+04  0.25500000920E-02 0. -1.
    10030    2    1    2    0    0  0.00000000000E+00  0.00000000000E+00  0.47495692125E+02  0.26577436390E+04  0.26573192149E+04 0.  0.
        3    1    3    3  502    0  0.29974095715E+03 -0.10463565332E+04 -0.73836447912E+03  0.13152523523E+04  0.10100000352E+00 0. -1.
       -3    1    3    3    0  502 -0.29974095715E+03  0.10463565332E+04  0.78586017125E+03  0.13424912867E+04  0.10100000352E+00 0.  1.
</event>
<event>
 5   0  0.7729970E-06  0.2712058E+04  0.7818609E-02  0.8331103E-01
        2   -1    0    0  501    0  0.00000000000E+00  0.00000000000E+00  0.12146549974E+04  0.12146549974E+04  0.25500000920E-02 0.  1.
       -2   -1    0    0    0  501  0.00000000000E+00  0.00000000000E+00 -0.15138575766E+04  0.15138575766E+04  0.25500000920E-02 0. -1.
    10030    2    1    2    0    0  0.00000000000E+00  0.00000000000E+00 -0.29920257914E+03  0.27285125740E+04  0.27120580162E+04 0.  0.
        4    1    3    3  502    0 -0.29862579200E+03 -0.11715285006E+04  0.46825557774E+03  0.12965034864E+04  0.12699999809E+01 0.  1.
       -4    1    3    3    0  502  0.29862579200E+03  0.11715285006E+04 -0.76745815688E+03  0.14320090876E+04  0.12699999809E+01 0. -1.
</event>
<event>
 5   0  0.8407622E-06  0.2698302E+04  0.7818609E-02  0.8335556E-01
       -2   -1    0    0    0  501  0.00000000000E+00  0.00000000000E+00  0.91653307584E+03  0.91653307584E+03  0.25500000920E-02 0. -1.
        2   -1    0    0  501    0  0.00000000000E+00  0.00000000000E+00 -0.19859708890E+04  0.19859708890E+04  0.25500000920E-02 0.  1.
    10030    2    1    2    0    0  0.00000000000E+00  0.00000000000E+00 -0.10694378132E+04  0.29025039649E+04  0.26983016936E+04 0.  0.
        1    1    3    3  502    0 -0.36698419702E+03  0.72580967412E+03 -0.16926257332E+04  0.18778868327E+04  0.50400001928E-02 0.  1.
       -1    1    3    3    0  502  0.36698419702E+03 -0.72580967412E+03  0.62318791996E+03  0.10246171322E+04  0.50400001928E-02 0. -1.
</event>
<event>
 5   0  0.8213334E-06  0.2510237E+04  0.7818609E-02  0.8399348E-01
       -2   -1    0    0    0  501  0.00000000000E+00  0.00000000000E+00  0.14079102995E+04  0.14079102995E+04  0.25500000920E-02 0.  1.
        2   -1    0    0  501    0  0.00000000000E+00  0.00000000000E+00 -0.11189083201E+04  0.11189083201E+04  0.25500000920E-02 0. -1.
    10030    2    1    2    0    0  0.00000000000E+00  0.00000000000E+00  0.28900197938E+03  0.25268186196E+04  0.25102370789E+04 0.  0.
        3    1    3    3  502    0  0.12182345708E+03 -0.72065299577E+03 -0.88260218133E+03  0.11459355635E+04  0.10100000352E+00 0. -1.
       -3    1    3    3    0  502 -0.12182345708E+03  0.72065299577E+03  0.11716041607E+04  0.13808830561E+04  0.10100000352E+00 0.  1.
</event>
<event>
 5   0  0.3089218E-06  0.2708614E+04  0.7818609E-02  0.8332215E-01
        1   -1    0    0  501    0  0.00000000000E+00  0.00000000000E+00  0.16352710450E+04  0.16352710451E+04  0.50400001928E-02 0. -1.
       -1   -1    0    0    0  501  0.00000000000E+00  0.00000000000E+00 -0.11216166929E+04  0.11216166929E+04  0.50400001928E-02 0.  1.
    10030    2    1    2    0    0  0.00000000000E+00  0.00000000000E+00  0.51365435217E+03  0.27568877379E+04  0.27086138902E+04 0.  0.
        5    1    3    3  502    0  0.98381517460E+03 -0.18319876516E+03 -0.67194400915E+03  0.12053982440E+04  0.46999998093E+01 0.  1.
       -5    1    3    3    0  502 -0.98381517460E+03  0.18319876516E+03  0.11855983613E+04  0.15514894939E+04  0.46999998093E+01 0. -1.
</event>
<event>
 5   0  0.3013407E-06  0.2692685E+04  0.7818609E-02  0.8337382E-01
        1   -1    0    0  501    0  0.00000000000E+00  0.00000000000E+00  0.17049367380E+04  0.17049367380E+04  0.50400001928E-02 0.  1.
       -1   -1    0    0    0  501  0.00000000000E+00  0.00000000000E+00 -0.10631703380E+04  0.10631703380E+04  0.50400001928E-02 0. -1.
    10030    2    1    2    0    0  0.00000000000E+00  0.00000000000E+00  0.64176640003E+03  0.27681070760E+04  0.26926850302E+04 0.  0.
        4    1    3    3  502    0  0.67201996070E+02  0.13378265953E+04  0.46010341352E+03  0.14163307776E+04  0.12699999809E+01 0. -1.
       -4    1    3    3    0  502 -0.67201996070E+02 -0.13378265953E+04  0.18166298651E+03  0.13517762984E+04  0.12699999809E+01 0.  1.
</event>
<event>
 5   0  0.3089218E-06  0.2655112E+04  0.7818609E-02  0.8349718E-01
       -1   -1    0    0    0  501  0.00000000000E+00  0.00000000000E+00  0.11047352765E+04  0.11047352766E+04  0.50400001928E-02 0.  1.
        1   -1    0    0  501    0  0.00000000000E+00  0.00000000000E+00 -0.15953192932E+04  0.15953192933E+04  0.50400001928E-02 0. -1.
    10030    2    1    2    0    0  0.00000000000E+00  0.00000000000E+00 -0.49058401670E+03  0.27000545698E+04  0.26551124275E+04 0.  0.
        5    1    3    3  502    0 -0.89876908796E+03  0.77541328572E+03 -0.84977066734E+03  0.14598574979E+04  0.46999998093E+01 0. -1.
       -5    1    3    3    0  502  0.89876908796E+03 -0.77541328572E+03  0.35918665063E+03  0.12401970719E+04  0.46999998093E+01 0.  1.
</event>
<event>
 5   0  0.3199840E-06  0.2653189E+04  0.7818609E-02  0.8350355E-01
        1   -1    0    0  501    0  0.00000000000E+00  0.00000000000E+00  0.14395823754E+04  0.14395823754E+04  0.50400001928E-02 0. -1.
       -1   -1    0    0    0  501  0.00000000000E+00  0.00000000000E+00 -0.12224742775E+04  0.12224742776E+04  0.50400001928E-02 0.  1.
    10030    2    1    2    0    0  0.00000000000E+00  0.00000000000E+00  0.21710809782E+03  0.26620566529E+04  0.26531885906E+04 0.  0.
        1    1    3    3  502    0  0.12994630149E+04 -0.10698881432E+03  0.35391525848E+03  0.13510391348E+04  0.50400001928E-02 0. -1.
       -1    1    3    3    0  502 -0.12994630149E+04  0.10698881432E+03 -0.13680716065E+03  0.13110175181E+04  0.50400001928E-02 0.  1.
</event>
<event>
 5   0  0.7729970E-06  0.2678229E+04  0.7818609E-02  0.8342104E-01
        2   -1    0    0  501    0  0.00000000000E+00  0.00000000000E+00  0.90156058485E+03  0.90156058486E+03  0.25500000920E-02 0. -1.
       -2   -1    0    0    0  501  0.00000000000E+00  0.00000000000E+00 -0.19890256687E+04  0.19890256687E+04  0.25500000920E-02 0.  1.
    10030    2    1    2    0    0  0.00000000000E+00  0.00000000000E+00 -0.10874650839E+04  0.28905862536E+04  0.26782286274E+04 0.  0.
        4    1    3    3  502    0  0.23071170046E+03 -0.59774768136E+03  0.72538409334E+03  0.96783979825E+03  0.12699999809E+01 0. -1.
       -4    1    3    3    0  502 -0.23071170046E+03  0.59774768136E+03 -0.18128491772E+04  0.19227464554E+04  0.12699999809E+01 0.  1.
</event>
<event>
 5   0  0.8407622E-06  0.2696261E+04  0.7818609E-02  0.8336219E-01
       -2   -1    0    0    0  501  0.00000000000E+00  0.00000000000E+00  0.10680861419E+04  0.10680861419E+04  0.25500000920E-02 0.  1.
        2   -1    0    0  501    0  0.00000000000E+00  0.00000000000E+00 -0.17016008279E+04  0.17016008279E+04  0.25500000920E-02 0. -1.
    10030    2    1    2    0    0  0.00000000000E+00  0.00000000000E+00 -0.63351468599E+03  0.27696869699E+04  0.26962613104E+04 0.  0.
        1    1    3    3  502    0 -0.45679928635E+03  0.74436902660E+03  0.73819854023E+03  0.11435418316E+04  0.50400001928E-02 0.  1.
       -1    1    3    3    0  502  0.45679928635E+03 -0.74436902660E+03 -0.13717132262E+04  0.16261451383E+04  0.50400001928E-02 0. -1.
</event>
<event>
 5   0  0.7838364E-06  0.2684474E+04  0.7818609E-02  0.8340060E-01
        2   -1    0    0  501    0  0.00000000000E+00  0.00000000000E+00  0.11737980717E+04  0.11737980717E+04  0.25500000920E-02 0. -1.
       -2   -1    0    0    0  501  0.00000000000E+00  0.00000000000E+00 -0.15348467085E+04  0.15348467085E+04  0.25500000920E-02 0.  1.
    10030    2    1    2    0    0  0.00000000000E+00  0.00000000000E+00 -0.36104863680E+03  0.27086447801E+04  0.26844739572E+04 0.  0.
        2    1    3    3  502    0  0.18550732567E+03  0.13473257911E+03 -0.15149427087E+04  0.15321936061E+04  0.25500000920E-02 0.  1.
       -2    1    3    3    0  502 -0.18550732567E+03 -0.13473257911E+03  0.11538940719E+04  0.11764511741E+04  0.25500000920E-02 0. -1.
</event>
<event>
 5   0  0.3028601E-06  0.2693933E+04  0.7818609E-02  0.8336976E-01
       -1   -1    0    0    0  501  0.00000000000E+00  0.00000000000E+00  0.12625663297E+04  0.12625663297E+04  0.50400001928E-02 0.  1.
        1   -1    0    0  501    0  0.00000000000E+00  0.00000000000E+00 -0.14370083420E+04  0.14370083420E+04  0.50400001928E-02 0. -1.
    10030    2    1    2    0    0  0.00000000000E+00  0.00000000000E+00 -0.17444201230E+03  0.26995746716E+04  0.26939327000E+04 0.  0.
        3    1    3    3  502    0  0.29764242073E+03  0.68470598868E+03  0.10362447412E+04  0.12771908532E+04  0.10100000352E+00 0.  1.
       -3    1    3    3    0  502 -0.29764242073E+03 -0.68470598868E+03 -0.12106867535E+04  0.14223838184E+04  0.10100000352E+00 0. -1.
</event>
<event>
 5   0  0.8213334E-06  0.2702208E+04  0.7818609E-02  0.8334289E-01
        2   -1    0    0  501    0  0.00000000000E+00  0.00000000000E+00  0.19328633276E+04  0.19328633276E+04  0.25500000920E-02 0. -1.
       -2   -1    0    0    0  501  0.00000000000E+00  0.00000000000E+00 -0.94444447994E+03  0.94444447995E+03  0.25500000920E-02 0.  1.
    10030    2    1    2    0    0  0.00000000000E+00  0.00000000000E+00  0.98841884766E+03  0.28773078075E+04  0.27022080603E+04 0.  0.
        3    1    3    3  502    0 -0.10333595882E+04 -0.65424469346E+03 -0.11711299030E+03  0.12286511385E+04  0.10100000352E+00 0.  1.
       -3    1    3    3    0  502  0.10333595882E+04  0.65424469346E+03  0.11055318380E+04  0.16486566690E+04  0.10100000352E+00 0. -1.
</event>
<event>
 5   0  0.7812908E-06  0.2675359E+04  0.7818609E-02  0.8343045E-01
        2   -1    0    0  501    0  0.00000000000E+00  0.00000000000E+00  0.12073077461E+04  0.12073077461E+04  0.25500000920E-02 0. -1.
       -2   -1    0    0    0  501  0.00000000000E+00  0.00000000000E+00 -0.14821289731E+04  0.14821289731E+04  0.25500000920E-02 0.  1.
    10030    2    1    2    0    0  0.00000000000E+00  0.00000000000E+00 -0.27482122698E+03  0.26894367191E+04  0.26753585105E+04 0.  0.
        5    1    3    3  502    0  0.48704803216E+03  0.59278616862E+03 -0.12389653624E+04  0.14572811968E+04  0.46999998093E+01 0.  1.
       -5    1    3    3    0  502 -0.48704803216E+03 -0.59278616862E+03  0.96414413543E+03  0.12321555223E+04  0.46999998093E+01 0. -1.
</event>
<event>
 5   0  0.8407622E-06  0.2696125E+04  0.7818609E-02  0.8336263E-01
       -2   -1    0    0    0  501  0.00000000000E+00  0.00000000000E+00  0.21899469997E+04  0.21899469997E+04  0.25500000920E-02 0. -1.
        2   -1    0    0  501    0  0.00000000000E+00  0.00000000000E+00 -0.82982477837E+03  0.82982477837E+03  0.25500000920E-02 0.  1.
    10030    2    1    2    0    0  0.00000000000E+00  0.00000000000E+00  0.13601222213E+04  0.30197717781E+04  0.26961248366E+04 0.  0.
        1    1    3    3  502    0 -0.10098601989E+04  0.65375636156E+03 -0.12862881620E+01  0.12030031821E+04  0.50400001928E-02 0.  1.
       -1    1    3    3    0  502  0.10098601989E+04 -0.65375636156E+03  0.13614085095E+04  0.18167685960E+04  0.50400001928E-02 0. -1.
</event>
<event>
 5   0  0.3028601E-06  0.2687152E+04  0.7818609E-02  0.8339186E-01
       -1   -1    0    0    0  501  0.00000000000E+00  0.00000000000E+00  0.12197685217E+04  0.12197685217E+04  0.50400001928E-02 0.  1.
        1   -1    0    0  501    0  0.00000000000E+00  0.00000000000E+00 -0.14799499382E+04  0.14799499383E+04  0.50400001928E-02 0. -1.
    10030    2    1    2    0    0  0.00000000000E+00  0.00000000000E+00 -0.26018141651E+03  0.26997184600E+04  0.26871519112E+04 0.  0.
        3    1    3    3  502    0 -0.12993229169E+04  0.18917823486E+03  0.15614142625E+03  0.13222740268E+04  0.10100000352E+00 0. -1.
       -3    1    3    3    0  502  0.12993229169E+04 -0.18917823486E+03 -0.41632284277E+03  0.13774444332E+04  0.10100000352E+00 0.  1.
</event>
<event>
 5   0  0.3013407E-06  0.2701835E+04  0.7818609E-02  0.8334410E-01
        1   -1    0    0  501    0  0.00000000000E+00  0.00000000000E+00  0.11045163072E+04  0.11045163072E+04  0.50400001928E-02 0. -1.
       -1   -1    0    0    0  501  0.00000000000E+00  0.00000000000E+00 -0.16522876713E+04  0.16522876713E+04  0.50400001928E-02 0.  1.
    10030    2    1    2    0    0  0.00000000000E+00  0.00000000000E+00 -0.54777136402E+03  0.27568039785E+04  0.27018354333E+04 0.  0.
        4    1    3    3  502    0  0.12792269845E+03  0.75868116725E+02 -0.16439079283E+04  0.16506226333E+04  0.12699999809E+01 0.  1.
       -4    1    3    3    0  502 -0.12792269845E+03 -0.75868116725E+02  0.10961365643E+04  0.11061813452E+04  0.12699999809E+01 0. -1.
</event>
<event>
 5   0  0.3028601E-06  0.2701741E+04  0.7818609E-02  0.8334440E-01
       -1   -1    0    0    0  501  0.00000000000E+00  0.00000000000E+00  0.12648998096E+04  0.12648998096E+04  0.50400001928E-02 0. -1.
        1   -1    0    0  501    0  0.00000000000E+00  0.00000000000E+00 -0.14426847017E+04  0.14426847017E+04  0.50400001928E-02 0.  1.
    10030    2    1    2    0    0  0.00000000000E+00  0.00000000000E+00 -0.17778489210E+03  0.27075845114E+04  0.27017413678E+04 0.  0.
        3    1    3    3  502    0  0.84155957610E+03 -0.48027587225E+03 -0.10321848247E+04  0.14157305380E+04  0.10100000352E+00 0. -1.
       -3    1    3    3    0  502 -0.84155957610E+03  0.48027587225E+03  0.85439993260E+03  0.12918539734E+04  0.10100000352E+00 0.  1.
</event>
<event>
 5   0  0.7729970E-06  0.2780960E+04  0.7818609E-02  0.8309204E-01
       -2   -1    0    0    0  501  0.00000000000E+00  0.00000000000E+00  0.87136537884E+03  0.87136537884E+03  0.25500000920E-02 0. -1.
        2   -1    0    0  501    0  0.00000000000E+00  0.00000000000E+00 -0.22188561514E+04  0.22188561514E+04  0.25500000920E-02 0.  1.
    10030    2    1    2    0    0  0.00000000000E+00  0.00000000000E+00 -0.13474907725E+04  0.30902215302E+04  0.27809598566E+04 0.  0.
        4    1    3    3  502    0  0.60364694845E+03 -0.68599889485E+03  0.49087605922E+03  0.10372777066E+04  0.12699999809E+01 0. -1.
       -4    1    3    3    0  502 -0.60364694845E+03  0.68599889485E+03 -0.18383668318E+04  0.20529438237E+04  0.12699999809E+01 0.  1.
</event>
<event>
 5   0  0.7812908E-06  0.2695990E+04  0.7818609E-02  0.8336307E-01
        2   -1    0    0  501    0  0.00000000000E+00  0.00000000000E+00  0.20410779458E+04  0.20410779458E+04  0.25500000920E-02 0. -1.
       -2   -1    0    0    0  501  0.00000000000E+00  0.00000000000E+00 -0.89026000345E+03  0.89026000346E+03  0.25500000920E-02 0.  1.
    10030    2    1    2    0    0  0.00000000000E+00  0.00000000000E+00  0.11508179424E+04  0.29313379493E+04  0.26959896581E+04 0.  0.
        5    1    3    3  502    0 -0.35315561543E+03 -0.10535885687E+04 -0.25429112661E+03  0.11399358876E+04  0.46999998093E+01 0.  1.
       -5    1    3    3    0  502  0.35315561543E+03  0.10535885687E+04  0.14051090690E+04  0.17914020617E+04  0.46999998093E+01 0. -1.
</event>
<event>
 5   0  0.7838364E-06  0.2603754E+04  0.7818609E-02  0.8366927E-01
        2   -1    0    0  501    0  0.00000000000E+00  0.00000000000E+00  0.14962374951E+04  0.14962374951E+04  0.25500000920E-02 0. -1.
       -2   -1    0    0    0  501  0.00000000000E+00  0.00000000000E+00 -0.11327636872E+04  0.11327636872E+04  0.25500000920E-02 0.  1.
    10030    2    1    2    0    0  0.00000000000E+00  0.00000000000E+00  0.36347380787E+03  0.26290011824E+04  0.26037538301E+04 0.  0.
        2    1    3    3  502    0  0.52039101486E+03 -0.11057200411E+04  0.63493194570E+03  0.13771572871E+04  0.25500000920E-02 0.  1.
       -2    1    3    3    0  502 -0.52039101486E+03  0.11057200411E+04 -0.27145813783E+03  0.12518438953E+04  0.25500000920E-02 0. -1.
</event>
<event>
 5   0  0.8213334E-06  0.2450143E+04  0.7818609E-02  0.8420966E-01
       -2   -1    0    0    0  501  0.00000000000E+00  0.00000000000E+00  0.13123210163E+04  0.13123210163E+04  0.25500000920E-02 0.  1.
        2   -1    0    0  501    0  0.00000000000E+00  0.00000000000E+00 -0.11436226750E+04  0.11436226751E+04  0.25500000920E-02 0. -1.
    10030    2    1    2    0    0  0.00000000000E+00  0.00000000000E+00  0.16869834125E+03  0.24559436913E+04  0.24501429111E+04 0.  0.
        3    1    3    3  502    0 -0.59763018616E+03  0.73163743060E+03 -0.69746209043E+03  0.11742693673E+04  0.10100000352E+00 0. -1.
       -3    1    3    3    0  502  0.59763018616E+03 -0.73163743060E+03  0.86616043167E+03  0.12816743240E+04  0.10100000352E+00 0.  1.
</event>
<event>
 5   0  0.7838364E-06  0.2686708E+04  0.7818609E-02  0.8339331E-01
        2   -1    0    0  501    0  0.00000000000E+00  0.00000000000E+00  0.88753348966E+03  0.88753348967E+03  0.25500000920E-02 0.  1.
       -2   -1    0    0    0  501  0.00000000000E+00  0.00000000000E+00 -0.20332747197E+04  0.20332747197E+04  0.25500000920E-02 0. -1.
    10030    2    1    2    0    0  0.00000000000E+00  0.00000000000E+00 -0.11457412300E+04  0.29208082094E+04  0.26867075817E+04 0.  0.
        2    1    3    3  502    0  0.78045442252E+03 -0.10783461914E+04 -0.37640373154E+03  0.13833363232E+04  0.25500000920E-02 0.  1.
       -2    1    3    3    0  502 -0.78045442252E+03  0.10783461914E+04 -0.76933749848E+03  0.15374718861E+04  0.25500000920E-02 0. -1.
</event>
<event>
 5   0  0.8213334E-06  0.2715319E+04  0.7818609E-02  0.8330052E-01
       -2   -1    0    0    0  501  0.00000000000E+00  0.00000000000E+00  0.17309213331E+04  0.17309213331E+04  0.25500000920E-02 0. -1.
        2   -1    0    0  501    0  0.00000000000E+00  0.00000000000E+00 -0.10648890541E+04  0.10648890541E+04  0.25500000920E-02 0.  1.
    10030    2    1    2    0    0  0.00000000000E+00  0.00000000000E+00  0.66603227902E+03  0.27958103871E+04  0.27153188992E+04 0.  0.
        3    1    3    3  502    0  0.95685570345E+03  0.16944700732E+02 -0.65853598560E+03  0.11616925646E+04  0.10100000352E+00 0.  1.
       -3    1    3    3    0  502 -0.95685570345E+03 -0.16944700732E+02  0.13245682646E+04  0.16341178225E+04  0.10100000352E+00 0. -1.
</event>
<event>
 5   0  0.8213334E-06  0.2685524E+04  0.7818609E-02  0.8339717E-01
        2   -1    0    0  501    0  0.00000000000E+00  0.00000000000E+00  0.16067474815E+04  0.16067474815E+04  0.25500000920E-02 0.  1.
       -2   -1    0    0    0  501  0.00000000000E+00  0.00000000000E+00 -0.11221485437E+04  0.11221485437E+04  0.25500000920E-02 0. -1.
    10030    2    1    2    0    0  0.00000000000E+00  0.00000000000E+00  0.48459893784E+03  0.27288960252E+04  0.26855236707E+04 0.  0.
        3    1    3    3  502    0 -0.69816159588E+02  0.12309325199E+04  0.78281143173E+03  0.14604324402E+04  0.10100000352E+00 0.  1.
       -3    1    3    3    0  502  0.69816159588E+02 -0.12309325199E+04 -0.29821249389E+03  0.12684635850E+04  0.10100000352E+00 0. -1.
</event>
<event>
 5   0  0.7729970E-06  0.2694127E+04  0.7818609E-02  0.8336913E-01
       -2   -1    0    0    0  501  0.00000000000E+00  0.00000000000E+00  0.10374136158E+04  0.10374136158E+04  0.25500000920E-02 0. -1.
        2   -1    0    0  501    0  0.00000000000E+00  0.00000000000E+00 -0.17491386631E+04  0.17491386632E+04  0.25500000920E-02 0.  1.
    10030    2    1    2    0    0  0.00000000000E+00  0.00000000000E+00 -0.71172504737E+03  0.27865522789E+04  0.26941271425E+04 0.  0.
        4    1    3    3  502    0  0.11212751629E+04  0.38036708553E+03 -0.10202716383E+04  0.15629756682E+04  0.12699999809E+01 0.  1.
       -4    1    3    3    0  502 -0.11212751629E+04 -0.38036708553E+03  0.30854659095E+03  0.12235766107E+04  0.12699999809E+01 0. -1.
</event>
<event>
 5   0  0.3089218E-06  0.2817316E+04  0.7818609E-02  0.8297913E-01
       -1   -1    0    0    0  501  0.00000000000E+00  0.00000000000E+00  0.12480585360E+04  0.12480585360E+04  0.50400001928E-02 0.  1.
        1   -1    0    0  501    0  0.00000000000E+00  0.00000000000E+00 -0.15899229780E+04  0.15899229780E+04  0.50400001928E-02 0. -1.
    10030    2    1    2    0    0  0.00000000000E+00  0.00000000000E+00 -0.34186444205E+03  0.28379815140E+04  0.28173157042E+04 0.  0.
        5    1    3    3  502    0 -0.34869686487E+03  0.12918558252E+04 -0.61440450370E+03  0.14724116139E+04  0.46999998093E+01 0.  1.
       -5    1    3    3    0  502  0.34869686487E+03 -0.12918558252E+04  0.27254006165E+03  0.13655699000E+04  0.46999998093E+01 0. -1.
</event>
<event>
 5   0  0.3046300E-06  0.2690457E+04  0.7818609E-02  0.8338108E-01
        1   -1    0    0  501    0  0.00000000000E+00  0.00000000000E+00  0.13789943323E+04  0.13789943323E+04  0.50400001928E-02 0.  1.
       -1   -1    0    0    0  501  0.00000000000E+00  0.00000000000E+00 -0.13122892347E+04  0.13122892347E+04  0.50400001928E-02 0. -1.
    10030    2    1    2    0    0  0.00000000000E+00  0.00000000000E+00  0.66705097612E+02  0.26912835671E+04  0.26904567769E+04 0.  0.
        2    1    3    3  502    0 -0.33413969789E+01 -0.96119447278E+03 -0.90807078928E+03  0.13223080344E+04  0.25500000920E-02 0. -1.
       -2    1    3    3    0  502  0.33413969789E+01  0.96119447278E+03  0.97477588690E+03  0.13689755327E+04  0.25500000920E-02 0.  1.
</event>
<event>
 5   0  0.3046300E-06  0.2697983E+04  0.7818609E-02  0.8335660E-01
       -1   -1    0    0    0  501  0.00000000000E+00  0.00000000000E+00  0.92081034618E+03  0.92081034619E+03  0.50400001928E-02 0.  1.
        1   -1    0    0  501    0  0.00000000000E+00  0.00000000000E+00 -0.19762782323E+04  0.19762782323E+04  0.50400001928E-02 0. -1.
    10030    2    1    2    0    0  0.00000000000E+00  0.00000000000E+00 -0.10554678861E+04  0.28970885785E+04  0.26979825375E+04 0.  0.
        2    1    3    3  502    0  0.10121058081E+04  0.87116709075E+03 -0.73284674499E+03  0.15232710260E+04  0.25500000920E-02 0.  1.
       -2    1    3    3    0  502 -0.10121058081E+04 -0.87116709075E+03 -0.32262114111E+03  0.13738175525E+04  0.25500000920E-02 0. -1.
</event>
<event>
 5   0  0.3028601E-06  0.2698758E+04  0.7818609E-02  0.8335408E-01
       -1   -1    0    0    0  501  0.00000000000E+00  0.00000000000E+00  0.75653600288E+03  0.75653600290E+03  0.50400001928E-02 0. -1.
        1   -1    0    0  501    0  0.00000000000E+00  0.00000000000E+00 -0.24067907586E+04  0.24067907586E+04  0.50400001928E-02 0.  1.
    10030    2    1    2    0    0  0.00000000000E+00  0.00000000000E+00 -0.16502547558E+04  0.31633267615E+04  0.26987581295E+04 0.  0.
        3    1    3    3  502    0 -0.13160324145E+04 -0.95457219466E+02 -0.11561831175E+04  0.17543696328E+04  0.10100000352E+00 0. -1.
       -3    1    3    3    0  502  0.13160324145E+04  0.95457219466E+02 -0.49407163822E+03  0.14089571288E+04  0.10100000352E+00 0.  1.
</event>
<event>
 5   0  0.8407622E-06  0.2732849E+04  0.7818609E-02  0.8324425E-01
        2   -1    0    0  501    0  0.00000000000E+00  0.00000000000E+00  0.14145902153E+04  0.14145902153E+04  0.25500000920E-02 0.  1.
       -2   -1    0    0    0  501  0.00000000000E+00  0.00000000000E+00 -0.13198983664E+04  0.13198983664E+04  0.25500000920E-02 0. -1.
    10030    2    1    2    0    0  0.00000000000E+00  0.00000000000E+00  0.94691848908E+02  0.27344885817E+04  0.27328485609E+04 0.  0.
        1    1    3    3  502    0  0.53316552472E+03 -0.10663000820E+04  0.71546961033E+03  0.13903805612E+04  0.50400001928E-02 0.  1.
       -1    1    3    3    0  502 -0.53316552472E+03  0.10663000820E+04 -0.62077776142E+03  0.13441080205E+04  0.50400001928E-02 0. -1.
</event>
<event>
 5   0  0.3028601E-06  0.2703570E+04  0.7818609E-02  0.8333848E-01
        1   -1    0    0  501    0  0.00000000000E+00  0.00000000000E+00  0.14394078916E+04  0.14394078916E+04  0.50400001928E-02 0. -1.
       -1   -1    0    0    0  501  0.00000000000E+00  0.00000000000E+00 -0.12694956246E+04  0.12694956246E+04  0.50400001928E-02 0.  1.
    10030    2    1    2    0    0  0.00000000000E+00  0.00000000000E+00  0.16991226697E+03  0.27089035162E+04  0.27035695074E+04 0.  0.
        3    1    3    3  502    0 -0.11941692501E+04  0.45583862227E+03 -0.35579007465E+03  0.13268065552E+04  0.10100000352E+00 0.  1.
       -3    1    3    3    0  502  0.11941692501E+04 -0.45583862227E+03  0.52570234162E+03  0.13820969610E+04  0.10100000352E+00 0. -1.
</event>
<event>
 5   0  0.8213334E-06  0.2707309E+04  0.7818609E-02  0.8332637E-01
        2   -1    0    0  501    0  0.00000000000E+00  0.00000000000E+00  0.20664339055E+04  0.20664339055E+04  0.25500000920E-02 0.  1.
       -2   -1    0    0    0  501  0.00000000000E+00  0.00000000000E+00 -0.88673536387E+03  0.88673536387E+03  0.25500000920E-02 0. -1.
    10030    2    1    2    0    0  0.00000000000E+00  0.00000000000E+00  0.11796985416E+04  0.29531692694E+04  0.27073086423E+04 0.  0.
        3    1    3    3  502    0 -0.71853034713E+03 -0.11428694687E+04  0.48107633888E+03  0.14331332584E+04  0.10100000352E+00 0.  1.
       -3    1    3    3    0  502  0.71853034713E+03  0.11428694687E+04  0.69862220275E+03  0.15200360110E+04  0.10100000352E+00 0. -1.
</event>
<event>
 5   0  0.3199840E-06  0.2712750E+04  0.7818609E-02  0.8330880E-01
        1   -1    0    0  501    0  0.00000000000E+00  0.00000000000E+00  0.17625627086E+04  0.17625627086E+04  0.50400001928E-02 0. -1.
       -1   -1    0    0    0  501  0.00000000000E+00  0.00000000000E+00 -0.10437944821E+04  0.10437944821E+04  0.50400001928E-02 0.  1.
    10030    2    1    2    0    0  0.00000000000E+00  0.00000000000E+00  0.71876822652E+03  0.28063571906E+04  0.27127500655E+04 0.  0.
        1    1    3    3  502    0 -0.77259216801E+03  0.30408175789E+03  0.14689561346E+04  0.16873637720E+04  0.50400001928E-02 0. -1.
       -1    1    3    3    0  502  0.77259216801E+03 -0.30408175789E+03 -0.75018790809E+03  0.11189934187E+04  0.50400001928E-02 0.  1.
</event>
<event>
 5   0  0.7729970E-06  0.2743356E+04  0.7818609E-02  0.8321073E-01
        2   -1    0    0  501    0  0.00000000000E+00  0.00000000000E+00  0.11915021383E+04  0.11915021383E+04  0.25500000920E-02 0.  1.
       -2   -1    0    0    0  501  0.00000000000E+00  0.00000000000E+00 -0.15790997811E+04  0.15790997811E+04  0.25500000920E-02 0. -1.
    10030    2    1    2    0    0  0.00000000000E+00  0.00000000000E+00 -0.38759764278E+03  0.27706019195E+04  0.27433561678E+04 0.  0.
        4    1    3    3  502    0  0.51419777746E+03  0.28630951124E+03 -0.14451063073E+04  0.15603545568E+04  0.12699999809E+01 0. -1.
       -4    1    3    3    0  502 -0.51419777746E+03 -0.28630951124E+03  0.10575086645E+04  0.12102473627E+04  0.12699999809E+01 0.  1.
</event>
<event>
 5   0  0.7729970E-06  0.2685366E+04  0.7818609E-02  0.8339769E-01
       -2   -1    0    0    0  501  0.00000000000E+00  0.00000000000E+00  0.17767469644E+04  0.17767469644E+04  0.25500000920E-02 0.  1.
        2   -1    0    0  501    0  0.00000000000E+00  0.00000000000E+00 -0.10146622486E+04  0.10146622486E+04  0.25500000920E-02 0. -1.
    10030    2    1    2    0    0  0.00000000000E+00  0.00000000000E+00  0.76208471572E+03  0.27914092130E+04  0.26853663215E+04 0.  0.
        4    1    3    3  502    0 -0.13291603054E+04  0.11895299567E+03  0.22693296218E+03  0.13536310852E+04  0.12699999809E+01 0. -1.
       -4    1    3    3    0  502  0.13291603054E+04 -0.11895299567E+03  0.53515175354E+03  0.14377781278E+04  0.12699999809E+01 0.  1.
</event>
<event>
 5   0  0.3089218E-06  0.2696760E+04  0.7818609E-02  0.8336057E-01
       -1   -1    0    0    0  501  0.00000000000E+00  0.00000000000E+00  0.13116090710E+04  0.13116090711E+04  0.50400001928E-02 0. -1.
        1   -1    0    0  501    0  0.00000000000E+00  0.00000000000E+00 -0.13861820446E+04  0.13861820446E+04  0.50400001928E-02 0.  1.
    10030    2    1    2    0    0  0.00000000000E+00  0.00000000000E+00 -0.74572973589E+02  0.26977911157E+04  0.26967602369E+04 0.  0.
        5    1    3    3  502    0 -0.68479638847E+03 -0.44320781215E+03  0.10367754575E+04  0.13192060861E+04  0.46999998093E+01 0. -1.
       -5    1    3    3    0  502  0.68479638847E+03  0.44320781215E+03 -0.11113484311E+04  0.13785850296E+04  0.46999998093E+01 0.  1.
</event>
<event>
 5   0  0.3028601E-06  0.2692225E+04  0.7818609E-02  0.8337532E-01
       -1   -1    0    0    0  501  0.00000000000E+00  0.00000000000E+00  0.94838588149E+03  0.94838588150E+03  0.50400001928E-02 0.  1.
        1   -1    0    0  501    0  0.00000000000E+00  0.00000000000E+00 -0.19106342445E+04  0.19106342446E+04  0.50400001928E-02 0. -1.
    10030    2    1    2    0    0  0.00000000000E+00  0.00000000000E+00 -0.96224836305E+03  0.28590201261E+04  0.26922247620E+04 0.  0.
        3    1    3    3  502    0  0.10873169485E+03  0.94464314300E+03  0.53071576013E+03  0.10889593552E+04  0.10100000352E+00 0.  1.
       -3    1    3    3    0  502 -0.10873169485E+03 -0.94464314300E+03 -0.14929641232E+04  0.17700607708E+04  0.10100000352E+00 0. -1.
</event>
<event>
 5   0  0.3046300E-06  0.2707600E+04  0.7818609E-02  0.8332543E-01
       -1   -1    0    0    0  501  0.00000000000E+00  0.00000000000E+00  0.13104135615E+04  0.13104135615E+04  0.50400001928E-02 0. -1.
        1   -1    0    0  501    0  0.00000000000E+00  0.00000000000E+00 -0.13986233367E+04  0.13986233367E+04  0.50400001928E-02 0.  1.
    10030    2    1    2    0    0  0.00000000000E+00  0.00000000000E+00 -0.88209775177E+02  0.27090368983E+04  0.27076004047E+04 0.  0.
        2    1    3    3  502    0 -0.22621877292E+03  0.18733940095E+03  0.12781498835E+04  0.13114641090E+04  0.25500000920E-02 0. -1.
       -2    1    3    3    0  502  0.22621877292E+03 -0.18733940095E+03 -0.13663596587E+04  0.13975727893E+04  0.25500000920E-02 0.  1.
</event>
<event>
 5   0  0.7729970E-06  0.2710868E+04  0.7818609E-02  0.8331487E-01
       -2   -1    0    0    0  501  0.00000000000E+00  0.00000000000E+00  0.14405789633E+04  0.14405789633E+04  0.25500000920E-02 0. -1.
        2   -1    0    0  501    0  0.00000000000E+00  0.00000000000E+00 -0.12753215875E+04  0.12753215875E+04  0.25500000920E-02 0.  1.
    10030    2    1    2    0    0  0.00000000000E+00  0.00000000000E+00  0.16525737580E+03  0.27159005507E+04  0.27108680900E+04 0.  0.
        4    1    3    3  502    0  0.11707572146E+04 -0.18806796707E+03  0.74047373959E+03  0.13979788938E+04  0.12699999809E+01 0. -1.
       -4    1    3    3    0  502 -0.11707572146E+04  0.18806796707E+03 -0.57521636379E+03  0.13179216569E+04  0.12699999809E+01 0.  1.
</event>
<event>
 5   0  0.3028601E-06  0.2742097E+04  0.7818609E-02  0.8321474E-01
       -1   -1    0    0    0  501  0.00000000000E+00  0.00000000000E+00  0.11643254109E+04  0.11643254110E+04  0.50400001928E-02 0. -1.
        1   -1    0    0  501    0  0.00000000000E+00  0.00000000000E+00 -0.16144747388E+04  0.16144747388E+04  0.50400001928E-02 0.  1.
    10030    2    1    2    0    0  0.00000000000E+00  0.00000000000E+00 -0.45014932782E+03  0.27788001497E+04  0.27420969813E+04 0.  0.
        3    1    3    3  502    0 -0.54728778363E+03  0.15069107757E+03 -0.14897947583E+04  0.15942773131E+04  0.10100000352E+00 0.  1.
       -3    1    3    3    0  502  0.54728778363E+03 -0.15069107757E+03  0.10396454305E+04  0.11845228366E+04  0.10100000352E+00 0. -1.
</event>
<event>
 5   0  0.7838364E-06  0.2697607E+04  0.7818609E-02  0.8335782E-01
        2   -1    0    0  501    0  0.00000000000E+00  0.00000000000E+00  0.14918297210E+04  0.14918297210E+04  0.25500000920E-02 0.  1.
       -2   -1    0    0    0  501  0.00000000000E+00  0.00000000000E+00 -0.12194899620E+04  0.12194899620E+04  0.25500000920E-02 0. -1.
    10030    2    1    2    0    0  0.00000000000E+00  0.00000000000E+00  0.27233975903E+03  0.27113196830E+04  0.26976073619E+04 0.  0.
        2    1    3    3  502    0  0.12669273042E+04 -0.32392092266E+02 -0.32782305785E+03  0.13090538564E+04  0.25500000920E-02 0. -1.
       -2    1    3    3    0  502 -0.12669273042E+04  0.32392092266E+02  0.60016281687E+03  0.14022658266E+04  0.25500000920E-02 0.  1.
</event>
<event>
 5   0  0.7729970E-06  0.2686260E+04  0.7818609E-02  0.8339477E-01
        2   -1    0    0  501    0  0.00000000000E+00  0.00000000000E+00  0.14748230320E+04  0.14748230320E+04  0.25500000920E-02 0.  1.
       -2   -1    0    0    0  501  0.00000000000E+00  0.00000000000E+00 -0.12231962024E+04  0.12231962024E+04  0.25500000920E-02 0. -1.
    10030    2    1    2    0    0  0.00000000000E+00  0.00000000000E+00  0.25162682964E+03  0.26980192344E+04  0.26862598027E+04 0.  0.
        4    1    3    3  502    0  0.52884247700E+03 -0.45669891660E+03  0.12778954277E+04  0.14564568661E+04  0.12699999809E+01 0.  1.
       -4    1    3    3    0  502 -0.52884247700E+03  0.45669891660E+03 -0.10262685981E+04  0.12415623682E+04  0.12699999809E+01 0. -1.
</event>
<event>
 5   0  0.3089218E-06  0.2732896E+04  0.7818609E-02  0.8324410E-01
       -1   -1    0    0    0  501  0.00000000000E+00  0.00000000000E+00  0.10144185198E+04  0.10144185198E+04  0.50400001928E-02 0.  1.
        1   -1    0    0  501    0  0.00000000000E+00  0.00000000000E+00 -0.18406413087E+04  0.18406413087E+04  0.50400001928E-02 0. -1.
    10030    2    1    2    0    0  0.00000000000E+00  0.00000000000E+00 -0.82622278897E+03  0.28550598285E+04  0.27328963624E+04 0.  0.
        5    1    3    3  502    0 -0.12276260171E+04  0.58003292905E+03 -0.25243546524E+03  0.13810320745E+04  0.46999998093E+01 0.  1.
       -5    1    3    3    0  502  0.12276260171E+04 -0.58003292905E+03 -0.57378732373E+03  0.14740277540E+04  0.46999998093E+01 0. -1.
</event>
<event>
 5   0  0.3046300E-06  0.2708571E+04  0.7818609E-02  0.8332229E-01
        1   -1    0    0  501    0  0.00000000000E+00  0.00000000000E+00  0.13595585300E+04  0.13595585300E+04  0.50400001928E-02 0. -1.
       -1   -1    0    0    0  501  0.00000000000E+00  0.00000000000E+00 -0.13490330844E+04  0.13490330844E+04  0.50400001928E-02 0.  1.
    10030    2    1    2    0    0  0.00000000000E+00  0.00000000000E+00  0.10525445566E+02  0.27085916144E+04  0.27085711636E+04 0.  0.
        2    1    3    3  502    0 -0.88894693303E+03  0.91269458391E+03  0.46445175561E+03  0.13560801918E+04  0.25500000920E-02 0. -1.
       -2    1    3    3    0  502  0.88894693303E+03 -0.91269458391E+03 -0.45392631005E+03  0.13525114226E+04  0.25500000920E-02 0.  1.
</event>
<event>
 5   0  0.7838364E-06  0.2730392E+04  0.7818609E-02  0.8325211E-01
       -2   -1    0    0    0  501  0.00000000000E+00  0.00000000000E+00  0.92962787174E+03  0.92962787174E+03  0.25500000920E-02 0.  1.
        2   -1    0    0  501    0  0.00000000000E+00  0.00000000000E+00 -0.20048449343E+04  0.20048449343E+04  0.25500000920E-02 0. -1.
    10030    2    1    2    0    0  0.00000000000E+00  0.00000000000E+00 -0.10752170626E+04  0.29344728061E+04  0.27303917151E+04 0.  0.
        2    1    3    3  502    0  0.96384990487E+03 -0.75305086003E+03 -0.11892860639E+04  0.17060168752E+04  0.25500000920E-02 0. -1.
       -2    1    3    3    0  502 -0.96384990487E+03  0.75305086003E+03  0.11406900127E+03  0.12284559308E+04  0.25500000920E-02 0.  1.
</event>
<event>
 5   0  0.8213334E-06  0.2703698E+04  0.7818609E-02  0.8333806E-01
        2   -1    0    0  501    0  0.00000000000E+00  0.00000000000E+00  0.19815047629E+04  0.19815047629E+04  0.25500000920E-02 0.  1.
       -2   -1    0    0    0  501  0.00000000000E+00  0.00000000000E+00 -0.92227641859E+03  0.92227641859E+03  0.25500000920E-02 0. -1.
    10030    2    1    2    0    0  0.00000000000E+00  0.00000000000E+00  0.10592283444E+04  0.29037811815E+04  0.27036975542E+04 0.  0.
        3    1    3    3  502    0  0.43156535206E+03  0.11751110074E+04 -0.18402016079E+02  0.12519876906E+04  0.10100000352E+00 0. -1.
       -3    1    3    3    0  502 -0.43156535206E+03 -0.11751110074E+04  0.10776303604E+04  0.16517934910E+04  0.10100000352E+00 0.  1.
</event>
<event>
 5   0  0.7812908E-06  0.2687245E+04  0.7818609E-02  0.8339155E-01
        2   -1    0    0  501    0  0.00000000000E+00  0.00000000000E+00  0.12134152050E+04  0.12134152050E+04  0.25500000920E-02 0. -1.
       -2   -1    0    0    0  501  0.00000000000E+00  0.00000000000E+00 -0.14878021040E+04  0.14878021040E+04  0.25500000920E-02 0.  1.
    10030    2    1    2    0    0  0.00000000000E+00  0.00000000000E+00 -0.27438689899E+03  0.27012173091E+04  0.26872452029E+04 0.  0.
        5    1    3    3  502    0  0.69198696515E+02 -0.13347861427E+04 -0.27522859098E+03  0.13646301234E+04  0.46999998093E+01 0.  1.
       -5    1    3    3    0  502 -0.69198696515E+02  0.13347861427E+04  0.84169198255E+00  0.13365871857E+04  0.46999998093E+01 0. -1.
</event>
<event>
 5   0  0.3046300E-06  0.2705085E+04  0.7818609E-02  0.8333357E-01
        1   -1    0    0  501    0  0.00000000000E+00  0.00000000000E+00  0.11301123615E+04  0.11301123616E+04  0.50400001928E-02 0. -1.
       -1   -1    0    0    0  501  0.00000000000E+00  0.00000000000E+00 -0.16187514315E+04  0.16187514315E+04  0.50400001928E-02 0.  1.
    10030    2    1    2    0    0  0.00000000000E+00  0.00000000000E+00 -0.48863906997E+03  0.27488637931E+04  0.27050848438E+04 0.  0.
        2    1    3    3  502    0 -0.40313138833E+03 -0.77864340246E+03  0.80218739655E+03  0.11884044276E+04  0.25500000920E-02 0. -1.
       -2    1    3    3    0  502  0.40313138833E+03  0.77864340246E+03 -0.12908264665E+04  0.15604593654E+04  0.25500000920E-02 0.  1.
</event>
<event>
 5   0  0.7838364E-06  0.2696559E+04  0.7818609E-02  0.8336122E-01
        2   -1    0    0  501    0  0.00000000000E+00  0.00000000000E+00  0.18858500797E+04  0.18858500797E+04  0.25500000920E-02 0.  1.
       -2   -1    0    0    0  501  0.00000000000E+00  0.00000000000E+00 -0.96394594537E+03  0.96394594537E+03  0.25500000920E-02 0. -1.
    10030    2    1    2    0    0  0.00000000000E+00  0.00000000000E+00  0.92190413432E+03  0.28497960251E+04  0.26965589464E+04 0.  0.
        2    1    3    3  502    0  0.91584195886E+03 -0.94489389537E+03  0.15054962802E+03  0.13244833550E+04  0.25500000920E-02 0. -1.
       -2    1    3    3    0  502 -0.91584195886E+03  0.94489389537E+03  0.77135450630E+03  0.15253126701E+04  0.25500000920E-02 0.  1.
</event>
<event>
 5   0  0.3046300E-06  0.2570045E+04  0.7818609E-02  0.8378448E-01
        1   -1    0    0  501    0  0.00000000000E+00  0.00000000000E+00  0.12283942206E+04  0.12283942206E+04  0.50400001928E-02 0.  1.
       -1   -1    0    0    0  501  0.00000000000E+00  0.00000000000E+00 -0.13442608449E+04  0.13442608450E+04  0.50400001928E-02 0. -1.
    10030    2    1    2    0    0  0.00000000000E+00  0.00000000000E+00 -0.11586662435E+03  0.25726550656E+04  0.25700445544E+04 0.  0.
        2    1    3    3  502    0  0.74461598091E+03  0.81882950662E+03 -0.71154947938E+03  0.13157649416E+04  0.25500000920E-02 0. -1.
       -2    1    3    3    0  502 -0.74461598091E+03 -0.81882950662E+03  0.59568285503E+03  0.12568901240E+04  0.25500000920E-02 0.  1.
</event>
<event>
 5   0  0.7812908E-06  0.2708747E+04  0.7818609E-02  0.8332172E-01
        2   -1    0    0  501    0  0.00000000000E+00  0.00000000000E+00  0.18654461589E+04  0.18654461589E+04  0.25500000920E-02 0.  1.
       -2   -1    0    0    0  501  0.00000000000E+00  0.00000000000E+00 -0.98331862897E+03  0.98331862897E+03  0.25500000920E-02 0. -1.
    10030    2    1    2    0    0  0.00000000000E+00  0.00000000000E+00  0.88212752992E+03  0.28487647879E+04  0.27087472820E+04 0.  0.
        5    1    3    3  502    0 -0.49485409607E+03 -0.30236050754E+03  0.17282592447E+04  0.18229658691E+04  0.46999998093E+01 0.  1.
       -5    1    3    3    0  502  0.49485409607E+03  0.30236050754E+03 -0.84613171482E+03  0.10257989188E+04  0.46999998093E+01 0. -1.
</event>
<event>
 5   0  0.3199840E-06  0.2689980E+04  0.7818609E-02  0.8338263E-01
        1   -1    0    0  501    0  0.00000000000E+00  0.00000000000E+00  0.12018548197E+04  0.12018548197E+04  0.50400001928E-02 0. -1.
       -1   -1    0    0    0  501  0.00000000000E+00  0.00000000000E+00 -0.15051716721E+04  0.15051716721E+04  0.50400001928E-02 0.  1.
    10030    2    1    2    0    0  0.00000000000E+00  0.00000000000E+00 -0.30331685237E+03  0.27070264918E+04  0.26899797981E+04 0.  0.
        1    1    3    3  502    0  0.43866402636E+03  0.12432385476E+04 -0.41967230662E+03  0.13835436600E+04  0.50400001928E-02 0.  1.
       -1    1    3    3    0  502 -0.43866402636E+03 -0.12432385476E+04  0.11635545425E+03  0.13234828318E+04  0.50400001928E-02 0. -1.
</event>
<event>
 5   0  0.3013407E-06  0.2708023E+04  0.7818609E-02  0.8332406E-01
       -1   -1    0    0    0  501  0.00000000000E+00  0.00000000000E+00  0.10059681600E+04  0.10059681600E+04  0.50400001928E-02 0.  1.
        1   -1    0    0  501    0  0.00000000000E+00  0.00000000000E+00 -0.18224709445E+04  0.18224709445E+04  0.50400001928E-02 0. -1.
    10030    2    1    2    0    0  0.00000000000E+00  0.00000000000E+00 -0.81650278448E+03  0.28284391045E+04  0.27080234436E+04 0.  0.
        4    1    3    3  502    0 -0.15776190413E+03 -0.38545158833E+03  0.93740237893E+03  0.10257614627E+04  0.12699999809E+01 0.  1.
       -4    1    3    3    0  502  0.15776190413E+03  0.38545158833E+03 -0.17539051634E+04  0.18026776419E+04  0.12699999809E+01 0. -1.
</event>
<event>
 5   0  0.3199840E-06  0.2711415E+04  0.7818609E-02  0.8331311E-01
        1   -1    0    0  501    0  0.00000000000E+00  0.00000000000E+00  0.84733499396E+03  0.84733499397E+03  0.50400001928E-02 0.  1.
       -1   -1    0    0    0  501  0.00000000000E+00  0.00000000000E+00 -0.21690869807E+04  0.21690869807E+04  0.50400001928E-02 0. -1.
    10030    2    1    2    0    0  0.00000000000E+00  0.00000000000E+00 -0.13217519867E+04  0.30164219747E+04  0.27114153527E+04 0.  0.
        1    1    3    3  502    0 -0.12897063191E+04  0.30883025096E+03 -0.97400737521E+03  0.16454205785E+04  0.50400001928E-02 0.  1.
       -1    1    3    3    0  502  0.12897063191E+04 -0.30883025096E+03 -0.34774461153E+03  0.13710013961E+04  0.50400001928E-02 0. -1.
</event>
<event>
 5   0  0.7812908E-06  0.2699665E+04  0.7818609E-02  0.8335114E-01
        2   -1    0    0  501    0  0.00000000000E+00  0.00000000000E+00  0.99406567496E+03  0.99406567497E+03  0.25500000920E-02 0. -1.
       -2   -1    0    0    0  501  0.00000000000E+00  0.00000000000E+00 -0.18329246346E+04  0.18329246346E+04  0.25500000920E-02 0.  1.
    10030    2    1    2    0    0  0.00000000000E+00  0.00000000000E+00 -0.83885895959E+03  0.28269903095E+04  0.26996647673E+04 0.  0.
        5    1    3    3  502    0  0.54704347760E+03  0.11779209346E+03  0.86687511945E+03  0.10318072041E+04  0.46999998093E+01 0. -1.
       -5    1    3    3    0  502 -0.54704347760E+03 -0.11779209346E+03 -0.17057340790E+04  0.17951831054E+04  0.46999998093E+01 0.  1.
</event>
<event>
 5   0  0.3089218E-06  0.2662748E+04  0.7818609E-02  0.8347194E-01
        1   -1    0    0  501    0  0.00000000000E+00  0.00000000000E+00  0.15344579387E+04  0.15344579387E+04  0.50400001928E-02 0.  1.
       -1   -1    0    0    0  501  0.00000000000E+00  0.00000000000E+00 -0.11551676540E+04  0.11551676540E+04  0.50400001928E-02 0. -1.
    10030    2    1    2    0    0  0.00000000000E+00  0.00000000000E+00  0.37929028468E+03  0.26896255928E+04  0.26627475865E+04 0.  0.
        5    1    3    3  502    0 -0.11062462117E+04 -0.31117984475E+03  0.86868122913E+03  0.14405702845E+04  0.46999998093E+01 0.  1.
       -5    1    3    3    0  502  0.11062462117E+04  0.31117984475E+03 -0.48939094445E+03  0.12490553083E+04  0.46999998093E+01 0. -1.
</event>
<event>
 5   0  0.3028601E-06  0.2718380E+04  0.7818609E-02  0.8329066E-01
        1   -1    0    0  501    0  0.00000000000E+00  0.00000000000E+00  0.14892701896E+04  0.14892701896E+04  0.50400001928E-02 0. -1.
       -1   -1    0    0    0  501  0.00000000000E+00  0.00000000000E+00 -0.12404714982E+04  0.12404714982E+04  0.50400001928E-02 0.  1.
    10030    2    1    2    0    0  0.00000000000E+00  0.00000000000E+00  0.24879869144E+03  0.27297416878E+04  0.27183798287E+04 0.  0.
        3    1    3    3  502    0 -0.45555221723E+03  0.10096150924E+04  0.91543975235E+03  0.14369691743E+04  0.10100000352E+00 0. -1.
       -3    1    3    3    0  502  0.45555221723E+03 -0.10096150924E+04 -0.66664106091E+03  0.12927725135E+04  0.10100000352E+00 0.  1.
</event>
<event>
 5   0  0.8407622E-06  0.2722542E+04  0.7818609E-02  0.8327728E-01
       -2   -1    0    0    0  501  0.00000000000E+00  0.00000000000E+00  0.10293247635E+04  0.10293247635E+04  0.25500000920E-02 0.  1.
        2   -1    0    0  501    0  0.00000000000E+00  0.00000000000E+00 -0.18002662426E+04  0.18002662426E+04  0.25500000920E-02 0. -1.
    10030    2    1    2    0    0  0.00000000000E+00  0.00000000000E+00 -0.77094147914E+03  0.28295910061E+04  0.27225419184E+04 0.  0.
        1    1    3    3  502    0  0.28078336054E+03  0.28615377226E+03 -0.17375193431E+04  0.17831704194E+04  0.50400001928E-02 0. -1.
       -1    1    3    3    0  502 -0.28078336054E+03 -0.28615377226E+03  0.96657786400E+03  0.10464205866E+04  0.50400001928E-02 0.  1.
</event>
<event>
 5   0  0.3028601E-06  0.2708455E+04  0.7818609E-02  0.8332267E-01
       -1   -1    0    0    0  501  0.00000000000E+00  0.00000000000E+00  0.89721327978E+03  0.89721327979E+03  0.50400001928E-02 0.  1.
        1   -1    0    0  501    0  0.00000000000E+00  0.00000000000E+00 -0.20440311035E+04  0.20440311035E+04  0.50400001928E-02 0. -1.
    10030    2    1    2    0    0  0.00000000000E+00  0.00000000000E+00 -0.11468178237E+04  0.29412443833E+04  0.27084547996E+04 0.  0.
        3    1    3    3  502    0 -0.64267871537E+02  0.10894359460E+03 -0.20376022558E+04  0.20415244375E+04  0.10100000352E+00 0. -1.
       -3    1    3    3    0  502  0.64267871537E+02 -0.10894359460E+03  0.89078443208E+03  0.89971994573E+03  0.10100000352E+00 0.  1.
</event>
<event>
 5   0  0.8213334E-06  0.2698594E+04  0.7818609E-02  0.8335461E-01
       -2   -1    0    0    0  501  0.00000000000E+00  0.00000000000E+00  0.92766525039E+03  0.92766525039E+03  0.25500000920E-02 0. -1.
        2   -1    0    0  501    0  0.00000000000E+00  0.00000000000E+00 -0.19625632956E+04  0.19625632956E+04  0.25500000920E-02 0.  1.
    10030    2    1    2    0    0  0.00000000000E+00  0.00000000000E+00 -0.10348980452E+04  0.28902285460E+04  0.26985935381E+04 0.  0.
        3    1    3    3  502    0 -0.11725802417E+04  0.30513720172E+02 -0.12316839636E+04  0.17008588733E+04  0.10100000352E+00 0.  1.
       -3    1    3    3    0  502  0.11725802417E+04 -0.30513720172E+02  0.19678591842E+03  0.11893696727E+04  0.10100000352E+00 0. -1.
</event>
<event>
 5   0  0.3199840E-06  0.2694536E+04  0.7818609E-02  0.8336780E-01
        1   -1    0    0  501    0  0.00000000000E+00  0.00000000000E+00  0.16926254495E+04  0.16926254495E+04  0.50400001928E-02 0. -1.
       -1   -1    0    0    0  501  0.00000000000E+00  0.00000000000E+00 -0.10723760343E+04  0.10723760343E+04  0.50400001928E-02 0.  1.
    10030    2    1    2    0    0  0.00000000000E+00  0.00000000000E+00  0.62024941521E+03  0.27650014838E+04  0.26945359282E+04 0.  0.
        1    1    3    3  502    0 -0.13241488293E+04  0.13131763079E+03  0.52663174496E+03  0.14310679359E+04  0.50400001928E-02 0. -1.
       -1    1    3    3    0  502  0.13241488293E+04 -0.13131763079E+03  0.93617670249E+02  0.13339335480E+04  0.50400001928E-02 0.  1.
</event>
<event>
 5   0  0.3199840E-06  0.2700076E+04  0.7818609E-02  0.8334980E-01
        1   -1    0    0  501    0  0.00000000000E+00  0.00000000000E+00  0.94536541509E+03  0.94536541510E+03  0.50400001928E-02 0.  1.
       -1   -1    0    0    0  501  0.00000000000E+00  0.00000000000E+00 -0.19279342934E+04  0.19279342934E+04  0.50400001928E-02 0. -1.
    10030    2    1    2    0    0  0.00000000000E+00  0.00000000000E+00 -0.98256887831E+03  0.28732997085E+04  0.27000758534E+04 0.  0.
        1    1    3    3  502    0  0.26523320749E+03  0.85187151557E+03  0.58691466525E+03  0.10679431435E+04  0.50400001928E-02 0.  1.
       -1    1    3    3    0  502 -0.26523320749E+03 -0.85187151557E+03 -0.15694835436E+04  0.18053565650E+04  0.50400001928E-02 0. -1.
</event>
<event>
 5   0  0.8407622E-06  0.2693969E+04  0.7818609E-02  0.8336964E-01
        2   -1    0    0  501    0  0.00000000000E+00  0.00000000000E+00  0.16240714430E+04  0.16240714430E+04  0.25500000920E-02 0. -1.
       -2   -1    0    0    0  501  0.00000000000E+00  0.00000000000E+00 -0.11171721189E+04  0.11171721189E+04  0.25500000920E-02 0.  1.
    10030    2    1    2    0    0  0.00000000000E+00  0.00000000000E+00  0.50689932415E+03  0.27412435619E+04  0.26939690683E+04 0.  0.
        1    1    3    3  502    0 -0.11312951837E+04 -0.72501241331E+03  0.34942093465E+03  0.13883683883E+04  0.50400001928E-02 0.  1.
       -1    1    3    3    0  502  0.11312951837E+04  0.72501241331E+03  0.15747838950E+03  0.13528751736E+04  0.50400001928E-02 0. -1.
</event>
<event>
 5   0  0.3028601E-06  0.2684836E+04  0.7818609E-02  0.8339942E-01
        1   -1    0    0  501    0  0.00000000000E+00  0.00000000000E+00  0.19030890119E+04  0.19030890119E+04  0.50400001928E-02 0.  1.
       -1   -1    0    0    0  501  0.00000000000E+00  0.00000000000E+00 -0.94692690232E+03  0.94692690233E+03  0.50400001928E-02 0. -1.
    10030    2    1    2    0    0  0.00000000000E+00  0.00000000000E+00  0.95616210963E+03  0.28500159143E+04  0.26848360717E+04 0.  0.
        3    1    3    3  502    0 -0.11156289918E+04 -0.72233123881E+03  0.27752420265E+03  0.13577224161E+04  0.10100000352E+00 0.  1.
       -3    1    3    3    0  502  0.11156289918E+04  0.72233123881E+03  0.67863790698E+03  0.14922934982E+04  0.10100000352E+00 0. -1.
</event>
<event>
 5   0  0.3199840E-06  0.2699645E+04  0.7818609E-02  0.8335120E-01
        1   -1    0    0  501    0  0.00000000000E+00  0.00000000000E+00  0.10851551581E+04  0.10851551581E+04  0.50400001928E-02 0.  1.
       -1   -1    0    0    0  501  0.00000000000E+00  0.00000000000E+00 -0.16790413249E+04  0.16790413249E+04  0.50400001928E-02 0. -1.
    10030    2    1    2    0    0  0.00000000000E+00  0.00000000000E+00 -0.59388616678E+03  0.27641964830E+04  0.26996446836E+04 0.  0.
        1    1    3    3  502    0  0.12232054468E+04 -0.40215319845E+03 -0.71167338358E+03  0.14712028293E+04  0.50400001928E-02 0. -1.
       -1    1    3    3    0  502 -0.12232054468E+04  0.40215319845E+03  0.11778721679E+03  0.12929936537E+04  0.50400001928E-02 0.  1.
</event>
<event>
 5   0  0.8213334E-06  0.2685126E+04  0.7818609E-02  0.8339847E-01
       -2   -1    0    0    0  501  0.00000000000E+00  0.00000000000E+00  0.88434378731E+03  0.88434378732E+03  0.25500000920E-02 0. -1.
        2   -1    0    0  501    0  0.00000000000E+00  0.00000000000E+00 -0.20382070433E+04  0.20382070433E+04  0.25500000920E-02 0.  1.
    10030    2    1    2    0    0  0.00000000000E+00  0.00000000000E+00 -0.11538632560E+04  0.29225508307E+04  0.26851262436E+04 0.  0.
        3    1    3    3  502    0  0.19652330647E+03  0.93740337166E+03  0.44707014056E+03  0.10569854360E+04  0.10100000352E+00 0. -1.
       -3    1    3    3    0  502 -0.19652330647E+03 -0.93740337166E+03 -0.16009333966E+04  0.18655653946E+04  0.10100000352E+00 0.  1.
</event>
<event>
 5   0  0.7812908E-06  0.2701600E+04  0.7818609E-02  0.8334486E-01
       -2   -1    0    0    0  501  0.00000000000E+00  0.00000000000E+00  0.88411541169E+03  0.88411541169E+03  0.25500000920E-02 0.  1.
        2   -1    0    0  501    0  0.00000000000E+00  0.00000000000E+00 -0.20638265195E+04  0.20638265195E+04  0.25500000920E-02 0. -1.
    10030    2    1    2    0    0  0.00000000000E+00  0.00000000000E+00 -0.11797111078E+04  0.29479419312E+04  0.27016001428E+04 0.  0.
        5    1    3    3  502    0 -0.78337577374E+03 -0.79673096604E+03  0.23842465748E+03  0.11425087494E+04  0.46999998093E+01 0.  1.
       -5    1    3    3    0  502  0.78337577374E+03  0.79673096604E+03 -0.14181357653E+04  0.18054331818E+04  0.46999998093E+01 0. -1.
</event>
<event>
 5   0  0.7838364E-06  0.2696838E+04  0.7818609E-02  0.8336032E-01
        2   -1    0    0  501    0  0.00000000000E+00  0.00000000000E+00  0.18431197649E+04  0.18431197649E+04  0.25500000920E-02 0.  1.
       -2   -1    0    0    0  501  0.00000000000E+00  0.00000000000E+00 -0.98649814283E+03  0.98649814283E+03  0.25500000920E-02 0. -1.
    10030    2    1    2    0    0  0.00000000000E+00  0.00000000000E+00  0.85662162206E+03  0.28296179077E+04  0.26968383156E+04 0.  0.
        2    1    3    3  502    0  0.26726131699E+02  0.10408214196E+03  0.18386199717E+04  0.18417575244E+04  0.25500000920E-02 0.  1.
       -2    1    3    3    0  502 -0.26726131699E+02 -0.10408214196E+03 -0.98199834959E+03  0.98786038335E+03  0.25500000920E-02 0. -1.
</event>
<event>
 5   0  0.7838364E-06  0.2686887E+04  0.7818609E-02  0.8339272E-01
       -2   -1    0    0    0  501  0.00000000000E+00  0.00000000000E+00  0.15780974412E+04  0.15780974412E+04  0.25500000920E-02 0.  1.
        2   -1    0    0  501    0  0.00000000000E+00  0.00000000000E+00 -0.11436815357E+04  0.11436815357E+04  0.25500000920E-02 0. -1.
    10030    2    1    2    0    0  0.00000000000E+00  0.00000000000E+00  0.43441590550E+03  0.27217789770E+04  0.26868873480E+04 0.  0.
        2    1    3    3  502    0  0.74094080062E+03 -0.42534831175E+03 -0.83304224360E+03  0.11932618472E+04  0.25500000920E-02 0. -1.
       -2    1    3    3    0  502 -0.74094080062E+03  0.42534831175E+03  0.12674581491E+04  0.15285171298E+04  0.25500000920E-02 0.  1.
</event>
<event>
 5   0  0.8213334E-06  0.2704354E+04  0.7818609E-02  0.8333594E-01
        2   -1    0    0  501    0  0.00000000000E+00  0.00000000000E+00  0.16347439465E+04  0.16347439465E+04  0.25500000920E-02 0.  1.
       -2   -1    0    0    0  501  0.00000000000E+00  0.00000000000E+00 -0.11184521087E+04  0.11184521087E+04  0.25500000920E-02 0. -1.
    10030    2    1    2    0    0  0.00000000000E+00  0.00000000000E+00  0.51629183779E+03  0.27531960553E+04  0.27043541294E+04 0.  0.
        3    1    3    3  502    0 -0.88482568496E+03 -0.20293128177E+03 -0.76209352592E+03  0.11852780899E+04  0.10100000352E+00 0. -1.
       -3    1    3    3    0  502  0.88482568496E+03  0.20293128177E+03  0.12783853637E+04  0.15679179654E+04  0.10100000352E+00 0.  1.
</event>
<event>
 5   0  0.3046300E-06  0.2695506E+04  0.7818609E-02  0.8336464E-01
        1   -1    0    0  501    0  0.00000000000E+00  0.00000000000E+00  0.11655623600E+04  0.11655623600E+04  0.50400001928E-02 0. -1.
       -1   -1    0    0    0  501  0.00000000000E+00  0.00000000000E+00 -0.15584225696E+04  0.15584225696E+04  0.50400001928E-02 0.  1.
    10030    2    1    2    0    0  0.00000000000E+00  0.00000000000E+00 -0.39286020952E+03  0.27239849296E+04  0.26955064000E+04 0.  0.
        2    1    3    3  502    0 -0.10376217656E+04 -0.75234429662E+03  0.22481659503E+03  0.13012391673E+04  0.25500000920E-02 0. -1.
       -2    1    3    3    0  502  0.10376217656E+04  0.75234429662E+03 -0.61767680455E+03  0.14227457623E+04  0.25500000920E-02 0.  1.
</event>
<event>
 5   0  0.8407622E-06  0.2695262E+04  0.7818609E-02  0.8336544E-01
       -2   -1    0    0    0  501  0.00000000000E+00  0.00000000000E+00  0.17625534735E+04  0.17625534735E+04  0.25500000920E-02 0. -1.
        2   -1    0    0  501    0  0.00000000000E+00  0.00000000000E+00 -0.10303851043E+04  0.10303851043E+04  0.25500000920E-02 0.  1.
    10030    2    1    2    0    0  0.00000000000E+00  0.00000000000E+00  0.73216836919E+03  0.27929385779E+04  0.26952616532E+04 0.  0.
        1    1    3    3  502    0 -0.13143570356E+03 -0.92621847178E+03 -0.63909707204E+03  0.11329611949E+04  0.50400001928E-02 0.  1.
       -1    1    3    3    0  502  0.13143570356E+03  0.92621847178E+03  0.13712654412E+04  0.16599773830E+04  0.50400001928E-02 0. -1.
</event>
<event>
 5   0  0.3028601E-06  0.2703340E+04  0.7818609E-02  0.8333922E-01
        1   -1    0    0  501    0  0.00000000000E+00  0.00000000000E+00  0.13855356332E+04  0.13855356332E+04  0.50400001928E-02 0. -1.
       -1   -1    0    0    0  501  0.00000000000E+00  0.00000000000E+00 -0.13186316979E+04  0.13186316979E+04  0.50400001928E-02 0.  1.
    10030    2    1    2    0    0  0.00000000000E+00  0.00000000000E+00  0.66903935317E+02  0.27041673311E+04  0.27033395677E+04 0.  0.
        3    1    3    3  502    0  0.11203034143E+04  0.63730450282E+03 -0.37382675848E+03  0.13420071628E+04  0.10100000352E+00 0.  1.
       -3    1    3    3    0  502 -0.11203034143E+04 -0.63730450282E+03  0.44073069380E+03  0.13621601683E+04  0.10100000352E+00 0. -1.
</event>
<event>
 5   0  0.3028601E-06  0.2693017E+04  0.7818609E-02  0.8337274E-01
        1   -1    0    0  501    0  0.00000000000E+00  0.00000000000E+00  0.21314805197E+04  0.21314805197E+04  0.50400001928E-02 0.  1.
       -1   -1    0    0    0  501  0.00000000000E+00  0.00000000000E+00 -0.85062256082E+03  0.85062256083E+03  0.50400001928E-02 0. -1.
    10030    2    1    2    0    0  0.00000000000E+00  0.00000000000E+00  0.12808579589E+04  0.29821030806E+04  0.26930172061E+04 0.  0.
        3    1    3    3  502    0  0.13262637146E+04 -0.22347174948E+03  0.71193942515E+03  0.15217663483E+04  0.10100000352E+00 0. -1.
       -3    1    3    3    0  502 -0.13262637146E+04  0.22347174948E+03  0.56891853375E+03  0.14603367323E+04  0.10100000352E+00 0.  1.
</event>
<event>
 5   0  0.3013407E-06  0.2654212E+04  0.7818609E-02  0.8350016E-01
       -1   -1    0    0    0  501  0.00000000000E+00  0.00000000000E+00  0.15164267956E+04  0.15164267956E+04  0.50400001928E-02 0. -1.
        1   -1    0    0  501    0  0.00000000000E+00  0.00000000000E+00 -0.11614208999E+04  0.11614208999E+04  0.50400001928E-02 0.  1.
    10030    2    1    2    0    0  0.00000000000E+00  0.00000000000E+00  0.35500589569E+03  0.26778476956E+04  0.26542115769E+04 0.  0.
        4    1    3    3  502    0  0.27566000627E+03 -0.16047647183E+03 -0.11221716982E+04  0.11666242198E+04  0.12699999809E+01 0.  1.
       -4    1    3    3    0  502 -0.27566000627E+03  0.16047647183E+03  0.14771775939E+04  0.15112234758E+04  0.12699999809E+01 0. -1.
</event>
<event>
 5   0  0.7729970E-06  0.2687331E+04  0.7818609E-02  0.8339127E-01
        2   -1    0    0  501    0  0.00000000000E+00  0.00000000000E+00  0.20605496037E+04  0.20605496037E+04  0.25500000920E-02 0. -1.
       -2   -1    0    0    0  501  0.00000000000E+00  0.00000000000E+00 -0.87619174983E+03  0.87619174983E+03  0.25500000920E-02 0.  1.
    10030    2    1    2    0    0  0.00000000000E+00  0.00000000000E+00  0.11843578539E+04  0.29367413535E+04  0.26873306926E+04 0.  0.
        4    1    3    3  502    0 -0.37872885278E+03  0.99706375555E+02 -0.81243586446E+03  0.90190384854E+03  0.12699999809E+01 0.  1.
       -4    1    3    3    0  502  0.37872885278E+03 -0.99706375555E+02  0.19967937183E+04  0.20348375050E+04  0.12699999809E+01 0. -1.
</event>
<event>
 5   0  0.3028601E-06  0.2699396E+04  0.7818609E-02  0.8335201E-01
        1   -1    0    0  501    0  0.00000000000E+00  0.00000000000E+00  0.18986770459E+04  0.18986770459E+04  0.50400001928E-02 0. -1.
       -1   -1    0    0    0  501  0.00000000000E+00  0.00000000000E+00 -0.95944968439E+03  0.95944968440E+03  0.50400001928E-02 0.  1.
    10030    2    1    2    0    0  0.00000000000E+00  0.00000000000E+00  0.93922736149E+03  0.28581267303E+04  0.26993962973E+04 0.  0.
        3    1    3    3  502    0 -0.67663370545E+03  0.29370655135E+03 -0.72715525866E+03  0.10357854460E+04  0.10100000352E+00 0.  1.
       -3    1    3    3    0  502  0.67663370545E+03 -0.29370655135E+03  0.16663826201E+04  0.18223412843E+04  0.10100000352E+00 0. -1.
</event>
<event>
 5   0  0.7812908E-06  0.2712211E+04  0.7818609E-02  0.8331054E-01
       -2   -1    0    0    0  501  0.00000000000E+00  0.00000000000E+00  0.87059493719E+03  0.87059493720E+03  0.25500000920E-02 0.  1.
        2   -1    0    0  501    0  0.00000000000E+00  0.00000000000E+00 -0.21123738454E+04  0.21123738454E+04  0.25500000920E-02 0. -1.
    10030    2    1    2    0    0  0.00000000000E+00  0.00000000000E+00 -0.12417789082E+04  0.29829687826E+04  0.27122108880E+04 0.  0.
        5    1    3    3  502    0 -0.82590788465E+03  0.82730432417E+03 -0.13768519347E+04  0.18061837168E+04  0.46999998093E+01 0. -1.
       -5    1    3    3    0  502  0.82590788465E+03 -0.82730432417E+03  0.13507302645E+03  0.11767850658E+04  0.46999998093E+01 0.  1.
</event>
<event>
 5   0  0.3028601E-06  0.2697683E+04  0.7818609E-02  0.8335757E-01
       -1   -1    0    0    0  501  0.00000000000E+00  0.00000000000E+00  0.28984031458E+04  0.28984031458E+04  0.50400001928E-02 0. -1.
        1   -1    0    0  501    0  0.00000000000E+00  0.00000000000E+00 -0.62771564577E+03  0.62771564579E+03  0.50400001928E-02 0.  1.
    10030    2    1    2    0    0  0.00000000000E+00  0.00000000000E+00  0.22706875000E+04  0.35261187916E+04  0.26976827111E+04 0.  0.
        3    1    3    3  502    0  0.13194472316E+03  0.37444002878E+03  0.28203052884E+04  0.28481110714E+04  0.10100000352E+00 0. -1.
       -3    1    3    3    0  502 -0.13194472316E+03 -0.37444002878E+03 -0.54961778837E+03  0.67800772018E+03  0.10100000352E+00 0.  1.
</event>
<event>
 5   0  0.8407622E-06  0.2700313E+04  0.7818609E-02  0.8334903E-01
        2   -1    0    0  501    0  0.00000000000E+00  0.00000000000E+00  0.16291931459E+04  0.16291931459E+04  0.25500000920E-02 0. -1.
       -2   -1    0    0    0  501  0.00000000000E+00  0.00000000000E+00 -0.11189115788E+04  0.11189115788E+04  0.25500000920E-02 0.  1.
    10030    2    1    2    0    0  0.00000000000E+00  0.00000000000E+00  0.51028156710E+03  0.27481047248E+04  0.27003133708E+04 0.  0.
        1    1    3    3  502    0 -0.11450675117E+03 -0.91918164167E+03 -0.74454600642E+03  0.11884256149E+04  0.50400001928E-02 0.  1.
       -1    1    3    3    0  502  0.11450675117E+03  0.91918164167E+03  0.12548275735E+04  0.15596791099E+04  0.50400001928E-02 0. -1.
</event>
<event>
 5   0  0.3028601E-06  0.2755238E+04  0.7818609E-02  0.8317301E-01
        1   -1    0    0  501    0  0.00000000000E+00  0.00000000000E+00  0.16445677236E+04  0.16445677236E+04  0.50400001928E-02 0.  1.
       -1   -1    0    0    0  501  0.00000000000E+00  0.00000000000E+00 -0.11540018673E+04  0.11540018674E+04  0.50400001928E-02 0. -1.
    10030    2    1    2    0    0  0.00000000000E+00  0.00000000000E+00  0.49056585629E+03  0.27985695910E+04  0.27552380834E+04 0.  0.
        3    1    3    3  502    0 -0.53726665479E+03 -0.11701086423E+04  0.74291089944E+03  0.14865148192E+04  0.10100000352E+00 0.  1.
       -3    1    3    3    0  502  0.53726665479E+03  0.11701086423E+04 -0.25234504315E+03  0.13120547718E+04  0.10100000352E+00 0. -1.
</event>
<event>
 5   0  0.7812908E-06  0.2696633E+04  0.7818609E-02  0.8336098E-01
       -2   -1    0    0    0  501  0.00000000000E+00  0.00000000000E+00  0.11309792364E+04  0.11309792364E+04  0.25500000920E-02 0. -1.
        2   -1    0    0  501    0  0.00000000000E+00  0.00000000000E+00 -0.16074187750E+04  0.16074187750E+04  0.25500000920E-02 0.  1.
    10030    2    1    2    0    0  0.00000000000E+00  0.00000000000E+00 -0.47643953867E+03  0.27383980114E+04  0.26966329069E+04 0.  0.
        5    1    3    3  502    0 -0.80801786526E+03 -0.93020593018E+03  0.31776259993E+03  0.12724665430E+04  0.46999998093E+01 0.  1.
       -5    1    3    3    0  502  0.80801786526E+03  0.93020593018E+03 -0.79420213860E+03  0.14659314684E+04  0.46999998093E+01 0. -1.
</event>
<event>
 5   0  0.8213334E-06  0.2675080E+04  0.7818609E-02  0.8343136E-01
        2   -1    0    0  501    0  0.00000000000E+00  0.00000000000E+00  0.26258104696E+04  0.26258104696E+04  0.25500000920E-02 0. -1.
       -2   -1    0    0    0  501  0.00000000000E+00  0.00000000000E+00 -0.68131844169E+03  0.68131844170E+03  0.25500000920E-02 0.  1.
    10030    2    1    2    0    0  0.00000000000E+00  0.00000000000E+00  0.19444920279E+04  0.33071289113E+04  0.26750798847E+04 0.  0.
        3    1    3    3  502    0  0.15177188540E+03  0.69310387253E+03 -0.42948549165E+03  0.82938861884E+03  0.10100000352E+00 0.  1.
       -3    1    3    3    0  502 -0.15177188540E+03 -0.69310387253E+03  0.23739775196E+04  0.24777402925E+04  0.10100000352E+00 0. -1.
</event>
<event>
 5   0  0.8213334E-06  0.2748190E+04  0.7818609E-02  0.8319536E-01
        2   -1    0    0  501    0  0.00000000000E+00  0.00000000000E+00  0.17571683068E+04  0.17571683068E+04  0.25500000920E-02 0.  1.
       -2   -1    0    0    0  501  0.00000000000E+00  0.00000000000E+00 -0.10745342881E+04  0.10745342881E+04  0.25500000920E-02 0. -1.
    10030    2    1    2    0    0  0.00000000000E+00  0.00000000000E+00  0.68263401872E+03  0.28317025950E+04  0.27481903833E+04 0.  0.
        3    1    3    3  502    0  0.36183689200E+03 -0.24631919164E+03 -0.10007762147E+04  0.10923150290E+04  0.10100000352E+00 0. -1.
       -3    1    3    3    0  502 -0.36183689200E+03  0.24631919164E+03  0.16834102334E+04  0.17393875660E+04  0.10100000352E+00 0.  1.
</event>
<event>
 5   0  0.3199840E-06  0.2690761E+04  0.7818609E-02  0.8338009E-01
       -1   -1    0    0    0  501  0.00000000000E+00  0.00000000000E+00  0.12310747393E+04  0.12310747393E+04  0.50400001928E-02 0. -1.
        1   -1    0    0  501    0  0.00000000000E+00  0.00000000000E+00 -0.14702999258E+04  0.14702999258E+04  0.50400001928E-02 0.  1.
    10030    2    1    2    0    0  0.00000000000E+00  0.00000000000E+00 -0.23922518650E+03  0.27013746650E+04  0.26907613032E+04 0.  0.
        1    1    3    3  502    0  0.77905611826E+02 -0.30638940148E+03  0.11932554637E+04  0.12344238945E+04  0.50400001928E-02 0. -1.
       -1    1    3    3    0  502 -0.77905611826E+02  0.30638940148E+03 -0.14324806502E+04  0.14669507705E+04  0.50400001928E-02 0.  1.
</event>
<event>
 5   0  0.3013407E-06  0.2702016E+04  0.7818609E-02  0.8334351E-01
       -1   -1    0    0    0  501  0.00000000000E+00  0.00000000000E+00  0.87235310559E+03  0.87235310560E+03  0.50400001928E-02 0. -1.
        1   -1    0    0  501    0  0.00000000000E+00  0.00000000000E+00 -0.20922986232E+04  0.20922986233E+04  0.50400001928E-02 0.  1.
    10030    2    1    2    0    0  0.00000000000E+00  0.00000000000E+00 -0.12199455177E+04  0.29646517289E+04  0.27020164336E+04 0.  0.
        4    1    3    3  502    0 -0.85503439646E+03 -0.89608254645E+03 -0.17918004577E+02  0.12386970642E+04  0.12699999809E+01 0. -1.
       -4    1    3    3    0  502  0.85503439646E+03  0.89608254645E+03 -0.12020275131E+04  0.17259546646E+04  0.12699999809E+01 0.  1.
</event>
<event>
 5   0  0.3199840E-06  0.2705878E+04  0.7818609E-02  0.8333100E-01
        1   -1    0    0  501    0  0.00000000000E+00  0.00000000000E+00  0.17376477640E+04  0.17376477640E+04  0.50400001928E-02 0. -1.
       -1   -1    0    0    0  501  0.00000000000E+00  0.00000000000E+00 -0.10534035900E+04  0.10534035900E+04  0.50400001928E-02 0.  1.
    10030    2    1    2    0    0  0.00000000000E+00  0.00000000000E+00  0.68424417400E+03  0.27910513540E+04  0.27058783364E+04 0.  0.
        1    1    3    3  502    0  0.70677813335E+03  0.91467782100E+03 -0.38305361775E+03  0.12177441932E+04  0.50400001928E-02 0. -1.
       -1    1    3    3    0  502 -0.70677813335E+03 -0.91467782100E+03  0.10672977918E+04  0.15733071608E+04  0.50400001928E-02 0.  1.
</event>
<event>
 5   0  0.2654625E-06  0.2658527E+04  0.7818609E-02  0.8348588E-01
       -3   -1    0    0    0  501  0.00000000000E+00  0.00000000000E+00  0.90095210781E+03  0.90095211347E+03  0.10100000352E+00 0. -1.
        3   -1    0    0  501    0  0.00000000000E+00  0.00000000000E+00 -0.19611930243E+04  0.19611930269E+04  0.10100000352E+00 0.  1.
    10030    2    1    2    0    0  0.00000000000E+00  0.00000000000E+00 -0.10602409165E+04  0.28621451404E+04  0.26585266603E+04 0.  0.
        4    1    3    3  502    0 -0.73874368232E+01 -0.76817556467E+03  0.63776519601E+03  0.99844595774E+03  0.12699999809E+01 0. -1.
       -4    1    3    3    0  502  0.73874368232E+01  0.76817556467E+03 -0.16980061125E+04  0.18636991826E+04  0.12699999809E+01 0.  1.
</event>
<event>
 5   0  0.3089218E-06  0.2698515E+04  0.7818609E-02  0.8335487E-01
       -1   -1    0    0    0  501  0.00000000000E+00  0.00000000000E+00  0.77714287196E+03  0.77714287197E+03  0.50400001928E-02 0. -1.
        1   -1    0    0  501    0  0.00000000000E+00  0.00000000000E+00 -0.23425500101E+04  0.23425500101E+04  0.50400001928E-02 0.  1.
    10030    2    1    2    0    0  0.00000000000E+00  0.00000000000E+00 -0.15654071381E+04  0.31196928820E+04  0.26985151788E+04 0.  0.
        5    1    3    3  502    0 -0.70076479934E+03  0.46197092874E+03 -0.20039864079E+04  0.21726647363E+04  0.46999998093E+01 0.  1.
       -5    1    3    3    0  502  0.70076479934E+03 -0.46197092874E+03  0.43857926982E+03  0.94702814579E+03  0.46999998093E+01 0. -1.
</event>
<event>
 5   0  0.3013407E-06  0.2697566E+04  0.7818609E-02  0.8335795E-01
       -1   -1    0    0    0  501  0.00000000000E+00  0.00000000000E+00  0.32187327370E+04  0.32187327370E+04  0.50400001928E-02 0.  1.
        1   -1    0    0  501    0  0.00000000000E+00  0.00000000000E+00 -0.56519611550E+03  0.56519611552E+03  0.50400001928E-02 0. -1.
    10030    2    1    2    0    0  0.00000000000E+00  0.00000000000E+00  0.26535366215E+04  0.37839288525E+04  0.26975657470E+04 0.  0.
        4    1    3    3  502    0  0.12963411397E+03 -0.36613955050E+02 -0.55573601844E+03  0.57183014987E+03  0.12699999809E+01 0. -1.
       -4    1    3    3    0  502 -0.12963411397E+03  0.36613955050E+02  0.32092726400E+04  0.32120987027E+04  0.12699999809E+01 0.  1.
</event>
<event>
 5   0  0.3046300E-06  0.2692272E+04  0.7818609E-02  0.8337517E-01
        1   -1    0    0  501    0  0.00000000000E+00  0.00000000000E+00  0.25447551189E+04  0.25447551189E+04  0.50400001928E-02 0.  1.
       -1   -1    0    0    0  501  0.00000000000E+00  0.00000000000E+00 -0.71208484803E+03  0.71208484805E+03  0.50400001928E-02 0. -1.
    10030    2    1    2    0    0  0.00000000000E+00  0.00000000000E+00  0.18326702708E+04  0.32568399669E+04  0.26922715778E+04 0.  0.
        2    1    3    3  502    0  0.55439686976E+03 -0.63229515309E+03 -0.35524765868E+03  0.91288222068E+03  0.25500000920E-02 0. -1.
       -2    1    3    3    0  502 -0.55439686976E+03  0.63229515309E+03  0.21879179295E+04  0.23439577462E+04  0.25500000920E-02 0.  1.
</event>
<event>
 5   0  0.7838364E-06  0.2685410E+04  0.7818609E-02  0.8339755E-01
       -2   -1    0    0    0  501  0.00000000000E+00  0.00000000000E+00  0.12732954571E+04  0.12732954571E+04  0.25500000920E-02 0.  1.
        2   -1    0    0  501    0  0.00000000000E+00  0.00000000000E+00 -0.14158976647E+04  0.14158976647E+04  0.25500000920E-02 0. -1.
    10030    2    1    2    0    0  0.00000000000E+00  0.00000000000E+00 -0.14260220757E+03  0.26891931219E+04  0.26854095139E+04 0.  0.
        2    1    3    3  502    0  0.31083794895E+03 -0.11908280898E+04 -0.60886680641E+03  0.13731025300E+04  0.25500000920E-02 0. -1.
       -2    1    3    3    0  502 -0.31083794895E+03  0.11908280898E+04  0.46626459884E+03  0.13160905919E+04  0.25500000920E-02 0.  1.
</event>
<event>
 5   0  0.3089218E-06  0.2729645E+04  0.7818609E-02  0.8325450E-01
       -1   -1    0    0    0  501  0.00000000000E+00  0.00000000000E+00  0.10939136228E+04  0.10939136229E+04  0.50400001928E-02 0. -1.
        1   -1    0    0  501    0  0.00000000000E+00  0.00000000000E+00 -0.17028227925E+04  0.17028227925E+04  0.50400001928E-02 0.  1.
    10030    2    1    2    0    0  0.00000000000E+00  0.00000000000E+00 -0.60890916961E+03  0.27967364153E+04  0.27296454348E+04 0.  0.
        5    1    3    3  502    0  0.30712940380E+02  0.12319124512E+04 -0.90553164926E+03  0.15292355050E+04  0.46999998093E+01 0.  1.
       -5    1    3    3    0  502 -0.30712940380E+02 -0.12319124512E+04  0.29662247965E+03  0.12675009103E+04  0.46999998093E+01 0. -1.
</event>
<event>
 5   0  0.3028601E-06  0.2699915E+04  0.7818609E-02  0.8335032E-01
        1   -1    0    0  501    0  0.00000000000E+00  0.00000000000E+00  0.11288903175E+04  0.11288903175E+04  0.50400001928E-02 0.  1.
       -1   -1    0    0    0  501  0.00000000000E+00  0.00000000000E+00 -0.16143161211E+04  0.16143161211E+04  0.50400001928E-02 0. -1.
    10030    2    1    2    0    0  0.00000000000E+00  0.00000000000E+00 -0.48542580363E+03  0.27432064387E+04  0.26999154346E+04 0.  0.
        3    1    3    3  502    0 -0.36760794185E+03 -0.65235965622E+03 -0.13839672403E+04  0.15735545915E+04  0.10100000352E+00 0. -1.
       -3    1    3    3    0  502  0.36760794185E+03  0.65235965622E+03  0.89854143667E+03  0.11696518472E+04  0.10100000352E+00 0.  1.
</event>
<event>
 5   0  0.7838364E-06  0.2752001E+04  0.7818609E-02  0.8318327E-01
       -2   -1    0    0    0  501  0.00000000000E+00  0.00000000000E+00  0.12771685811E+04  0.12771685811E+04  0.25500000920E-02 0. -1.
        2   -1    0    0  501    0  0.00000000000E+00  0.00000000000E+00 -0.14824808827E+04  0.14824808827E+04  0.25500000920E-02 0.  1.
    10030    2    1    2    0    0  0.00000000000E+00  0.00000000000E+00 -0.20531230160E+03  0.27596494638E+04  0.27520014574E+04 0.  0.
        2    1    3    3  502    0  0.34809146356E+03  0.79548709473E+03 -0.11730544064E+04  0.14594601828E+04  0.25500000920E-02 0.  1.
       -2    1    3    3    0  502 -0.34809146356E+03 -0.79548709473E+03  0.96774210478E+03  0.13001892809E+04  0.25500000920E-02 0. -1.
</event>
<event>
 5   0  0.3046300E-06  0.2627506E+04  0.7818609E-02  0.8358918E-01
       -1   -1    0    0    0  501  0.00000000000E+00  0.00000000000E+00  0.74404205358E+03  0.74404205360E+03  0.50400001928E-02 0.  1.
        1   -1    0    0  501    0  0.00000000000E+00  0.00000000000E+00 -0.23196905886E+04  0.23196905886E+04  0.50400001928E-02 0. -1.
    10030    2    1    2    0    0  0.00000000000E+00  0.00000000000E+00 -0.15756485350E+04  0.30637326422E+04  0.26275063077E+04 0.  0.
        2    1    3    3  502    0  0.71889744338E+03 -0.36419465479E+03 -0.19976235442E+04  0.21540545733E+04  0.25500000920E-02 0. -1.
       -2    1    3    3    0  502 -0.71889744338E+03  0.36419465479E+03  0.42197500913E+03  0.90967806889E+03  0.25500000920E-02 0.  1.
</event>
<event>
 5   0  0.3089218E-06  0.2712715E+04  0.7818609E-02  0.8330891E-01
        1   -1    0    0  501    0  0.00000000000E+00  0.00000000000E+00  0.23259635385E+04  0.23259635385E+04  0.50400001928E-02 0. -1.
       -1   -1    0    0    0  501  0.00000000000E+00  0.00000000000E+00 -0.79094349025E+03  0.79094349027E+03  0.50400001928E-02 0.  1.
    10030    2    1    2    0    0  0.00000000000E+00  0.00000000000E+00  0.15350200482E+04  0.31169070288E+04  0.27127150380E+04 0.  0.
        5    1    3    3  502    0 -0.56071182096E+03  0.65850504224E+03  0.19680117089E+04  0.21496787697E+04  0.46999998093E+01 0. -1.
       -5    1    3    3    0  502  0.56071182096E+03 -0.65850504224E+03 -0.43299166065E+03  0.96722825900E+03  0.46999998093E+01 0.  1.
</event>
<event>
 5   0  0.8407622E-06  0.2719610E+04  0.7818609E-02  0.8328670E-01
       -2   -1    0    0    0  501  0.00000000000E+00  0.00000000000E+00  0.12079993683E+04  0.12079993683E+04  0.25500000920E-02 0.  1.
        2   -1    0    0  501    0  0.00000000000E+00  0.00000000000E+00 -0.15306878319E+04  0.15306878319E+04  0.25500000920E-02 0. -1.
    10030    2    1    2    0    0  0.00000000000E+00  0.00000000000E+00 -0.32268846367E+03  0.27386872002E+04  0.27196102176E+04 0.  0.
        1    1    3    3  502    0 -0.81369612469E+03 -0.10194118772E+04 -0.54844668990E+03  0.14149543210E+04  0.50400001928E-02 0. -1.
       -1    1    3    3    0  502  0.81369612469E+03  0.10194118772E+04  0.22575822623E+03  0.13237328792E+04  0.50400001928E-02 0.  1.
</event>
<event>
 5   0  0.7838364E-06  0.2708122E+04  0.7818609E-02  0.8332374E-01
        2   -1    0    0  501    0  0.00000000000E+00  0.00000000000E+00  0.16223412650E+04  0.16223412650E+04  0.25500000920E-02 0. -1.
       -2   -1    0    0    0  501  0.00000000000E+00  0.00000000000E+00 -0.11301454566E+04  0.11301454566E+04  0.25500000920E-02 0.  1.
    10030    2    1    2    0    0  0.00000000000E+00  0.00000000000E+00  0.49219580837E+03  0.27524867216E+04  0.27081223087E+04 0.  0.
        2    1    3    3  502    0 -0.14889862082E+03  0.13406593264E+04  0.36611441682E+03  0.13977045450E+04  0.25500000920E-02 0. -1.
       -2    1    3    3    0  502  0.14889862082E+03 -0.13406593264E+04  0.12608139155E+03  0.13547821766E+04  0.25500000920E-02 0.  1.
</event>
<event>
 5   0  0.7729970E-06  0.2714846E+04  0.7818609E-02  0.8330204E-01
        2   -1    0    0  501    0  0.00000000000E+00  0.00000000000E+00  0.13352269576E+04  0.13352269576E+04  0.25500000920E-02 0.  1.
       -2   -1    0    0    0  501  0.00000000000E+00  0.00000000000E+00 -0.13799881170E+04  0.13799881170E+04  0.25500000920E-02 0. -1.
    10030    2    1    2    0    0  0.00000000000E+00  0.00000000000E+00 -0.44761159375E+02  0.27152150746E+04  0.27148460987E+04 0.  0.
        4    1    3    3  502    0 -0.10226979645E+04 -0.89055389540E+03 -0.82375021530E+02  0.13585965642E+04  0.12699999809E+01 0. -1.
       -4    1    3    3    0  502  0.10226979645E+04  0.89055389540E+03  0.37613862156E+02  0.13566185104E+04  0.12699999809E+01 0.  1.
</event>
<event>
 5   0  0.7812908E-06  0.2840980E+04  0.7818609E-02  0.8290658E-01
       -2   -1    0    0    0  501  0.00000000000E+00  0.00000000000E+00  0.12063599692E+04  0.12063599692E+04  0.25500000920E-02 0.  1.
        2   -1    0    0  501    0  0.00000000000E+00  0.00000000000E+00 -0.16726279453E+04  0.16726279453E+04  0.25500000920E-02 0. -1.
    10030    2    1    2    0    0  0.00000000000E+00  0.00000000000E+00 -0.46626797609E+03  0.28789879146E+04  0.28409796878E+04 0.  0.
        5    1    3    3  502    0  0.11697560941E+04 -0.54125210382E+03  0.37191848749E+03  0.13415023708E+04  0.46999998093E+01 0.  1.
       -5    1    3    3    0  502 -0.11697560941E+04  0.54125210382E+03 -0.83818646358E+03  0.15374855438E+04  0.46999998093E+01 0. -1.
</event>
<event>
 5   0  0.7729970E-06  0.2702523E+04  0.7818609E-02  0.8334187E-01
       -2   -1    0    0    0  501  0.00000000000E+00  0.00000000000E+00  0.16319911694E+04  0.16319911694E+04  0.25500000920E-02 0. -1.
        2   -1    0    0  501    0  0.00000000000E+00  0.00000000000E+00 -0.11188220945E+04  0.11188220945E+04  0.25500000920E-02 0.  1.
    10030    2    1    2    0    0  0.00000000000E+00  0.00000000000E+00  0.51316907486E+03  0.27508132639E+04  0.27025231014E+04 0.  0.
        4    1    3    3  502    0 -0.95137371577E+03 -0.78531328570E+03  0.81786983659E+03  0.14801153963E+04  0.12699999809E+01 0. -1.
       -4    1    3    3    0  502  0.95137371577E+03  0.78531328570E+03 -0.30470076173E+03  0.12706978677E+04  0.12699999809E+01 0.  1.
</event>
<event>
 5   0  0.8407622E-06  0.2690171E+04  0.7818609E-02  0.8338201E-01
       -2   -1    0    0    0  501  0.00000000000E+00  0.00000000000E+00  0.14876635918E+04  0.14876635918E+04  0.25500000920E-02 0. -1.
        2   -1    0    0  501    0  0.00000000000E+00  0.00000000000E+00 -0.12161723388E+04  0.12161723388E+04  0.25500000920E-02 0.  1.
    10030    2    1    2    0    0  0.00000000000E+00  0.00000000000E+00  0.27149125296E+03  0.27038359306E+04  0.26901712286E+04 0.  0.
        1    1    3    3  502    0 -0.25028430933E+03  0.13010531184E+04  0.36903204051E+03  0.13753421754E+04  0.50400001928E-02 0. -1.
       -1    1    3    3    0  502  0.25028430933E+03 -0.13010531184E+04 -0.97540787548E+02  0.13284937552E+04  0.50400001928E-02 0.  1.
</event>
<event>
 5   0  0.3013407E-06  0.2711346E+04  0.7818609E-02  0.8331333E-01
       -1   -1    0    0    0  501  0.00000000000E+00  0.00000000000E+00  0.11502663256E+04  0.11502663256E+04  0.50400001928E-02 0.  1.
        1   -1    0    0  501    0  0.00000000000E+00  0.00000000000E+00 -0.15977596338E+04  0.15977596338E+04  0.50400001928E-02 0. -1.
    10030    2    1    2    0    0  0.00000000000E+00  0.00000000000E+00 -0.44749330827E+03  0.27480259594E+04  0.27113458674E+04 0.  0.
        4    1    3    3  502    0  0.11746684365E+03 -0.13481330424E+04 -0.14149253051E+03  0.13606185757E+04  0.12699999809E+01 0.  1.
       -4    1    3    3    0  502 -0.11746684365E+03  0.13481330424E+04 -0.30600077776E+03  0.13874073837E+04  0.12699999809E+01 0. -1.
</event>
<event>
 5   0  0.7838364E-06  0.2673511E+04  0.7818609E-02  0.8343651E-01
       -2   -1    0    0    0  501  0.00000000000E+00  0.00000000000E+00  0.21388416338E+04  0.21388416338E+04  0.25500000920E-02 0.  1.
        2   -1    0    0  501    0  0.00000000000E+00  0.00000000000E+00 -0.83545966516E+03  0.83545966517E+03  0.25500000920E-02 0. -1.
    10030    2    1    2    0    0  0.00000000000E+00  0.00000000000E+00  0.13033819686E+04  0.29743012990E+04  0.26735114851E+04 0.  0.
        2    1    3    3  502    0  0.11111905681E+04 -0.73013304952E+03  0.49803133324E+03  0.14198147617E+04  0.25500000920E-02 0.  1.
       -2    1    3    3    0  502 -0.11111905681E+04  0.73013304952E+03  0.80535063540E+03  0.15544865373E+04  0.25500000920E-02 0. -1.
</event>
<event>
 5   0  0.8213334E-06  0.2693027E+04  0.7818609E-02  0.8337271E-01
       -2   -1    0    0    0  501  0.00000000000E+00  0.00000000000E+00  0.11943290394E+04  0.11943290394E+04  0.25500000920E-02 0. -1.
        2   -1    0    0  501    0  0.00000000000E+00  0.00000000000E+00 -0.15180900878E+04  0.15180900878E+04  0.25500000920E-02 0.  1.
    10030    2    1    2    0    0  0.00000000000E+00  0.00000000000E+00 -0.32376104843E+03  0.27124191272E+04  0.26930273495E+04 0.  0.
        3    1    3    3  502    0 -0.11189480056E+04  0.38585419984E+03 -0.80850885860E+03  0.14333927192E+04  0.10100000352E+00 0.  1.
       -3    1    3    3    0  502  0.11189480056E+04 -0.38585419984E+03  0.48474781017E+03  0.12790264080E+04  0.10100000352E+00 0. -1.
</event>
<event>
 5   0  0.2654625E-06  0.2704734E+04  0.7818609E-02  0.8333471E-01
       -4   -1    0    0    0  501  0.00000000000E+00  0.00000000000E+00  0.11270063553E+04  0.11270070709E+04  0.12699999809E+01 0. -1.
        4   -1    0    0  501    0  0.00000000000E+00  0.00000000000E+00 -0.16227898625E+04  0.16227903595E+04  0.12699999809E+01 0.  1.
    10030    2    1    2    0    0  0.00000000000E+00  0.00000000000E+00 -0.49578350721E+03  0.27497974303E+04  0.27047337432E+04 0.  0.
        3    1    3    3  502    0  0.43914195099E+03  0.75125775116E+03 -0.13003506796E+04  0.15646551575E+04  0.10100000352E+00 0.  1.
       -3    1    3    3    0  502 -0.43914195099E+03 -0.75125775116E+03  0.80456717237E+03  0.11851422728E+04  0.10100000352E+00 0. -1.
</event>
<event>
 5   0  0.8407622E-06  0.2693114E+04  0.7818609E-02  0.8337243E-01
        2   -1    0    0  501    0  0.00000000000E+00  0.00000000000E+00  0.13747302362E+04  0.13747302362E+04  0.25500000920E-02 0.  1.
       -2   -1    0    0    0  501  0.00000000000E+00  0.00000000000E+00 -0.13189610144E+04  0.13189610144E+04  0.25500000920E-02 0. -1.
    10030    2    1    2    0    0  0.00000000000E+00  0.00000000000E+00  0.55769221840E+02  0.26936912506E+04  0.26931138756E+04 0.  0.
        1    1    3    3  502    0 -0.10525015238E+03 -0.15838663160E+03 -0.13054621972E+04  0.13192404890E+04  0.50400001928E-02 0. -1.
       -1    1    3    3    0  502  0.10525015238E+03  0.15838663160E+03  0.13612314190E+04  0.13744507615E+04  0.50400001928E-02 0.  1.
</event>
<event>
 5   0  0.3199840E-06  0.2705610E+04  0.7818609E-02  0.8333187E-01
       -1   -1    0    0    0  501  0.00000000000E+00  0.00000000000E+00  0.12847725128E+04  0.12847725128E+04  0.50400001928E-02 0. -1.
        1   -1    0    0  501    0  0.00000000000E+00  0.00000000000E+00 -0.14244401558E+04  0.14244401558E+04  0.50400001928E-02 0.  1.
    10030    2    1    2    0    0  0.00000000000E+00  0.00000000000E+00 -0.13966764300E+03  0.27092126686E+04  0.27056101406E+04 0.  0.
        1    1    3    3  502    0  0.39491780365E+03  0.54097125359E+03 -0.12467590127E+04  0.14152801859E+04  0.50400001928E-02 0.  1.
       -1    1    3    3    0  502 -0.39491780365E+03 -0.54097125359E+03  0.11070913697E+04  0.12939324827E+04  0.50400001928E-02 0. -1.
</event>
<event>
 5   0  0.7838364E-06  0.2695774E+04  0.7818609E-02  0.8336378E-01
        2   -1    0    0  501    0  0.00000000000E+00  0.00000000000E+00  0.15486651463E+04  0.15486651463E+04  0.25500000920E-02 0. -1.
       -2   -1    0    0    0  501  0.00000000000E+00  0.00000000000E+00 -0.11731385539E+04  0.11731385539E+04  0.25500000920E-02 0.  1.
    10030    2    1    2    0    0  0.00000000000E+00  0.00000000000E+00  0.37552659236E+03  0.27218037002E+04  0.26957735738E+04 0.  0.
        2    1    3    3  502    0  0.27193147499E+03  0.51012221261E+03  0.14171525092E+04  0.15305203798E+04  0.25500000920E-02 0. -1.
       -2    1    3    3    0  502 -0.27193147499E+03 -0.51012221261E+03 -0.10416259168E+04  0.11912833204E+04  0.25500000920E-02 0.  1.
</event>
<event>
 5   0  0.3089218E-06  0.2709987E+04  0.7818609E-02  0.8331772E-01
        1   -1    0    0  501    0  0.00000000000E+00  0.00000000000E+00  0.30644757905E+04  0.30644757905E+04  0.50400001928E-02 0.  1.
       -1   -1    0    0    0  501  0.00000000000E+00  0.00000000000E+00 -0.59912624965E+03  0.59912624968E+03  0.50400001928E-02 0. -1.
    10030    2    1    2    0    0  0.00000000000E+00  0.00000000000E+00  0.24653495408E+04  0.36636020401E+04  0.27099873708E+04 0.  0.
        5    1    3    3  502    0 -0.58271439057E+02 -0.24410310154E+02  0.30624725363E+04  0.30631277396E+04  0.46999998093E+01 0.  1.
       -5    1    3    3    0  502  0.58271439057E+02  0.24410310154E+02 -0.59712299547E+03  0.60047430051E+03  0.46999998093E+01 0. -1.
</event>
<event>
 5   0  0.7812908E-06  0.2694284E+04  0.7818609E-02  0.8336862E-01
        2   -1    0    0  501    0  0.00000000000E+00  0.00000000000E+00  0.15362881872E+04  0.15362881872E+04  0.25500000920E-02 0.  1.
       -2   -1    0    0    0  501  0.00000000000E+00  0.00000000000E+00 -0.11812830675E+04  0.11812830675E+04  0.25500000920E-02 0. -1.
    10030    2    1    2    0    0  0.00000000000E+00  0.00000000000E+00  0.35500511969E+03  0.27175712547E+04  0.26942837433E+04 0.  0.
        5    1    3    3  502    0 -0.16171815995E+03  0.38907109761E+03  0.14681088853E+04  0.15273817046E+04  0.46999998093E+01 0.  1.
       -5    1    3    3    0  502  0.16171815995E+03 -0.38907109761E+03 -0.11131037656E+04  0.11901895502E+04  0.46999998093E+01 0. -1.
</event>
<event>
 5   0  0.3013407E-06  0.2697208E+04  0.7818609E-02  0.8335911E-01
       -1   -1    0    0    0  501  0.00000000000E+00  0.00000000000E+00  0.11971906113E+04  0.11971906113E+04  0.50400001928E-02 0. -1.
        1   -1    0    0  501    0  0.00000000000E+00  0.00000000000E+00 -0.15191675954E+04  0.15191675954E+04  0.50400001928E-02 0.  1.
    10030    2    1    2    0    0  0.00000000000E+00  0.00000000000E+00 -0.32197698414E+03  0.27163582068E+04  0.26972083214E+04 0.  0.
        4    1    3    3  502    0 -0.48545664662E+03  0.12561203352E+04 -0.88190305112E+02  0.13495501455E+04  0.12699999809E+01 0.  1.
       -4    1    3    3    0  502  0.48545664662E+03 -0.12561203352E+04 -0.23378667903E+03  0.13668080613E+04  0.12699999809E+01 0. -1.
</event>
<event>
 5   0  0.7729970E-06  0.2719842E+04  0.7818609E-02  0.8328596E-01
        2   -1    0    0  501    0  0.00000000000E+00  0.00000000000E+00  0.17652160132E+04  0.17652160132E+04  0.25500000920E-02 0. -1.
       -2   -1    0    0    0  501  0.00000000000E+00  0.00000000000E+00 -0.10476818533E+04  0.10476818533E+04  0.25500000920E-02 0.  1.
    10030    2    1    2    0    0  0.00000000000E+00  0.00000000000E+00  0.71753415988E+03  0.28128978665E+04  0.27198417485E+04 0.  0.
        4    1    3    3  502    0 -0.55424412567E+03 -0.59471671141E+03  0.14862539732E+04  0.16940563755E+04  0.12699999809E+01 0. -1.
       -4    1    3    3    0  502  0.55424412567E+03  0.59471671141E+03 -0.76871981331E+03  0.11188414910E+04  0.12699999809E+01 0.  1.
</event>
<event>
 5   0  0.3199840E-06  0.2695390E+04  0.7818609E-02  0.8336502E-01
        1   -1    0    0  501    0  0.00000000000E+00  0.00000000000E+00  0.52369861440E+03  0.52369861442E+03  0.50400001928E-02 0. -1.
       -1   -1    0    0    0  501  0.00000000000E+00  0.00000000000E+00 -0.34681812219E+04  0.34681812219E+04  0.50400001928E-02 0.  1.
    10030    2    1    2    0    0  0.00000000000E+00  0.00000000000E+00 -0.29444826075E+04  0.39918798363E+04  0.26953899165E+04 0.  0.
        1    1    3    3  502    0  0.88787714444E+03 -0.36903855125E+03 -0.73680286466E+02  0.96433607242E+03  0.50400001928E-02 0. -1.
       -1    1    3    3    0  502 -0.88787714444E+03  0.36903855125E+03 -0.28708023210E+04  0.30275437639E+04  0.50400001928E-02 0.  1.
</event>
<event>
 5   0  0.8407622E-06  0.2591170E+04  0.7818609E-02  0.8371207E-01
       -2   -1    0    0    0  501  0.00000000000E+00  0.00000000000E+00  0.97021922364E+03  0.97021922364E+03  0.25500000920E-02 0.  1.
        2   -1    0    0  501    0  0.00000000000E+00  0.00000000000E+00 -0.17300632837E+04  0.17300632837E+04  0.25500000920E-02 0. -1.
    10030    2    1    2    0    0  0.00000000000E+00  0.00000000000E+00 -0.75984406001E+03  0.27002825073E+04  0.25911701263E+04 0.  0.
        1    1    3    3  502    0 -0.37563632918E+03 -0.90425920919E+03  0.50418552818E+03  0.11013584412E+04  0.50400001928E-02 0.  1.
       -1    1    3    3    0  502  0.37563632918E+03  0.90425920919E+03 -0.12640295882E+04  0.15989240661E+04  0.50400001928E-02 0. -1.
</event>
<event>
 5   0  0.3013407E-06  0.2719682E+04  0.7818609E-02  0.8328647E-01
       -1   -1    0    0    0  501  0.00000000000E+00  0.00000000000E+00  0.94188796344E+03  0.94188796346E+03  0.50400001928E-02 0. -1.
        1   -1    0    0  501    0  0.00000000000E+00  0.00000000000E+00 -0.19632568788E+04  0.19632568788E+04  0.50400001928E-02 0.  1.
    10030    2    1    2    0    0  0.00000000000E+00  0.00000000000E+00 -0.10213689153E+04  0.29051448422E+04  0.27196823515E+04 0.  0.
        4    1    3    3  502    0  0.70874418564E+03 -0.31185301910E+03  0.68339817710E+03  0.10327658532E+04  0.12699999809E+01 0. -1.
       -4    1    3    3    0  502 -0.70874418564E+03  0.31185301910E+03 -0.17047670924E+04  0.18723789890E+04  0.12699999809E+01 0.  1.
</event>
<event>
 5   0  0.8213334E-06  0.2699053E+04  0.7818609E-02  0.8335312E-01
       -2   -1    0    0    0  501  0.00000000000E+00  0.00000000000E+00  0.13764212187E+04  0.13764212187E+04  0.25500000920E-02 0.  1.
        2   -1    0    0  501    0  0.00000000000E+00  0.00000000000E+00 -0.13231572510E+04  0.13231572510E+04  0.25500000920E-02 0. -1.
    10030    2    1    2    0    0  0.00000000000E+00  0.00000000000E+00  0.53263967726E+02  0.26995784698E+04  0.26990529569E+04 0.  0.
        3    1    3    3  502    0  0.10408171129E+04 -0.55688210273E+03  0.68082642920E+03  0.13626968026E+04  0.10100000352E+00 0. -1.
       -3    1    3    3    0  502 -0.10408171129E+04  0.55688210273E+03 -0.62756246148E+03  0.13368816672E+04  0.10100000352E+00 0.  1.
</event>
<event>
 5   0  0.3028601E-06  0.2712936E+04  0.7818609E-02  0.8330820E-01
        1   -1    0    0  501    0  0.00000000000E+00  0.00000000000E+00  0.16976120187E+04  0.16976120187E+04  0.50400001928E-02 0.  1.
       -1   -1    0    0    0  501  0.00000000000E+00  0.00000000000E+00 -0.10838787768E+04  0.10838787768E+04  0.50400001928E-02 0. -1.
    10030    2    1    2    0    0  0.00000000000E+00  0.00000000000E+00  0.61373324189E+03  0.27814907955E+04  0.27129361498E+04 0.  0.
        3    1    3    3  502    0 -0.47751136804E+03 -0.12112725065E+04 -0.83285064213E+02  0.13046588074E+04  0.10100000352E+00 0.  1.
       -3    1    3    3    0  502  0.47751136804E+03  0.12112725065E+04  0.69701830610E+03  0.14768319881E+04  0.10100000352E+00 0. -1.
</event>
<event>
 5   0  0.8407622E-06  0.2705006E+04  0.7818609E-02  0.8333382E-01
       -2   -1    0    0    0  501  0.00000000000E+00  0.00000000000E+00  0.15965186563E+04  0.15965186563E+04  0.25500000920E-02 0. -1.
        2   -1    0    0  501    0  0.00000000000E+00  0.00000000000E+00 -0.11457833682E+04  0.11457833682E+04  0.25500000920E-02 0.  1.
    10030    2    1    2    0    0  0.00000000000E+00  0.00000000000E+00  0.45073528806E+03  0.27423020245E+04  0.27050061172E+04 0.  0.
        1    1    3    3  502    0  0.22202208020E+03 -0.73500563452E+02  0.15758639572E+04  0.15931237707E+04  0.50400001928E-02 0. -1.
       -1    1    3    3    0  502 -0.22202208020E+03  0.73500563452E+02 -0.11251286692E+04  0.11491782539E+04  0.50400001928E-02 0.  1.
</event>
<event>
 5   0  0.3013407E-06  0.2718519E+04  0.7818609E-02  0.8329021E-01
       -1   -1    0    0    0  501  0.00000000000E+00  0.00000000000E+00  0.82326255424E+03  0.82326255426E+03  0.50400001928E-02 0. -1.
        1   -1    0    0  501    0  0.00000000000E+00  0.00000000000E+00 -0.22442244371E+04  0.22442244371E+04  0.50400001928E-02 0.  1.
    10030    2    1    2    0    0  0.00000000000E+00  0.00000000000E+00 -0.14209618828E+04  0.30674869913E+04  0.27185186719E+04 0.  0.
        4    1    3    3  502    0 -0.12352148583E+04 -0.53714767436E+03 -0.50457030496E+03  0.14383588481E+04  0.12699999809E+01 0. -1.
       -4    1    3    3    0  502  0.12352148583E+04  0.53714767436E+03 -0.91639157787E+03  0.16291281433E+04  0.12699999809E+01 0.  1.
</event>
<event>
 5   0  0.8213334E-06  0.2714125E+04  0.7818609E-02  0.8330436E-01
        2   -1    0    0  501    0  0.00000000000E+00  0.00000000000E+00  0.15426912992E+04  0.15426912992E+04  0.25500000920E-02 0. -1.
       -2   -1    0    0    0  501  0.00000000000E+00  0.00000000000E+00 -0.11937699548E+04  0.11937699548E+04  0.25500000920E-02 0.  1.
    10030    2    1    2    0    0  0.00000000000E+00  0.00000000000E+00  0.34892134439E+03  0.27364612541E+04  0.27141249217E+04 0.  0.
        3    1    3    3  502    0 -0.73515089170E+03 -0.19588632732E+03 -0.95853120393E+03  0.12237648328E+04  0.10100000352E+00 0.  1.
       -3    1    3    3    0  502  0.73515089170E+03  0.19588632732E+03  0.13074525483E+04  0.15126964213E+04  0.10100000352E+00 0. -1.
</event>
<event>
 5   0  0.3013407E-06  0.2694903E+04  0.7818609E-02  0.8336661E-01
       -1   -1    0    0    0  501  0.00000000000E+00  0.00000000000E+00  0.14146128829E+04  0.14146128829E+04  0.50400001928E-02 0. -1.
        1   -1    0    0  501    0  0.00000000000E+00  0.00000000000E+00 -0.12834791180E+04  0.12834791180E+04  0.50400001928E-02 0.  1.
    10030    2    1    2    0    0  0.00000000000E+00  0.00000000000E+00  0.13113376489E+03  0.26980920009E+04  0.26949034084E+04 0.  0.
        4    1    3    3  502    0  0.73234447941E+03 -0.66342245013E+03 -0.85157741730E+03  0.13044705801E+04  0.12699999809E+01 0.  1.
       -4    1    3    3    0  502 -0.73234447941E+03  0.66342245013E+03  0.98271118219E+03  0.13936214207E+04  0.12699999809E+01 0. -1.
</event>
<event>
 5   0  0.2654625E-06  0.2696064E+04  0.7818609E-02  0.8336283E-01
       -3   -1    0    0    0  501  0.00000000000E+00  0.00000000000E+00  0.11055632542E+04  0.11055632588E+04  0.10100000352E+00 0.  1.
        3   -1    0    0  501    0  0.00000000000E+00  0.00000000000E+00 -0.16436784083E+04  0.16436784114E+04  0.10100000352E+00 0. -1.
    10030    2    1    2    0    0  0.00000000000E+00  0.00000000000E+00 -0.53811515410E+03  0.27492416702E+04  0.26960641391E+04 0.  0.
        4    1    3    3  502    0  0.35586779064E+03 -0.96374762657E+03  0.62093289901E+03  0.12004210303E+04  0.12699999809E+01 0.  1.
       -4    1    3    3    0  502 -0.35586779064E+03  0.96374762657E+03 -0.11590480531E+04  0.15488206399E+04  0.12699999809E+01 0. -1.
</event>
<event>
 5   0  0.3013407E-06  0.2698662E+04  0.7818609E-02  0.8335439E-01
       -1   -1    0    0    0  501  0.00000000000E+00  0.00000000000E+00  0.10236183087E+04  0.10236183087E+04  0.50400001928E-02 0. -1.
        1   -1    0    0  501    0  0.00000000000E+00  0.00000000000E+00 -0.17786840066E+04  0.17786840066E+04  0.50400001928E-02 0.  1.
    10030    2    1    2    0    0  0.00000000000E+00  0.00000000000E+00 -0.75506569799E+03  0.28023023153E+04  0.26986615309E+04 0.  0.
        4    1    3    3  502    0 -0.16894598347E+03  0.74606420185E+03  0.77670286748E+03  0.10901483825E+04  0.12699999809E+01 0. -1.
       -4    1    3    3    0  502  0.16894598347E+03 -0.74606420185E+03 -0.15317685655E+04  0.17121539328E+04  0.12699999809E+01 0.  1.
</event>
<event>
 5   0  0.3089218E-06  0.2720646E+04  0.7818609E-02  0.8328337E-01
        1   -1    0    0  501    0  0.00000000000E+00  0.00000000000E+00  0.20782980305E+04  0.20782980305E+04  0.50400001928E-02 0. -1.
       -1   -1    0    0    0  501  0.00000000000E+00  0.00000000000E+00 -0.89038193854E+03  0.89038193855E+03  0.50400001928E-02 0.  1.
    10030    2    1    2    0    0  0.00000000000E+00  0.00000000000E+00  0.11879160919E+04  0.29686799690E+04  0.27206462683E+04 0.  0.
        5    1    3    3  502    0 -0.44693935343E+03  0.12222665155E+04  0.10259923550E+04  0.16572183390E+04  0.46999998093E+01 0. -1.
       -5    1    3    3    0  502  0.44693935343E+03 -0.12222665155E+04  0.16192373695E+03  0.13114616301E+04  0.46999998093E+01 0.  1.
</event>
<event>
 5   0  0.7838364E-06  0.2679634E+04  0.7818609E-02  0.8341643E-01
        2   -1    0    0  501    0  0.00000000000E+00  0.00000000000E+00  0.11848471773E+04  0.11848471773E+04  0.25500000920E-02 0. -1.
       -2   -1    0    0    0  501  0.00000000000E+00  0.00000000000E+00 -0.15150558158E+04  0.15150558158E+04  0.25500000920E-02 0.  1.
    10030    2    1    2    0    0  0.00000000000E+00  0.00000000000E+00 -0.33020863854E+03  0.26999029931E+04  0.26796340099E+04 0.  0.
        2    1    3    3  502    0 -0.58299580295E+03 -0.10669777917E+04 -0.73219723829E+03  0.14193091665E+04  0.25500000920E-02 0.  1.
       -2    1    3    3    0  502  0.58299580295E+03  0.10669777917E+04  0.40198859976E+03  0.12805938266E+04  0.25500000920E-02 0. -1.
</event>
<event>
 5   0  0.7729970E-06  0.2682777E+04  0.7818609E-02  0.8340615E-01
       -2   -1    0    0    0  501  0.00000000000E+00  0.00000000000E+00  0.93353705845E+03  0.93353705845E+03  0.25500000920E-02 0. -1.
        2   -1    0    0  501    0  0.00000000000E+00  0.00000000000E+00 -0.19274252283E+04  0.19274252283E+04  0.25500000920E-02 0.  1.
    10030    2    1    2    0    0  0.00000000000E+00  0.00000000000E+00 -0.99388816984E+03  0.28609622867E+04  0.26827768286E+04 0.  0.
        4    1    3    3  502    0 -0.56581839245E+03 -0.10632727532E+04  0.13271416331E+03  0.12117400971E+04  0.12699999809E+01 0. -1.
       -4    1    3    3    0  502  0.56581839245E+03  0.10632727532E+04 -0.11266023331E+04  0.16492221896E+04  0.12699999809E+01 0.  1.
</event>
<event>
 5   0  0.7812908E-06  0.2724119E+04  0.7818609E-02  0.8327221E-01
        2   -1    0    0  501    0  0.00000000000E+00  0.00000000000E+00  0.25284288159E+04  0.25284288159E+04  0.25500000920E-02 0. -1.
       -2   -1    0    0    0  501  0.00000000000E+00  0.00000000000E+00 -0.73373861544E+03  0.73373861544E+03  0.25500000920E-02 0.  1.
    10030    2    1    2    0    0  0.00000000000E+00  0.00000000000E+00  0.17946902004E+04  0.32621674313E+04  0.27241188363E+04 0.  0.
        5    1    3    3  502    0  0.66567367449E+03 -0.50367836497E+03 -0.39150951215E+03  0.92201687856E+03  0.46999998093E+01 0.  1.
       -5    1    3    3    0  502 -0.66567367449E+03  0.50367836497E+03  0.21861997126E+04  0.23401505528E+04  0.46999998093E+01 0. -1.
</event>
<event>
 5   0  0.2654625E-06  0.2721888E+04  0.7818609E-02  0.8327938E-01
       -4   -1    0    0    0  501  0.00000000000E+00  0.00000000000E+00  0.13946259863E+04  0.13946265645E+04  0.12699999809E+01 0.  1.
        4   -1    0    0  501    0  0.00000000000E+00  0.00000000000E+00 -0.13280742792E+04  0.13280748864E+04  0.12699999809E+01 0. -1.
    10030    2    1    2    0    0  0.00000000000E+00  0.00000000000E+00  0.66551707093E+02  0.27227014509E+04  0.27218879589E+04 0.  0.
        2    1    3    3  502    0 -0.11696003719E+04 -0.14214173318E+03  0.71465431348E+03  0.13780058382E+04  0.25500000920E-02 0. -1.
       -2    1    3    3    0  502  0.11696003719E+04  0.14214173318E+03 -0.64810260639E+03  0.13446956127E+04  0.25500000920E-02 0.  1.
</event>
<event>
 5   0  0.3013407E-06  0.2589537E+04  0.7818609E-02  0.8371764E-01
       -1   -1    0    0    0  501  0.00000000000E+00  0.00000000000E+00  0.10826094420E+04  0.10826094420E+04  0.50400001928E-02 0.  1.
        1   -1    0    0  501    0  0.00000000000E+00  0.00000000000E+00 -0.15485037884E+04  0.15485037884E+04  0.50400001928E-02 0. -1.
    10030    2    1    2    0    0  0.00000000000E+00  0.00000000000E+00 -0.46589434634E+03  0.26311132304E+04  0.25895365009E+04 0.  0.
        4    1    3    3  502    0  0.63364515330E+03 -0.10981092172E+04  0.34090303270E+02  0.12682719719E+04  0.12699999809E+01 0.  1.
       -4    1    3    3    0  502 -0.63364515330E+03  0.10981092172E+04 -0.49998464961E+03  0.13628412585E+04  0.12699999809E+01 0. -1.
</event>
<event>
 5   0  0.3199840E-06  0.2591233E+04  0.7818609E-02  0.8371185E-01
        1   -1    0    0  501    0  0.00000000000E+00  0.00000000000E+00  0.26814696518E+04  0.26814696518E+04  0.50400001928E-02 0. -1.
       -1   -1    0    0    0  501  0.00000000000E+00  0.00000000000E+00 -0.62600820508E+03  0.62600820510E+03  0.50400001928E-02 0.  1.
    10030    2    1    2    0    0  0.00000000000E+00  0.00000000000E+00  0.20554614467E+04  0.33074778569E+04  0.25912329141E+04 0.  0.
        1    1    3    3  502    0  0.86827957767E+03 -0.25078981653E+03  0.22126752899E+04  0.23901332381E+04  0.50400001928E-02 0. -1.
       -1    1    3    3    0  502 -0.86827957767E+03  0.25078981653E+03 -0.15721384325E+03  0.91734461878E+03  0.50400001928E-02 0.  1.
</event>
<event>
 5   0  0.8213334E-06  0.2706132E+04  0.7818609E-02  0.8333018E-01
        2   -1    0    0  501    0  0.00000000000E+00  0.00000000000E+00  0.24381938508E+04  0.24381938508E+04  0.25500000920E-02 0.  1.
       -2   -1    0    0    0  501  0.00000000000E+00  0.00000000000E+00 -0.75087875686E+03  0.75087875686E+03  0.25500000920E-02 0. -1.
    10030    2    1    2    0    0  0.00000000000E+00  0.00000000000E+00  0.16873150939E+04  0.31890726076E+04  0.27061322715E+04 0.  0.
        3    1    3    3  502    0 -0.20188088681E+03  0.13212713141E+04  0.59569239713E+03  0.14633397487E+04  0.10100000352E+00 0.  1.
       -3    1    3    3    0  502  0.20188088681E+03 -0.13212713141E+04  0.10916226968E+04  0.17257328589E+04  0.10100000352E+00 0. -1.
</event>
<event>
 5   0  0.8407622E-06  0.2717747E+04  0.7818609E-02  0.8329270E-01
       -2   -1    0    0    0  501  0.00000000000E+00  0.00000000000E+00  0.21084020051E+04  0.21084020051E+04  0.25500000920E-02 0.  1.
        2   -1    0    0  501    0  0.00000000000E+00  0.00000000000E+00 -0.87579930806E+03  0.87579930806E+03  0.25500000920E-02 0. -1.
    10030    2    1    2    0    0  0.00000000000E+00  0.00000000000E+00  0.12326026970E+04  0.29842013132E+04  0.27177468736E+04 0.  0.
        1    1    3    3  502    0  0.99900534344E+03  0.83664235107E+03  0.10395178847E+04  0.16669071757E+04  0.50400001928E-02 0.  1.
       -1    1    3    3    0  502 -0.99900534344E+03 -0.83664235107E+03  0.19308481239E+03  0.13172941375E+04  0.50400001928E-02 0. -1.
</event>
<event>
 5   0  0.7812908E-06  0.2633187E+04  0.7818609E-02  0.8357015E-01
        2   -1    0    0  501    0  0.00000000000E+00  0.00000000000E+00  0.14688336231E+04  0.14688336231E+04  0.25500000920E-02 0. -1.
       -2   -1    0    0    0  501  0.00000000000E+00  0.00000000000E+00 -0.11801327774E+04  0.11801327774E+04  0.25500000920E-02 0.  1.
    10030    2    1    2    0    0  0.00000000000E+00  0.00000000000E+00  0.28870084575E+03  0.26489664005E+04  0.26331871967E+04 0.  0.
        5    1    3    3  502    0 -0.39691526281E+02 -0.86684456784E+03  0.11404362043E+04  0.14330428285E+04  0.46999998093E+01 0. -1.
       -5    1    3    3    0  502  0.39691526281E+02  0.86684456784E+03 -0.85173535858E+03  0.12159235721E+04  0.46999998093E+01 0.  1.
</event>
<event>
 5   0  0.3028601E-06  0.2693081E+04  0.7818609E-02  0.8337253E-01
        1   -1    0    0  501    0  0.00000000000E+00  0.00000000000E+00  0.14935001754E+04  0.14935001754E+04  0.50400001928E-02 0. -1.
       -1   -1    0    0    0  501  0.00000000000E+00  0.00000000000E+00 -0.12140416339E+04  0.12140416339E+04  0.50400001928E-02 0.  1.
    10030    2    1    2    0    0  0.00000000000E+00  0.00000000000E+00  0.27945854152E+03  0.27075418094E+04  0.26930810558E+04 0.  0.
        3    1    3    3  502    0 -0.10934408125E+04 -0.50122369310E+03  0.74823405137E+03  0.14165776388E+04  0.10100000352E+00 0. -1.
       -3    1    3    3    0  502  0.10934408125E+04  0.50122369310E+03 -0.46877550986E+03  0.12909641706E+04  0.10100000352E+00 0.  1.
</event>
<event>
 5   0  0.7838364E-06  0.2702826E+04  0.7818609E-02  0.8334089E-01
       -2   -1    0    0    0  501  0.00000000000E+00  0.00000000000E+00  0.17518335819E+04  0.17518335819E+04  0.25500000920E-02 0.  1.
        2   -1    0    0  501    0  0.00000000000E+00  0.00000000000E+00 -0.10425172415E+04  0.10425172415E+04  0.25500000920E-02 0. -1.
    10030    2    1    2    0    0  0.00000000000E+00  0.00000000000E+00  0.70931634039E+03  0.27943508235E+04  0.27028257165E+04 0.  0.
        2    1    3    3  502    0 -0.26503436082E+02 -0.43131239312E+03 -0.96916418279E+03  0.10611371381E+04  0.25500000920E-02 0. -1.
       -2    1    3    3    0  502  0.26503436082E+02  0.43131239312E+03  0.16784805232E+04  0.17332136854E+04  0.25500000920E-02 0.  1.
</event>
<event>
 5   0  0.3199840E-06  0.2699175E+04  0.7818609E-02  0.8335273E-01
        1   -1    0    0  501    0  0.00000000000E+00  0.00000000000E+00  0.23484395866E+04  0.23484395866E+04  0.50400001928E-02 0. -1.
       -1   -1    0    0    0  501  0.00000000000E+00  0.00000000000E+00 -0.77557332114E+03  0.77557332115E+03  0.50400001928E-02 0.  1.
    10030    2    1    2    0    0  0.00000000000E+00  0.00000000000E+00  0.15728662655E+04  0.31240129078E+04  0.26991754961E+04 0.  0.
        1    1    3    3  502    0 -0.18793436792E+03 -0.81737296746E+03 -0.43732788686E+03  0.94587185984E+03  0.50400001928E-02 0.  1.
       -1    1    3    3    0  502  0.18793436792E+03  0.81737296746E+03  0.20101941523E+04  0.21781410479E+04  0.50400001928E-02 0. -1.
</event>
<event>
 5   0  0.8213334E-06  0.2711656E+04  0.7818609E-02  0.8331233E-01
        2   -1    0    0  501    0  0.00000000000E+00  0.00000000000E+00  0.25737667830E+04  0.25737667830E+04  0.25500000920E-02 0. -1.
       -2   -1    0    0    0  501  0.00000000000E+00  0.00000000000E+00 -0.71423335019E+03  0.71423335019E+03  0.25500000920E-02 0.  1.
    10030    2    1    2    0    0  0.00000000000E+00  0.00000000000E+00  0.18595334328E+04  0.32880001332E+04  0.27116563735E+04 0.  0.
        3    1    3    3  502    0  0.10266885916E+04  0.67331155416E+03  0.16271973597E+04  0.20384330184E+04  0.10100000352E+00 0. -1.
       -3    1    3    3    0  502 -0.10266885916E+04 -0.67331155416E+03  0.23233607310E+03  0.12495671147E+04  0.10100000352E+00 0.  1.
</event>
<event>
 5   0  0.7838364E-06  0.2673625E+04  0.7818609E-02  0.8343614E-01
       -2   -1    0    0    0  501  0.00000000000E+00  0.00000000000E+00  0.90390007124E+03  0.90390007125E+03  0.25500000920E-02 0. -1.
        2   -1    0    0  501    0  0.00000000000E+00  0.00000000000E+00 -0.19770635312E+04  0.19770635312E+04  0.25500000920E-02 0.  1.
    10030    2    1    2    0    0  0.00000000000E+00  0.00000000000E+00 -0.10731634600E+04  0.28809636025E+04  0.26736251545E+04 0.  0.
        2    1    3    3  502    0  0.26713565284E+03 -0.12867380944E+04 -0.80055165197E+03  0.15388110111E+04  0.25500000920E-02 0.  1.
       -2    1    3    3    0  502 -0.26713565284E+03  0.12867380944E+04 -0.27261180802E+03  0.13421525913E+04  0.25500000920E-02 0. -1.
</event>
<event>
 5   0  0.3199840E-06  0.2701476E+04  0.7818609E-02  0.8334526E-01
       -1   -1    0    0    0  501  0.00000000000E+00  0.00000000000E+00  0.11277652309E+04  0.11277652309E+04  0.50400001928E-02 0.  1.
        1   -1    0    0  501    0  0.00000000000E+00  0.00000000000E+00 -0.16177949296E+04  0.16177949296E+04  0.50400001928E-02 0. -1.
    10030    2    1    2    0    0  0.00000000000E+00  0.00000000000E+00 -0.49002969865E+03  0.27455601605E+04  0.27014757984E+04 0.  0.
        1    1    3    3  502    0  0.20021480153E+03  0.48613093509E+03 -0.15095388913E+04  0.15984733082E+04  0.50400001928E-02 0. -1.
       -1    1    3    3    0  502 -0.20021480153E+03 -0.48613093509E+03  0.10195091926E+04  0.11470868523E+04  0.50400001928E-02 0.  1.
</event>
<event>
 5   0  0.7812908E-06  0.2685151E+04  0.7818609E-02  0.8339839E-01
       -2   -1    0    0    0  501  0.00000000000E+00  0.00000000000E+00  0.20110685626E+04  0.20110685626E+04  0.25500000920E-02 0.  1.
        2   -1    0    0  501    0  0.00000000000E+00  0.00000000000E+00 -0.89629410568E+03  0.89629410568E+03  0.25500000920E-02 0. -1.
    10030    2    1    2    0    0  0.00000000000E+00  0.00000000000E+00  0.11147744570E+04  0.29073626683E+04  0.26851509446E+04 0.  0.
        5    1    3    3  502    0  0.44373897028E+03  0.72428439107E+03 -0.56836360895E+03  0.10220329911E+04  0.46999998093E+01 0. -1.
       -5    1    3    3    0  502 -0.44373897028E+03 -0.72428439107E+03  0.16831380659E+04  0.18853296772E+04  0.46999998093E+01 0.  1.
</event>
<event>
 5   0  0.7838364E-06  0.2706945E+04  0.7818609E-02  0.8332755E-01
       -2   -1    0    0    0  501  0.00000000000E+00  0.00000000000E+00  0.10873076019E+04  0.10873076019E+04  0.25500000920E-02 0.  1.
        2   -1    0    0  501    0  0.00000000000E+00  0.00000000000E+00 -0.16847921347E+04  0.16847921347E+04  0.25500000920E-02 0. -1.
    10030    2    1    2    0    0  0.00000000000E+00  0.00000000000E+00 -0.59748453275E+03  0.27720997366E+04  0.27069446213E+04 0.  0.
        2    1    3    3  502    0  0.70719598549E+02 -0.42297402774E+03  0.10158931194E+04  0.11026999228E+04  0.25500000920E-02 0.  1.
       -2    1    3    3    0  502 -0.70719598549E+02  0.42297402774E+03 -0.16133776521E+04  0.16693998138E+04  0.25500000920E-02 0. -1.
</event>
<event>
 5   0  0.7812908E-06  0.2701465E+04  0.7818609E-02  0.8334530E-01
        2   -1    0    0  501    0  0.00000000000E+00  0.00000000000E+00  0.11984656659E+04  0.11984656659E+04  0.25500000920E-02 0.  1.
       -2   -1    0    0    0  501  0.00000000000E+00  0.00000000000E+00 -0.15223452762E+04  0.15223452763E+04  0.25500000920E-02 0. -1.
    10030    2    1    2    0    0  0.00000000000E+00  0.00000000000E+00 -0.32387961039E+03  0.27208109421E+04  0.27014651915E+04 0.  0.
        5    1    3    3  502    0  0.23121738663E+03 -0.94053953328E+02  0.11750259465E+04  0.12012558807E+04  0.46999998093E+01 0.  1.
       -5    1    3    3    0  502 -0.23121738663E+03  0.94053953328E+02 -0.14989055569E+04  0.15195550614E+04  0.46999998093E+01 0. -1.
</event>
<event>
 5   0  0.3199840E-06  0.2690317E+04  0.7818609E-02  0.8338154E-01
        1   -1    0    0  501    0  0.00000000000E+00  0.00000000000E+00  0.19062866328E+04  0.19062866328E+04  0.50400001928E-02 0. -1.
       -1   -1    0    0    0  501  0.00000000000E+00  0.00000000000E+00 -0.94920201559E+03  0.94920201560E+03  0.50400001928E-02 0.  1.
    10030    2    1    2    0    0  0.00000000000E+00  0.00000000000E+00  0.95708461723E+03  0.28554886484E+04  0.26903167949E+04 0.  0.
        1    1    3    3  502    0  0.95456177319E+03  0.10540079296E+03  0.14782578113E+04  0.17628226408E+04  0.50400001928E-02 0. -1.
       -1    1    3    3    0  502 -0.95456177319E+03 -0.10540079296E+03 -0.52117319412E+03  0.10926660077E+04  0.50400001928E-02 0.  1.
</event>
<event>
 5   0  0.7729970E-06  0.2702042E+04  0.7818609E-02  0.8334343E-01
        2   -1    0    0  501    0  0.00000000000E+00  0.00000000000E+00  0.16097314518E+04  0.16097314518E+04  0.25500000920E-02 0.  1.
       -2   -1    0    0    0  501  0.00000000000E+00  0.00000000000E+00 -0.11338899030E+04  0.11338899030E+04  0.25500000920E-02 0. -1.
    10030    2    1    2    0    0  0.00000000000E+00  0.00000000000E+00  0.47584154883E+03  0.27436213548E+04  0.27020423681E+04 0.  0.
        4    1    3    3  502    0 -0.75386607020E+03 -0.11183085209E+04  0.15714394951E+03  0.13578011023E+04  0.12699999809E+01 0. -1.
       -4    1    3    3    0  502  0.75386607020E+03  0.11183085209E+04  0.31869759933E+03  0.13858202525E+04  0.12699999809E+01 0.  1.
</event>
<event>
 5   0  0.8213334E-06  0.2702815E+04  0.7818609E-02  0.8334092E-01
        2   -1    0    0  501    0  0.00000000000E+00  0.00000000000E+00  0.82187125592E+03  0.82187125592E+03  0.25500000920E-02 0. -1.
       -2   -1    0    0    0  501  0.00000000000E+00  0.00000000000E+00 -0.22221264745E+04  0.22221264745E+04  0.25500000920E-02 0.  1.
    10030    2    1    2    0    0  0.00000000000E+00  0.00000000000E+00 -0.14002552186E+04  0.30439977304E+04  0.27028147376E+04 0.  0.
        3    1    3    3  502    0 -0.12109103802E+03  0.41200727649E+03 -0.21432392179E+04  0.21858379150E+04  0.10100000352E+00 0.  1.
       -3    1    3    3    0  502  0.12109103802E+03 -0.41200727649E+03  0.74298399931E+03  0.85815981542E+03  0.10100000352E+00 0. -1.
</event>
<event>
 5   0  0.7812908E-06  0.2691427E+04  0.7818609E-02  0.8337792E-01
        2   -1    0    0  501    0  0.00000000000E+00  0.00000000000E+00  0.14865997006E+04  0.14865997006E+04  0.25500000920E-02 0.  1.
       -2   -1    0    0    0  501  0.00000000000E+00  0.00000000000E+00 -0.12181791303E+04  0.12181791303E+04  0.25500000920E-02 0. -1.
    10030    2    1    2    0    0  0.00000000000E+00  0.00000000000E+00  0.26842057030E+03  0.27047788308E+04  0.26914269303E+04 0.  0.
        5    1    3    3  502    0 -0.34143873539E+03  0.12844642621E+04 -0.77771655369E+02  0.13313524594E+04  0.46999998093E+01 0.  1.
       -5    1    3    3    0  502  0.34143873539E+03 -0.12844642621E+04  0.34619222567E+03  0.13734263715E+04  0.46999998093E+01 0. -1.
</event>
<event>
 5   0  0.8213334E-06  0.2522165E+04  0.7818609E-02  0.8395132E-01
       -2   -1    0    0    0  501  0.00000000000E+00  0.00000000000E+00  0.11109121445E+04  0.11109121445E+04  0.25500000920E-02 0.  1.
        2   -1    0    0  501    0  0.00000000000E+00  0.00000000000E+00 -0.14315521581E+04  0.14315521581E+04  0.25500000920E-02 0. -1.
    10030    2    1    2    0    0  0.00000000000E+00  0.00000000000E+00 -0.32064001361E+03  0.25424643027E+04  0.25221646877E+04 0.  0.
        3    1    3    3  502    0 -0.57399261157E+03  0.10298623589E+04 -0.61140866439E+03  0.13281206878E+04  0.10100000352E+00 0. -1.
       -3    1    3    3    0  502  0.57399261157E+03 -0.10298623589E+04  0.29076865078E+03  0.12143436148E+04  0.10100000352E+00 0.  1.
</event>
<event>
 5   0  0.3028601E-06  0.2712448E+04  0.7818609E-02  0.8330977E-01
       -1   -1    0    0    0  501  0.00000000000E+00  0.00000000000E+00  0.10719268297E+04  0.10719268297E+04  0.50400001928E-02 0. -1.
        1   -1    0    0  501    0  0.00000000000E+00  0.00000000000E+00 -0.17159226240E+04  0.17159226240E+04  0.50400001928E-02 0.  1.
    10030    2    1    2    0    0  0.00000000000E+00  0.00000000000E+00 -0.64399579423E+03  0.27878494537E+04  0.27124479707E+04 0.  0.
        3    1    3    3  502    0 -0.54488832488E+03 -0.27452832239E+03  0.92290068139E+03  0.11063520074E+04  0.10100000352E+00 0. -1.
       -3    1    3    3    0  502  0.54488832488E+03  0.27452832239E+03 -0.15668964756E+04  0.16814974463E+04  0.10100000352E+00 0.  1.
</event>
<event>
 5   0  0.3028601E-06  0.2682989E+04  0.7818609E-02  0.8340545E-01
        1   -1    0    0  501    0  0.00000000000E+00  0.00000000000E+00  0.17526922215E+04  0.17526922215E+04  0.50400001928E-02 0.  1.
       -1   -1    0    0    0  501  0.00000000000E+00  0.00000000000E+00 -0.10267678035E+04  0.10267678035E+04  0.50400001928E-02 0. -1.
    10030    2    1    2    0    0  0.00000000000E+00  0.00000000000E+00  0.72592441800E+03  0.27794600250E+04  0.26829893347E+04 0.  0.
        3    1    3    3  502    0  0.12952272692E+03  0.36073451548E+03  0.16947616109E+04  0.17375622163E+04  0.10100000352E+00 0.  1.
       -3    1    3    3    0  502 -0.12952272692E+03 -0.36073451548E+03 -0.96883719288E+03  0.10418978088E+04  0.10100000352E+00 0. -1.
</event>
<event>
 5   0  0.7729970E-06  0.2685271E+04  0.7818609E-02  0.8339800E-01
        2   -1    0    0  501    0  0.00000000000E+00  0.00000000000E+00  0.15950394156E+04  0.15950394156E+04  0.25500000920E-02 0.  1.
       -2   -1    0    0    0  501  0.00000000000E+00  0.00000000000E+00 -0.11301730049E+04  0.11301730049E+04  0.25500000920E-02 0. -1.
    10030    2    1    2    0    0  0.00000000000E+00  0.00000000000E+00  0.46486641073E+03  0.27252124204E+04  0.26852713004E+04 0.  0.
        4    1    3    3  502    0  0.73443806069E+03 -0.26464008281E+03  0.13410340994E+04  0.15517112189E+04  0.12699999809E+01 0.  1.
       -4    1    3    3    0  502 -0.73443806069E+03  0.26464008281E+03 -0.87616768863E+03  0.11735012015E+04  0.12699999809E+01 0. -1.
</event>
<event>
 5   0  0.3089218E-06  0.2693198E+04  0.7818609E-02  0.8337215E-01
        1   -1    0    0  501    0  0.00000000000E+00  0.00000000000E+00  0.13487265380E+04  0.13487265380E+04  0.50400001928E-02 0.  1.
       -1   -1    0    0    0  501  0.00000000000E+00  0.00000000000E+00 -0.13444750817E+04  0.13444750817E+04  0.50400001928E-02 0. -1.
    10030    2    1    2    0    0  0.00000000000E+00  0.00000000000E+00  0.42514563049E+01  0.26932016197E+04  0.26931982640E+04 0.  0.
        5    1    3    3  502    0 -0.10927733456E+04  0.77334402573E+03 -0.14310724995E+03  0.13463715468E+04  0.46999998093E+01 0.  1.
       -5    1    3    3    0  502  0.10927733456E+04 -0.77334402573E+03  0.14735870626E+03  0.13468300729E+04  0.46999998093E+01 0. -1.
</event>
<event>
 5   0  0.3028601E-06  0.2715384E+04  0.7818609E-02  0.8330031E-01
        1   -1    0    0  501    0  0.00000000000E+00  0.00000000000E+00  0.11099217010E+04  0.11099217010E+04  0.50400001928E-02 0. -1.
       -1   -1    0    0    0  501  0.00000000000E+00  0.00000000000E+00 -0.16607724136E+04  0.16607724136E+04  0.50400001928E-02 0.  1.
    10030    2    1    2    0    0  0.00000000000E+00  0.00000000000E+00 -0.55085071264E+03  0.27706941146E+04  0.27153838346E+04 0.  0.
        3    1    3    3  502    0 -0.91681865557E+02  0.13287561814E+04 -0.54409223305E+03  0.14387615933E+04  0.10100000352E+00 0.  1.
       -3    1    3    3    0  502  0.91681865557E+02 -0.13287561814E+04 -0.67584795916E+01  0.13319325213E+04  0.10100000352E+00 0. -1.
</event>
<event>
 5   0  0.2654625E-06  0.2592376E+04  0.7818609E-02  0.8370796E-01
        3   -1    0    0  501    0  0.00000000000E+00  0.00000000000E+00  0.25124252398E+04  0.25124252418E+04  0.10100000352E+00 0. -1.
       -3   -1    0    0    0  501  0.00000000000E+00  0.00000000000E+00 -0.66871769740E+03  0.66871770503E+03  0.10100000352E+00 0.  1.
    10030    2    1    2    0    0  0.00000000000E+00  0.00000000000E+00  0.18437075424E+04  0.31811429468E+04  0.25923759269E+04 0.  0.
        3    1    3    3  502    0  0.91523009658E+03 -0.85803719170E+03  0.52190228731E+03  0.13587700172E+04  0.10100000352E+00 0.  1.
       -3    1    3    3    0  502 -0.91523009658E+03  0.85803719170E+03  0.13218052550E+04  0.18223729296E+04  0.10100000352E+00 0. -1.
</event>
<event>
 5   0  0.3028601E-06  0.2702215E+04  0.7818609E-02  0.8334287E-01
       -1   -1    0    0    0  501  0.00000000000E+00  0.00000000000E+00  0.91519238664E+03  0.91519238665E+03  0.50400001928E-02 0.  1.
        1   -1    0    0  501    0  0.00000000000E+00  0.00000000000E+00 -0.19946533501E+04  0.19946533501E+04  0.50400001928E-02 0. -1.
    10030    2    1    2    0    0  0.00000000000E+00  0.00000000000E+00 -0.10794609634E+04  0.29098457367E+04  0.27022150618E+04 0.  0.
        3    1    3    3  502    0  0.49858953546E+03  0.10164759593E+04 -0.13337302866E+04  0.17494717455E+04  0.10100000352E+00 0. -1.
       -3    1    3    3    0  502 -0.49858953546E+03 -0.10164759593E+04  0.25426932313E+03  0.11603739913E+04  0.10100000352E+00 0.  1.
</event>
<event>
 5   0  0.8407622E-06  0.2722010E+04  0.7818609E-02  0.8327899E-01
        2   -1    0    0  501    0  0.00000000000E+00  0.00000000000E+00  0.13907023295E+04  0.13907023296E+04  0.25500000920E-02 0. -1.
       -2   -1    0    0    0  501  0.00000000000E+00  0.00000000000E+00 -0.13319419055E+04  0.13319419055E+04  0.25500000920E-02 0.  1.
    10030    2    1    2    0    0  0.00000000000E+00  0.00000000000E+00  0.58760424009E+02  0.27226442351E+04  0.27220100741E+04 0.  0.
        1    1    3    3  502    0  0.50382218733E+02 -0.10571403924E+04  0.88529595896E+03  0.13797945906E+04  0.50400001928E-02 0. -1.
       -1    1    3    3    0  502 -0.50382218733E+02  0.10571403924E+04 -0.82653553495E+03  0.13428496445E+04  0.50400001928E-02 0.  1.
</event>
<event>
 5   0  0.3046300E-06  0.2690229E+04  0.7818609E-02  0.8338182E-01
       -1   -1    0    0    0  501  0.00000000000E+00  0.00000000000E+00  0.12847744943E+04  0.12847744943E+04  0.50400001928E-02 0. -1.
        1   -1    0    0  501    0  0.00000000000E+00  0.00000000000E+00 -0.14082884715E+04  0.14082884715E+04  0.50400001928E-02 0.  1.
    10030    2    1    2    0    0  0.00000000000E+00  0.00000000000E+00 -0.12351397724E+03  0.26930629658E+04  0.26902290674E+04 0.  0.
        2    1    3    3  502    0  0.11480033969E+04 -0.22170224298E+03  0.60397696165E+03  0.13159984248E+04  0.25500000920E-02 0. -1.
       -2    1    3    3    0  502 -0.11480033969E+04  0.22170224298E+03 -0.72749093888E+03  0.13770645410E+04  0.25500000920E-02 0.  1.
</event>
<event>
 5   0  0.3028601E-06  0.2689919E+04  0.7818609E-02  0.8338283E-01
       -1   -1    0    0    0  501  0.00000000000E+00  0.00000000000E+00  0.10395901606E+04  0.10395901606E+04  0.50400001928E-02 0. -1.
        1   -1    0    0  501    0  0.00000000000E+00  0.00000000000E+00 -0.17400280769E+04  0.17400280769E+04  0.50400001928E-02 0.  1.
    10030    2    1    2    0    0  0.00000000000E+00  0.00000000000E+00 -0.70043791627E+03  0.27796182375E+04  0.26899190084E+04 0.  0.
        3    1    3    3  502    0  0.11783308919E+04  0.18987721433E+03  0.29045501144E+03  0.12283652434E+04  0.10100000352E+00 0. -1.
       -3    1    3    3    0  502 -0.11783308919E+04 -0.18987721433E+03 -0.99089292771E+03  0.15512529941E+04  0.10100000352E+00 0.  1.
</event>
<event>
 5   0  0.3046300E-06  0.2688499E+04  0.7818609E-02  0.8338746E-01
       -1   -1    0    0    0  501  0.00000000000E+00  0.00000000000E+00  0.10350491854E+04  0.10350491855E+04  0.50400001928E-02 0. -1.
        1   -1    0    0  501    0  0.00000000000E+00  0.00000000000E+00 -0.17458177207E+04  0.17458177207E+04  0.50400001928E-02 0.  1.
    10030    2    1    2    0    0  0.00000000000E+00  0.00000000000E+00 -0.71076853522E+03  0.27808669061E+04  0.26884993656E+04 0.  0.
        2    1    3    3  502    0  0.98314196898E+03 -0.40199013534E+03 -0.12076105833E+04  0.16082560496E+04  0.25500000920E-02 0.  1.
       -2    1    3    3    0  502 -0.98314196898E+03  0.40199013534E+03  0.49684204812E+03  0.11726108565E+04  0.25500000920E-02 0. -1.
</event>
<event>
 5   0  0.3028601E-06  0.2707686E+04  0.7818609E-02  0.8332516E-01
       -1   -1    0    0    0  501  0.00000000000E+00  0.00000000000E+00  0.16271733889E+04  0.16271733889E+04  0.50400001928E-02 0.  1.
        1   -1    0    0  501    0  0.00000000000E+00  0.00000000000E+00 -0.11264260555E+04  0.11264260555E+04  0.50400001928E-02 0. -1.
    10030    2    1    2    0    0  0.00000000000E+00  0.00000000000E+00  0.50074733340E+03  0.27535994445E+04  0.27076857293E+04 0.  0.
        3    1    3    3  502    0 -0.31981743385E+03  0.10789480540E+04  0.10157837617E+04  0.15159910141E+04  0.10100000352E+00 0.  1.
       -3    1    3    3    0  502  0.31981743385E+03 -0.10789480540E+04 -0.51503642828E+03  0.12376084303E+04  0.10100000352E+00 0. -1.
</event>
<event>
 5   0  0.7812908E-06  0.2697977E+04  0.7818609E-02  0.8335662E-01
        2   -1    0    0  501    0  0.00000000000E+00  0.00000000000E+00  0.10231060743E+04  0.10231060743E+04  0.25500000920E-02 0.  1.
       -2   -1    0    0    0  501  0.00000000000E+00  0.00000000000E+00 -0.17786713779E+04  0.17786713779E+04  0.25500000920E-02 0. -1.
    10030    2    1    2    0    0  0.00000000000E+00  0.00000000000E+00 -0.75556530353E+03  0.28017774522E+04  0.26979766426E+04 0.  0.
        5    1    3    3  502    0  0.55692401463E+03  0.12044750316E+02  0.89807753420E+03  0.10568229660E+04  0.46999998093E+01 0.  1.
       -5    1    3    3    0  502 -0.55692401463E+03 -0.12044750316E+02 -0.16536428377E+04  0.17449544862E+04  0.46999998093E+01 0. -1.
</event>
<event>
 5   0  0.8407622E-06  0.2714818E+04  0.7818609E-02  0.8330213E-01
        2   -1    0    0  501    0  0.00000000000E+00  0.00000000000E+00  0.14611613464E+04  0.14611613464E+04  0.25500000920E-02 0. -1.
       -2   -1    0    0    0  501  0.00000000000E+00  0.00000000000E+00 -0.12610236801E+04  0.12610236801E+04  0.25500000920E-02 0.  1.
    10030    2    1    2    0    0  0.00000000000E+00  0.00000000000E+00  0.20013766629E+03  0.27221850265E+04  0.27148179005E+04 0.  0.
        1    1    3    3  502    0 -0.40595291511E+03  0.16789625083E+03  0.13879108582E+04  0.14557758999E+04  0.50400001928E-02 0. -1.
       -1    1    3    3    0  502  0.40595291511E+03 -0.16789625083E+03 -0.11877731920E+04  0.12664091266E+04  0.50400001928E-02 0.  1.
</event>
<event>
 5   0  0.3199840E-06  0.2698918E+04  0.7818609E-02  0.8335356E-01
       -1   -1    0    0    0  501  0.00000000000E+00  0.00000000000E+00  0.16994216915E+04  0.16994216915E+04  0.50400001928E-02 0. -1.
        1   -1    0    0  501    0  0.00000000000E+00  0.00000000000E+00 -0.10715643621E+04  0.10715643621E+04  0.50400001928E-02 0.  1.
    10030    2    1    2    0    0  0.00000000000E+00  0.00000000000E+00  0.62785732934E+03  0.27709860536E+04  0.26989180949E+04 0.  0.
        1    1    3    3  502    0  0.11305678371E+04 -0.61158551874E+03 -0.10791895711E+03  0.12899096799E+04  0.50400001928E-02 0.  1.
       -1    1    3    3    0  502 -0.11305678371E+04  0.61158551874E+03  0.73577628645E+03  0.14810763737E+04  0.50400001928E-02 0. -1.
</event>
<event>
 5   0  0.7838364E-06  0.2704885E+04  0.7818609E-02  0.8333422E-01
       -2   -1    0    0    0  501  0.00000000000E+00  0.00000000000E+00  0.10424424493E+04  0.10424424493E+04  0.25500000920E-02 0. -1.
        2   -1    0    0  501    0  0.00000000000E+00  0.00000000000E+00 -0.17546304840E+04  0.17546304840E+04  0.25500000920E-02 0.  1.
    10030    2    1    2    0    0  0.00000000000E+00  0.00000000000E+00 -0.71218803466E+03  0.27970729332E+04  0.27048854314E+04 0.  0.
        2    1    3    3  502    0  0.69083326947E+03 -0.95591784855E+03  0.32833363027E+03  0.12242681537E+04  0.25500000920E-02 0. -1.
       -2    1    3    3    0  502 -0.69083326947E+03  0.95591784855E+03 -0.10405216649E+04  0.15728047795E+04  0.25500000920E-02 0.  1.
</event>
<event>
 5   0  0.7812908E-06  0.2704869E+04  0.7818609E-02  0.8333427E-01
       -2   -1    0    0    0  501  0.00000000000E+00  0.00000000000E+00  0.13905423217E+04  0.13905423217E+04  0.25500000920E-02 0.  1.
        2   -1    0    0  501    0  0.00000000000E+00  0.00000000000E+00 -0.13153707578E+04  0.13153707578E+04  0.25500000920E-02 0. -1.
    10030    2    1    2    0    0  0.00000000000E+00  0.00000000000E+00  0.75171563856E+02  0.27059130795E+04  0.27048687269E+04 0.  0.
        5    1    3    3  502    0  0.43485092894E+03  0.15016404602E+03 -0.12346804074E+04  0.13176123745E+04  0.46999998093E+01 0. -1.
       -5    1    3    3    0  502 -0.43485092894E+03 -0.15016404602E+03  0.13098519712E+04  0.13883007050E+04  0.46999998093E+01 0.  1.
</event>
<event>
 5   0  0.3046300E-06  0.2691813E+04  0.7818609E-02  0.8337666E-01
        1   -1    0    0  501    0  0.00000000000E+00  0.00000000000E+00  0.13016834035E+04  0.13016834035E+04  0.50400001928E-02 0. -1.
       -1   -1    0    0    0  501  0.00000000000E+00  0.00000000000E+00 -0.13916319968E+04  0.13916319968E+04  0.50400001928E-02 0.  1.
    10030    2    1    2    0    0  0.00000000000E+00  0.00000000000E+00 -0.89948593324E+02  0.26933154004E+04  0.26918129758E+04 0.  0.
        2    1    3    3  502    0  0.12527169711E+04 -0.49209271759E+03 -0.41935878214E+02  0.13465562262E+04  0.25500000920E-02 0. -1.
       -2    1    3    3    0  502 -0.12527169711E+04  0.49209271759E+03 -0.48012715110E+02  0.13467591742E+04  0.25500000920E-02 0.  1.
</event>
<event>
 5   0  0.7838364E-06  0.2751006E+04  0.7818609E-02  0.8318643E-01
        2   -1    0    0  501    0  0.00000000000E+00  0.00000000000E+00  0.22291182878E+04  0.22291182878E+04  0.25500000920E-02 0.  1.
       -2   -1    0    0    0  501  0.00000000000E+00  0.00000000000E+00 -0.84876973008E+03  0.84876973008E+03  0.25500000920E-02 0. -1.
    10030    2    1    2    0    0  0.00000000000E+00  0.00000000000E+00  0.13803485578E+04  0.30778880179E+04  0.27510057270E+04 0.  0.
        2    1    3    3  502    0  0.28234274990E+03 -0.27927673505E+03 -0.78323307135E+03  0.87816112828E+03  0.25500000920E-02 0. -1.
       -2    1    3    3    0  502 -0.28234274990E+03  0.27927673505E+03  0.21635816291E+04  0.21997268896E+04  0.25500000920E-02 0.  1.
</event>
<event>
 5   0  0.8213334E-06  0.2692004E+04  0.7818609E-02  0.8337604E-01
        2   -1    0    0  501    0  0.00000000000E+00  0.00000000000E+00  0.26144221577E+04  0.26144221577E+04  0.25500000920E-02 0.  1.
       -2   -1    0    0    0  501  0.00000000000E+00  0.00000000000E+00 -0.69297218840E+03  0.69297218840E+03  0.25500000920E-02 0. -1.
    10030    2    1    2    0    0  0.00000000000E+00  0.00000000000E+00  0.19214499693E+04  0.33073943461E+04  0.26920043417E+04 0.  0.
        3    1    3    3  502    0 -0.94589216153E+03  0.74335657903E+03  0.17024070715E+04  0.20845816923E+04  0.10100000352E+00 0.  1.
       -3    1    3    3    0  502  0.94589216153E+03 -0.74335657903E+03  0.21904289779E+03  0.12228126537E+04  0.10100000352E+00 0. -1.
</event>
<event>
 5   0  0.2654625E-06  0.2705474E+04  0.7818609E-02  0.8333231E-01
       -3   -1    0    0    0  501  0.00000000000E+00  0.00000000000E+00  0.11026284834E+04  0.11026284880E+04  0.10100000352E+00 0. -1.
        3   -1    0    0  501    0  0.00000000000E+00  0.00000000000E+00 -0.16595775895E+04  0.16595775926E+04  0.10100000352E+00 0.  1.
    10030    2    1    2    0    0  0.00000000000E+00  0.00000000000E+00 -0.55694910605E+03  0.27622060806E+04  0.27054741035E+04 0.  0.
        4    1    3    3  502    0 -0.11767857553E+04  0.42904832327E+03 -0.80005773776E+03  0.14862708953E+04  0.12699999809E+01 0.  1.
       -4    1    3    3    0  502  0.11767857553E+04 -0.42904832327E+03  0.24310863170E+03  0.12759351853E+04  0.12699999809E+01 0. -1.
</event>
<event>
 5   0  0.3089218E-06  0.2686915E+04  0.7818609E-02  0.8339263E-01
       -1   -1    0    0    0  501  0.00000000000E+00  0.00000000000E+00  0.18038560436E+04  0.18038560436E+04  0.50400001928E-02 0.  1.
        1   -1    0    0  501    0  0.00000000000E+00  0.00000000000E+00 -0.10005666362E+04  0.10005666362E+04  0.50400001928E-02 0. -1.
    10030    2    1    2    0    0  0.00000000000E+00  0.00000000000E+00  0.80328940737E+03  0.28044226798E+04  0.26869150889E+04 0.  0.
        5    1    3    3  502    0 -0.55635433000E+03  0.11715211233E+04  0.76749398710E+03  0.15070039791E+04  0.46999998093E+01 0.  1.
       -5    1    3    3    0  502  0.55635433000E+03 -0.11715211233E+04  0.35795420267E+02  0.12974187007E+04  0.46999998093E+01 0. -1.
</event>
<event>
 5   0  0.8407622E-06  0.2705704E+04  0.7818609E-02  0.8333157E-01
        2   -1    0    0  501    0  0.00000000000E+00  0.00000000000E+00  0.16496356452E+04  0.16496356452E+04  0.25500000920E-02 0.  1.
       -2   -1    0    0    0  501  0.00000000000E+00  0.00000000000E+00 -0.11094620526E+04  0.11094620526E+04  0.25500000920E-02 0. -1.
    10030    2    1    2    0    0  0.00000000000E+00  0.00000000000E+00  0.54017359263E+03  0.27590976978E+04  0.27057037154E+04 0.  0.
        1    1    3    3  502    0  0.12904564203E+04 -0.18289434471E+03  0.63984408702E+03  0.14519395889E+04  0.50400001928E-02 0.  1.
       -1    1    3    3    0  502 -0.12904564203E+04  0.18289434471E+03 -0.99670494385E+02  0.13071581089E+04  0.50400001928E-02 0. -1.
</event>
<event>
 5   0  0.3013407E-06  0.2705191E+04  0.7818609E-02  0.8333323E-01
        1   -1    0    0  501    0  0.00000000000E+00  0.00000000000E+00  0.16585665207E+04  0.16585665207E+04  0.50400001928E-02 0. -1.
       -1   -1    0    0    0  501  0.00000000000E+00  0.00000000000E+00 -0.11030698694E+04  0.11030698694E+04  0.50400001928E-02 0.  1.
    10030    2    1    2    0    0  0.00000000000E+00  0.00000000000E+00  0.55549665133E+03  0.27616363901E+04  0.27051911248E+04 0.  0.
        4    1    3    3  502    0 -0.81693171916E+03 -0.90002935930E+03  0.88349492579E+03  0.15026626961E+04  0.12699999809E+01 0. -1.
       -4    1    3    3    0  502  0.81693171916E+03  0.90002935930E+03 -0.32799827447E+03  0.12589736941E+04  0.12699999809E+01 0.  1.
</event>
<event>
 5   0  0.3046300E-06  0.2696408E+04  0.7818609E-02  0.8336171E-01
        1   -1    0    0  501    0  0.00000000000E+00  0.00000000000E+00  0.20307226980E+04  0.20307226980E+04  0.50400001928E-02 0.  1.
       -1   -1    0    0    0  501  0.00000000000E+00  0.00000000000E+00 -0.89507752047E+03  0.89507752049E+03  0.50400001928E-02 0. -1.
    10030    2    1    2    0    0  0.00000000000E+00  0.00000000000E+00  0.11356451775E+04  0.29258002185E+04  0.26964081570E+04 0.  0.
        2    1    3    3  502    0 -0.10873518750E+04 -0.56745620798E+03 -0.39540858895E+02  0.12271528542E+04  0.25500000920E-02 0. -1.
       -2    1    3    3    0  502  0.10873518750E+04  0.56745620798E+03  0.11751860364E+04  0.16986473643E+04  0.25500000920E-02 0.  1.
</event>
<event>
 5   0  0.7729970E-06  0.2715481E+04  0.7818609E-02  0.8329999E-01
       -2   -1    0    0    0  501  0.00000000000E+00  0.00000000000E+00  0.74477502792E+03  0.74477502793E+03  0.25500000920E-02 0. -1.
        2   -1    0    0  501    0  0.00000000000E+00  0.00000000000E+00 -0.24751902129E+04  0.24751902129E+04  0.25500000920E-02 0.  1.
    10030    2    1    2    0    0  0.00000000000E+00  0.00000000000E+00 -0.17304151850E+04  0.32199652408E+04  0.27154814379E+04 0.  0.
        4    1    3    3  502    0  0.11602204007E+04  0.99578040893E+01 -0.17013701982E+04  0.20593379276E+04  0.12699999809E+01 0.  1.
       -4    1    3    3    0  502 -0.11602204007E+04 -0.99578040893E+01 -0.29044986763E+02  0.11606273132E+04  0.12699999809E+01 0. -1.
</event>
<event>
 5   0  0.7838364E-06  0.2701070E+04  0.7818609E-02  0.8334658E-01
       -2   -1    0    0    0  501  0.00000000000E+00  0.00000000000E+00  0.10446599646E+04  0.10446599646E+04  0.25500000920E-02 0. -1.
        2   -1    0    0  501    0  0.00000000000E+00  0.00000000000E+00 -0.17459699047E+04  0.17459699047E+04  0.25500000920E-02 0.  1.
    10030    2    1    2    0    0  0.00000000000E+00  0.00000000000E+00 -0.70130994011E+03  0.27906298694E+04  0.27010700538E+04 0.  0.
        2    1    3    3  502    0  0.10941852574E+04  0.36977451815E+03 -0.10738430554E+04  0.15770584896E+04  0.25500000920E-02 0.  1.
       -2    1    3    3    0  502 -0.10941852574E+04 -0.36977451815E+03  0.37253311528E+03  0.12135713798E+04  0.25500000920E-02 0. -1.
</event>
<event>
 5   0  0.7812908E-06  0.2694152E+04  0.7818609E-02  0.8336905E-01
        2   -1    0    0  501    0  0.00000000000E+00  0.00000000000E+00  0.11549504349E+04  0.11549504349E+04  0.25500000920E-02 0.  1.
       -2   -1    0    0    0  501  0.00000000000E+00  0.00000000000E+00 -0.15711610724E+04  0.15711610724E+04  0.25500000920E-02 0. -1.
    10030    2    1    2    0    0  0.00000000000E+00  0.00000000000E+00 -0.41621063745E+03  0.27261115073E+04  0.26941515651E+04 0.  0.
        5    1    3    3  502    0  0.60874166491E+03 -0.11992918824E+04 -0.28465753121E+03  0.13747434066E+04  0.46999998093E+01 0. -1.
       -5    1    3    3    0  502 -0.60874166491E+03  0.11992918824E+04 -0.13155310624E+03  0.13513681007E+04  0.46999998093E+01 0.  1.
</event>
<event>
 5   0  0.3046300E-06  0.2709290E+04  0.7818609E-02  0.8331997E-01
        1   -1    0    0  501    0  0.00000000000E+00  0.00000000000E+00  0.18120403536E+04  0.18120403536E+04  0.50400001928E-02 0. -1.
       -1   -1    0    0    0  501  0.00000000000E+00  0.00000000000E+00 -0.10127054564E+04  0.10127054564E+04  0.50400001928E-02 0.  1.
    10030    2    1    2    0    0  0.00000000000E+00  0.00000000000E+00  0.79933489723E+03  0.28247458100E+04  0.27092900570E+04 0.  0.
        2    1    3    3  502    0  0.73760968897E+03  0.90147959399E+03  0.11207542015E+04  0.16164230548E+04  0.25500000920E-02 0. -1.
       -2    1    3    3    0  502 -0.73760968897E+03 -0.90147959399E+03 -0.32141930432E+03  0.12083227552E+04  0.25500000920E-02 0.  1.
</event>
<event>
 5   0  0.7729970E-06  0.2700545E+04  0.7818609E-02  0.8334828E-01
       -2   -1    0    0    0  501  0.00000000000E+00  0.00000000000E+00  0.11477090187E+04  0.11477090187E+04  0.25500000920E-02 0. -1.
        2   -1    0    0  501    0  0.00000000000E+00  0.00000000000E+00 -0.15885870804E+04  0.15885870804E+04  0.25500000920E-02 0.  1.
    10030    2    1    2    0    0  0.00000000000E+00  0.00000000000E+00 -0.44087806174E+03  0.27362960991E+04  0.27005449222E+04 0.  0.
        4    1    3    3  502    0 -0.43614780999E+03 -0.12547354617E+04 -0.46581877837E+03  0.14076841756E+04  0.12699999809E+01 0.  1.
       -4    1    3    3    0  502  0.43614780999E+03  0.12547354617E+04  0.24940716629E+02  0.13286119235E+04  0.12699999809E+01 0. -1.
</event>
<event>
 5   0  0.8213334E-06  0.2688104E+04  0.7818609E-02  0.8338875E-01
       -2   -1    0    0    0  501  0.00000000000E+00  0.00000000000E+00  0.10073774661E+04  0.10073774661E+04  0.25500000920E-02 0. -1.
        2   -1    0    0  501    0  0.00000000000E+00  0.00000000000E+00 -0.17932464130E+04  0.17932464130E+04  0.25500000920E-02 0.  1.
    10030    2    1    2    0    0  0.00000000000E+00  0.00000000000E+00 -0.78586894687E+03  0.28006238792E+04  0.26881041853E+04 0.  0.
        3    1    3    3  502    0 -0.45300037719E+02  0.39553698916E+03 -0.17304040835E+04  0.17756125438E+04  0.10100000352E+00 0.  1.
       -3    1    3    3    0  502  0.45300037719E+02 -0.39553698916E+03  0.94453513661E+03  0.10250113354E+04  0.10100000352E+00 0. -1.
</event>
<event>
 5   0  0.3028601E-06  0.2699456E+04  0.7818609E-02  0.8335181E-01
       -1   -1    0    0    0  501  0.00000000000E+00  0.00000000000E+00  0.12020201882E+04  0.12020201883E+04  0.50400001928E-02 0.  1.
        1   -1    0    0  501    0  0.00000000000E+00  0.00000000000E+00 -0.15155870946E+04  0.15155870946E+04  0.50400001928E-02 0. -1.
    10030    2    1    2    0    0  0.00000000000E+00  0.00000000000E+00 -0.31356690631E+03  0.27176072828E+04  0.26994564525E+04 0.  0.
        3    1    3    3  502    0  0.44506978682E+03 -0.49628909867E+03  0.10247245650E+04  0.12224771691E+04  0.10100000352E+00 0.  1.
       -3    1    3    3    0  502 -0.44506978682E+03  0.49628909867E+03 -0.13382914713E+04  0.14951301137E+04  0.10100000352E+00 0. -1.
</event>
<event>
 5   0  0.8213334E-06  0.2756334E+04  0.7818609E-02  0.8316954E-01
        2   -1    0    0  501    0  0.00000000000E+00  0.00000000000E+00  0.13567051933E+04  0.13567051933E+04  0.25500000920E-02 0.  1.
       -2   -1    0    0    0  501  0.00000000000E+00  0.00000000000E+00 -0.13999686348E+04  0.13999686348E+04  0.25500000920E-02 0. -1.
    10030    2    1    2    0    0  0.00000000000E+00  0.00000000000E+00 -0.43263441467E+02  0.27566738281E+04  0.27563343174E+04 0.  0.
        3    1    3    3  502    0  0.94605414004E+03 -0.24668452641E+03 -0.99307675468E+03  0.13935828437E+04  0.10100000352E+00 0. -1.
       -3    1    3    3    0  502 -0.94605414004E+03  0.24668452641E+03  0.94981331322E+03  0.13630909844E+04  0.10100000352E+00 0.  1.
</event>
<event>
 5   0  0.3046300E-06  0.2680715E+04  0.7818609E-02  0.8341290E-01
        1   -1    0    0  501    0  0.00000000000E+00  0.00000000000E+00  0.17979463168E+04  0.17979463168E+04  0.50400001928E-02 0. -1.
       -1   -1    0    0    0  501  0.00000000000E+00  0.00000000000E+00 -0.99922785206E+03  0.99922785207E+03  0.50400001928E-02 0.  1.
    10030    2    1    2    0    0  0.00000000000E+00  0.00000000000E+00  0.79871846472E+03  0.27971741689E+04  0.26807148571E+04 0.  0.
        2    1    3    3  502    0 -0.80447729984E+03 -0.10592845956E+04  0.57173423387E+03  0.14478078652E+04  0.25500000920E-02 0.  1.
       -2    1    3    3    0  502  0.80447729984E+03  0.10592845956E+04  0.22698423085E+03  0.13493663036E+04  0.25500000920E-02 0. -1.
</event>
<event>
 5   0  0.3199840E-06  0.2704331E+04  0.7818609E-02  0.8333601E-01
       -1   -1    0    0    0  501  0.00000000000E+00  0.00000000000E+00  0.10937691506E+04  0.10937691506E+04  0.50400001928E-02 0. -1.
        1   -1    0    0  501    0  0.00000000000E+00  0.00000000000E+00 -0.16716066657E+04  0.16716066657E+04  0.50400001928E-02 0.  1.
    10030    2    1    2    0    0  0.00000000000E+00  0.00000000000E+00 -0.57783751512E+03  0.27653758164E+04  0.27043311949E+04 0.  0.
        1    1    3    3  502    0  0.96751596358E+03  0.25841441294E+03 -0.12179906276E+04  0.15768215871E+04  0.50400001928E-02 0.  1.
       -1    1    3    3    0  502 -0.96751596358E+03 -0.25841441294E+03  0.64015311245E+03  0.11885542293E+04  0.50400001928E-02 0. -1.
</event>
<event>
 5   0  0.7729970E-06  0.2672990E+04  0.7818609E-02  0.8343822E-01
        2   -1    0    0  501    0  0.00000000000E+00  0.00000000000E+00  0.27178502578E+04  0.27178502578E+04  0.25500000920E-02 0. -1.
       -2   -1    0    0    0  501  0.00000000000E+00  0.00000000000E+00 -0.65721738330E+03  0.65721738330E+03  0.25500000920E-02 0.  1.
    10030    2    1    2    0    0  0.00000000000E+00  0.00000000000E+00  0.20606328745E+04  0.33750676411E+04  0.26729896630E+04 0.  0.
        4    1    3    3  502    0  0.43310635905E+03  0.78695747345E+03 -0.21922464075E+03  0.92463194801E+03  0.12699999809E+01 0.  1.
       -4    1    3    3    0  502 -0.43310635905E+03 -0.78695747345E+03  0.22798575153E+04  0.24504356931E+04  0.12699999809E+01 0. -1.
</event>
<event>
 5   0  0.7729970E-06  0.2677879E+04  0.7818609E-02  0.8342218E-01
        2   -1    0    0  501    0  0.00000000000E+00  0.00000000000E+00  0.17290062130E+04  0.17290062130E+04  0.25500000920E-02 0.  1.
       -2   -1    0    0    0  501  0.00000000000E+00  0.00000000000E+00 -0.10368726918E+04  0.10368726918E+04  0.25500000920E-02 0. -1.
    10030    2    1    2    0    0  0.00000000000E+00  0.00000000000E+00  0.69213352118E+03  0.27658789049E+04  0.26778792552E+04 0.  0.
        4    1    3    3  502    0  0.46038188903E+03 -0.48578792248E+03 -0.85170386232E+03  0.10832093387E+04  0.12699999809E+01 0. -1.
       -4    1    3    3    0  502 -0.46038188903E+03  0.48578792248E+03  0.15438373835E+04  0.16826695662E+04  0.12699999809E+01 0.  1.
</event>
<event>
 5   0  0.7729970E-06  0.2704170E+04  0.7818609E-02  0.8333653E-01
       -2   -1    0    0    0  501  0.00000000000E+00  0.00000000000E+00  0.96552649572E+03  0.96552649572E+03  0.25500000920E-02 0. -1.
        2   -1    0    0  501    0  0.00000000000E+00  0.00000000000E+00 -0.18934066205E+04  0.18934066205E+04  0.25500000920E-02 0.  1.
    10030    2    1    2    0    0  0.00000000000E+00  0.00000000000E+00 -0.92788012474E+03  0.28589331162E+04  0.27041703047E+04 0.  0.
        4    1    3    3  502    0 -0.53869470649E+03  0.45902275008E+03  0.75405207946E+03  0.10341615074E+04  0.12699999809E+01 0. -1.
       -4    1    3    3    0  502  0.53869470649E+03 -0.45902275008E+03 -0.16819322042E+04  0.18247716088E+04  0.12699999809E+01 0.  1.
</event>
<event>
 5   0  0.3199840E-06  0.2692299E+04  0.7818609E-02  0.8337508E-01
        1   -1    0    0  501    0  0.00000000000E+00  0.00000000000E+00  0.13519140171E+04  0.13519140171E+04  0.50400001928E-02 0. -1.
       -1   -1    0    0    0  501  0.00000000000E+00  0.00000000000E+00 -0.13404100247E+04  0.13404100247E+04  0.50400001928E-02 0.  1.
    10030    2    1    2    0    0  0.00000000000E+00  0.00000000000E+00  0.11503992451E+02  0.26923240418E+04  0.26922994641E+04 0.  0.
        1    1    3    3  502    0  0.91272965700E+03 -0.37904320147E+02 -0.98299710532E+03  0.13419372092E+04  0.50400001928E-02 0.  1.
       -1    1    3    3    0  502 -0.91272965700E+03  0.37904320147E+02  0.99450109777E+03  0.13503868326E+04  0.50400001928E-02 0. -1.
</event>
<event>
 5   0  0.8213334E-06  0.2796667E+04  0.7818609E-02  0.8304304E-01
       -2   -1    0    0    0  501  0.00000000000E+00  0.00000000000E+00  0.74160600656E+03  0.74160600656E+03  0.25500000920E-02 0. -1.
        2   -1    0    0  501    0  0.00000000000E+00  0.00000000000E+00 -0.26366243768E+04  0.26366243768E+04  0.25500000920E-02 0.  1.
    10030    2    1    2    0    0  0.00000000000E+00  0.00000000000E+00 -0.18950183702E+04  0.33782303833E+04  0.27966669268E+04 0.  0.
        3    1    3    3  502    0  0.58652699059E+03  0.74214729402E+03 -0.21914852752E+04  0.23869235929E+04  0.10100000352E+00 0.  1.
       -3    1    3    3    0  502 -0.58652699059E+03 -0.74214729402E+03  0.29646690503E+03  0.99130679040E+03  0.10100000352E+00 0. -1.
</event>
<event>
 5   0  0.8407622E-06  0.2714257E+04  0.7818609E-02  0.8330394E-01
        2   -1    0    0  501    0  0.00000000000E+00  0.00000000000E+00  0.18248730120E+04  0.18248730120E+04  0.25500000920E-02 0.  1.
       -2   -1    0    0    0  501  0.00000000000E+00  0.00000000000E+00 -0.10092745528E+04  0.10092745528E+04  0.25500000920E-02 0. -1.
    10030    2    1    2    0    0  0.00000000000E+00  0.00000000000E+00  0.81559845927E+03  0.28341475648E+04  0.27142570940E+04 0.  0.
        1    1    3    3  502    0 -0.10997629199E+04  0.25445834303E+02 -0.42208452627E+03  0.11782535032E+04  0.50400001928E-02 0. -1.
       -1    1    3    3    0  502  0.10997629199E+04 -0.25445834303E+02  0.12376829855E+04  0.16558940616E+04  0.50400001928E-02 0.  1.
</event>
<event>
 5   0  0.3046300E-06  0.2678309E+04  0.7818609E-02  0.8342077E-01
       -1   -1    0    0    0  501  0.00000000000E+00  0.00000000000E+00  0.21114188937E+04  0.21114188937E+04  0.50400001928E-02 0. -1.
        1   -1    0    0  501    0  0.00000000000E+00  0.00000000000E+00 -0.84935070244E+03  0.84935070245E+03  0.50400001928E-02 0.  1.
    10030    2    1    2    0    0  0.00000000000E+00  0.00000000000E+00  0.12620681912E+04  0.29607695961E+04  0.26783092581E+04 0.  0.
        2    1    3    3  502    0 -0.14940584795E+03 -0.82782185004E+03  0.17829044696E+04  0.19713851654E+04  0.25500000920E-02 0. -1.
       -2    1    3    3    0  502  0.14940584795E+03  0.82782185004E+03 -0.52083627837E+03  0.98938443068E+03  0.25500000920E-02 0.  1.
</event>
<event>
 5   0  0.3199840E-06  0.2713044E+04  0.7818609E-02  0.8330785E-01
       -1   -1    0    0    0  501  0.00000000000E+00  0.00000000000E+00  0.13617357915E+04  0.13617357915E+04  0.50400001928E-02 0. -1.
        1   -1    0    0  501    0  0.00000000000E+00  0.00000000000E+00 -0.13513284651E+04  0.13513284651E+04  0.50400001928E-02 0.  1.
    10030    2    1    2    0    0  0.00000000000E+00  0.00000000000E+00  0.10407326362E+02  0.27130642566E+04  0.27130442952E+04 0.  0.
        1    1    3    3  502    0  0.91304264388E+03 -0.75062243010E+03  0.67084467355E+03  0.13590855301E+04  0.50400001928E-02 0. -1.
       -1    1    3    3    0  502 -0.91304264388E+03  0.75062243010E+03 -0.66043734719E+03  0.13539787265E+04  0.50400001928E-02 0.  1.
</event>
<event>
 5   0  0.3046300E-06  0.2700866E+04  0.7818609E-02  0.8334724E-01
       -1   -1    0    0    0  501  0.00000000000E+00  0.00000000000E+00  0.85365138072E+03  0.85365138073E+03  0.50400001928E-02 0. -1.
        1   -1    0    0  501    0  0.00000000000E+00  0.00000000000E+00 -0.21363167781E+04  0.21363167781E+04  0.50400001928E-02 0.  1.
    10030    2    1    2    0    0  0.00000000000E+00  0.00000000000E+00 -0.12826653974E+04  0.29899681588E+04  0.27008663553E+04 0.  0.
        2    1    3    3  502    0  0.75814374620E+03 -0.82446575554E+03 -0.14765020852E+04  0.18532631032E+04  0.25500000920E-02 0.  1.
       -2    1    3    3    0  502 -0.75814374620E+03  0.82446575554E+03  0.19383668785E+03  0.11367050556E+04  0.25500000920E-02 0. -1.
</event>
<event>
 5   0  0.8213334E-06  0.2732571E+04  0.7818609E-02  0.8324513E-01
        2   -1    0    0  501    0  0.00000000000E+00  0.00000000000E+00  0.18548162700E+04  0.18548162700E+04  0.25500000920E-02 0.  1.
       -2   -1    0    0    0  501  0.00000000000E+00  0.00000000000E+00 -0.10064265685E+04  0.10064265685E+04  0.25500000920E-02 0. -1.
    10030    2    1    2    0    0  0.00000000000E+00  0.00000000000E+00  0.84838970148E+03  0.28612428384E+04  0.27325712241E+04 0.  0.
        3    1    3    3  502    0 -0.75696544496E+03 -0.45609422111E+03 -0.66684771672E+03  0.11071154009E+04  0.10100000352E+00 0. -1.
       -3    1    3    3    0  502  0.75696544496E+03  0.45609422111E+03  0.15152374182E+04  0.17541274375E+04  0.10100000352E+00 0.  1.
</event>
<event>
 5   0  0.3046300E-06  0.2686963E+04  0.7818609E-02  0.8339247E-01
        1   -1    0    0  501    0  0.00000000000E+00  0.00000000000E+00  0.12837852641E+04  0.12837852641E+04  0.50400001928E-02 0. -1.
       -1   -1    0    0    0  501  0.00000000000E+00  0.00000000000E+00 -0.14059541125E+04  0.14059541125E+04  0.50400001928E-02 0.  1.
    10030    2    1    2    0    0  0.00000000000E+00  0.00000000000E+00 -0.12216884839E+03  0.26897393766E+04  0.26869634695E+04 0.  0.
        2    1    3    3  502    0 -0.62226279306E+03 -0.98280918540E+03 -0.73395315136E+03  0.13754316075E+04  0.25500000920E-02 0.  1.
       -2    1    3    3    0  502  0.62226279306E+03  0.98280918540E+03  0.61178430297E+03  0.13143077691E+04  0.25500000920E-02 0. -1.
</event>
<event>
 5   0  0.7838364E-06  0.2669868E+04  0.7818609E-02  0.8344848E-01
       -2   -1    0    0    0  501  0.00000000000E+00  0.00000000000E+00  0.13430662099E+04  0.13430662099E+04  0.25500000920E-02 0. -1.
        2   -1    0    0  501    0  0.00000000000E+00  0.00000000000E+00 -0.13268515070E+04  0.13268515070E+04  0.25500000920E-02 0.  1.
    10030    2    1    2    0    0  0.00000000000E+00  0.00000000000E+00  0.16214702889E+02  0.26699177168E+04  0.26698684795E+04 0.  0.
        2    1    3    3  502    0  0.18029807674E+03  0.59056200417E+03  0.11916740853E+04  0.13421467889E+04  0.25500000920E-02 0. -1.
       -2    1    3    3    0  502 -0.18029807674E+03 -0.59056200417E+03 -0.11754593825E+04  0.13277709279E+04  0.25500000920E-02 0.  1.
</event>
<event>
 5   0  0.3028601E-06  0.2697971E+04  0.7818609E-02  0.8335664E-01
        1   -1    0    0  501    0  0.00000000000E+00  0.00000000000E+00  0.19172056442E+04  0.19172056442E+04  0.50400001928E-02 0. -1.
       -1   -1    0    0    0  501  0.00000000000E+00  0.00000000000E+00 -0.94917420851E+03  0.94917420852E+03  0.50400001928E-02 0.  1.
    10030    2    1    2    0    0  0.00000000000E+00  0.00000000000E+00  0.96803143572E+03  0.28663798528E+04  0.26979712007E+04 0.  0.
        3    1    3    3  502    0  0.59551313910E+03 -0.54559364307E+03 -0.66391661349E+03  0.10455111678E+04  0.10100000352E+00 0.  1.
       -3    1    3    3    0  502 -0.59551313910E+03  0.54559364307E+03  0.16319480492E+04  0.18208686849E+04  0.10100000352E+00 0. -1.
</event>
<event>
 5   0  0.3199840E-06  0.2710018E+04  0.7818609E-02  0.8331762E-01
        1   -1    0    0  501    0  0.00000000000E+00  0.00000000000E+00  0.23887964112E+04  0.23887964112E+04  0.50400001928E-02 0.  1.
       -1   -1    0    0    0  501  0.00000000000E+00  0.00000000000E+00 -0.76860842310E+03  0.76860842312E+03  0.50400001928E-02 0. -1.
    10030    2    1    2    0    0  0.00000000000E+00  0.00000000000E+00  0.16201879881E+04  0.31574048344E+04  0.27100177437E+04 0.  0.
        1    1    3    3  502    0 -0.66633738555E+03 -0.64307285940E+03  0.19625881560E+04  0.21700922755E+04  0.50400001928E-02 0.  1.
       -1    1    3    3    0  502  0.66633738555E+03  0.64307285940E+03 -0.34240016791E+03  0.98731255886E+03  0.50400001928E-02 0. -1.
</event>
<event>
 5   0  0.7729970E-06  0.2725946E+04  0.7818609E-02  0.8326635E-01
       -2   -1    0    0    0  501  0.00000000000E+00  0.00000000000E+00  0.81954441206E+03  0.81954441207E+03  0.25500000920E-02 0.  1.
        2   -1    0    0  501    0  0.00000000000E+00  0.00000000000E+00 -0.22667420287E+04  0.22667420287E+04  0.25500000920E-02 0. -1.
    10030    2    1    2    0    0  0.00000000000E+00  0.00000000000E+00 -0.14471976166E+04  0.30862864407E+04  0.27259462674E+04 0.  0.
        4    1    3    3  502    0  0.28281409548E+03  0.47959772415E+02 -0.22321786317E+04  0.22505348273E+04  0.12699999809E+01 0. -1.
       -4    1    3    3    0  502 -0.28281409548E+03 -0.47959772415E+02  0.78498101508E+03  0.83575161341E+03  0.12699999809E+01 0.  1.
</event>
<event>
 5   0  0.7812908E-06  0.2707589E+04  0.7818609E-02  0.8332547E-01
        2   -1    0    0  501    0  0.00000000000E+00  0.00000000000E+00  0.16867451289E+04  0.16867451289E+04  0.25500000920E-02 0.  1.
       -2   -1    0    0    0  501  0.00000000000E+00  0.00000000000E+00 -0.10865656869E+04  0.10865656869E+04  0.25500000920E-02 0. -1.
    10030    2    1    2    0    0  0.00000000000E+00  0.00000000000E+00  0.60017944199E+03  0.27733108157E+04  0.27075888754E+04 0.  0.
        5    1    3    3  502    0 -0.74707933404E+03 -0.85288057397E+03  0.10577781384E+04  0.15506287386E+04  0.46999998093E+01 0.  1.
       -5    1    3    3    0  502  0.74707933404E+03  0.85288057397E+03 -0.45759869645E+03  0.12226820772E+04  0.46999998093E+01 0. -1.
</event>
<event>
 5   0  0.3046300E-06  0.2697174E+04  0.7818609E-02  0.8335922E-01
       -1   -1    0    0    0  501  0.00000000000E+00  0.00000000000E+00  0.87165003077E+03  0.87165003078E+03  0.50400001928E-02 0.  1.
        1   -1    0    0  501    0  0.00000000000E+00  0.00000000000E+00 -0.20864882659E+04  0.20864882659E+04  0.50400001928E-02 0. -1.
    10030    2    1    2    0    0  0.00000000000E+00  0.00000000000E+00 -0.12148382351E+04  0.29581382966E+04  0.26971744928E+04 0.  0.
        2    1    3    3  502    0  0.84859380337E+03 -0.92036474319E+03 -0.11574443570E+04  0.17049516542E+04  0.25500000920E-02 0. -1.
       -2    1    3    3    0  502 -0.84859380337E+03  0.92036474319E+03 -0.57393878140E+02  0.12531866425E+04  0.25500000920E-02 0.  1.
</event>
<event>
 5   0  0.3013407E-06  0.2709761E+04  0.7818609E-02  0.8331845E-01
       -1   -1    0    0    0  501  0.00000000000E+00  0.00000000000E+00  0.18202195316E+04  0.18202195316E+04  0.50400001928E-02 0. -1.
        1   -1    0    0  501    0  0.00000000000E+00  0.00000000000E+00 -0.10085056068E+04  0.10085056069E+04  0.50400001928E-02 0.  1.
    10030    2    1    2    0    0  0.00000000000E+00  0.00000000000E+00  0.81171392478E+03  0.28287251385E+04  0.27097613204E+04 0.  0.
        4    1    3    3  502    0 -0.70315082568E+03 -0.50385506295E+03 -0.68271255476E+03  0.11019932184E+04  0.12699999809E+01 0.  1.
       -4    1    3    3    0  502  0.70315082568E+03  0.50385506295E+03  0.14944264795E+04  0.17267319201E+04  0.12699999809E+01 0. -1.
</event>
<event>
 5   0  0.3199840E-06  0.2698458E+04  0.7818609E-02  0.8335505E-01
        1   -1    0    0  501    0  0.00000000000E+00  0.00000000000E+00  0.24045968928E+04  0.24045968928E+04  0.50400001928E-02 0. -1.
       -1   -1    0    0    0  501  0.00000000000E+00  0.00000000000E+00 -0.75705786638E+03  0.75705786640E+03  0.50400001928E-02 0.  1.
    10030    2    1    2    0    0  0.00000000000E+00  0.00000000000E+00  0.16475390264E+04  0.31616547592E+04  0.26984580732E+04 0.  0.
        1    1    3    3  502    0 -0.55742868682E+03 -0.16682176317E+03 -0.60250381560E+03  0.83759601802E+03  0.50400001928E-02 0.  1.
       -1    1    3    3    0  502  0.55742868682E+03  0.16682176317E+03  0.22500428420E+04  0.23240587411E+04  0.50400001928E-02 0. -1.
</event>
<event>
 5   0  0.3089218E-06  0.2710638E+04  0.7818609E-02  0.8331561E-01
       -1   -1    0    0    0  501  0.00000000000E+00  0.00000000000E+00  0.99005071929E+03  0.99005071931E+03  0.50400001928E-02 0.  1.
        1   -1    0    0  501    0  0.00000000000E+00  0.00000000000E+00 -0.18553493418E+04  0.18553493418E+04  0.50400001928E-02 0. -1.
    10030    2    1    2    0    0  0.00000000000E+00  0.00000000000E+00 -0.86529862249E+03  0.28454000611E+04  0.27106382646E+04 0.  0.
        5    1    3    3  502    0 -0.29819098715E+03  0.11243137363E+04 -0.11628386704E+04  0.16447538132E+04  0.46999998093E+01 0. -1.
       -5    1    3    3    0  502  0.29819098715E+03 -0.11243137363E+04  0.29754004792E+03  0.12006462479E+04  0.46999998093E+01 0.  1.
</event>
<event>
 5   0  0.3028601E-06  0.2711463E+04  0.7818609E-02  0.8331295E-01
        1   -1    0    0  501    0  0.00000000000E+00  0.00000000000E+00  0.16696977226E+04  0.16696977226E+04  0.50400001928E-02 0. -1.
       -1   -1    0    0    0  501  0.00000000000E+00  0.00000000000E+00 -0.11008028724E+04  0.11008028724E+04  0.50400001928E-02 0.  1.
    10030    2    1    2    0    0  0.00000000000E+00  0.00000000000E+00  0.56889485020E+03  0.27705005950E+04  0.27114631099E+04 0.  0.
        3    1    3    3  502    0 -0.12169178649E+04  0.22940796674E+03  0.84826905236E+03  0.15010254829E+04  0.10100000352E+00 0. -1.
       -3    1    3    3    0  502  0.12169178649E+04 -0.22940796674E+03 -0.27937420217E+03  0.12694751120E+04  0.10100000352E+00 0.  1.
</event>
<event>
 5   0  0.8407622E-06  0.2713388E+04  0.7818609E-02  0.8330674E-01
       -2   -1    0    0    0  501  0.00000000000E+00  0.00000000000E+00  0.14319271876E+04  0.14319271876E+04  0.25500000920E-02 0.  1.
        2   -1    0    0  501    0  0.00000000000E+00  0.00000000000E+00 -0.12854136044E+04  0.12854136044E+04  0.25500000920E-02 0. -1.
    10030    2    1    2    0    0  0.00000000000E+00  0.00000000000E+00  0.14651358316E+03  0.27173407921E+04  0.27133880574E+04 0.  0.
        1    1    3    3  502    0 -0.46795392030E+03  0.92527167602E+03  0.94946571847E+03  0.14059138297E+04  0.50400001928E-02 0.  1.
       -1    1    3    3    0  502  0.46795392030E+03 -0.92527167602E+03 -0.80295213531E+03  0.13114269624E+04  0.50400001928E-02 0. -1.
</event>
<event>
 5   0  0.3089218E-06  0.2664363E+04  0.7818609E-02  0.8346661E-01
       -1   -1    0    0    0  501  0.00000000000E+00  0.00000000000E+00  0.81869295021E+03  0.81869295023E+03  0.50400001928E-02 0.  1.
        1   -1    0    0  501    0  0.00000000000E+00  0.00000000000E+00 -0.21677327519E+04  0.21677327519E+04  0.50400001928E-02 0. -1.
    10030    2    1    2    0    0  0.00000000000E+00  0.00000000000E+00 -0.13490398017E+04  0.29864257021E+04  0.26643629797E+04 0.  0.
        5    1    3    3  502    0  0.68943229210E+03  0.70354206514E+03  0.33077521948E+03  0.10390970400E+04  0.46999998093E+01 0.  1.
       -5    1    3    3    0  502 -0.68943229210E+03 -0.70354206514E+03 -0.16798150212E+04  0.19473286621E+04  0.46999998093E+01 0. -1.
</event>
<event>
 5   0  0.3199840E-06  0.2669981E+04  0.7818609E-02  0.8344811E-01
       -1   -1    0    0    0  501  0.00000000000E+00  0.00000000000E+00  0.13384671319E+04  0.13384671319E+04  0.50400001928E-02 0. -1.
        1   -1    0    0  501    0  0.00000000000E+00  0.00000000000E+00 -0.13315230193E+04  0.13315230193E+04  0.50400001928E-02 0.  1.
    10030    2    1    2    0    0  0.00000000000E+00  0.00000000000E+00  0.69441126033E+01  0.26699901511E+04  0.26699811210E+04 0.  0.
        1    1    3    3  502    0  0.79005351645E+03 -0.10325773382E+04  0.30645703838E+03  0.13357830792E+04  0.50400001928E-02 0. -1.
       -1    1    3    3    0  502 -0.79005351645E+03  0.10325773382E+04 -0.29951292577E+03  0.13342070720E+04  0.50400001928E-02 0.  1.
</event>
<event>
 5   0  0.3028601E-06  0.2708310E+04  0.7818609E-02  0.8332314E-01
       -1   -1    0    0    0  501  0.00000000000E+00  0.00000000000E+00  0.11689063763E+04  0.11689063764E+04  0.50400001928E-02 0.  1.
        1   -1    0    0  501    0  0.00000000000E+00  0.00000000000E+00 -0.15687613355E+04  0.15687613355E+04  0.50400001928E-02 0. -1.
    10030    2    1    2    0    0  0.00000000000E+00  0.00000000000E+00 -0.39985495918E+03  0.27376677119E+04  0.27083095304E+04 0.  0.
        3    1    3    3  502    0 -0.54389804979E+03 -0.53429658538E+03  0.93132726363E+03  0.12036064190E+04  0.10100000352E+00 0.  1.
       -3    1    3    3    0  502  0.54389804979E+03  0.53429658538E+03 -0.13311822228E+04  0.15340612929E+04  0.10100000352E+00 0. -1.
</event>
<event>
 5   0  0.3013407E-06  0.2703563E+04  0.7818609E-02  0.8333850E-01
       -1   -1    0    0    0  501  0.00000000000E+00  0.00000000000E+00  0.70351933677E+03  0.70351933679E+03  0.50400001928E-02 0. -1.
        1   -1    0    0  501    0  0.00000000000E+00  0.00000000000E+00 -0.25973888965E+04  0.25973888965E+04  0.50400001928E-02 0.  1.
    10030    2    1    2    0    0  0.00000000000E+00  0.00000000000E+00 -0.18938695597E+04  0.33009082333E+04  0.27035630666E+04 0.  0.
        4    1    3    3  502    0 -0.39755629460E+03  0.78582413408E+03  0.30520085015E+03  0.93205136603E+03  0.12699999809E+01 0. -1.
       -4    1    3    3    0  502  0.39755629460E+03 -0.78582413408E+03 -0.21990704099E+04  0.23688568672E+04  0.12699999809E+01 0.  1.
</event>
<event>
 5   0  0.3028601E-06  0.2704060E+04  0.7818609E-02  0.8333689E-01
       -1   -1    0    0    0  501  0.00000000000E+00  0.00000000000E+00  0.14271728111E+04  0.14271728112E+04  0.50400001928E-02 0.  1.
        1   -1    0    0  501    0  0.00000000000E+00  0.00000000000E+00 -0.12808435509E+04  0.12808435510E+04  0.50400001928E-02 0. -1.
    10030    2    1    2    0    0  0.00000000000E+00  0.00000000000E+00  0.14632926020E+03  0.27080163621E+04  0.27040599781E+04 0.  0.
        3    1    3    3  502    0  0.10330902038E+04 -0.42638948991E+03 -0.68880450834E+03  0.13128347296E+04  0.10100000352E+00 0. -1.
       -3    1    3    3    0  502 -0.10330902038E+04  0.42638948991E+03  0.83513376854E+03  0.13951816325E+04  0.10100000352E+00 0.  1.
</event>
<event>
 5   0  0.8407622E-06  0.2705918E+04  0.7818609E-02  0.8333087E-01
       -2   -1    0    0    0  501  0.00000000000E+00  0.00000000000E+00  0.13720494888E+04  0.13720494888E+04  0.25500000920E-02 0.  1.
        2   -1    0    0  501    0  0.00000000000E+00  0.00000000000E+00 -0.13341345639E+04  0.13341345639E+04  0.25500000920E-02 0. -1.
    10030    2    1    2    0    0  0.00000000000E+00  0.00000000000E+00  0.37914924928E+02  0.27061840527E+04  0.27059184366E+04 0.  0.
        1    1    3    3  502    0 -0.10055586136E+04  0.89221275990E+03  0.17163846336E+03  0.13552311598E+04  0.50400001928E-02 0.  1.
       -1    1    3    3    0  502  0.10055586136E+04 -0.89221275990E+03 -0.13372353843E+03  0.13509528930E+04  0.50400001928E-02 0. -1.
</event>
<event>
 5   0  0.8213334E-06  0.2717276E+04  0.7818609E-02  0.8329421E-01
       -2   -1    0    0    0  501  0.00000000000E+00  0.00000000000E+00  0.12501555401E+04  0.12501555401E+04  0.25500000920E-02 0. -1.
        2   -1    0    0  501    0  0.00000000000E+00  0.00000000000E+00 -0.14765343124E+04  0.14765343124E+04  0.25500000920E-02 0.  1.
    10030    2    1    2    0    0  0.00000000000E+00  0.00000000000E+00 -0.22637877229E+03  0.27266898524E+04  0.27172762471E+04 0.  0.
        3    1    3    3  502    0  0.63234116323E+03 -0.10313385821E+04 -0.73370282781E+03  0.14148619959E+04  0.10100000352E+00 0.  1.
       -3    1    3    3    0  502 -0.63234116323E+03  0.10313385821E+04  0.50732405552E+03  0.13118278565E+04  0.10100000352E+00 0. -1.
</event>
<event>
 5   0  0.3028601E-06  0.2695631E+04  0.7818609E-02  0.8336424E-01
        1   -1    0    0  501    0  0.00000000000E+00  0.00000000000E+00  0.11440734373E+04  0.11440734373E+04  0.50400001928E-02 0.  1.
       -1   -1    0    0    0  501  0.00000000000E+00  0.00000000000E+00 -0.15878413209E+04  0.15878413210E+04  0.50400001928E-02 0. -1.
    10030    2    1    2    0    0  0.00000000000E+00  0.00000000000E+00 -0.44376788363E+03  0.27319147583E+04  0.26956313383E+04 0.  0.
        3    1    3    3  502    0  0.41584979494E+03  0.12021874205E+04  0.22955698221E+03  0.12926260342E+04  0.10100000352E+00 0.  1.
       -3    1    3    3    0  502 -0.41584979494E+03 -0.12021874205E+04 -0.67332486583E+03  0.14392887241E+04  0.10100000352E+00 0. -1.
</event>
<event>
 5   0  0.2654625E-06  0.2692100E+04  0.7818609E-02  0.8337573E-01
       -4   -1    0    0    0  501  0.00000000000E+00  0.00000000000E+00  0.13354240096E+04  0.13354246135E+04  0.12699999809E+01 0. -1.
        4   -1    0    0  501    0  0.00000000000E+00  0.00000000000E+00 -0.13567590512E+04  0.13567596456E+04  0.12699999809E+01 0.  1.
    10030    2    1    2    0    0  0.00000000000E+00  0.00000000000E+00 -0.21335041615E+02  0.26921842592E+04  0.26920997198E+04 0.  0.
        5    1    3    3  502    0 -0.41120053332E+03 -0.94974467550E+03 -0.87134970987E+03  0.13529128701E+04  0.46999998093E+01 0.  1.
       -5    1    3    3    0  502  0.41120053332E+03  0.94974467550E+03  0.85001466826E+03  0.13392713890E+04  0.46999998093E+01 0. -1.
</event>
<event>
 5   0  0.3013407E-06  0.2717613E+04  0.7818609E-02  0.8329313E-01
       -1   -1    0    0    0  501  0.00000000000E+00  0.00000000000E+00  0.13937609096E+04  0.13937609096E+04  0.50400001928E-02 0. -1.
        1   -1    0    0  501    0  0.00000000000E+00  0.00000000000E+00 -0.13247283814E+04  0.13247283814E+04  0.50400001928E-02 0.  1.
    10030    2    1    2    0    0  0.00000000000E+00  0.00000000000E+00  0.69032528211E+02  0.27184892911E+04  0.27176126537E+04 0.  0.
        4    1    3    3  502    0 -0.36243866397E+03  0.66125842994E+03 -0.10962149097E+04  0.13305311862E+04  0.12699999809E+01 0.  1.
       -4    1    3    3    0  502  0.36243866397E+03 -0.66125842994E+03  0.11652474379E+04  0.13879581049E+04  0.12699999809E+01 0. -1.
</event>
<event>
 5   0  0.3046300E-06  0.2715068E+04  0.7818609E-02  0.8330132E-01
        1   -1    0    0  501    0  0.00000000000E+00  0.00000000000E+00  0.12018420729E+04  0.12018420729E+04  0.50400001928E-02 0.  1.
       -1   -1    0    0    0  501  0.00000000000E+00  0.00000000000E+00 -0.15333950406E+04  0.15333950406E+04  0.50400001928E-02 0. -1.
    10030    2    1    2    0    0  0.00000000000E+00  0.00000000000E+00 -0.33155296775E+03  0.27352371135E+04  0.27150680833E+04 0.  0.
        2    1    3    3  502    0 -0.10136783474E+03 -0.10025421591E+03  0.11942790513E+04  0.12027588279E+04  0.25500000920E-02 0.  1.
       -2    1    3    3    0  502  0.10136783474E+03  0.10025421591E+03 -0.15258320190E+04  0.15324782857E+04  0.25500000920E-02 0. -1.
</event>
<event>
 5   0  0.3199840E-06  0.2718435E+04  0.7818609E-02  0.8329048E-01
        1   -1    0    0  501    0  0.00000000000E+00  0.00000000000E+00  0.20854990504E+04  0.20854990504E+04  0.50400001928E-02 0.  1.
       -1   -1    0    0    0  501  0.00000000000E+00  0.00000000000E+00 -0.88586564542E+03  0.88586564543E+03  0.50400001928E-02 0. -1.
    10030    2    1    2    0    0  0.00000000000E+00  0.00000000000E+00  0.11996334050E+04  0.29713646959E+04  0.27184348161E+04 0.  0.
        1    1    3    3  502    0  0.93278812592E+03  0.70442637481E+03 -0.15838121329E+03  0.11795739969E+04  0.50400001928E-02 0. -1.
       -1    1    3    3    0  502 -0.93278812592E+03 -0.70442637481E+03  0.13580146183E+04  0.17917906990E+04  0.50400001928E-02 0.  1.
</event>
<event>
 5   0  0.3089218E-06  0.2657072E+04  0.7818609E-02  0.8349070E-01
        1   -1    0    0  501    0  0.00000000000E+00  0.00000000000E+00  0.17580931541E+04  0.17580931541E+04  0.50400001928E-02 0.  1.
       -1   -1    0    0    0  501  0.00000000000E+00  0.00000000000E+00 -0.10039330435E+04  0.10039330435E+04  0.50400001928E-02 0. -1.
    10030    2    1    2    0    0  0.00000000000E+00  0.00000000000E+00  0.75416011063E+03  0.27620261976E+04  0.26570719305E+04 0.  0.
        5    1    3    3  502    0 -0.39929977178E+01  0.12776967092E+04  0.75540791782E+03  0.14843139954E+04  0.46999998093E+01 0.  1.
       -5    1    3    3    0  502  0.39929977178E+01 -0.12776967092E+04 -0.12478071868E+01  0.12777122022E+04  0.46999998093E+01 0. -1.
</event>
<event>
 5   0  0.7812908E-06  0.2715386E+04  0.7818609E-02  0.8330030E-01
        2   -1    0    0  501    0  0.00000000000E+00  0.00000000000E+00  0.27799466738E+04  0.27799466738E+04  0.25500000920E-02 0.  1.
       -2   -1    0    0    0  501  0.00000000000E+00  0.00000000000E+00 -0.66308097979E+03  0.66308097980E+03  0.25500000920E-02 0. -1.
    10030    2    1    2    0    0  0.00000000000E+00  0.00000000000E+00  0.21168656940E+04  0.34430276536E+04  0.27153856185E+04 0.  0.
        5    1    3    3  502    0 -0.74918844438E+03  0.98876012411E+03  0.35888816408E+03  0.12914150040E+04  0.46999998093E+01 0. -1.
       -5    1    3    3    0  502  0.74918844438E+03 -0.98876012411E+03  0.17579775299E+04  0.21516126496E+04  0.46999998093E+01 0.  1.
</event>
<event>
 5   0  0.7729970E-06  0.2689747E+04  0.7818609E-02  0.8338340E-01
        2   -1    0    0  501    0  0.00000000000E+00  0.00000000000E+00  0.13570038371E+04  0.13570038371E+04  0.25500000920E-02 0.  1.
       -2   -1    0    0    0  501  0.00000000000E+00  0.00000000000E+00 -0.13328511081E+04  0.13328511081E+04  0.25500000920E-02 0. -1.
    10030    2    1    2    0    0  0.00000000000E+00  0.00000000000E+00  0.24152728999E+02  0.26898549452E+04  0.26897465070E+04 0.  0.
        4    1    3    3  502    0  0.35512833730E+03 -0.33765939833E+03 -0.12403927673E+04  0.13336813095E+04  0.12699999809E+01 0. -1.
       -4    1    3    3    0  502 -0.35512833730E+03  0.33765939833E+03  0.12645454963E+04  0.13561736357E+04  0.12699999809E+01 0.  1.
</event>
<event>
 5   0  0.3089218E-06  0.2723398E+04  0.7818609E-02  0.8327453E-01
       -1   -1    0    0    0  501  0.00000000000E+00  0.00000000000E+00  0.63956827071E+03  0.63956827073E+03  0.50400001928E-02 0. -1.
        1   -1    0    0  501    0  0.00000000000E+00  0.00000000000E+00 -0.28991806140E+04  0.28991806141E+04  0.50400001928E-02 0.  1.
    10030    2    1    2    0    0  0.00000000000E+00  0.00000000000E+00 -0.22596123433E+04  0.35387488848E+04  0.27233978276E+04 0.  0.
        5    1    3    3  502    0  0.13213987126E+04  0.87456818629E+02 -0.71796269072E+03  0.15063982767E+04  0.46999998093E+01 0.  1.
       -5    1    3    3    0  502 -0.13213987126E+04 -0.87456818629E+02 -0.15416496526E+04  0.20323506081E+04  0.46999998093E+01 0. -1.
</event>
<event>
 5   0  0.2654625E-06  0.2678572E+04  0.7818609E-02  0.8341991E-01
        3   -1    0    0  501    0  0.00000000000E+00  0.00000000000E+00  0.14005541497E+04  0.14005541533E+04  0.10100000352E+00 0. -1.
       -3   -1    0    0    0  501  0.00000000000E+00  0.00000000000E+00 -0.12806976557E+04  0.12806976597E+04  0.10100000352E+00 0.  1.
    10030    2    1    2    0    0  0.00000000000E+00  0.00000000000E+00  0.11985649395E+03  0.26812518130E+04  0.26785715794E+04 0.  0.
        1    1    3    3  502    0 -0.11824128065E+04 -0.43565504763E+03  0.51402416701E+03  0.13609247627E+04  0.50400001928E-02 0.  1.
       -1    1    3    3    0  502  0.11824128065E+04  0.43565504763E+03 -0.39416767306E+03  0.13203270504E+04  0.50400001928E-02 0. -1.
</event>
<event>
 5   0  0.8407622E-06  0.2717431E+04  0.7818609E-02  0.8329371E-01
       -2   -1    0    0    0  501  0.00000000000E+00  0.00000000000E+00  0.19066038979E+04  0.19066038979E+04  0.25500000920E-02 0. -1.
        2   -1    0    0  501    0  0.00000000000E+00  0.00000000000E+00 -0.96827003859E+03  0.96827003859E+03  0.25500000920E-02 0.  1.
    10030    2    1    2    0    0  0.00000000000E+00  0.00000000000E+00  0.93833385934E+03  0.28748739365E+04  0.27174307202E+04 0.  0.
        1    1    3    3  502    0  0.49094706228E+03 -0.35635124537E+03  0.17553745779E+04  0.18572439626E+04  0.50400001928E-02 0. -1.
       -1    1    3    3    0  502 -0.49094706228E+03  0.35635124537E+03 -0.81704071853E+03  0.10176299739E+04  0.50400001928E-02 0.  1.
</event>
<event>
 5   0  0.7729970E-06  0.2743654E+04  0.7818609E-02  0.8320978E-01
        2   -1    0    0  501    0  0.00000000000E+00  0.00000000000E+00  0.28599709022E+04  0.28599709022E+04  0.25500000920E-02 0.  1.
       -2   -1    0    0    0  501  0.00000000000E+00  0.00000000000E+00 -0.65801677864E+03  0.65801677864E+03  0.25500000920E-02 0. -1.
    10030    2    1    2    0    0  0.00000000000E+00  0.00000000000E+00  0.22019541236E+04  0.35179876808E+04  0.27436536517E+04 0.  0.
        4    1    3    3  502    0  0.55209757935E+03  0.95877293759E+03  0.60988773426E+02  0.11080516804E+04  0.12699999809E+01 0. -1.
       -4    1    3    3    0  502 -0.55209757935E+03 -0.95877293759E+03  0.21409653501E+04  0.24099360005E+04  0.12699999809E+01 0.  1.
</event>
<event>
 5   0  0.7729970E-06  0.2679279E+04  0.7818609E-02  0.8341760E-01
        2   -1    0    0  501    0  0.00000000000E+00  0.00000000000E+00  0.17177682613E+04  0.17177682613E+04  0.25500000920E-02 0. -1.
       -2   -1    0    0    0  501  0.00000000000E+00  0.00000000000E+00 -0.10447477070E+04  0.10447477070E+04  0.25500000920E-02 0.  1.
    10030    2    1    2    0    0  0.00000000000E+00  0.00000000000E+00  0.67302055431E+03  0.27625159682E+04  0.26792793450E+04 0.  0.
        4    1    3    3  502    0  0.22807768011E+03 -0.11376646755E+03  0.16925377959E+04  0.17116214654E+04  0.12699999809E+01 0. -1.
       -4    1    3    3    0  502 -0.22807768011E+03  0.11376646755E+03 -0.10195172416E+04  0.10508945029E+04  0.12699999809E+01 0.  1.
</event>
<event>
 5   0  0.3199840E-06  0.2600259E+04  0.7818609E-02  0.8368113E-01
       -1   -1    0    0    0  501  0.00000000000E+00  0.00000000000E+00  0.12539150292E+04  0.12539150292E+04  0.50400001928E-02 0. -1.
        1   -1    0    0  501    0  0.00000000000E+00  0.00000000000E+00 -0.13480471161E+04  0.13480471161E+04  0.50400001928E-02 0.  1.
    10030    2    1    2    0    0  0.00000000000E+00  0.00000000000E+00 -0.94132086889E+02  0.26019621454E+04  0.26002588633E+04 0.  0.
        1    1    3    3  502    0 -0.54415587056E+02 -0.64905635033E+03 -0.11730147912E+04  0.13417149110E+04  0.50400001928E-02 0.  1.
       -1    1    3    3    0  502  0.54415587056E+02  0.64905635033E+03  0.10788827043E+04  0.12602472344E+04  0.50400001928E-02 0. -1.
</event>
<event>
 5   0  0.3028601E-06  0.2637791E+04  0.7818609E-02  0.8355477E-01
        1   -1    0    0  501    0  0.00000000000E+00  0.00000000000E+00  0.17268685563E+04  0.17268685563E+04  0.50400001928E-02 0. -1.
       -1   -1    0    0    0  501  0.00000000000E+00  0.00000000000E+00 -0.10073062563E+04  0.10073062564E+04  0.50400001928E-02 0.  1.
    10030    2    1    2    0    0  0.00000000000E+00  0.00000000000E+00  0.71956229997E+03  0.27341748127E+04  0.26377911219E+04 0.  0.
        3    1    3    3  502    0  0.12733175717E+04 -0.94783455700E+02  0.70225348432E+03  0.14572170423E+04  0.10100000352E+00 0.  1.
       -3    1    3    3    0  502 -0.12733175717E+04  0.94783455700E+02  0.17308815647E+02  0.12769577704E+04  0.10100000352E+00 0. -1.
</event>
<event>
 5   0  0.3028601E-06  0.2727614E+04  0.7818609E-02  0.8326100E-01
       -1   -1    0    0    0  501  0.00000000000E+00  0.00000000000E+00  0.73541311580E+03  0.73541311582E+03  0.50400001928E-02 0.  1.
        1   -1    0    0  501    0  0.00000000000E+00  0.00000000000E+00 -0.25291499237E+04  0.25291499237E+04  0.50400001928E-02 0. -1.
    10030    2    1    2    0    0  0.00000000000E+00  0.00000000000E+00 -0.17937368079E+04  0.32645630395E+04  0.27276143611E+04 0.  0.
        3    1    3    3  502    0  0.97757959162E+03 -0.20342669704E+03 -0.20086738625E+04  0.22431707414E+04  0.10100000352E+00 0. -1.
       -3    1    3    3    0  502 -0.97757959162E+03  0.20342669704E+03  0.21493705459E+03  0.10213922981E+04  0.10100000352E+00 0.  1.
</event>
<event>
 5   0  0.7729970E-06  0.2708169E+04  0.7818609E-02  0.8332359E-01
        2   -1    0    0  501    0  0.00000000000E+00  0.00000000000E+00  0.23652734559E+04  0.23652734559E+04  0.25500000920E-02 0.  1.
       -2   -1    0    0    0  501  0.00000000000E+00  0.00000000000E+00 -0.77519350946E+03  0.77519350947E+03  0.25500000920E-02 0. -1.
    10030    2    1    2    0    0  0.00000000000E+00  0.00000000000E+00  0.15900799464E+04  0.31404669653E+04  0.27081688508E+04 0.  0.
        4    1    3    3  502    0  0.49529422266E+03 -0.12400307782E+04  0.53431631149E+03  0.14382239852E+04  0.12699999809E+01 0. -1.
       -4    1    3    3    0  502 -0.49529422266E+03  0.12400307782E+04  0.10557636349E+04  0.17022429802E+04  0.12699999809E+01 0.  1.
</event>
<event>
 5   0  0.3013407E-06  0.2690640E+04  0.7818609E-02  0.8338048E-01
       -1   -1    0    0    0  501  0.00000000000E+00  0.00000000000E+00  0.98942515961E+03  0.98942515963E+03  0.50400001928E-02 0.  1.
        1   -1    0    0  501    0  0.00000000000E+00  0.00000000000E+00 -0.18292301471E+04  0.18292301471E+04  0.50400001928E-02 0. -1.
    10030    2    1    2    0    0  0.00000000000E+00  0.00000000000E+00 -0.83980498751E+03  0.28186553068E+04  0.26906403181E+04 0.  0.
        4    1    3    3  502    0  0.92043120224E+03 -0.68153803121E+03 -0.11593151694E+04  0.16296321551E+04  0.12699999809E+01 0.  1.
       -4    1    3    3    0  502 -0.92043120224E+03  0.68153803121E+03  0.31951018185E+03  0.11890231517E+04  0.12699999809E+01 0. -1.
</event>
<event>
 5   0  0.8407622E-06  0.2698512E+04  0.7818609E-02  0.8335488E-01
       -2   -1    0    0    0  501  0.00000000000E+00  0.00000000000E+00  0.14983543681E+04  0.14983543681E+04  0.25500000920E-02 0.  1.
        2   -1    0    0  501    0  0.00000000000E+00  0.00000000000E+00 -0.12149944204E+04  0.12149944204E+04  0.25500000920E-02 0. -1.
    10030    2    1    2    0    0  0.00000000000E+00  0.00000000000E+00  0.28335994772E+03  0.27133487885E+04  0.26985123287E+04 0.  0.
        1    1    3    3  502    0  0.17514878520E+03 -0.13104349511E+04  0.41255923361E+03  0.13849628079E+04  0.50400001928E-02 0.  1.
       -1    1    3    3    0  502 -0.17514878520E+03  0.13104349511E+04 -0.12919928589E+03  0.13283859806E+04  0.50400001928E-02 0. -1.
</event>
<event>
 5   0  0.3089218E-06  0.2703302E+04  0.7818609E-02  0.8333934E-01
        1   -1    0    0  501    0  0.00000000000E+00  0.00000000000E+00  0.10476438703E+04  0.10476438704E+04  0.50400001928E-02 0.  1.
       -1   -1    0    0    0  501  0.00000000000E+00  0.00000000000E+00 -0.17438757603E+04  0.17438757603E+04  0.50400001928E-02 0. -1.
    10030    2    1    2    0    0  0.00000000000E+00  0.00000000000E+00 -0.69623188999E+03  0.27915196307E+04  0.27033022406E+04 0.  0.
        5    1    3    3  502    0  0.11084236042E+04  0.75991551051E+03 -0.49727405185E+03  0.14329612842E+04  0.46999998093E+01 0. -1.
       -5    1    3    3    0  502 -0.11084236042E+04 -0.75991551051E+03 -0.19895783814E+03  0.13585583465E+04  0.46999998093E+01 0.  1.
</event>
<event>
 5   0  0.8213334E-06  0.2754479E+04  0.7818609E-02  0.8317542E-01
       -2   -1    0    0    0  501  0.00000000000E+00  0.00000000000E+00  0.24276721658E+04  0.24276721658E+04  0.25500000920E-02 0.  1.
        2   -1    0    0  501    0  0.00000000000E+00  0.00000000000E+00 -0.78132012334E+03  0.78132012335E+03  0.25500000920E-02 0. -1.
    10030    2    1    2    0    0  0.00000000000E+00  0.00000000000E+00  0.16463520425E+04  0.32089922892E+04  0.27544793454E+04 0.  0.
        3    1    3    3  502    0  0.27291280696E+03  0.18058972539E+03 -0.73536656162E+03  0.80489629100E+03  0.10100000352E+00 0. -1.
       -3    1    3    3    0  502 -0.27291280696E+03 -0.18058972539E+03  0.23817186041E+04  0.24040959982E+04  0.10100000352E+00 0.  1.
</event>
<event>
 5   0  0.8407622E-06  0.2702187E+04  0.7818609E-02  0.8334296E-01
       -2   -1    0    0    0  501  0.00000000000E+00  0.00000000000E+00  0.84155194943E+03  0.84155194944E+03  0.25500000920E-02 0. -1.
        2   -1    0    0  501    0  0.00000000000E+00  0.00000000000E+00 -0.21691514051E+04  0.21691514051E+04  0.25500000920E-02 0.  1.
    10030    2    1    2    0    0  0.00000000000E+00  0.00000000000E+00 -0.13275994557E+04  0.30107033546E+04  0.27021869614E+04 0.  0.
        1    1    3    3  502    0 -0.38390321522E+03 -0.12611527457E+04 -0.99350014950E+03  0.16507363429E+04  0.50400001928E-02 0. -1.
       -1    1    3    3    0  502  0.38390321522E+03  0.12611527457E+04 -0.33409930619E+03  0.13599670117E+04  0.50400001928E-02 0.  1.
</event>
<event>
 5   0  0.3089218E-06  0.2650730E+04  0.7818609E-02  0.8351171E-01
        1   -1    0    0  501    0  0.00000000000E+00  0.00000000000E+00  0.17998917085E+04  0.17998917085E+04  0.50400001928E-02 0.  1.
       -1   -1    0    0    0  501  0.00000000000E+00  0.00000000000E+00 -0.97594370496E+03  0.97594370497E+03  0.50400001928E-02 0. -1.
    10030    2    1    2    0    0  0.00000000000E+00  0.00000000000E+00  0.82394800353E+03  0.27758354135E+04  0.26507304522E+04 0.  0.
        5    1    3    3  502    0 -0.85511674954E+03  0.80429977168E+03 -0.23224171741E+03  0.11966959026E+04  0.46999998093E+01 0. -1.
       -5    1    3    3    0  502  0.85511674954E+03 -0.80429977168E+03  0.10561897209E+04  0.15791395108E+04  0.46999998093E+01 0.  1.
</event>
<event>
 5   0  0.3046300E-06  0.2704662E+04  0.7818609E-02  0.8333494E-01
       -1   -1    0    0    0  501  0.00000000000E+00  0.00000000000E+00  0.16039936142E+04  0.16039936142E+04  0.50400001928E-02 0. -1.
        1   -1    0    0  501    0  0.00000000000E+00  0.00000000000E+00 -0.11401538246E+04  0.11401538246E+04  0.50400001928E-02 0.  1.
    10030    2    1    2    0    0  0.00000000000E+00  0.00000000000E+00  0.46383978958E+03  0.27441474388E+04  0.27046622368E+04 0.  0.
        2    1    3    3  502    0 -0.10427651143E+03 -0.68457988492E+02 -0.11343043059E+04  0.11411425614E+04  0.25500000920E-02 0.  1.
       -2    1    3    3    0  502  0.10427651143E+03  0.68457988492E+02  0.15981440955E+04  0.16030048774E+04  0.25500000920E-02 0. -1.
</event>
<event>
 5   0  0.7838364E-06  0.2705910E+04  0.7818609E-02  0.8333090E-01
       -2   -1    0    0    0  501  0.00000000000E+00  0.00000000000E+00  0.10145429844E+04  0.10145429844E+04  0.25500000920E-02 0. -1.
        2   -1    0    0  501    0  0.00000000000E+00  0.00000000000E+00 -0.18042485593E+04  0.18042485593E+04  0.25500000920E-02 0.  1.
    10030    2    1    2    0    0  0.00000000000E+00  0.00000000000E+00 -0.78970557495E+03  0.28187915437E+04  0.27059103592E+04 0.  0.
        2    1    3    3  502    0  0.10326088393E+04 -0.42871048824E+03  0.39877799050E+03  0.11870541619E+04  0.25500000920E-02 0. -1.
       -2    1    3    3    0  502 -0.10326088393E+04  0.42871048824E+03 -0.11884835655E+04  0.16317373818E+04  0.25500000920E-02 0.  1.
</event>
<event>
 5   0  0.7838364E-06  0.2689358E+04  0.7818609E-02  0.8338466E-01
       -2   -1    0    0    0  501  0.00000000000E+00  0.00000000000E+00  0.84584078401E+03  0.84584078401E+03  0.25500000920E-02 0.  1.
        2   -1    0    0  501    0  0.00000000000E+00  0.00000000000E+00 -0.21377088689E+04  0.21377088689E+04  0.25500000920E-02 0. -1.
    10030    2    1    2    0    0  0.00000000000E+00  0.00000000000E+00 -0.12918680849E+04  0.29835496529E+04  0.26893578012E+04 0.  0.
        2    1    3    3  502    0  0.11866331927E+04  0.55815559647E+03 -0.31585459027E+03  0.13488514099E+04  0.25500000920E-02 0.  1.
       -2    1    3    3    0  502 -0.11866331927E+04 -0.55815559647E+03 -0.97601349465E+03  0.16346982430E+04  0.25500000920E-02 0. -1.
</event>
<event>
 5   0  0.3028601E-06  0.2684315E+04  0.7818609E-02  0.8340112E-01
        1   -1    0    0  501    0  0.00000000000E+00  0.00000000000E+00  0.14854077206E+04  0.14854077206E+04  0.50400001928E-02 0. -1.
       -1   -1    0    0    0  501  0.00000000000E+00  0.00000000000E+00 -0.12127219864E+04  0.12127219864E+04  0.50400001928E-02 0.  1.
    10030    2    1    2    0    0  0.00000000000E+00  0.00000000000E+00  0.27268573420E+03  0.26981297070E+04  0.26843148858E+04 0.  0.
        3    1    3    3  502    0  0.15662262470E+03  0.12329201265E+04 -0.37298372475E+03  0.12975899021E+04  0.10100000352E+00 0.  1.
       -3    1    3    3    0  502 -0.15662262470E+03 -0.12329201265E+04  0.64566945895E+03  0.14005398049E+04  0.10100000352E+00 0. -1.
</event>
<event>
 5   0  0.3046300E-06  0.2690963E+04  0.7818609E-02  0.8337943E-01
       -1   -1    0    0    0  501  0.00000000000E+00  0.00000000000E+00  0.12154338418E+04  0.12154338418E+04  0.50400001928E-02 0.  1.
        1   -1    0    0  501    0  0.00000000000E+00  0.00000000000E+00 -0.14894433717E+04  0.14894433717E+04  0.50400001928E-02 0. -1.
    10030    2    1    2    0    0  0.00000000000E+00  0.00000000000E+00 -0.27400952990E+03  0.27048772136E+04  0.26909625635E+04 0.  0.
        2    1    3    3  502    0  0.12382356071E+04  0.51443017548E+03 -0.24917956244E+03  0.13638021405E+04  0.25500000920E-02 0.  1.
       -2    1    3    3    0  502 -0.12382356071E+04 -0.51443017548E+03 -0.24829967458E+02  0.13410750730E+04  0.25500000920E-02 0. -1.
</event>
<event>
 5   0  0.8407622E-06  0.2702665E+04  0.7818609E-02  0.8334141E-01
        2   -1    0    0  501    0  0.00000000000E+00  0.00000000000E+00  0.16596447514E+04  0.16596447514E+04  0.25500000920E-02 0. -1.
       -2   -1    0    0    0  501  0.00000000000E+00  0.00000000000E+00 -0.11002956584E+04  0.11002956584E+04  0.25500000920E-02 0.  1.
    10030    2    1    2    0    0  0.00000000000E+00  0.00000000000E+00  0.55934909300E+03  0.27599404099E+04  0.27026652878E+04 0.  0.
        1    1    3    3  502    0  0.43416714394E+02 -0.86938597321E+03 -0.77585625840E+03  0.11660488477E+04  0.50400001928E-02 0.  1.
       -1    1    3    3    0  502 -0.43416714394E+02  0.86938597321E+03  0.13352053514E+04  0.15938915622E+04  0.50400001928E-02 0. -1.
</event>
<event>
 5   0  0.3013407E-06  0.2383238E+04  0.7818609E-02  0.8445806E-01
        1   -1    0    0  501    0  0.00000000000E+00  0.00000000000E+00  0.84236790329E+03  0.84236790330E+03  0.50400001928E-02 0. -1.
       -1   -1    0    0    0  501  0.00000000000E+00  0.00000000000E+00 -0.16856724937E+04  0.16856724937E+04  0.50400001928E-02 0.  1.
    10030    2    1    2    0    0  0.00000000000E+00  0.00000000000E+00 -0.84330459037E+03  0.25280403970E+04  0.23832384724E+04 0.  0.
        4    1    3    3  502    0 -0.97959832800E+02 -0.37852134603E+03 -0.16156914539E+04  0.16623281942E+04  0.12699999809E+01 0.  1.
       -4    1    3    3    0  502  0.97959832800E+02  0.37852134603E+03  0.77238686349E+03  0.86571220278E+03  0.12699999809E+01 0. -1.
</event>
<event>
 5   0  0.8407622E-06  0.2761556E+04  0.7818609E-02  0.8315304E-01
       -2   -1    0    0    0  501  0.00000000000E+00  0.00000000000E+00  0.16184084679E+04  0.16184084679E+04  0.25500000920E-02 0. -1.
        2   -1    0    0  501    0  0.00000000000E+00  0.00000000000E+00 -0.11780391343E+04  0.11780391343E+04  0.25500000920E-02 0.  1.
    10030    2    1    2    0    0  0.00000000000E+00  0.00000000000E+00  0.44036933354E+03  0.27964476022E+04  0.27615564528E+04 0.  0.
        1    1    3    3  502    0  0.30390450116E+03 -0.13381883832E+04  0.37522830207E+03  0.14226392281E+04  0.50400001928E-02 0. -1.
       -1    1    3    3    0  502 -0.30390450116E+03  0.13381883832E+04  0.65141031464E+02  0.13738083741E+04  0.50400001928E-02 0.  1.
</event>
<event>
 5   0  0.3199840E-06  0.2723598E+04  0.7818609E-02  0.8327389E-01
        1   -1    0    0  501    0  0.00000000000E+00  0.00000000000E+00  0.12973340053E+04  0.12973340054E+04  0.50400001928E-02 0. -1.
       -1   -1    0    0    0  501  0.00000000000E+00  0.00000000000E+00 -0.14294671659E+04  0.14294671659E+04  0.50400001928E-02 0.  1.
    10030    2    1    2    0    0  0.00000000000E+00  0.00000000000E+00 -0.13213316057E+03  0.27268011713E+04  0.27235978880E+04 0.  0.
        1    1    3    3  502    0  0.10422310071E+04  0.80942801333E+03  0.27059842291E+03  0.13470867409E+04  0.50400001928E-02 0.  1.
       -1    1    3    3    0  502 -0.10422310071E+04 -0.80942801333E+03 -0.40273158348E+03  0.13797144304E+04  0.50400001928E-02 0. -1.
</event>
<event>
 5   0  0.7729970E-06  0.2701572E+04  0.7818609E-02  0.8334495E-01
       -2   -1    0    0    0  501  0.00000000000E+00  0.00000000000E+00  0.14390025426E+04  0.14390025426E+04  0.25500000920E-02 0.  1.
        2   -1    0    0  501    0  0.00000000000E+00  0.00000000000E+00 -0.12679774175E+04  0.12679774175E+04  0.25500000920E-02 0. -1.
    10030    2    1    2    0    0  0.00000000000E+00  0.00000000000E+00  0.17102512515E+03  0.27069799601E+04  0.27015719333E+04 0.  0.
        4    1    3    3  502    0 -0.73767337716E+03 -0.92293628518E+03 -0.57050997893E+03  0.13120429287E+04  0.12699999809E+01 0. -1.
       -4    1    3    3    0  502  0.73767337716E+03  0.92293628518E+03  0.74153510409E+03  0.13949370313E+04  0.12699999809E+01 0.  1.
</event>
<event>
 5   0  0.2654625E-06  0.2668539E+04  0.7818609E-02  0.8345286E-01
        3   -1    0    0  501    0  0.00000000000E+00  0.00000000000E+00  0.91848582839E+03  0.91848583395E+03  0.10100000352E+00 0.  1.
       -3   -1    0    0    0  501  0.00000000000E+00  0.00000000000E+00 -0.19382710313E+04  0.19382710339E+04  0.10100000352E+00 0. -1.
    10030    2    1    2    0    0  0.00000000000E+00  0.00000000000E+00 -0.10197852029E+04  0.28567568679E+04  0.26685385405E+04 0.  0.
        1    1    3    3  502    0 -0.12681531863E+04  0.23878985817E+03 -0.14679209757E+03  0.12987613408E+04  0.50400001928E-02 0. -1.
       -1    1    3    3    0  502  0.12681531863E+04 -0.23878985817E+03 -0.87299310532E+03  0.15579955271E+04  0.50400001928E-02 0.  1.
</event>
<event>
 5   0  0.8213334E-06  0.2703783E+04  0.7818609E-02  0.8333779E-01
       -2   -1    0    0    0  501  0.00000000000E+00  0.00000000000E+00  0.90466477107E+03  0.90466477108E+03  0.25500000920E-02 0. -1.
        2   -1    0    0  501    0  0.00000000000E+00  0.00000000000E+00 -0.20202068926E+04  0.20202068926E+04  0.25500000920E-02 0.  1.
    10030    2    1    2    0    0  0.00000000000E+00  0.00000000000E+00 -0.11155421215E+04  0.29248716637E+04  0.27037825401E+04 0.  0.
        3    1    3    3  502    0 -0.14129489870E+03 -0.33775123921E+03  0.85001484304E+03  0.92550818018E+03  0.10100000352E+00 0. -1.
       -3    1    3    3    0  502  0.14129489870E+03  0.33775123921E+03 -0.19655569646E+04  0.19993634835E+04  0.10100000352E+00 0.  1.
</event>
<event>
 5   0  0.7838364E-06  0.2704850E+04  0.7818609E-02  0.8333433E-01
        2   -1    0    0  501    0  0.00000000000E+00  0.00000000000E+00  0.20556319932E+04  0.20556319932E+04  0.25500000920E-02 0. -1.
       -2   -1    0    0    0  501  0.00000000000E+00  0.00000000000E+00 -0.88977652822E+03  0.88977652822E+03  0.25500000920E-02 0.  1.
    10030    2    1    2    0    0  0.00000000000E+00  0.00000000000E+00  0.11658554649E+04  0.29454085214E+04  0.27048497912E+04 0.  0.
        2    1    3    3  502    0 -0.26443453652E+03 -0.54775156273E+03 -0.73243119065E+03  0.95205716616E+03  0.25500000920E-02 0.  1.
       -2    1    3    3    0  502  0.26443453652E+03  0.54775156273E+03  0.18982866556E+04  0.19933513552E+04  0.25500000920E-02 0. -1.
</event>
<event>
 5   0  0.8407622E-06  0.2622667E+04  0.7818609E-02  0.8360542E-01
       -2   -1    0    0    0  501  0.00000000000E+00  0.00000000000E+00  0.94934451361E+03  0.94934451362E+03  0.25500000920E-02 0. -1.
        2   -1    0    0  501    0  0.00000000000E+00  0.00000000000E+00 -0.18113497314E+04  0.18113497314E+04  0.25500000920E-02 0.  1.
    10030    2    1    2    0    0  0.00000000000E+00  0.00000000000E+00 -0.86200521780E+03  0.27606942450E+04  0.26226665284E+04 0.  0.
        1    1    3    3  502    0 -0.67281183984E+01 -0.10307806567E+04  0.42223784608E+03  0.11139294540E+04  0.50400001928E-02 0. -1.
       -1    1    3    3    0  502  0.67281183984E+01  0.10307806567E+04 -0.12842430639E+04  0.16467647910E+04  0.50400001928E-02 0.  1.
</event>
<event>
 5   0  0.3013407E-06  0.2757126E+04  0.7818609E-02  0.8316704E-01
        1   -1    0    0  501    0  0.00000000000E+00  0.00000000000E+00  0.23915037232E+04  0.23915037232E+04  0.50400001928E-02 0.  1.
       -1   -1    0    0    0  501  0.00000000000E+00  0.00000000000E+00 -0.79466154959E+03  0.79466154961E+03  0.50400001928E-02 0. -1.
    10030    2    1    2    0    0  0.00000000000E+00  0.00000000000E+00  0.15968421736E+04  0.31861652728E+04  0.27571260795E+04 0.  0.
        4    1    3    3  502    0  0.65813695946E+03  0.10043589694E+04  0.15809611103E+04  0.19852760115E+04  0.12699999809E+01 0.  1.
       -4    1    3    3    0  502 -0.65813695946E+03 -0.10043589694E+04  0.15881063332E+02  0.12008892613E+04  0.12699999809E+01 0. -1.
</event>
<event>
 5   0  0.7838364E-06  0.2606626E+04  0.7818609E-02  0.8365954E-01
       -2   -1    0    0    0  501  0.00000000000E+00  0.00000000000E+00  0.11030842955E+04  0.11030842955E+04  0.25500000920E-02 0.  1.
        2   -1    0    0  501    0  0.00000000000E+00  0.00000000000E+00 -0.15398867374E+04  0.15398867374E+04  0.25500000920E-02 0. -1.
    10030    2    1    2    0    0  0.00000000000E+00  0.00000000000E+00 -0.43680244185E+03  0.26429710329E+04  0.26066260774E+04 0.  0.
        2    1    3    3  502    0  0.29234418696E+02  0.12978885919E+04 -0.33513876627E+03  0.13407786696E+04  0.25500000920E-02 0. -1.
       -2    1    3    3    0  502 -0.29234418696E+02 -0.12978885919E+04 -0.10166367558E+03  0.13021923633E+04  0.25500000920E-02 0.  1.
</event>
<event>
 5   0  0.3028601E-06  0.2679035E+04  0.7818609E-02  0.8341840E-01
        1   -1    0    0  501    0  0.00000000000E+00  0.00000000000E+00  0.14375994730E+04  0.14375994730E+04  0.50400001928E-02 0. -1.
       -1   -1    0    0    0  501  0.00000000000E+00  0.00000000000E+00 -0.12481270562E+04  0.12481270562E+04  0.50400001928E-02 0.  1.
    10030    2    1    2    0    0  0.00000000000E+00  0.00000000000E+00  0.18947241685E+03  0.26857265292E+04  0.26790347503E+04 0.  0.
        3    1    3    3  502    0  0.84289705544E+03 -0.95940722969E+03  0.49993525349E+03  0.13714492139E+04  0.10100000352E+00 0. -1.
       -3    1    3    3    0  502 -0.84289705544E+03  0.95940722969E+03 -0.31046283664E+03  0.13142773153E+04  0.10100000352E+00 0.  1.
</event>
<event>
 5   0  0.3013407E-06  0.2707185E+04  0.7818609E-02  0.8332677E-01
       -1   -1    0    0    0  501  0.00000000000E+00  0.00000000000E+00  0.80168508423E+03  0.80168508425E+03  0.50400001928E-02 0. -1.
        1   -1    0    0  501    0  0.00000000000E+00  0.00000000000E+00 -0.22854526526E+04  0.22854526526E+04  0.50400001928E-02 0.  1.
    10030    2    1    2    0    0  0.00000000000E+00  0.00000000000E+00 -0.14837675683E+04  0.30871377368E+04  0.27071854774E+04 0.  0.
        4    1    3    3  502    0 -0.39917700388E+03 -0.58130928200E+03  0.57567596947E+03  0.91031159308E+03  0.12699999809E+01 0. -1.
       -4    1    3    3    0  502  0.39917700388E+03  0.58130928200E+03 -0.20594435378E+04  0.21768261437E+04  0.12699999809E+01 0.  1.
</event>
<event>
 5   0  0.3046300E-06  0.2670700E+04  0.7818609E-02  0.8344575E-01
        1   -1    0    0  501    0  0.00000000000E+00  0.00000000000E+00  0.86085501682E+03  0.86085501684E+03  0.50400001928E-02 0. -1.
       -1   -1    0    0    0  501  0.00000000000E+00  0.00000000000E+00 -0.20713815252E+04  0.20713815252E+04  0.50400001928E-02 0.  1.
    10030    2    1    2    0    0  0.00000000000E+00  0.00000000000E+00 -0.12105265084E+04  0.29322365420E+04  0.26706996669E+04 0.  0.
        2    1    3    3  502    0  0.57531712520E+03 -0.10878089652E+04 -0.35988752879E+02  0.12311024855E+04  0.25500000920E-02 0. -1.
       -2    1    3    3    0  502 -0.57531712520E+03  0.10878089652E+04 -0.11745377555E+04  0.17011340566E+04  0.25500000920E-02 0.  1.
</event>
<event>
 5   0  0.3089218E-06  0.2679085E+04  0.7818609E-02  0.8341823E-01
       -1   -1    0    0    0  501  0.00000000000E+00  0.00000000000E+00  0.83940661954E+03  0.83940661955E+03  0.50400001928E-02 0. -1.
        1   -1    0    0  501    0  0.00000000000E+00  0.00000000000E+00 -0.21376704574E+04  0.21376704574E+04  0.50400001928E-02 0.  1.
    10030    2    1    2    0    0  0.00000000000E+00  0.00000000000E+00 -0.12982638378E+04  0.29770770769E+04  0.26790854651E+04 0.  0.
        5    1    3    3  502    0  0.52100011556E+03  0.12218221465E+04 -0.45646212507E+03  0.14045177961E+04  0.46999998093E+01 0. -1.
       -5    1    3    3    0  502 -0.52100011556E+03 -0.12218221465E+04 -0.84180171277E+03  0.15725592808E+04  0.46999998093E+01 0.  1.
</event>
<event>
 5   0  0.8213334E-06  0.2698738E+04  0.7818609E-02  0.8335415E-01
        2   -1    0    0  501    0  0.00000000000E+00  0.00000000000E+00  0.26672930657E+04  0.26672930657E+04  0.25500000920E-02 0.  1.
       -2   -1    0    0    0  501  0.00000000000E+00  0.00000000000E+00 -0.68263827448E+03  0.68263827448E+03  0.25500000920E-02 0. -1.
    10030    2    1    2    0    0  0.00000000000E+00  0.00000000000E+00  0.19846547912E+04  0.33499313402E+04  0.26987377315E+04 0.  0.
        3    1    3    3  502    0 -0.49158827049E+03  0.98924583171E+02 -0.56269017344E+03  0.75370109615E+03  0.10100000352E+00 0. -1.
       -3    1    3    3    0  502  0.49158827049E+03 -0.98924583171E+02  0.25473449647E+04  0.25962302440E+04  0.10100000352E+00 0.  1.
</event>
<event>
 5   0  0.7729970E-06  0.2704263E+04  0.7818609E-02  0.8333623E-01
        2   -1    0    0  501    0  0.00000000000E+00  0.00000000000E+00  0.11339607928E+04  0.11339607928E+04  0.25500000920E-02 0.  1.
       -2   -1    0    0    0  501  0.00000000000E+00  0.00000000000E+00 -0.16122774825E+04  0.16122774826E+04  0.25500000920E-02 0. -1.
    10030    2    1    2    0    0  0.00000000000E+00  0.00000000000E+00 -0.47831668976E+03  0.27462382753E+04  0.27042628957E+04 0.  0.
        4    1    3    3  502    0  0.41700146789E+03 -0.42417620274E+03 -0.14722721995E+04  0.15878925396E+04  0.12699999809E+01 0. -1.
       -4    1    3    3    0  502 -0.41700146789E+03  0.42417620274E+03  0.99395550972E+03  0.11583457357E+04  0.12699999809E+01 0.  1.
</event>
<event>
 5   0  0.7812908E-06  0.2703839E+04  0.7818609E-02  0.8333760E-01
        2   -1    0    0  501    0  0.00000000000E+00  0.00000000000E+00  0.11414833964E+04  0.11414833964E+04  0.25500000920E-02 0. -1.
       -2   -1    0    0    0  501  0.00000000000E+00  0.00000000000E+00 -0.16011507437E+04  0.16011507437E+04  0.25500000920E-02 0.  1.
    10030    2    1    2    0    0  0.00000000000E+00  0.00000000000E+00 -0.45966734733E+03  0.27426341401E+04  0.27038394841E+04 0.  0.
        5    1    3    3  502    0 -0.46425445386E+03  0.81762472910E+03  0.75550633383E+03  0.12061734146E+04  0.46999998093E+01 0. -1.
       -5    1    3    3    0  502  0.46425445386E+03 -0.81762472910E+03 -0.12151736812E+04  0.15364607255E+04  0.46999998093E+01 0.  1.
</event>
<event>
 5   0  0.3046300E-06  0.2746134E+04  0.7818609E-02  0.8320189E-01
       -1   -1    0    0    0  501  0.00000000000E+00  0.00000000000E+00  0.14114877575E+04  0.14114877575E+04  0.50400001928E-02 0. -1.
        1   -1    0    0  501    0  0.00000000000E+00  0.00000000000E+00 -0.13356922381E+04  0.13356922381E+04  0.50400001928E-02 0.  1.
    10030    2    1    2    0    0  0.00000000000E+00  0.00000000000E+00  0.75795519392E+02  0.27471799956E+04  0.27461341860E+04 0.  0.
        2    1    3    3  502    0 -0.26610067136E+03 -0.66864295215E+03 -0.11319150391E+04  0.13413145121E+04  0.25500000920E-02 0.  1.
       -2    1    3    3    0  502  0.26610067136E+03  0.66864295215E+03  0.12077105584E+04  0.14058654835E+04  0.25500000920E-02 0. -1.
</event>
<event>
 5   0  0.3046300E-06  0.2696012E+04  0.7818609E-02  0.8336300E-01
        1   -1    0    0  501    0  0.00000000000E+00  0.00000000000E+00  0.14296432640E+04  0.14296432640E+04  0.50400001928E-02 0.  1.
       -1   -1    0    0    0  501  0.00000000000E+00  0.00000000000E+00 -0.12710300225E+04  0.12710300225E+04  0.50400001928E-02 0. -1.
    10030    2    1    2    0    0  0.00000000000E+00  0.00000000000E+00  0.15861324144E+03  0.27006732865E+04  0.26960115059E+04 0.  0.
        2    1    3    3  502    0 -0.10580353919E+04  0.68198232245E+03 -0.40379353038E+03  0.13219636885E+04  0.25500000920E-02 0. -1.
       -2    1    3    3    0  502  0.10580353919E+04 -0.68198232245E+03  0.56240677182E+03  0.13787095980E+04  0.25500000920E-02 0.  1.
</event>
<event>
 5   0  0.2654625E-06  0.2648664E+04  0.7818609E-02  0.8351857E-01
        3   -1    0    0  501    0  0.00000000000E+00  0.00000000000E+00  0.10979215455E+04  0.10979215501E+04  0.10100000352E+00 0. -1.
       -3   -1    0    0    0  501  0.00000000000E+00  0.00000000000E+00 -0.15974317795E+04  0.15974317827E+04  0.10100000352E+00 0.  1.
    10030    2    1    2    0    0  0.00000000000E+00  0.00000000000E+00 -0.49951023405E+03  0.26953533328E+04  0.26486636470E+04 0.  0.
        5    1    3    3  502    0 -0.96986888039E+02 -0.13035284021E+04 -0.46620127945E+03  0.13877890598E+04  0.46999998093E+01 0.  1.
       -5    1    3    3    0  502  0.96986888039E+02  0.13035284021E+04 -0.33308954603E+02  0.13075642730E+04  0.46999998093E+01 0. -1.
</event>
<event>
 5   0  0.2654625E-06  0.2708932E+04  0.7818609E-02  0.8332113E-01
       -3   -1    0    0    0  501  0.00000000000E+00  0.00000000000E+00  0.72379948645E+03  0.72379949349E+03  0.10100000352E+00 0.  1.
        3   -1    0    0  501    0  0.00000000000E+00  0.00000000000E+00 -0.25346493420E+04  0.25346493440E+04  0.10100000352E+00 0. -1.
    10030    2    1    2    0    0  0.00000000000E+00  0.00000000000E+00 -0.18108498556E+04  0.32584488375E+04  0.27089318241E+04 0.  0.
        1    1    3    3  502    0  0.12530387745E+04  0.28598688215E+03 -0.14195421866E+04  0.19149398651E+04  0.50400001928E-02 0. -1.
       -1    1    3    3    0  502 -0.12530387745E+04 -0.28598688215E+03 -0.39130766897E+03  0.13435089725E+04  0.50400001928E-02 0.  1.
</event>
<event>
 5   0  0.3013407E-06  0.2701641E+04  0.7818609E-02  0.8334473E-01
        1   -1    0    0  501    0  0.00000000000E+00  0.00000000000E+00  0.17260502095E+04  0.17260502095E+04  0.50400001928E-02 0. -1.
       -1   -1    0    0    0  501  0.00000000000E+00  0.00000000000E+00 -0.10571627705E+04  0.10571627705E+04  0.50400001928E-02 0.  1.
    10030    2    1    2    0    0  0.00000000000E+00  0.00000000000E+00  0.66888743892E+03  0.27832129800E+04  0.27016409988E+04 0.  0.
        4    1    3    3  502    0 -0.19416807384E+03 -0.18564058197E+03 -0.10293670117E+04  0.10638429039E+04  0.12699999809E+01 0.  1.
       -4    1    3    3    0  502  0.19416807384E+03  0.18564058197E+03  0.16982544506E+04  0.17193700761E+04  0.12699999809E+01 0. -1.
</event>
<event>
 5   0  0.3028601E-06  0.2684256E+04  0.7818609E-02  0.8340132E-01
       -1   -1    0    0    0  501  0.00000000000E+00  0.00000000000E+00  0.84538003079E+03  0.84538003081E+03  0.50400001928E-02 0.  1.
        1   -1    0    0  501    0  0.00000000000E+00  0.00000000000E+00 -0.21307664111E+04  0.21307664111E+04  0.50400001928E-02 0. -1.
    10030    2    1    2    0    0  0.00000000000E+00  0.00000000000E+00 -0.12853863803E+04  0.29761464419E+04  0.26842558554E+04 0.  0.
        3    1    3    3  502    0 -0.11125619302E+04  0.63271443353E+03 -0.10905833475E+04  0.16815152842E+04  0.10100000352E+00 0.  1.
       -3    1    3    3    0  502  0.11125619302E+04 -0.63271443353E+03 -0.19480303282E+03  0.12946311578E+04  0.10100000352E+00 0. -1.
</event>
<event>
 5   0  0.7729970E-06  0.2705130E+04  0.7818609E-02  0.8333343E-01
        2   -1    0    0  501    0  0.00000000000E+00  0.00000000000E+00  0.12075150068E+04  0.12075150068E+04  0.25500000920E-02 0.  1.
       -2   -1    0    0    0  501  0.00000000000E+00  0.00000000000E+00 -0.15150383492E+04  0.15150383492E+04  0.25500000920E-02 0. -1.
    10030    2    1    2    0    0  0.00000000000E+00  0.00000000000E+00 -0.30752334244E+03  0.27225533559E+04  0.27051296031E+04 0.  0.
        4    1    3    3  502    0  0.10667964998E+02 -0.66630014555E+03  0.10308327479E+04  0.12274719779E+04  0.12699999809E+01 0.  1.
       -4    1    3    3    0  502 -0.10667964998E+02  0.66630014555E+03 -0.13383560904E+04  0.14950813780E+04  0.12699999809E+01 0. -1.
</event>
<event>
 5   0  0.7812908E-06  0.2709031E+04  0.7818609E-02  0.8332081E-01
        2   -1    0    0  501    0  0.00000000000E+00  0.00000000000E+00  0.11171951827E+04  0.11171951827E+04  0.25500000920E-02 0.  1.
       -2   -1    0    0    0  501  0.00000000000E+00  0.00000000000E+00 -0.16422485846E+04  0.16422485846E+04  0.25500000920E-02 0. -1.
    10030    2    1    2    0    0  0.00000000000E+00  0.00000000000E+00 -0.52505340187E+03  0.27594437673E+04  0.27090309762E+04 0.  0.
        5    1    3    3  502    0 -0.11179831145E+04  0.55014734287E+03  0.27852812362E+03  0.12767726300E+04  0.46999998093E+01 0.  1.
       -5    1    3    3    0  502  0.11179831145E+04 -0.55014734287E+03 -0.80358152549E+03  0.14826711372E+04  0.46999998093E+01 0. -1.
</event>
<event>
 5   0  0.3089218E-06  0.2735118E+04  0.7818609E-02  0.8323699E-01
       -1   -1    0    0    0  501  0.00000000000E+00  0.00000000000E+00  0.12171347706E+04  0.12171347706E+04  0.50400001928E-02 0.  1.
        1   -1    0    0  501    0  0.00000000000E+00  0.00000000000E+00 -0.15365743042E+04  0.15365743042E+04  0.50400001928E-02 0. -1.
    10030    2    1    2    0    0  0.00000000000E+00  0.00000000000E+00 -0.31943953361E+03  0.27537090748E+04  0.27351182887E+04 0.  0.
        5    1    3    3  502    0 -0.65268197623E+03  0.20854143090E+03  0.10318417402E+04  0.12386293866E+04  0.46999998093E+01 0.  1.
       -5    1    3    3    0  502  0.65268197623E+03 -0.20854143090E+03 -0.13512812739E+04  0.15150796882E+04  0.46999998093E+01 0. -1.
</event>
<event>
 5   0  0.8407622E-06  0.2686365E+04  0.7818609E-02  0.8339443E-01
       -2   -1    0    0    0  501  0.00000000000E+00  0.00000000000E+00  0.10134881564E+04  0.10134881564E+04  0.25500000920E-02 0.  1.
        2   -1    0    0  501    0  0.00000000000E+00  0.00000000000E+00 -0.17801281143E+04  0.17801281143E+04  0.25500000920E-02 0. -1.
    10030    2    1    2    0    0  0.00000000000E+00  0.00000000000E+00 -0.76663995783E+03  0.27936162707E+04  0.26863646519E+04 0.  0.
        1    1    3    3  502    0 -0.94431201090E+03 -0.25936169885E+03 -0.13393409635E+04  0.16591648144E+04  0.50400001928E-02 0. -1.
       -1    1    3    3    0  502  0.94431201090E+03  0.25936169885E+03  0.57270100568E+03  0.11344514563E+04  0.50400001928E-02 0.  1.
</event>
<event>
 5   0  0.7838364E-06  0.2711436E+04  0.7818609E-02  0.8331304E-01
        2   -1    0    0  501    0  0.00000000000E+00  0.00000000000E+00  0.17998373290E+04  0.17998373290E+04  0.25500000920E-02 0.  1.
       -2   -1    0    0    0  501  0.00000000000E+00  0.00000000000E+00 -0.10211875366E+04  0.10211875366E+04  0.25500000920E-02 0. -1.
    10030    2    1    2    0    0  0.00000000000E+00  0.00000000000E+00  0.77864979245E+03  0.28210248656E+04  0.27114361127E+04 0.  0.
        2    1    3    3  502    0  0.95906449897E+03  0.94185171276E+03  0.20589816819E+03  0.13598836045E+04  0.25500000920E-02 0. -1.
       -2    1    3    3    0  502 -0.95906449897E+03 -0.94185171276E+03  0.57275162427E+03  0.14611412612E+04  0.25500000920E-02 0.  1.
</event>
<event>
 5   0  0.7838364E-06  0.2692863E+04  0.7818609E-02  0.8337324E-01
        2   -1    0    0  501    0  0.00000000000E+00  0.00000000000E+00  0.23050743423E+04  0.23050743423E+04  0.25500000920E-02 0.  1.
       -2   -1    0    0    0  501  0.00000000000E+00  0.00000000000E+00 -0.78647280985E+03  0.78647280986E+03  0.25500000920E-02 0. -1.
    10030    2    1    2    0    0  0.00000000000E+00  0.00000000000E+00  0.15186015324E+04  0.30915471521E+04  0.26928633793E+04 0.  0.
        2    1    3    3  502    0 -0.89208124749E+03  0.60985435711E+03  0.16814281039E+04  0.19987325378E+04  0.25500000920E-02 0.  1.
       -2    1    3    3    0  502  0.89208124749E+03 -0.60985435711E+03 -0.16282657145E+03  0.10928146144E+04  0.25500000920E-02 0. -1.
</event>
<event>
 5   0  0.3013407E-06  0.2702235E+04  0.7818609E-02  0.8334280E-01
        1   -1    0    0  501    0  0.00000000000E+00  0.00000000000E+00  0.28229728906E+04  0.28229728906E+04  0.50400001928E-02 0.  1.
       -1   -1    0    0    0  501  0.00000000000E+00  0.00000000000E+00 -0.64666544232E+03  0.64666544234E+03  0.50400001928E-02 0. -1.
    10030    2    1    2    0    0  0.00000000000E+00  0.00000000000E+00  0.21763074483E+04  0.34696383329E+04  0.27022353806E+04 0.  0.
        4    1    3    3  502    0  0.12444078790E+04  0.32282217354E+02  0.41369403566E+03  0.13117688359E+04  0.12699999809E+01 0. -1.
       -4    1    3    3    0  502 -0.12444078790E+04 -0.32282217354E+02  0.17626134126E+04  0.21578694970E+04  0.12699999809E+01 0.  1.
</event>
<event>
 5   0  0.3199840E-06  0.2414826E+04  0.7818609E-02  0.8433974E-01
       -1   -1    0    0    0  501  0.00000000000E+00  0.00000000000E+00  0.73052034564E+03  0.73052034566E+03  0.50400001928E-02 0. -1.
        1   -1    0    0  501    0  0.00000000000E+00  0.00000000000E+00 -0.19956272202E+04  0.19956272202E+04  0.50400001928E-02 0.  1.
    10030    2    1    2    0    0  0.00000000000E+00  0.00000000000E+00 -0.12651068745E+04  0.27261475658E+04  0.24148261111E+04 0.  0.
        1    1    3    3  502    0 -0.68349763351E+03 -0.17663443985E+03 -0.17383644358E+04  0.18762408299E+04  0.50400001928E-02 0.  1.
       -1    1    3    3    0  502  0.68349763351E+03  0.17663443985E+03  0.47325756126E+03  0.84990673587E+03  0.50400001928E-02 0. -1.
</event>
<event>
 5   0  0.7812908E-06  0.2715697E+04  0.7818609E-02  0.8329930E-01
        2   -1    0    0  501    0  0.00000000000E+00  0.00000000000E+00  0.10530608249E+04  0.10530608249E+04  0.25500000920E-02 0. -1.
       -2   -1    0    0    0  501  0.00000000000E+00  0.00000000000E+00 -0.17508509127E+04  0.17508509127E+04  0.25500000920E-02 0.  1.
    10030    2    1    2    0    0  0.00000000000E+00  0.00000000000E+00 -0.69779008779E+03  0.28039117375E+04  0.27156969686E+04 0.  0.
        5    1    3    3  502    0  0.54447787131E+03 -0.92492618684E+03 -0.12076492096E+04  0.16156680683E+04  0.46999998093E+01 0.  1.
       -5    1    3    3    0  502 -0.54447787131E+03  0.92492618684E+03  0.50985912182E+03  0.11882436693E+04  0.46999998093E+01 0. -1.
</event>
<event>
 5   0  0.3089218E-06  0.2798023E+04  0.7818609E-02  0.8303882E-01
       -1   -1    0    0    0  501  0.00000000000E+00  0.00000000000E+00  0.90371190663E+03  0.90371190665E+03  0.50400001928E-02 0. -1.
        1   -1    0    0  501    0  0.00000000000E+00  0.00000000000E+00 -0.21657709444E+04  0.21657709444E+04  0.50400001928E-02 0.  1.
    10030    2    1    2    0    0  0.00000000000E+00  0.00000000000E+00 -0.12620590377E+04  0.30694828510E+04  0.27980228659E+04 0.  0.
        5    1    3    3  502    0 -0.45582432648E+03  0.81915034639E+02 -0.20792289881E+04  0.21301880585E+04  0.46999998093E+01 0.  1.
       -5    1    3    3    0  502  0.45582432648E+03 -0.81915034639E+02  0.81716995037E+03  0.93929479254E+03  0.46999998093E+01 0. -1.
</event>
<event>
 5   0  0.7838364E-06  0.2700980E+04  0.7818609E-02  0.8334687E-01
       -2   -1    0    0    0  501  0.00000000000E+00  0.00000000000E+00  0.10677929475E+04  0.10677929475E+04  0.25500000920E-02 0. -1.
        2   -1    0    0  501    0  0.00000000000E+00  0.00000000000E+00 -0.17080307328E+04  0.17080307329E+04  0.25500000920E-02 0.  1.
    10030    2    1    2    0    0  0.00000000000E+00  0.00000000000E+00 -0.64023778536E+03  0.27758236803E+04  0.27009799486E+04 0.  0.
        2    1    3    3  502    0 -0.19531656317E+03 -0.98333757857E+03 -0.12500241394E+04  0.16023924932E+04  0.25500000920E-02 0.  1.
       -2    1    3    3    0  502  0.19531656317E+03  0.98333757857E+03  0.60978635405E+03  0.11734311871E+04  0.25500000920E-02 0. -1.
</event>
<event>
 5   0  0.7729970E-06  0.2718749E+04  0.7818609E-02  0.8328947E-01
        2   -1    0    0  501    0  0.00000000000E+00  0.00000000000E+00  0.11977637484E+04  0.11977637484E+04  0.25500000920E-02 0.  1.
       -2   -1    0    0    0  501  0.00000000000E+00  0.00000000000E+00 -0.15427912900E+04  0.15427912900E+04  0.25500000920E-02 0. -1.
    10030    2    1    2    0    0  0.00000000000E+00  0.00000000000E+00 -0.34502754162E+03  0.27405550385E+04  0.27187493291E+04 0.  0.
        4    1    3    3  502    0 -0.12102966565E+04  0.13089680395E+03  0.43727272384E+03  0.12935072547E+04  0.12699999809E+01 0.  1.
       -4    1    3    3    0  502  0.12102966565E+04 -0.13089680395E+03 -0.78230026546E+03  0.14470477837E+04  0.12699999809E+01 0. -1.
</event>
<event>
 5   0  0.3013407E-06  0.2707964E+04  0.7818609E-02  0.8332425E-01
       -1   -1    0    0    0  501  0.00000000000E+00  0.00000000000E+00  0.13816716275E+04  0.13816716275E+04  0.50400001928E-02 0. -1.
        1   -1    0    0  501    0  0.00000000000E+00  0.00000000000E+00 -0.13268477216E+04  0.13268477216E+04  0.50400001928E-02 0.  1.
    10030    2    1    2    0    0  0.00000000000E+00  0.00000000000E+00  0.54823905935E+02  0.27085193491E+04  0.27079644392E+04 0.  0.
        4    1    3    3  502    0 -0.11348473577E+04 -0.56840662723E+03 -0.44417338962E+03  0.13447141823E+04  0.12699999809E+01 0.  1.
       -4    1    3    3    0  502  0.11348473577E+04  0.56840662723E+03  0.49899729555E+03  0.13638051668E+04  0.12699999809E+01 0. -1.
</event>
<event>
 5   0  0.7812908E-06  0.2693570E+04  0.7818609E-02  0.8337094E-01
        2   -1    0    0  501    0  0.00000000000E+00  0.00000000000E+00  0.26030922478E+04  0.26030922478E+04  0.25500000920E-02 0. -1.
       -2   -1    0    0    0  501  0.00000000000E+00  0.00000000000E+00 -0.69679835362E+03  0.69679835362E+03  0.25500000920E-02 0.  1.
    10030    2    1    2    0    0  0.00000000000E+00  0.00000000000E+00  0.19062938942E+04  0.32998906014E+04  0.26935704131E+04 0.  0.
        5    1    3    3  502    0  0.17295499935E+03 -0.12485823114E+04  0.37211269064E+03  0.13142911263E+04  0.46999998093E+01 0.  1.
       -5    1    3    3    0  502 -0.17295499935E+03  0.12485823114E+04  0.15341812035E+04  0.19855994751E+04  0.46999998093E+01 0. -1.
</event>
<event>
 5   0  0.8213334E-06  0.2698501E+04  0.7818609E-02  0.8335492E-01
        2   -1    0    0  501    0  0.00000000000E+00  0.00000000000E+00  0.95147547367E+03  0.95147547368E+03  0.25500000920E-02 0. -1.
       -2   -1    0    0    0  501  0.00000000000E+00  0.00000000000E+00 -0.19133192757E+04  0.19133192757E+04  0.25500000920E-02 0.  1.
    10030    2    1    2    0    0  0.00000000000E+00  0.00000000000E+00 -0.96184380204E+03  0.28647947494E+04  0.26985005941E+04 0.  0.
        3    1    3    3  502    0 -0.12158852868E+04  0.31208897256E+03 -0.10060772558E+04  0.16087162622E+04  0.10100000352E+00 0.  1.
       -3    1    3    3    0  502  0.12158852868E+04 -0.31208897256E+03  0.44233453813E+02  0.12560784872E+04  0.10100000352E+00 0. -1.
</event>
<event>
 5   0  0.7729970E-06  0.2704570E+04  0.7818609E-02  0.8333524E-01
        2   -1    0    0  501    0  0.00000000000E+00  0.00000000000E+00  0.18930012919E+04  0.18930012919E+04  0.25500000920E-02 0. -1.
       -2   -1    0    0    0  501  0.00000000000E+00  0.00000000000E+00 -0.96601844194E+03  0.96601844194E+03  0.25500000920E-02 0.  1.
    10030    2    1    2    0    0  0.00000000000E+00  0.00000000000E+00  0.92698284997E+03  0.28590197338E+04  0.27045695839E+04 0.  0.
        4    1    3    3  502    0  0.11330711354E+03 -0.85369892590E+03 -0.63865728184E+03  0.10721590808E+04  0.12699999809E+01 0.  1.
       -4    1    3    3    0  502 -0.11330711354E+03  0.85369892590E+03  0.15656401318E+04  0.17868606530E+04  0.12699999809E+01 0. -1.
</event>
<event>
 5   0  0.3046300E-06  0.2720341E+04  0.7818609E-02  0.8328435E-01
       -1   -1    0    0    0  501  0.00000000000E+00  0.00000000000E+00  0.17725669445E+04  0.17725669446E+04  0.50400001928E-02 0.  1.
        1   -1    0    0  501    0  0.00000000000E+00  0.00000000000E+00 -0.10437202822E+04  0.10437202822E+04  0.50400001928E-02 0. -1.
    10030    2    1    2    0    0  0.00000000000E+00  0.00000000000E+00  0.72884666232E+03  0.28162872268E+04  0.27203412077E+04 0.  0.
        2    1    3    3  502    0  0.63916424260E+03  0.17704341819E+03 -0.86497378831E+03  0.10899793372E+04  0.25500000920E-02 0. -1.
       -2    1    3    3    0  502 -0.63916424260E+03 -0.17704341819E+03  0.15938204506E+04  0.17263078896E+04  0.25500000920E-02 0.  1.
</event>
<event>
 5   0  0.7812908E-06  0.2725790E+04  0.7818609E-02  0.8326685E-01
       -2   -1    0    0    0  501  0.00000000000E+00  0.00000000000E+00  0.16884165655E+04  0.16884165655E+04  0.25500000920E-02 0. -1.
        2   -1    0    0  501    0  0.00000000000E+00  0.00000000000E+00 -0.11001331539E+04  0.11001331539E+04  0.25500000920E-02 0.  1.
    10030    2    1    2    0    0  0.00000000000E+00  0.00000000000E+00  0.58828341166E+03  0.27885497194E+04  0.27257901910E+04 0.  0.
        5    1    3    3  502    0 -0.90572891394E+03 -0.10115566312E+04  0.17366232338E+03  0.13688580555E+04  0.46999998093E+01 0.  1.
       -5    1    3    3    0  502  0.90572891394E+03  0.10115566312E+04  0.41462108828E+03  0.14196916639E+04  0.46999998093E+01 0. -1.
</event>
<event>
 5   0  0.3089218E-06  0.2708979E+04  0.7818609E-02  0.8332098E-01
       -1   -1    0    0    0  501  0.00000000000E+00  0.00000000000E+00  0.15118566435E+04  0.15118566435E+04  0.50400001928E-02 0. -1.
        1   -1    0    0  501    0  0.00000000000E+00  0.00000000000E+00 -0.12135022506E+04  0.12135022506E+04  0.50400001928E-02 0.  1.
    10030    2    1    2    0    0  0.00000000000E+00  0.00000000000E+00  0.29835439285E+03  0.27253588941E+04  0.27089787297E+04 0.  0.
        5    1    3    3  502    0 -0.13280490978E+04 -0.63377917529E+02 -0.11101412395E+03  0.13341954101E+04  0.46999998093E+01 0.  1.
       -5    1    3    3    0  502  0.13280490978E+04  0.63377917529E+02  0.40936851680E+03  0.13911634840E+04  0.46999998093E+01 0. -1.
</event>
<event>
 5   0  0.7729970E-06  0.2706156E+04  0.7818609E-02  0.8333010E-01
       -2   -1    0    0    0  501  0.00000000000E+00  0.00000000000E+00  0.37012055724E+04  0.37012055724E+04  0.25500000920E-02 0. -1.
        2   -1    0    0  501    0  0.00000000000E+00  0.00000000000E+00 -0.49465523023E+03  0.49465523024E+03  0.25500000920E-02 0.  1.
    10030    2    1    2    0    0  0.00000000000E+00  0.00000000000E+00  0.32065503421E+04  0.41958608026E+04  0.27061564586E+04 0.  0.
        4    1    3    3  502    0  0.39150920905E+03 -0.10950722092E+04  0.26756435505E+04  0.29174531061E+04  0.12699999809E+01 0. -1.
       -4    1    3    3    0  502 -0.39150920905E+03  0.10950722092E+04  0.53090679168E+03  0.12784076965E+04  0.12699999809E+01 0.  1.
</event>
<event>
 5   0  0.3199840E-06  0.2703180E+04  0.7818609E-02  0.8333974E-01
        1   -1    0    0  501    0  0.00000000000E+00  0.00000000000E+00  0.19701100213E+04  0.19701100213E+04  0.50400001928E-02 0.  1.
       -1   -1    0    0    0  501  0.00000000000E+00  0.00000000000E+00 -0.92725540588E+03  0.92725540590E+03  0.50400001928E-02 0. -1.
    10030    2    1    2    0    0  0.00000000000E+00  0.00000000000E+00  0.10428546154E+04  0.28973654272E+04  0.27031797332E+04 0.  0.
        1    1    3    3  502    0  0.12777766341E+04 -0.44052848607E+03  0.52580660029E+03  0.14502589613E+04  0.50400001928E-02 0. -1.
       -1    1    3    3    0  502 -0.12777766341E+04  0.44052848607E+03  0.51704801510E+03  0.14471064659E+04  0.50400001928E-02 0.  1.
</event>
<event>
 5   0  0.7812908E-06  0.2568342E+04  0.7818609E-02  0.8379035E-01
        2   -1    0    0  501    0  0.00000000000E+00  0.00000000000E+00  0.28675726456E+04  0.28675726456E+04  0.25500000920E-02 0. -1.
       -2   -1    0    0    0  501  0.00000000000E+00  0.00000000000E+00 -0.57508405914E+03  0.57508405915E+03  0.25500000920E-02 0.  1.
    10030    2    1    2    0    0  0.00000000000E+00  0.00000000000E+00  0.22924885864E+04  0.34426567047E+04  0.25683421243E+04 0.  0.
        5    1    3    3  502    0  0.46026863234E+03  0.99088243412E+03  0.20507824103E+04  0.23236664556E+04  0.46999998093E+01 0. -1.
       -5    1    3    3    0  502 -0.46026863234E+03 -0.99088243412E+03  0.24170617611E+03  0.11189902492E+04  0.46999998093E+01 0.  1.
</event>
<event>
 5   0  0.3089218E-06  0.2665501E+04  0.7818609E-02  0.8346286E-01
       -1   -1    0    0    0  501  0.00000000000E+00  0.00000000000E+00  0.10793973440E+04  0.10793973440E+04  0.50400001928E-02 0.  1.
        1   -1    0    0  501    0  0.00000000000E+00  0.00000000000E+00 -0.16455695837E+04  0.16455695837E+04  0.50400001928E-02 0. -1.
    10030    2    1    2    0    0  0.00000000000E+00  0.00000000000E+00 -0.56617223973E+03  0.27249669277E+04  0.26655006570E+04 0.  0.
        5    1    3    3  502    0 -0.24005467095E+03 -0.11426589404E+04  0.37382687648E+03  0.12259952377E+04  0.46999998093E+01 0.  1.
       -5    1    3    3    0  502  0.24005467095E+03  0.11426589404E+04 -0.93999911620E+03  0.14989716901E+04  0.46999998093E+01 0. -1.
</event>
<event>
 5   0  0.3089218E-06  0.2719617E+04  0.7818609E-02  0.8328668E-01
        1   -1    0    0  501    0  0.00000000000E+00  0.00000000000E+00  0.24286054145E+04  0.24286054145E+04  0.50400001928E-02 0. -1.
       -1   -1    0    0    0  501  0.00000000000E+00  0.00000000000E+00 -0.76137491774E+03  0.76137491776E+03  0.50400001928E-02 0.  1.
    10030    2    1    2    0    0  0.00000000000E+00  0.00000000000E+00  0.16672304967E+04  0.31899803322E+04  0.27196170670E+04 0.  0.
        5    1    3    3  502    0  0.89953916125E+03  0.15960710375E+03  0.20149893405E+04  0.22124306232E+04  0.46999998093E+01 0. -1.
       -5    1    3    3    0  502 -0.89953916125E+03 -0.15960710375E+03 -0.34775884378E+03  0.97754970902E+03  0.46999998093E+01 0.  1.
</event>
<event>
 5   0  0.7812908E-06  0.2442853E+04  0.7818609E-02  0.8423632E-01
        2   -1    0    0  501    0  0.00000000000E+00  0.00000000000E+00  0.15353591038E+04  0.15353591038E+04  0.25500000920E-02 0.  1.
       -2   -1    0    0    0  501  0.00000000000E+00  0.00000000000E+00 -0.97168289824E+03  0.97168289824E+03  0.25500000920E-02 0. -1.
    10030    2    1    2    0    0  0.00000000000E+00  0.00000000000E+00  0.56367620557E+03  0.25070420021E+04  0.24428525816E+04 0.  0.
        5    1    3    3  502    0  0.86828043628E+03 -0.35011637170E+03 -0.52322829533E+03  0.10725121579E+04  0.46999998093E+01 0. -1.
       -5    1    3    3    0  502 -0.86828043628E+03  0.35011637170E+03  0.10869045009E+04  0.14345298442E+04  0.46999998093E+01 0.  1.
</event>
<event>
 5   0  0.3013407E-06  0.2707928E+04  0.7818609E-02  0.8332437E-01
        1   -1    0    0  501    0  0.00000000000E+00  0.00000000000E+00  0.63130208698E+03  0.63130208700E+03  0.50400001928E-02 0.  1.
       -1   -1    0    0    0  501  0.00000000000E+00  0.00000000000E+00 -0.29038687419E+04  0.29038687419E+04  0.50400001928E-02 0. -1.
    10030    2    1    2    0    0  0.00000000000E+00  0.00000000000E+00 -0.22725666549E+04  0.35351708289E+04  0.27079279142E+04 0.  0.
        4    1    3    3  502    0  0.52217701127E+03  0.16154857904E+03 -0.27534309921E+04  0.28071605967E+04  0.12699999809E+01 0. -1.
       -4    1    3    3    0  502 -0.52217701127E+03 -0.16154857904E+03  0.48086433720E+03  0.72801023219E+03  0.12699999809E+01 0.  1.
</event>
<event>
 5   0  0.3013407E-06  0.2710396E+04  0.7818609E-02  0.8331640E-01
       -1   -1    0    0    0  501  0.00000000000E+00  0.00000000000E+00  0.11416760811E+04  0.11416760812E+04  0.50400001928E-02 0.  1.
        1   -1    0    0  501    0  0.00000000000E+00  0.00000000000E+00 -0.16086542156E+04  0.16086542156E+04  0.50400001928E-02 0. -1.
    10030    2    1    2    0    0  0.00000000000E+00  0.00000000000E+00 -0.46697813447E+03  0.27503302968E+04  0.27103963111E+04 0.  0.
        4    1    3    3  502    0  0.45759304894E+03 -0.23087010904E+03  0.10395338180E+04  0.11590187994E+04  0.12699999809E+01 0.  1.
       -4    1    3    3    0  502 -0.45759304894E+03  0.23087010904E+03 -0.15065119525E+04  0.15913114973E+04  0.12699999809E+01 0. -1.
</event>
<event>
 5   0  0.3089218E-06  0.2723876E+04  0.7818609E-02  0.8327299E-01
       -1   -1    0    0    0  501  0.00000000000E+00  0.00000000000E+00  0.13222154117E+04  0.13222154117E+04  0.50400001928E-02 0.  1.
        1   -1    0    0  501    0  0.00000000000E+00  0.00000000000E+00 -0.14028541953E+04  0.14028541953E+04  0.50400001928E-02 0. -1.
    10030    2    1    2    0    0  0.00000000000E+00  0.00000000000E+00 -0.80638783668E+02  0.27250696070E+04  0.27238762361E+04 0.  0.
        5    1    3    3  502    0 -0.13441976693E+04 -0.85596739723E+02 -0.24204892834E+03  0.13685042747E+04  0.46999998093E+01 0. -1.
       -5    1    3    3    0  502  0.13441976693E+04  0.85596739723E+02  0.16141014467E+03  0.13565653323E+04  0.46999998093E+01 0.  1.
</event>
<event>
 5   0  0.3013407E-06  0.2701201E+04  0.7818609E-02  0.8334615E-01
       -1   -1    0    0    0  501  0.00000000000E+00  0.00000000000E+00  0.12367328442E+04  0.12367328442E+04  0.50400001928E-02 0. -1.
        1   -1    0    0  501    0  0.00000000000E+00  0.00000000000E+00 -0.14749523568E+04  0.14749523568E+04  0.50400001928E-02 0.  1.
    10030    2    1    2    0    0  0.00000000000E+00  0.00000000000E+00 -0.23821951263E+03  0.27116852010E+04  0.27012012315E+04 0.  0.
        4    1    3    3  502    0 -0.81567080694E+03 -0.71142289635E+03  0.69191134550E+03  0.12845950045E+04  0.12699999809E+01 0. -1.
       -4    1    3    3    0  502  0.81567080694E+03  0.71142289635E+03 -0.93013085813E+03  0.14270901965E+04  0.12699999809E+01 0.  1.
</event>
<event>
 5   0  0.3013407E-06  0.2718118E+04  0.7818609E-02  0.8329150E-01
       -1   -1    0    0    0  501  0.00000000000E+00  0.00000000000E+00  0.13101347292E+04  0.13101347292E+04  0.50400001928E-02 0. -1.
        1   -1    0    0  501    0  0.00000000000E+00  0.00000000000E+00 -0.14098102666E+04  0.14098102666E+04  0.50400001928E-02 0.  1.
    10030    2    1    2    0    0  0.00000000000E+00  0.00000000000E+00 -0.99675537462E+02  0.27199449958E+04  0.27181180194E+04 0.  0.
        4    1    3    3  502    0  0.10622290577E+04 -0.84573082781E+03 -0.10860180778E+03  0.13621259742E+04  0.12699999809E+01 0.  1.
       -4    1    3    3    0  502 -0.10622290577E+04  0.84573082781E+03  0.89262703150E+01  0.13578190216E+04  0.12699999809E+01 0. -1.
</event>
<event>
 5   0  0.3013407E-06  0.2703859E+04  0.7818609E-02  0.8333754E-01
       -1   -1    0    0    0  501  0.00000000000E+00  0.00000000000E+00  0.78038951622E+03  0.78038951624E+03  0.50400001928E-02 0.  1.
        1   -1    0    0  501    0  0.00000000000E+00  0.00000000000E+00 -0.23420533473E+04  0.23420533473E+04  0.50400001928E-02 0. -1.
    10030    2    1    2    0    0  0.00000000000E+00  0.00000000000E+00 -0.15616638311E+04  0.31224428635E+04  0.27038593741E+04 0.  0.
        4    1    3    3  502    0 -0.13061020597E+04  0.34751392285E+03 -0.81814047055E+03  0.15798809953E+04  0.12699999809E+01 0.  1.
       -4    1    3    3    0  502  0.13061020597E+04 -0.34751392285E+03 -0.74352336051E+03  0.15425618682E+04  0.12699999809E+01 0. -1.
</event>
<event>
 5   0  0.3199840E-06  0.2763953E+04  0.7818609E-02  0.8314548E-01
       -1   -1    0    0    0  501  0.00000000000E+00  0.00000000000E+00  0.10726435694E+04  0.10726435694E+04  0.50400001928E-02 0.  1.
        1   -1    0    0  501    0  0.00000000000E+00  0.00000000000E+00 -0.17805165124E+04  0.17805165124E+04  0.50400001928E-02 0. -1.
    10030    2    1    2    0    0  0.00000000000E+00  0.00000000000E+00 -0.70787294298E+03  0.28531600818E+04  0.27639533913E+04 0.  0.
        1    1    3    3  502    0 -0.56247790867E+03  0.78223336143E+03  0.66879189173E+03  0.11728397265E+04  0.50400001928E-02 0.  1.
       -1    1    3    3    0  502  0.56247790867E+03 -0.78223336143E+03 -0.13766648347E+04  0.16803203554E+04  0.50400001928E-02 0. -1.
</event>
<event>
 5   0  0.7838364E-06  0.2692811E+04  0.7818609E-02  0.8337341E-01
        2   -1    0    0  501    0  0.00000000000E+00  0.00000000000E+00  0.16381563684E+04  0.16381563684E+04  0.25500000920E-02 0.  1.
       -2   -1    0    0    0  501  0.00000000000E+00  0.00000000000E+00 -0.11066144579E+04  0.11066144579E+04  0.25500000920E-02 0. -1.
    10030    2    1    2    0    0  0.00000000000E+00  0.00000000000E+00  0.53154191054E+03  0.27447708263E+04  0.26928108151E+04 0.  0.
        2    1    3    3  502    0  0.11341594310E+04 -0.58061511160E+02  0.10029965367E+04  0.15151537238E+04  0.25500000920E-02 0.  1.
       -2    1    3    3    0  502 -0.11341594310E+04  0.58061511160E+02 -0.47145462618E+03  0.12296171024E+04  0.25500000920E-02 0. -1.
</event>
<event>
 5   0  0.3199840E-06  0.2703508E+04  0.7818609E-02  0.8333868E-01
        1   -1    0    0  501    0  0.00000000000E+00  0.00000000000E+00  0.13072727785E+04  0.13072727785E+04  0.50400001928E-02 0. -1.
       -1   -1    0    0    0  501  0.00000000000E+00  0.00000000000E+00 -0.13977487307E+04  0.13977487307E+04  0.50400001928E-02 0.  1.
    10030    2    1    2    0    0  0.00000000000E+00  0.00000000000E+00 -0.90475952217E+02  0.27050215091E+04  0.27035079928E+04 0.  0.
        1    1    3    3  502    0  0.11208223861E+04  0.19436093590E+03 -0.77586583546E+03  0.13769483611E+04  0.50400001928E-02 0.  1.
       -1    1    3    3    0  502 -0.11208223861E+04 -0.19436093590E+03  0.68538988325E+03  0.13280731480E+04  0.50400001928E-02 0. -1.
</event>
<event>
 5   0  0.3199840E-06  0.2670055E+04  0.7818609E-02  0.8344787E-01
        1   -1    0    0  501    0  0.00000000000E+00  0.00000000000E+00  0.13007560692E+04  0.13007560692E+04  0.50400001928E-02 0.  1.
       -1   -1    0    0    0  501  0.00000000000E+00  0.00000000000E+00 -0.13702018764E+04  0.13702018764E+04  0.50400001928E-02 0. -1.
    10030    2    1    2    0    0  0.00000000000E+00  0.00000000000E+00 -0.69445807199E+02  0.26709579456E+04  0.26700549857E+04 0.  0.
        1    1    3    3  502    0  0.18835984887E+03 -0.11865196434E+04 -0.61714837368E+03  0.13506222314E+04  0.50400001928E-02 0. -1.
       -1    1    3    3    0  502 -0.18835984887E+03  0.11865196434E+04  0.54770256648E+03  0.13203357142E+04  0.50400001928E-02 0.  1.
</event>
<event>
 5   0  0.7812908E-06  0.2720453E+04  0.7818609E-02  0.8328399E-01
       -2   -1    0    0    0  501  0.00000000000E+00  0.00000000000E+00  0.10913518013E+04  0.10913518013E+04  0.25500000920E-02 0.  1.
        2   -1    0    0  501    0  0.00000000000E+00  0.00000000000E+00 -0.16953430257E+04  0.16953430257E+04  0.25500000920E-02 0. -1.
    10030    2    1    2    0    0  0.00000000000E+00  0.00000000000E+00 -0.60399122442E+03  0.27866948270E+04  0.27204526572E+04 0.  0.
        5    1    3    3  502    0 -0.13281423625E+04 -0.24801166339E+03 -0.46305535721E+03  0.14282556753E+04  0.46999998093E+01 0.  1.
       -5    1    3    3    0  502  0.13281423625E+04  0.24801166339E+03 -0.14093586721E+03  0.13584391517E+04  0.46999998093E+01 0. -1.
</event>
<event>
 5   0  0.3046300E-06  0.2691776E+04  0.7818609E-02  0.8337678E-01
       -1   -1    0    0    0  501  0.00000000000E+00  0.00000000000E+00  0.11356832039E+04  0.11356832039E+04  0.50400001928E-02 0.  1.
        1   -1    0    0  501    0  0.00000000000E+00  0.00000000000E+00 -0.15949997218E+04  0.15949997218E+04  0.50400001928E-02 0. -1.
    10030    2    1    2    0    0  0.00000000000E+00  0.00000000000E+00 -0.45931651790E+03  0.27306829257E+04  0.26917759151E+04 0.  0.
        2    1    3    3  502    0  0.91541391905E+03  0.50582764911E+03 -0.10889973163E+04  0.15098872172E+04  0.25500000920E-02 0. -1.
       -2    1    3    3    0  502 -0.91541391905E+03 -0.50582764911E+03  0.62968079843E+03  0.12207957084E+04  0.25500000920E-02 0.  1.
</event>
<event>
 5   0  0.3028601E-06  0.2678134E+04  0.7818609E-02  0.8342135E-01
       -1   -1    0    0    0  501  0.00000000000E+00  0.00000000000E+00  0.11363503171E+04  0.11363503171E+04  0.50400001928E-02 0.  1.
        1   -1    0    0  501    0  0.00000000000E+00  0.00000000000E+00 -0.15779467303E+04  0.15779467303E+04  0.50400001928E-02 0. -1.
    10030    2    1    2    0    0  0.00000000000E+00  0.00000000000E+00 -0.44159641322E+03  0.27142970474E+04  0.26781338782E+04 0.  0.
        3    1    3    3  502    0  0.11620161569E+04 -0.66240159648E+03 -0.28524005853E+03  0.13676327449E+04  0.10100000352E+00 0. -1.
       -3    1    3    3    0  502 -0.11620161569E+04  0.66240159648E+03 -0.15635635469E+03  0.13466643025E+04  0.10100000352E+00 0.  1.
</event>
<event>
 5   0  0.3013407E-06  0.2439356E+04  0.7818609E-02  0.8424914E-01
        1   -1    0    0  501    0  0.00000000000E+00  0.00000000000E+00  0.11772884013E+04  0.11772884013E+04  0.50400001928E-02 0. -1.
       -1   -1    0    0    0  501  0.00000000000E+00  0.00000000000E+00 -0.12635941883E+04  0.12635941883E+04  0.50400001928E-02 0.  1.
    10030    2    1    2    0    0  0.00000000000E+00  0.00000000000E+00 -0.86305787007E+02  0.24408825895E+04  0.24393562936E+04 0.  0.
        4    1    3    3  502    0  0.10749056893E+04 -0.38021426185E+03 -0.47658444846E+03  0.12357667560E+04  0.12699999809E+01 0. -1.
       -4    1    3    3    0  502 -0.10749056893E+04  0.38021426185E+03  0.39027866146E+03  0.12051158336E+04  0.12699999809E+01 0.  1.
</event>
<event>
 5   0  0.3013407E-06  0.2694893E+04  0.7818609E-02  0.8336664E-01
       -1   -1    0    0    0  501  0.00000000000E+00  0.00000000000E+00  0.14118664092E+04  0.14118664092E+04  0.50400001928E-02 0. -1.
        1   -1    0    0  501    0  0.00000000000E+00  0.00000000000E+00 -0.12859654756E+04  0.12859654756E+04  0.50400001928E-02 0.  1.
    10030    2    1    2    0    0  0.00000000000E+00  0.00000000000E+00  0.12590093366E+03  0.26978318848E+04  0.26948925458E+04 0.  0.
        4    1    3    3  502    0  0.19770471531E+03  0.26499088978E+03  0.13706303598E+04  0.14099420280E+04  0.12699999809E+01 0. -1.
       -4    1    3    3    0  502 -0.19770471531E+03 -0.26499088978E+03 -0.12447294261E+04  0.12878898568E+04  0.12699999809E+01 0.  1.
</event>
<event>
 5   0  0.7729970E-06  0.2693501E+04  0.7818609E-02  0.8337117E-01
        2   -1    0    0  501    0  0.00000000000E+00  0.00000000000E+00  0.26857229340E+04  0.26857229340E+04  0.25500000920E-02 0. -1.
       -2   -1    0    0    0  501  0.00000000000E+00  0.00000000000E+00 -0.67532549114E+03  0.67532549114E+03  0.25500000920E-02 0.  1.
    10030    2    1    2    0    0  0.00000000000E+00  0.00000000000E+00  0.20103974429E+04  0.33610484252E+04  0.26935011858E+04 0.  0.
        4    1    3    3  502    0  0.18631857822E+03 -0.10818225564E+04  0.19787356552E+04  0.22628413692E+04  0.12699999809E+01 0. -1.
       -4    1    3    3    0  502 -0.18631857822E+03  0.10818225564E+04  0.31661787698E+02  0.10982070560E+04  0.12699999809E+01 0.  1.
</event>
<event>
 5   0  0.2654625E-06  0.2700638E+04  0.7818609E-02  0.8334798E-01
       -3   -1    0    0    0  501  0.00000000000E+00  0.00000000000E+00  0.11921959764E+04  0.11921959807E+04  0.10100000352E+00 0.  1.
        3   -1    0    0  501    0  0.00000000000E+00  0.00000000000E+00 -0.15294139863E+04  0.15294139897E+04  0.10100000352E+00 0. -1.
    10030    2    1    2    0    0  0.00000000000E+00  0.00000000000E+00 -0.33721800989E+03  0.27216099704E+04  0.27006378589E+04 0.  0.
        5    1    3    3  502    0  0.19450976583E+03 -0.11641497684E+04 -0.82964516727E+03  0.14427099244E+04  0.46999998093E+01 0.  1.
       -5    1    3    3    0  502 -0.19450976583E+03  0.11641497684E+04  0.49242715739E+03  0.12789000460E+04  0.46999998093E+01 0. -1.
</event>
<event>
 5   0  0.3028601E-06  0.2730236E+04  0.7818609E-02  0.8325261E-01
       -1   -1    0    0    0  501  0.00000000000E+00  0.00000000000E+00  0.12863473721E+04  0.12863473721E+04  0.50400001928E-02 0.  1.
        1   -1    0    0  501    0  0.00000000000E+00  0.00000000000E+00 -0.14487120397E+04  0.14487120397E+04  0.50400001928E-02 0. -1.
    10030    2    1    2    0    0  0.00000000000E+00  0.00000000000E+00 -0.16236466759E+03  0.27350594118E+04  0.27302358325E+04 0.  0.
        3    1    3    3  502    0  0.25514560758E+03 -0.10409567908E+04  0.76580334300E+03  0.13172490622E+04  0.10100000352E+00 0.  1.
       -3    1    3    3    0  502 -0.25514560758E+03  0.10409567908E+04 -0.92816801059E+03  0.14178103496E+04  0.10100000352E+00 0. -1.
</event>
<event>
 5   0  0.7838364E-06  0.2660985E+04  0.7818609E-02  0.8347776E-01
       -2   -1    0    0    0  501  0.00000000000E+00  0.00000000000E+00  0.78221850157E+03  0.78221850158E+03  0.25500000920E-02 0. -1.
        2   -1    0    0  501    0  0.00000000000E+00  0.00000000000E+00 -0.22630631425E+04  0.22630631425E+04  0.25500000920E-02 0.  1.
    10030    2    1    2    0    0  0.00000000000E+00  0.00000000000E+00 -0.14808446409E+04  0.30452816441E+04  0.26609846751E+04 0.  0.
        2    1    3    3  502    0  0.56784593945E+03  0.19596145874E+03 -0.20990362256E+04  0.21833009368E+04  0.25500000920E-02 0.  1.
       -2    1    3    3    0  502 -0.56784593945E+03 -0.19596145874E+03  0.61819158470E+03  0.86198070725E+03  0.25500000920E-02 0. -1.
</event>
<event>
 5   0  0.7812908E-06  0.2709071E+04  0.7818609E-02  0.8332068E-01
        2   -1    0    0  501    0  0.00000000000E+00  0.00000000000E+00  0.22789357321E+04  0.22789357321E+04  0.25500000920E-02 0.  1.
       -2   -1    0    0    0  501  0.00000000000E+00  0.00000000000E+00 -0.80509819521E+03  0.80509819522E+03  0.25500000920E-02 0. -1.
    10030    2    1    2    0    0  0.00000000000E+00  0.00000000000E+00  0.14738375369E+04  0.30840339273E+04  0.27090714608E+04 0.  0.
        5    1    3    3  502    0 -0.55056686944E+03 -0.31863846436E+02  0.21453328525E+04  0.22150878810E+04  0.46999998093E+01 0.  1.
       -5    1    3    3    0  502  0.55056686944E+03  0.31863846436E+02 -0.67149531566E+03  0.86894604630E+03  0.46999998093E+01 0. -1.
</event>
<event>
 5   0  0.8213334E-06  0.2734303E+04  0.7818609E-02  0.8323960E-01
        2   -1    0    0  501    0  0.00000000000E+00  0.00000000000E+00  0.12857858317E+04  0.12857858317E+04  0.25500000920E-02 0. -1.
       -2   -1    0    0    0  501  0.00000000000E+00  0.00000000000E+00 -0.14536657095E+04  0.14536657095E+04  0.25500000920E-02 0.  1.
    10030    2    1    2    0    0  0.00000000000E+00  0.00000000000E+00 -0.16787987772E+03  0.27394515412E+04  0.27343026704E+04 0.  0.
        3    1    3    3  502    0  0.73405668591E+03  0.11504282328E+04 -0.14537062108E+01  0.13646708250E+04  0.10100000352E+00 0. -1.
       -3    1    3    3    0  502 -0.73405668591E+03 -0.11504282328E+04 -0.16642617151E+03  0.13747807163E+04  0.10100000352E+00 0.  1.
</event>
<event>
 5   0  0.3046300E-06  0.2709873E+04  0.7818609E-02  0.8331809E-01
       -1   -1    0    0    0  501  0.00000000000E+00  0.00000000000E+00  0.93671348567E+03  0.93671348569E+03  0.50400001928E-02 0. -1.
        1   -1    0    0  501    0  0.00000000000E+00  0.00000000000E+00 -0.19598870866E+04  0.19598870866E+04  0.50400001928E-02 0.  1.
    10030    2    1    2    0    0  0.00000000000E+00  0.00000000000E+00 -0.10231736009E+04  0.28966005723E+04  0.27098728121E+04 0.  0.
        2    1    3    3  502    0  0.78735494647E+03  0.52234886809E+03  0.52645100023E+03  0.10816315488E+04  0.25500000920E-02 0. -1.
       -2    1    3    3    0  502 -0.78735494647E+03 -0.52234886809E+03 -0.15496246012E+04  0.18149690235E+04  0.25500000920E-02 0.  1.
</event>
<event>
 5   0  0.8213334E-06  0.2686567E+04  0.7818609E-02  0.8339377E-01
       -2   -1    0    0    0  501  0.00000000000E+00  0.00000000000E+00  0.12655328318E+04  0.12655328318E+04  0.25500000920E-02 0. -1.
        2   -1    0    0  501    0  0.00000000000E+00  0.00000000000E+00 -0.14258114607E+04  0.14258114607E+04  0.25500000920E-02 0.  1.
    10030    2    1    2    0    0  0.00000000000E+00  0.00000000000E+00 -0.16027862896E+03  0.26913442925E+04  0.26865674870E+04 0.  0.
        3    1    3    3  502    0 -0.50365490530E+03 -0.29427459633E+03  0.11320309004E+04  0.12734833220E+04  0.10100000352E+00 0. -1.
       -3    1    3    3    0  502  0.50365490530E+03  0.29427459633E+03 -0.12923095294E+04  0.14178609705E+04  0.10100000352E+00 0.  1.
</event>
<event>
 5   0  0.3089218E-06  0.2635351E+04  0.7818609E-02  0.8356292E-01
       -1   -1    0    0    0  501  0.00000000000E+00  0.00000000000E+00  0.88239206790E+03  0.88239206791E+03  0.50400001928E-02 0. -1.
        1   -1    0    0  501    0  0.00000000000E+00  0.00000000000E+00 -0.19676832830E+04  0.19676832830E+04  0.50400001928E-02 0.  1.
    10030    2    1    2    0    0  0.00000000000E+00  0.00000000000E+00 -0.10852912151E+04  0.28500753509E+04  0.26353505430E+04 0.  0.
        5    1    3    3  502    0 -0.16174731916E+03  0.99693998247E+03  0.37259112864E+03  0.10765211391E+04  0.46999998093E+01 0. -1.
       -5    1    3    3    0  502  0.16174731916E+03 -0.99693998247E+03 -0.14578823437E+04  0.17735542118E+04  0.46999998093E+01 0.  1.
</event>
<event>
 5   0  0.3028601E-06  0.2787748E+04  0.7818609E-02  0.8307082E-01
        1   -1    0    0  501    0  0.00000000000E+00  0.00000000000E+00  0.21695018955E+04  0.21695018956E+04  0.50400001928E-02 0. -1.
       -1   -1    0    0    0  501  0.00000000000E+00  0.00000000000E+00 -0.89554401635E+03  0.89554401637E+03  0.50400001928E-02 0.  1.
    10030    2    1    2    0    0  0.00000000000E+00  0.00000000000E+00  0.12739578792E+04  0.30650459119E+04  0.27877477942E+04 0.  0.
        3    1    3    3  502    0  0.36712022513E+03  0.12631472258E+04  0.11438887149E+04  0.17432152982E+04  0.10100000352E+00 0. -1.
       -3    1    3    3    0  502 -0.36712022513E+03 -0.12631472258E+04  0.13006916428E+03  0.13218306137E+04  0.10100000352E+00 0.  1.
</event>
<event>
 5   0  0.3013407E-06  0.2693841E+04  0.7818609E-02  0.8337006E-01
       -1   -1    0    0    0  501  0.00000000000E+00  0.00000000000E+00  0.11545355970E+04  0.11545355970E+04  0.50400001928E-02 0.  1.
        1   -1    0    0  501    0  0.00000000000E+00  0.00000000000E+00 -0.15713627434E+04  0.15713627435E+04  0.50400001928E-02 0. -1.
    10030    2    1    2    0    0  0.00000000000E+00  0.00000000000E+00 -0.41682714645E+03  0.27258983405E+04  0.26938405470E+04 0.  0.
        4    1    3    3  502    0  0.11980063159E+04  0.54890568062E+03  0.73607319782E+02  0.13198243177E+04  0.12699999809E+01 0.  1.
       -4    1    3    3    0  502 -0.11980063159E+04 -0.54890568062E+03 -0.49043446623E+03  0.14060740228E+04  0.12699999809E+01 0. -1.
</event>
<event>
 5   0  0.7729970E-06  0.2709962E+04  0.7818609E-02  0.8331780E-01
        2   -1    0    0  501    0  0.00000000000E+00  0.00000000000E+00  0.13834286600E+04  0.13834286600E+04  0.25500000920E-02 0.  1.
       -2   -1    0    0    0  501  0.00000000000E+00  0.00000000000E+00 -0.13271185103E+04  0.13271185103E+04  0.25500000920E-02 0. -1.
    10030    2    1    2    0    0  0.00000000000E+00  0.00000000000E+00  0.56310149708E+02  0.27105471703E+04  0.27099622007E+04 0.  0.
        4    1    3    3  502    0 -0.62769099496E+03 -0.22604823412E+03 -0.11514545691E+04  0.13307678335E+04  0.12699999809E+01 0. -1.
       -4    1    3    3    0  502  0.62769099496E+03  0.22604823412E+03  0.12077647188E+04  0.13797793367E+04  0.12699999809E+01 0.  1.
</event>
<event>
 5   0  0.3013407E-06  0.2688612E+04  0.7818609E-02  0.8338709E-01
       -1   -1    0    0    0  501  0.00000000000E+00  0.00000000000E+00  0.11388870550E+04  0.11388870550E+04  0.50400001928E-02 0.  1.
        1   -1    0    0  501    0  0.00000000000E+00  0.00000000000E+00 -0.15867760317E+04  0.15867760317E+04  0.50400001928E-02 0. -1.
    10030    2    1    2    0    0  0.00000000000E+00  0.00000000000E+00 -0.44788897667E+03  0.27256630867E+04  0.26886120447E+04 0.  0.
        4    1    3    3  502    0 -0.12858816139E+04 -0.18424888172E+03  0.12682641890E+03  0.13051918360E+04  0.12699999809E+01 0.  1.
       -4    1    3    3    0  502  0.12858816139E+04  0.18424888172E+03 -0.57471539557E+03  0.14204712507E+04  0.12699999809E+01 0. -1.
</event>
<event>
 5   0  0.2654625E-06  0.2694057E+04  0.7818609E-02  0.8336936E-01
        4   -1    0    0  501    0  0.00000000000E+00  0.00000000000E+00  0.97643640435E+03  0.97643723026E+03  0.12699999809E+01 0.  1.
       -4   -1    0    0    0  501  0.00000000000E+00  0.00000000000E+00 -0.18582713458E+04  0.18582717798E+04  0.12699999809E+01 0. -1.
    10030    2    1    2    0    0  0.00000000000E+00  0.00000000000E+00 -0.88183494142E+03  0.28347090100E+04  0.26940568494E+04 0.  0.
        1    1    3    3  502    0 -0.92385962288E+03 -0.61637047315E+03  0.36114995357E+03  0.11678435049E+04  0.50400001928E-02 0.  1.
       -1    1    3    3    0  502  0.92385962288E+03  0.61637047315E+03 -0.12429848950E+04  0.16668655051E+04  0.50400001928E-02 0. -1.
</event>
<event>
 5   0  0.3028601E-06  0.2710082E+04  0.7818609E-02  0.8331741E-01
        1   -1    0    0  501    0  0.00000000000E+00  0.00000000000E+00  0.15640689050E+04  0.15640689050E+04  0.50400001928E-02 0.  1.
       -1   -1    0    0    0  501  0.00000000000E+00  0.00000000000E+00 -0.11739480016E+04  0.11739480016E+04  0.50400001928E-02 0. -1.
    10030    2    1    2    0    0  0.00000000000E+00  0.00000000000E+00  0.39012090340E+03  0.27380169066E+04  0.27100815969E+04 0.  0.
        3    1    3    3  502    0  0.57223281711E+03  0.68183747801E+01  0.14359878570E+04  0.15458195312E+04  0.10100000352E+00 0.  1.
       -3    1    3    3    0  502 -0.57223281711E+03 -0.68183747801E+01 -0.10458669536E+04  0.11921973755E+04  0.10100000352E+00 0. -1.
</event>
<event>
 5   0  0.7838364E-06  0.2694500E+04  0.7818609E-02  0.8336792E-01
       -2   -1    0    0    0  501  0.00000000000E+00  0.00000000000E+00  0.13501732148E+04  0.13501732148E+04  0.25500000920E-02 0.  1.
        2   -1    0    0  501    0  0.00000000000E+00  0.00000000000E+00 -0.13443334991E+04  0.13443334991E+04  0.25500000920E-02 0. -1.
    10030    2    1    2    0    0  0.00000000000E+00  0.00000000000E+00  0.58397157331E+01  0.26945067140E+04  0.26945003858E+04 0.  0.
        2    1    3    3  502    0  0.90306943482E+03  0.12348313288E+03  0.99504143179E+03  0.13494035494E+04  0.25500000920E-02 0.  1.
       -2    1    3    3    0  502 -0.90306943482E+03 -0.12348313288E+03 -0.98920171605E+03  0.13451031645E+04  0.25500000920E-02 0. -1.
</event>
<event>
 5   0  0.7729970E-06  0.2405857E+04  0.7818609E-02  0.8437314E-01
       -2   -1    0    0    0  501  0.00000000000E+00  0.00000000000E+00  0.10042298867E+04  0.10042298867E+04  0.25500000920E-02 0. -1.
        2   -1    0    0  501    0  0.00000000000E+00  0.00000000000E+00 -0.14409415595E+04  0.14409415595E+04  0.25500000920E-02 0.  1.
    10030    2    1    2    0    0  0.00000000000E+00  0.00000000000E+00 -0.43671167285E+03  0.24451714462E+04  0.24058566699E+04 0.  0.
        4    1    3    3  502    0 -0.72249154176E+02 -0.69120184555E+03  0.77955210465E+03  0.10443577109E+04  0.12699999809E+01 0. -1.
       -4    1    3    3    0  502  0.72249154176E+02  0.69120184555E+03 -0.12162637775E+04  0.14008137353E+04  0.12699999809E+01 0.  1.
</event>
<event>
 5   0  0.7838364E-06  0.2692091E+04  0.7818609E-02  0.8337576E-01
       -2   -1    0    0    0  501  0.00000000000E+00  0.00000000000E+00  0.61036400693E+03  0.61036400693E+03  0.25500000920E-02 0.  1.
        2   -1    0    0  501    0  0.00000000000E+00  0.00000000000E+00 -0.29684558516E+04  0.29684558516E+04  0.25500000920E-02 0. -1.
    10030    2    1    2    0    0  0.00000000000E+00  0.00000000000E+00 -0.23580918447E+04  0.35788198586E+04  0.26920910891E+04 0.  0.
        2    1    3    3  502    0  0.52851610474E+03 -0.53676986015E+03 -0.26620006732E+04  0.27665318975E+04  0.25500000920E-02 0. -1.
       -2    1    3    3    0  502 -0.52851610474E+03  0.53676986015E+03  0.30390882846E+03  0.81228796111E+03  0.25500000920E-02 0.  1.
</event>
<event>
 5   0  0.3013407E-06  0.2695262E+04  0.7818609E-02  0.8336544E-01
        1   -1    0    0  501    0  0.00000000000E+00  0.00000000000E+00  0.13659961695E+04  0.13659961695E+04  0.50400001928E-02 0.  1.
       -1   -1    0    0    0  501  0.00000000000E+00  0.00000000000E+00 -0.13295125633E+04  0.13295125633E+04  0.50400001928E-02 0. -1.
    10030    2    1    2    0    0  0.00000000000E+00  0.00000000000E+00  0.36483606126E+02  0.26955087328E+04  0.26952618194E+04 0.  0.
        4    1    3    3  502    0  0.11698498378E+04  0.49421016690E+03  0.46918789418E+03  0.13538579043E+04  0.12699999809E+01 0.  1.
       -4    1    3    3    0  502 -0.11698498378E+04 -0.49421016690E+03 -0.43270428806E+03  0.13416508286E+04  0.12699999809E+01 0. -1.
</event>
<event>
 5   0  0.7812908E-06  0.2712259E+04  0.7818609E-02  0.8331038E-01
        2   -1    0    0  501    0  0.00000000000E+00  0.00000000000E+00  0.81679870479E+03  0.81679870479E+03  0.25500000920E-02 0.  1.
       -2   -1    0    0    0  501  0.00000000000E+00  0.00000000000E+00 -0.22515799544E+04  0.22515799544E+04  0.25500000920E-02 0. -1.
    10030    2    1    2    0    0  0.00000000000E+00  0.00000000000E+00 -0.14347812496E+04  0.30683786592E+04  0.27122592726E+04 0.  0.
        5    1    3    3  502    0 -0.90211206805E+03 -0.86978760845E+03 -0.13038458826E+04  0.18084172203E+04  0.46999998093E+01 0. -1.
       -5    1    3    3    0  502  0.90211206805E+03  0.86978760845E+03 -0.13093536700E+03  0.12599614389E+04  0.46999998093E+01 0.  1.
</event>
<event>
 5   0  0.3046300E-06  0.2702073E+04  0.7818609E-02  0.8334333E-01
       -1   -1    0    0    0  501  0.00000000000E+00  0.00000000000E+00  0.11449363398E+04  0.11449363398E+04  0.50400001928E-02 0. -1.
        1   -1    0    0  501    0  0.00000000000E+00  0.00000000000E+00 -0.15942364533E+04  0.15942364533E+04  0.50400001928E-02 0.  1.
    10030    2    1    2    0    0  0.00000000000E+00  0.00000000000E+00 -0.44930011347E+03  0.27391727931E+04  0.27020727227E+04 0.  0.
        2    1    3    3  502    0  0.72740331935E+02  0.25287744724E+03  0.11187093049E+04  0.11492382991E+04  0.25500000920E-02 0. -1.
       -2    1    3    3    0  502 -0.72740331935E+02 -0.25287744724E+03 -0.15680094184E+04  0.15899344940E+04  0.25500000920E-02 0.  1.
</event>
<event>
 5   0  0.3199840E-06  0.2679844E+04  0.7818609E-02  0.8341575E-01
       -1   -1    0    0    0  501  0.00000000000E+00  0.00000000000E+00  0.27937447941E+04  0.27937447941E+04  0.50400001928E-02 0. -1.
        1   -1    0    0  501    0  0.00000000000E+00  0.00000000000E+00 -0.64264660575E+03  0.64264660577E+03  0.50400001928E-02 0.  1.
    10030    2    1    2    0    0  0.00000000000E+00  0.00000000000E+00  0.21510981884E+04  0.34363913999E+04  0.26798437338E+04 0.  0.
        1    1    3    3  502    0  0.11558348019E+03 -0.10302691987E+04 -0.12962813390E+02  0.10368134824E+04  0.50400001928E-02 0.  1.
       -1    1    3    3    0  502 -0.11558348019E+03  0.10302691987E+04  0.21640610018E+04  0.23995779175E+04  0.50400001928E-02 0. -1.
</event>
<event>
 5   0  0.3089218E-06  0.2636053E+04  0.7818609E-02  0.8356057E-01
        1   -1    0    0  501    0  0.00000000000E+00  0.00000000000E+00  0.12676264847E+04  0.12676264847E+04  0.50400001928E-02 0. -1.
       -1   -1    0    0    0  501  0.00000000000E+00  0.00000000000E+00 -0.13704301058E+04  0.13704301058E+04  0.50400001928E-02 0.  1.
    10030    2    1    2    0    0  0.00000000000E+00  0.00000000000E+00 -0.10280362111E+03  0.26380565906E+04  0.26360527291E+04 0.  0.
        5    1    3    3  502    0  0.69614495722E+03  0.59478963996E+03 -0.10001619848E+04  0.13560009599E+04  0.46999998093E+01 0.  1.
       -5    1    3    3    0  502 -0.69614495722E+03 -0.59478963996E+03  0.89735836373E+03  0.12820556307E+04  0.46999998093E+01 0. -1.
</event>
<event>
 5   0  0.3013407E-06  0.2705006E+04  0.7818609E-02  0.8333383E-01
       -1   -1    0    0    0  501  0.00000000000E+00  0.00000000000E+00  0.12384977310E+04  0.12384977310E+04  0.50400001928E-02 0. -1.
        1   -1    0    0  501    0  0.00000000000E+00  0.00000000000E+00 -0.14770026064E+04  0.14770026064E+04  0.50400001928E-02 0.  1.
    10030    2    1    2    0    0  0.00000000000E+00  0.00000000000E+00 -0.23850487544E+03  0.27155003374E+04  0.27050060087E+04 0.  0.
        4    1    3    3  502    0  0.20891626279E+03 -0.11206780360E+02  0.12221542894E+04  0.12399331904E+04  0.12699999809E+01 0. -1.
       -4    1    3    3    0  502 -0.20891626279E+03  0.11206780360E+02 -0.14606591648E+04  0.14755671470E+04  0.12699999809E+01 0.  1.
</event>
<event>
 5   0  0.8407622E-06  0.2682487E+04  0.7818609E-02  0.8340710E-01
        2   -1    0    0  501    0  0.00000000000E+00  0.00000000000E+00  0.23585882128E+04  0.23585882128E+04  0.25500000920E-02 0.  1.
       -2   -1    0    0    0  501  0.00000000000E+00  0.00000000000E+00 -0.76271646785E+03  0.76271646785E+03  0.25500000920E-02 0. -1.
    10030    2    1    2    0    0  0.00000000000E+00  0.00000000000E+00  0.15958717450E+04  0.31213046807E+04  0.26824869586E+04 0.  0.
        1    1    3    3  502    0  0.10267618847E+03  0.13082456846E+04  0.11205765127E+04  0.17256131930E+04  0.50400001928E-02 0. -1.
       -1    1    3    3    0  502 -0.10267618847E+03 -0.13082456846E+04  0.47529523225E+03  0.13956914877E+04  0.50400001928E-02 0.  1.
</event>
<event>
 5   0  0.3199840E-06  0.2678360E+04  0.7818609E-02  0.8342061E-01
        1   -1    0    0  501    0  0.00000000000E+00  0.00000000000E+00  0.86876173951E+03  0.86876173952E+03  0.50400001928E-02 0.  1.
       -1   -1    0    0    0  501  0.00000000000E+00  0.00000000000E+00 -0.20643214797E+04  0.20643214797E+04  0.50400001928E-02 0. -1.
    10030    2    1    2    0    0  0.00000000000E+00  0.00000000000E+00 -0.11955597402E+04  0.29330832192E+04  0.26783603339E+04 0.  0.
        1    1    3    3  502    0 -0.95232569843E+03 -0.93874251755E+03 -0.67706547390E+03  0.14988593684E+04  0.50400001928E-02 0. -1.
       -1    1    3    3    0  502  0.95232569843E+03  0.93874251755E+03 -0.51849426627E+03  0.14342238508E+04  0.50400001928E-02 0.  1.
</event>
<event>
 5   0  0.8213334E-06  0.2712487E+04  0.7818609E-02  0.8330965E-01
        2   -1    0    0  501    0  0.00000000000E+00  0.00000000000E+00  0.10046006076E+04  0.10046006076E+04  0.25500000920E-02 0. -1.
       -2   -1    0    0    0  501  0.00000000000E+00  0.00000000000E+00 -0.18309729475E+04  0.18309729475E+04  0.25500000920E-02 0.  1.
    10030    2    1    2    0    0  0.00000000000E+00  0.00000000000E+00 -0.82637233989E+03  0.28355735552E+04  0.27124870769E+04 0.  0.
        3    1    3    3  502    0  0.47360833338E+03  0.44289672883E+03  0.83205755444E+03  0.10548848989E+04  0.10100000352E+00 0. -1.
       -3    1    3    3    0  502 -0.47360833338E+03 -0.44289672883E+03 -0.16584298943E+04  0.17806886562E+04  0.10100000352E+00 0.  1.
</event>
<event>
 5   0  0.8407622E-06  0.2729184E+04  0.7818609E-02  0.8325598E-01
       -2   -1    0    0    0  501  0.00000000000E+00  0.00000000000E+00  0.10209571695E+04  0.10209571695E+04  0.25500000920E-02 0.  1.
        2   -1    0    0  501    0  0.00000000000E+00  0.00000000000E+00 -0.18238873680E+04  0.18238873680E+04  0.25500000920E-02 0. -1.
    10030    2    1    2    0    0  0.00000000000E+00  0.00000000000E+00 -0.80293019848E+03  0.28448445375E+04  0.27291836763E+04 0.  0.
        1    1    3    3  502    0 -0.90180774456E+02  0.83076686499E+03  0.72305140059E+03  0.11050382274E+04  0.50400001928E-02 0.  1.
       -1    1    3    3    0  502  0.90180774456E+02 -0.83076686499E+03 -0.15259815991E+04  0.17398063101E+04  0.50400001928E-02 0. -1.
</event>
<event>
 5   0  0.8407622E-06  0.2703772E+04  0.7818609E-02  0.8333782E-01
       -2   -1    0    0    0  501  0.00000000000E+00  0.00000000000E+00  0.13434002111E+04  0.13434002111E+04  0.25500000920E-02 0. -1.
        2   -1    0    0  501    0  0.00000000000E+00  0.00000000000E+00 -0.13604250005E+04  0.13604250005E+04  0.25500000920E-02 0.  1.
    10030    2    1    2    0    0  0.00000000000E+00  0.00000000000E+00 -0.17024789395E+02  0.27038252117E+04  0.27037716124E+04 0.  0.
        1    1    3    3  502    0  0.63732237528E+03  0.11554151960E+04 -0.30250997066E+03  0.13537637783E+04  0.50400001928E-02 0.  1.
       -1    1    3    3    0  502 -0.63732237528E+03 -0.11554151960E+04  0.28548518127E+03  0.13500614334E+04  0.50400001928E-02 0. -1.
</event>
<event>
 5   0  0.7812908E-06  0.2692143E+04  0.7818609E-02  0.8337559E-01
        2   -1    0    0  501    0  0.00000000000E+00  0.00000000000E+00  0.18240017429E+04  0.18240017429E+04  0.25500000920E-02 0.  1.
       -2   -1    0    0    0  501  0.00000000000E+00  0.00000000000E+00 -0.99336979282E+03  0.99336979282E+03  0.25500000920E-02 0. -1.
    10030    2    1    2    0    0  0.00000000000E+00  0.00000000000E+00  0.83063195008E+03  0.28173715357E+04  0.26921428145E+04 0.  0.
        5    1    3    3  502    0 -0.11194322191E+04 -0.52435998327E+03 -0.14219764466E+03  0.12443167383E+04  0.46999998093E+01 0. -1.
       -5    1    3    3    0  502  0.11194322191E+04  0.52435998327E+03  0.97282959475E+03  0.15730547974E+04  0.46999998093E+01 0.  1.
</event>
<event>
 5   0  0.3089218E-06  0.2456995E+04  0.7818609E-02  0.8418468E-01
       -1   -1    0    0    0  501  0.00000000000E+00  0.00000000000E+00  0.93067268614E+03  0.93067268616E+03  0.50400001928E-02 0.  1.
        1   -1    0    0  501    0  0.00000000000E+00  0.00000000000E+00 -0.16216295057E+04  0.16216295057E+04  0.50400001928E-02 0. -1.
    10030    2    1    2    0    0  0.00000000000E+00  0.00000000000E+00 -0.69095681952E+03  0.25523021918E+04  0.24569951469E+04 0.  0.
        5    1    3    3  502    0 -0.94571492440E+03 -0.22248675185E+03 -0.11265125615E+04  0.14875919179E+04  0.46999998093E+01 0. -1.
       -5    1    3    3    0  502  0.94571492440E+03  0.22248675185E+03  0.43555574201E+03  0.10647102739E+04  0.46999998093E+01 0.  1.
</event>
<event>
 5   0  0.8213334E-06  0.2701558E+04  0.7818609E-02  0.8334500E-01
        2   -1    0    0  501    0  0.00000000000E+00  0.00000000000E+00  0.22272003715E+04  0.22272003715E+04  0.25500000920E-02 0. -1.
       -2   -1    0    0    0  501  0.00000000000E+00  0.00000000000E+00 -0.81923647066E+03  0.81923647067E+03  0.25500000920E-02 0.  1.
    10030    2    1    2    0    0  0.00000000000E+00  0.00000000000E+00  0.14079639009E+04  0.30464368422E+04  0.27015579001E+04 0.  0.
        3    1    3    3  502    0  0.78090655251E+03  0.22583813430E+03 -0.51252455646E+03  0.96098872930E+03  0.10100000352E+00 0.  1.
       -3    1    3    3    0  502 -0.78090655251E+03 -0.22583813430E+03  0.19204884573E+04  0.20854481129E+04  0.10100000352E+00 0. -1.
</event>
<event>
 5   0  0.3046300E-06  0.2694090E+04  0.7818609E-02  0.8336925E-01
       -1   -1    0    0    0  501  0.00000000000E+00  0.00000000000E+00  0.19004836488E+04  0.19004836488E+04  0.50400001928E-02 0.  1.
        1   -1    0    0  501    0  0.00000000000E+00  0.00000000000E+00 -0.95477306209E+03  0.95477306211E+03  0.50400001928E-02 0. -1.
    10030    2    1    2    0    0  0.00000000000E+00  0.00000000000E+00  0.94571058674E+03  0.28552567109E+04  0.26940902679E+04 0.  0.
        2    1    3    3  502    0  0.54295554623E+03  0.11870989528E+04  0.12051270993E+03  0.13109263756E+04  0.25500000920E-02 0. -1.
       -2    1    3    3    0  502 -0.54295554623E+03 -0.11870989528E+04  0.82519787681E+03  0.15443303354E+04  0.25500000920E-02 0.  1.
</event>
<event>
 5   0  0.3199840E-06  0.2695849E+04  0.7818609E-02  0.8336353E-01
       -1   -1    0    0    0  501  0.00000000000E+00  0.00000000000E+00  0.94143911133E+03  0.94143911135E+03  0.50400001928E-02 0. -1.
        1   -1    0    0  501    0  0.00000000000E+00  0.00000000000E+00 -0.19299176445E+04  0.19299176445E+04  0.50400001928E-02 0.  1.
    10030    2    1    2    0    0  0.00000000000E+00  0.00000000000E+00 -0.98847853313E+03  0.28713567558E+04  0.26958486250E+04 0.  0.
        1    1    3    3  502    0  0.48593340273E+03  0.23457767433E+03 -0.18098645255E+04  0.18885887742E+04  0.50400001928E-02 0.  1.
       -1    1    3    3    0  502 -0.48593340273E+03 -0.23457767433E+03  0.82138599240E+03  0.98276798163E+03  0.50400001928E-02 0. -1.
</event>
<event>
 5   0  0.3028601E-06  0.2692736E+04  0.7818609E-02  0.8337366E-01
        1   -1    0    0  501    0  0.00000000000E+00  0.00000000000E+00  0.10449008657E+04  0.10449008657E+04  0.50400001928E-02 0.  1.
       -1   -1    0    0    0  501  0.00000000000E+00  0.00000000000E+00 -0.17348120292E+04  0.17348120293E+04  0.50400001928E-02 0. -1.
    10030    2    1    2    0    0  0.00000000000E+00  0.00000000000E+00 -0.68991116353E+03  0.27797128950E+04  0.26927358513E+04 0.  0.
        3    1    3    3  502    0  0.11057872629E+04 -0.19219203254E+03 -0.11126176177E+04  0.15803864153E+04  0.10100000352E+00 0. -1.
       -3    1    3    3    0  502 -0.11057872629E+04  0.19219203254E+03  0.42270645417E+03  0.11993264797E+04  0.10100000352E+00 0.  1.
</event>
<event>
 5   0  0.3028601E-06  0.2704659E+04  0.7818609E-02  0.8333495E-01
       -1   -1    0    0    0  501  0.00000000000E+00  0.00000000000E+00  0.11735255790E+04  0.11735255790E+04  0.50400001928E-02 0.  1.
        1   -1    0    0  501    0  0.00000000000E+00  0.00000000000E+00 -0.15583768918E+04  0.15583768918E+04  0.50400001928E-02 0. -1.
    10030    2    1    2    0    0  0.00000000000E+00  0.00000000000E+00 -0.38485131280E+03  0.27319024708E+04  0.27046590501E+04 0.  0.
        3    1    3    3  502    0  0.29825075453E+02  0.13070320781E+04 -0.54170167388E+03  0.14151547979E+04  0.10100000352E+00 0. -1.
       -3    1    3    3    0  502 -0.29825075453E+02 -0.13070320781E+04  0.15685036107E+03  0.13167476730E+04  0.10100000352E+00 0.  1.
</event>
<event>
 5   0  0.7838364E-06  0.2701660E+04  0.7818609E-02  0.8334466E-01
       -2   -1    0    0    0  501  0.00000000000E+00  0.00000000000E+00  0.12971437775E+04  0.12971437775E+04  0.25500000920E-02 0.  1.
        2   -1    0    0  501    0  0.00000000000E+00  0.00000000000E+00 -0.14067386085E+04  0.14067386085E+04  0.25500000920E-02 0. -1.
    10030    2    1    2    0    0  0.00000000000E+00  0.00000000000E+00 -0.10959483105E+03  0.27038823860E+04  0.27016604025E+04 0.  0.
        2    1    3    3  502    0 -0.23315061104E+02 -0.45178639823E+03 -0.13286709071E+04  0.14035743375E+04  0.25500000920E-02 0. -1.
       -2    1    3    3    0  502  0.23315061104E+02  0.45178639823E+03  0.12190760760E+04  0.13003080484E+04  0.25500000920E-02 0.  1.
</event>
<event>
 5   0  0.3089218E-06  0.2703990E+04  0.7818609E-02  0.8333711E-01
       -1   -1    0    0    0  501  0.00000000000E+00  0.00000000000E+00  0.12686366495E+04  0.12686366495E+04  0.50400001928E-02 0.  1.
        1   -1    0    0  501    0  0.00000000000E+00  0.00000000000E+00 -0.14408309130E+04  0.14408309130E+04  0.50400001928E-02 0. -1.
    10030    2    1    2    0    0  0.00000000000E+00  0.00000000000E+00 -0.17219426345E+03  0.27094675625E+04  0.27039903121E+04 0.  0.
        5    1    3    3  502    0 -0.88915418621E+03  0.98597944063E+03 -0.34179669000E+03  0.13709842054E+04  0.46999998093E+01 0. -1.
       -5    1    3    3    0  502  0.88915418621E+03 -0.98597944063E+03  0.16960242655E+03  0.13384833571E+04  0.46999998093E+01 0.  1.
</event>
<event>
 5   0  0.7812908E-06  0.2706300E+04  0.7818609E-02  0.8332964E-01
       -2   -1    0    0    0  501  0.00000000000E+00  0.00000000000E+00  0.12259894903E+04  0.12259894903E+04  0.25500000920E-02 0. -1.
        2   -1    0    0  501    0  0.00000000000E+00  0.00000000000E+00 -0.14934999195E+04  0.14934999195E+04  0.25500000920E-02 0.  1.
    10030    2    1    2    0    0  0.00000000000E+00  0.00000000000E+00 -0.26751042915E+03  0.27194894098E+04  0.27063002089E+04 0.  0.
        5    1    3    3  502    0  0.87491455984E+03  0.82861753072E+02  0.90016713049E+03  0.12580399477E+04  0.46999998093E+01 0. -1.
       -5    1    3    3    0  502 -0.87491455984E+03 -0.82861753072E+02 -0.11676775596E+04  0.14614494622E+04  0.46999998093E+01 0.  1.
</event>
<event>
 5   0  0.3046300E-06  0.2792266E+04  0.7818609E-02  0.8305673E-01
       -1   -1    0    0    0  501  0.00000000000E+00  0.00000000000E+00  0.11115249614E+04  0.11115249614E+04  0.50400001928E-02 0.  1.
        1   -1    0    0  501    0  0.00000000000E+00  0.00000000000E+00 -0.17536160570E+04  0.17536160570E+04  0.50400001928E-02 0. -1.
    10030    2    1    2    0    0  0.00000000000E+00  0.00000000000E+00 -0.64209109563E+03  0.28651410184E+04  0.27922664773E+04 0.  0.
        2    1    3    3  502    0  0.79462070995E+02  0.11662404544E+04 -0.11043541391E+04  0.16081135168E+04  0.25500000920E-02 0. -1.
       -2    1    3    3    0  502 -0.79462070995E+02 -0.11662404544E+04  0.46226304349E+03  0.12570275016E+04  0.25500000920E-02 0.  1.
</event>
<event>
 5   0  0.3046300E-06  0.2543208E+04  0.7818609E-02  0.8387752E-01
        1   -1    0    0  501    0  0.00000000000E+00  0.00000000000E+00  0.13700102037E+04  0.13700102037E+04  0.50400001928E-02 0.  1.
       -1   -1    0    0    0  501  0.00000000000E+00  0.00000000000E+00 -0.11802665412E+04  0.11802665412E+04  0.50400001928E-02 0. -1.
    10030    2    1    2    0    0  0.00000000000E+00  0.00000000000E+00  0.18974366253E+03  0.25502767449E+04  0.25432083710E+04 0.  0.
        2    1    3    3  502    0 -0.87706327143E+03  0.23797994268E+02  0.10178488241E+04  0.13438089728E+04  0.25500000920E-02 0.  1.
       -2    1    3    3    0  502  0.87706327143E+03 -0.23797994268E+02 -0.82810516155E+03  0.12064677721E+04  0.25500000920E-02 0. -1.
</event>
<event>
 5   0  0.3199840E-06  0.2655528E+04  0.7818609E-02  0.8349580E-01
        1   -1    0    0  501    0  0.00000000000E+00  0.00000000000E+00  0.15066089722E+04  0.15066089722E+04  0.50400001928E-02 0.  1.
       -1   -1    0    0    0  501  0.00000000000E+00  0.00000000000E+00 -0.11701493939E+04  0.11701493939E+04  0.50400001928E-02 0. -1.
    10030    2    1    2    0    0  0.00000000000E+00  0.00000000000E+00  0.33645957829E+03  0.26767583661E+04  0.26555282530E+04 0.  0.
        1    1    3    3  502    0 -0.24433225310E+03  0.68433868649E+03  0.12883926036E+04  0.14791799042E+04  0.50400001928E-02 0.  1.
       -1    1    3    3    0  502  0.24433225310E+03 -0.68433868649E+03 -0.95193302534E+03  0.11975784619E+04  0.50400001928E-02 0. -1.
</event>
<event>
 5   0  0.3046300E-06  0.2691411E+04  0.7818609E-02  0.8337797E-01
       -1   -1    0    0    0  501  0.00000000000E+00  0.00000000000E+00  0.15404562101E+04  0.15404562101E+04  0.50400001928E-02 0. -1.
        1   -1    0    0  501    0  0.00000000000E+00  0.00000000000E+00 -0.11755757360E+04  0.11755757360E+04  0.50400001928E-02 0.  1.
    10030    2    1    2    0    0  0.00000000000E+00  0.00000000000E+00  0.36488047406E+03  0.27160319462E+04  0.26914107401E+04 0.  0.
        2    1    3    3  502    0 -0.30322321479E+03  0.45505348907E+03  0.14232840990E+04  0.15247149315E+04  0.25500000920E-02 0. -1.
       -2    1    3    3    0  502  0.30322321479E+03 -0.45505348907E+03 -0.10584036250E+04  0.11913170146E+04  0.25500000920E-02 0.  1.
</event>
<event>
 5   0  0.8407622E-06  0.2690639E+04  0.7818609E-02  0.8338049E-01
       -2   -1    0    0    0  501  0.00000000000E+00  0.00000000000E+00  0.19872941829E+04  0.19872941829E+04  0.25500000920E-02 0.  1.
        2   -1    0    0  501    0  0.00000000000E+00  0.00000000000E+00 -0.91072808741E+03  0.91072808741E+03  0.25500000920E-02 0. -1.
    10030    2    1    2    0    0  0.00000000000E+00  0.00000000000E+00  0.10765660955E+04  0.28980222703E+04  0.26906390544E+04 0.  0.
        1    1    3    3  502    0  0.34524831168E+03  0.31304405828E+03 -0.82100697337E+03  0.94405795876E+03  0.50400001928E-02 0. -1.
       -1    1    3    3    0  502 -0.34524831168E+03 -0.31304405828E+03  0.18975730689E+04  0.19539643115E+04  0.50400001928E-02 0.  1.
</event>
<event>
 5   0  0.8407622E-06  0.2717620E+04  0.7818609E-02  0.8329311E-01
       -2   -1    0    0    0  501  0.00000000000E+00  0.00000000000E+00  0.10670855805E+04  0.10670855805E+04  0.25500000920E-02 0. -1.
        2   -1    0    0  501    0  0.00000000000E+00  0.00000000000E+00 -0.17302867289E+04  0.17302867289E+04  0.25500000920E-02 0.  1.
    10030    2    1    2    0    0  0.00000000000E+00  0.00000000000E+00 -0.66320114839E+03  0.27973723094E+04  0.27176195602E+04 0.  0.
        1    1    3    3  502    0  0.20662833033E+02 -0.48840946152E+03 -0.16366371504E+04  0.17080842828E+04  0.50400001928E-02 0.  1.
       -1    1    3    3    0  502 -0.20662833033E+02  0.48840946152E+03  0.97343600206E+03  0.10892880266E+04  0.50400001928E-02 0. -1.
</event>
<event>
 5   0  0.2654625E-06  0.2683967E+04  0.7818609E-02  0.8340226E-01
       -3   -1    0    0    0  501  0.00000000000E+00  0.00000000000E+00  0.92553979228E+03  0.92553979779E+03  0.10100000352E+00 0.  1.
        3   -1    0    0  501    0  0.00000000000E+00  0.00000000000E+00 -0.19458053838E+04  0.19458053864E+04  0.10100000352E+00 0. -1.
    10030    2    1    2    0    0  0.00000000000E+00  0.00000000000E+00 -0.10202655915E+04  0.28713451842E+04  0.26839674531E+04 0.  0.
        5    1    3    3  502    0 -0.55990822116E+03  0.11072659756E+04 -0.10570609447E+04  0.16300107631E+04  0.46999998093E+01 0. -1.
       -5    1    3    3    0  502  0.55990822116E+03 -0.11072659756E+04  0.36795353241E+02  0.12413344211E+04  0.46999998093E+01 0.  1.
</event>
<event>
 5   0  0.3013407E-06  0.2373427E+04  0.7818609E-02  0.8449520E-01
        1   -1    0    0  501    0  0.00000000000E+00  0.00000000000E+00  0.17100979617E+04  0.17100979617E+04  0.50400001928E-02 0.  1.
       -1   -1    0    0    0  501  0.00000000000E+00  0.00000000000E+00 -0.82351332945E+03  0.82351332946E+03  0.50400001928E-02 0. -1.
    10030    2    1    2    0    0  0.00000000000E+00  0.00000000000E+00  0.88658463224E+03  0.25336112912E+04  0.23734266082E+04 0.  0.
        4    1    3    3  502    0  0.57640035957E+03  0.36994557331E+03 -0.59123235333E+03  0.90479523111E+03  0.12699999809E+01 0. -1.
       -4    1    3    3    0  502 -0.57640035957E+03 -0.36994557331E+03  0.14778169856E+04  0.16288160600E+04  0.12699999809E+01 0.  1.
</event>
<event>
 5   0  0.7812908E-06  0.2697258E+04  0.7818609E-02  0.8335895E-01
        2   -1    0    0  501    0  0.00000000000E+00  0.00000000000E+00  0.10916448338E+04  0.10916448338E+04  0.25500000920E-02 0. -1.
       -2   -1    0    0    0  501  0.00000000000E+00  0.00000000000E+00 -0.16661092489E+04  0.16661092489E+04  0.25500000920E-02 0.  1.
    10030    2    1    2    0    0  0.00000000000E+00  0.00000000000E+00 -0.57446441515E+03  0.27577540827E+04  0.26972575362E+04 0.  0.
        5    1    3    3  502    0 -0.41272212398E+03  0.30738849713E+03  0.98730251841E+03  0.11133802552E+04  0.46999998093E+01 0. -1.
       -5    1    3    3    0  502  0.41272212398E+03 -0.30738849713E+03 -0.15617669336E+04  0.16443738275E+04  0.46999998093E+01 0.  1.
</event>
<event>
 5   0  0.3089218E-06  0.2715234E+04  0.7818609E-02  0.8330079E-01
       -1   -1    0    0    0  501  0.00000000000E+00  0.00000000000E+00  0.11059808005E+04  0.11059808005E+04  0.50400001928E-02 0. -1.
        1   -1    0    0  501    0  0.00000000000E+00  0.00000000000E+00 -0.16665060122E+04  0.16665060122E+04  0.50400001928E-02 0.  1.
    10030    2    1    2    0    0  0.00000000000E+00  0.00000000000E+00 -0.56052521164E+03  0.27724868127E+04  0.27152338046E+04 0.  0.
        5    1    3    3  502    0  0.12085391898E+04  0.61457820131E+03 -0.20931201983E+03  0.13718990307E+04  0.46999998093E+01 0. -1.
       -5    1    3    3    0  502 -0.12085391898E+04 -0.61457820131E+03 -0.35121319181E+03  0.14005877820E+04  0.46999998093E+01 0.  1.
</event>
<event>
 5   0  0.3046300E-06  0.2714776E+04  0.7818609E-02  0.8330227E-01
        1   -1    0    0  501    0  0.00000000000E+00  0.00000000000E+00  0.20001139390E+04  0.20001139390E+04  0.50400001928E-02 0.  1.
       -1   -1    0    0    0  501  0.00000000000E+00  0.00000000000E+00 -0.92119871956E+03  0.92119871957E+03  0.50400001928E-02 0. -1.
    10030    2    1    2    0    0  0.00000000000E+00  0.00000000000E+00  0.10789152194E+04  0.29213126585E+04  0.27147761599E+04 0.  0.
        2    1    3    3  502    0 -0.20707698620E+03 -0.49025775300E+03  0.18831644138E+04  0.19569214987E+04  0.25500000920E-02 0.  1.
       -2    1    3    3    0  502  0.20707698620E+03  0.49025775300E+03 -0.80424919437E+03  0.96439115988E+03  0.25500000920E-02 0. -1.
</event>
<event>
 5   0  0.7812908E-06  0.2701067E+04  0.7818609E-02  0.8334659E-01
       -2   -1    0    0    0  501  0.00000000000E+00  0.00000000000E+00  0.14168324878E+04  0.14168324878E+04  0.25500000920E-02 0. -1.
        2   -1    0    0  501    0  0.00000000000E+00  0.00000000000E+00 -0.12873366178E+04  0.12873366178E+04  0.25500000920E-02 0.  1.
    10030    2    1    2    0    0  0.00000000000E+00  0.00000000000E+00  0.12949587002E+03  0.27041691056E+04  0.27010667099E+04 0.  0.
        5    1    3    3  502    0  0.72988049651E+03  0.90847526268E+03 -0.61857936159E+03  0.13193617240E+04  0.46999998093E+01 0.  1.
       -5    1    3    3    0  502 -0.72988049651E+03 -0.90847526268E+03  0.74807523162E+03  0.13848073816E+04  0.46999998093E+01 0. -1.
</event>
<event>
 5   0  0.8407622E-06  0.2689629E+04  0.7818609E-02  0.8338378E-01
       -2   -1    0    0    0  501  0.00000000000E+00  0.00000000000E+00  0.15205767494E+04  0.15205767494E+04  0.25500000920E-02 0.  1.
        2   -1    0    0  501    0  0.00000000000E+00  0.00000000000E+00 -0.11893684952E+04  0.11893684952E+04  0.25500000920E-02 0. -1.
    10030    2    1    2    0    0  0.00000000000E+00  0.00000000000E+00  0.33120825417E+03  0.27099452446E+04  0.26896290304E+04 0.  0.
        1    1    3    3  502    0 -0.23063008203E+03 -0.64065720496E+03 -0.10028514105E+04  0.12121645270E+04  0.50400001928E-02 0. -1.
       -1    1    3    3    0  502  0.23063008203E+03  0.64065720496E+03  0.13340596647E+04  0.14977807176E+04  0.50400001928E-02 0.  1.
</event>
<event>
 5   0  0.3013407E-06  0.2704170E+04  0.7818609E-02  0.8333653E-01
       -1   -1    0    0    0  501  0.00000000000E+00  0.00000000000E+00  0.14961997271E+04  0.14961997271E+04  0.50400001928E-02 0.  1.
        1   -1    0    0  501    0  0.00000000000E+00  0.00000000000E+00 -0.12218511544E+04  0.12218511544E+04  0.50400001928E-02 0. -1.
    10030    2    1    2    0    0  0.00000000000E+00  0.00000000000E+00  0.27434857277E+03  0.27180508815E+04  0.27041696425E+04 0.  0.
        4    1    3    3  502    0  0.82826433970E+03  0.12129839242E+03 -0.93006552252E+03  0.12513027633E+04  0.12699999809E+01 0. -1.
       -4    1    3    3    0  502 -0.82826433970E+03 -0.12129839242E+03  0.12044140953E+04  0.14667481182E+04  0.12699999809E+01 0.  1.
</event>
<event>
 5   0  0.3089218E-06  0.2687554E+04  0.7818609E-02  0.8339054E-01
        1   -1    0    0  501    0  0.00000000000E+00  0.00000000000E+00  0.14424150154E+04  0.14424150154E+04  0.50400001928E-02 0.  1.
       -1   -1    0    0    0  501  0.00000000000E+00  0.00000000000E+00 -0.12518845887E+04  0.12518845887E+04  0.50400001928E-02 0. -1.
    10030    2    1    2    0    0  0.00000000000E+00  0.00000000000E+00  0.19053042675E+03  0.26942996041E+04  0.26875543740E+04 0.  0.
        5    1    3    3  502    0  0.94207240796E+03  0.69790744399E+03 -0.56299513273E+03  0.13006001813E+04  0.46999998093E+01 0.  1.
       -5    1    3    3    0  502 -0.94207240796E+03 -0.69790744399E+03  0.75352555948E+03  0.13936994228E+04  0.46999998093E+01 0. -1.
</event>
<event>
 5   0  0.3028601E-06  0.2710664E+04  0.7818609E-02  0.8331553E-01
        1   -1    0    0  501    0  0.00000000000E+00  0.00000000000E+00  0.13259127594E+04  0.13259127594E+04  0.50400001928E-02 0. -1.
       -1   -1    0    0    0  501  0.00000000000E+00  0.00000000000E+00 -0.13854040867E+04  0.13854040868E+04  0.50400001928E-02 0.  1.
    10030    2    1    2    0    0  0.00000000000E+00  0.00000000000E+00 -0.59491327354E+02  0.27113168462E+04  0.27106640925E+04 0.  0.
        3    1    3    3  502    0 -0.10032371643E+04 -0.30650092140E+03 -0.88814654702E+03  0.13744933328E+04  0.10100000352E+00 0.  1.
       -3    1    3    3    0  502  0.10032371643E+04  0.30650092140E+03  0.82865521966E+03  0.13368235134E+04  0.10100000352E+00 0. -1.
</event>
<event>
 5   0  0.3028601E-06  0.2680533E+04  0.7818609E-02  0.8341349E-01
        1   -1    0    0  501    0  0.00000000000E+00  0.00000000000E+00  0.17347492047E+04  0.17347492047E+04  0.50400001928E-02 0.  1.
       -1   -1    0    0    0  501  0.00000000000E+00  0.00000000000E+00 -0.10354893062E+04  0.10354893062E+04  0.50400001928E-02 0. -1.
    10030    2    1    2    0    0  0.00000000000E+00  0.00000000000E+00  0.69925989854E+03  0.27702385109E+04  0.26805329697E+04 0.  0.
        3    1    3    3  502    0  0.80468795969E+03  0.87473517824E+03 -0.29047654144E+03  0.12235444315E+04  0.10100000352E+00 0.  1.
       -3    1    3    3    0  502 -0.80468795969E+03 -0.87473517824E+03  0.98973643998E+03  0.15466940794E+04  0.10100000352E+00 0. -1.
</event>
<event>
 5   0  0.3089218E-06  0.2649665E+04  0.7818609E-02  0.8351524E-01
        1   -1    0    0  501    0  0.00000000000E+00  0.00000000000E+00  0.20639435370E+04  0.20639435371E+04  0.50400001928E-02 0.  1.
       -1   -1    0    0    0  501  0.00000000000E+00  0.00000000000E+00 -0.85040183795E+03  0.85040183796E+03  0.50400001928E-02 0. -1.
    10030    2    1    2    0    0  0.00000000000E+00  0.00000000000E+00  0.12135416991E+04  0.29143453750E+04  0.26496651693E+04 0.  0.
        5    1    3    3  502    0 -0.67667428613E+02 -0.56384946605E+03  0.19232703778E+04  0.20053668336E+04  0.46999998093E+01 0.  1.
       -5    1    3    3    0  502  0.67667428613E+02  0.56384946605E+03 -0.70972867873E+03  0.90897854137E+03  0.46999998093E+01 0. -1.
</event>
<event>
 5   0  0.3013407E-06  0.2714510E+04  0.7818609E-02  0.8330312E-01
        1   -1    0    0  501    0  0.00000000000E+00  0.00000000000E+00  0.16439194836E+04  0.16439194836E+04  0.50400001928E-02 0. -1.
       -1   -1    0    0    0  501  0.00000000000E+00  0.00000000000E+00 -0.11205789475E+04  0.11205789475E+04  0.50400001928E-02 0.  1.
    10030    2    1    2    0    0  0.00000000000E+00  0.00000000000E+00  0.52334053612E+03  0.27644984311E+04  0.27145103166E+04 0.  0.
        4    1    3    3  502    0  0.81627616163E+03 -0.10545759709E+04  0.46284548202E+01  0.13335892493E+04  0.12699999809E+01 0.  1.
       -4    1    3    3    0  502 -0.81627616163E+03  0.10545759709E+04  0.51871208130E+03  0.14309091818E+04  0.12699999809E+01 0. -1.
</event>
<event>
 5   0  0.3089218E-06  0.2721545E+04  0.7818609E-02  0.8328048E-01
        1   -1    0    0  501    0  0.00000000000E+00  0.00000000000E+00  0.12576065026E+04  0.12576065026E+04  0.50400001928E-02 0.  1.
       -1   -1    0    0    0  501  0.00000000000E+00  0.00000000000E+00 -0.14724015497E+04  0.14724015497E+04  0.50400001928E-02 0. -1.
    10030    2    1    2    0    0  0.00000000000E+00  0.00000000000E+00 -0.21479504706E+03  0.27300080523E+04  0.27215449755E+04 0.  0.
        5    1    3    3  502    0  0.33015279913E+03  0.13163737548E+04 -0.20689740714E+03  0.13728326046E+04  0.46999998093E+01 0. -1.
       -5    1    3    3    0  502 -0.33015279913E+03 -0.13163737548E+04 -0.78976399214E+01  0.13571754477E+04  0.46999998093E+01 0.  1.
</event>
<event>
 5   0  0.7729970E-06  0.2695311E+04  0.7818609E-02  0.8336528E-01
        2   -1    0    0  501    0  0.00000000000E+00  0.00000000000E+00  0.15880667012E+04  0.15880667012E+04  0.25500000920E-02 0.  1.
       -2   -1    0    0    0  501  0.00000000000E+00  0.00000000000E+00 -0.11436396250E+04  0.11436396250E+04  0.25500000920E-02 0. -1.
    10030    2    1    2    0    0  0.00000000000E+00  0.00000000000E+00  0.44442707624E+03  0.27317063263E+04  0.26953114897E+04 0.  0.
        4    1    3    3  502    0  0.11530314279E+04  0.69213025010E+03  0.31085095114E+03  0.13802737712E+04  0.12699999809E+01 0.  1.
       -4    1    3    3    0  502 -0.11530314279E+04 -0.69213025010E+03  0.13357612511E+03  0.13514325550E+04  0.12699999809E+01 0. -1.
</event>
<event>
 5   0  0.3089218E-06  0.2704620E+04  0.7818609E-02  0.8333508E-01
       -1   -1    0    0    0  501  0.00000000000E+00  0.00000000000E+00  0.94079558731E+03  0.94079558732E+03  0.50400001928E-02 0.  1.
        1   -1    0    0  501    0  0.00000000000E+00  0.00000000000E+00 -0.19438253306E+04  0.19438253306E+04  0.50400001928E-02 0. -1.
    10030    2    1    2    0    0  0.00000000000E+00  0.00000000000E+00 -0.10030297433E+04  0.28846209179E+04  0.27046199685E+04 0.  0.
        5    1    3    3  502    0 -0.38024488454E+03 -0.77056146916E+03  0.61218778810E+03  0.10550578789E+04  0.46999998093E+01 0.  1.
       -5    1    3    3    0  502  0.38024488454E+03  0.77056146916E+03 -0.16152175313E+04  0.18295630390E+04  0.46999998093E+01 0. -1.
</event>
<event>
 5   0  0.8213334E-06  0.2700470E+04  0.7818609E-02  0.8334852E-01
       -2   -1    0    0    0  501  0.00000000000E+00  0.00000000000E+00  0.92664092789E+03  0.92664092789E+03  0.25500000920E-02 0. -1.
        2   -1    0    0  501    0  0.00000000000E+00  0.00000000000E+00 -0.19674659976E+04  0.19674659976E+04  0.25500000920E-02 0.  1.
    10030    2    1    2    0    0  0.00000000000E+00  0.00000000000E+00 -0.10408250697E+04  0.28941069255E+04  0.27004699722E+04 0.  0.
        3    1    3    3  502    0 -0.10651102865E+03  0.55792432347E+03 -0.18332008992E+04  0.19191794332E+04  0.10100000352E+00 0.  1.
       -3    1    3    3    0  502  0.10651102865E+03 -0.55792432347E+03  0.79237582945E+03  0.97492749230E+03  0.10100000352E+00 0. -1.
</event>
<event>
 5   0  0.8213334E-06  0.2700363E+04  0.7818609E-02  0.8334887E-01
        2   -1    0    0  501    0  0.00000000000E+00  0.00000000000E+00  0.11258272413E+04  0.11258272413E+04  0.25500000920E-02 0. -1.
       -2   -1    0    0    0  501  0.00000000000E+00  0.00000000000E+00 -0.16192444782E+04  0.16192444782E+04  0.25500000920E-02 0.  1.
    10030    2    1    2    0    0  0.00000000000E+00  0.00000000000E+00 -0.49341723688E+03  0.27450717196E+04  0.27003626008E+04 0.  0.
        3    1    3    3  502    0  0.66312547904E+03 -0.15387753862E+03 -0.14320223883E+04  0.15855919490E+04  0.10100000352E+00 0.  1.
       -3    1    3    3    0  502 -0.66312547904E+03  0.15387753862E+03  0.93860515144E+03  0.11594797706E+04  0.10100000352E+00 0. -1.
</event>
<event>
 5   0  0.3046300E-06  0.2689678E+04  0.7818609E-02  0.8338362E-01
        1   -1    0    0  501    0  0.00000000000E+00  0.00000000000E+00  0.17197197115E+04  0.17197197115E+04  0.50400001928E-02 0. -1.
       -1   -1    0    0    0  501  0.00000000000E+00  0.00000000000E+00 -0.10516781418E+04  0.10516781418E+04  0.50400001928E-02 0.  1.
    10030    2    1    2    0    0  0.00000000000E+00  0.00000000000E+00  0.66804156968E+03  0.27713978533E+04  0.26896777730E+04 0.  0.
        2    1    3    3  502    0 -0.23531441970E+03 -0.38951178499E+03  0.16379739774E+04  0.17000150168E+04  0.25500000920E-02 0. -1.
       -2    1    3    3    0  502  0.23531441970E+03  0.38951178499E+03 -0.96993240773E+03  0.10713828365E+04  0.25500000920E-02 0.  1.
</event>
<event>
 5   0  0.7812908E-06  0.2699106E+04  0.7818609E-02  0.8335295E-01
        2   -1    0    0  501    0  0.00000000000E+00  0.00000000000E+00  0.14693769722E+04  0.14693769722E+04  0.25500000920E-02 0. -1.
       -2   -1    0    0    0  501  0.00000000000E+00  0.00000000000E+00 -0.12395001750E+04  0.12395001750E+04  0.25500000920E-02 0.  1.
    10030    2    1    2    0    0  0.00000000000E+00  0.00000000000E+00  0.22987679721E+03  0.27088771472E+04  0.26991057884E+04 0.  0.
        5    1    3    3  502    0 -0.12978525177E+04 -0.10280418115E+03  0.47158535648E+03  0.13847038296E+04  0.46999998093E+01 0. -1.
       -5    1    3    3    0  502  0.12978525177E+04  0.10280418115E+03 -0.24170855927E+03  0.13241733176E+04  0.46999998093E+01 0.  1.
</event>
<event>
 5   0  0.3089218E-06  0.2686931E+04  0.7818609E-02  0.8339258E-01
        1   -1    0    0  501    0  0.00000000000E+00  0.00000000000E+00  0.18237184261E+04  0.18237184261E+04  0.50400001928E-02 0. -1.
       -1   -1    0    0    0  501  0.00000000000E+00  0.00000000000E+00 -0.98968133020E+03  0.98968133021E+03  0.50400001928E-02 0.  1.
    10030    2    1    2    0    0  0.00000000000E+00  0.00000000000E+00  0.83403709592E+03  0.28133997563E+04  0.26869313932E+04 0.  0.
        5    1    3    3  502    0  0.15131553478E+03  0.53283740540E+03  0.16985826288E+04  0.17866217083E+04  0.46999998093E+01 0. -1.
       -5    1    3    3    0  502 -0.15131553478E+03 -0.53283740540E+03 -0.86454553285E+03  0.10267780481E+04  0.46999998093E+01 0.  1.
</event>
<event>
 5   0  0.3046300E-06  0.2738002E+04  0.7818609E-02  0.8322779E-01
        1   -1    0    0  501    0  0.00000000000E+00  0.00000000000E+00  0.14677089583E+04  0.14677089583E+04  0.50400001928E-02 0.  1.
       -1   -1    0    0    0  501  0.00000000000E+00  0.00000000000E+00 -0.12769316616E+04  0.12769316616E+04  0.50400001928E-02 0. -1.
    10030    2    1    2    0    0  0.00000000000E+00  0.00000000000E+00  0.19077729670E+03  0.27446406199E+04  0.27380022197E+04 0.  0.
        2    1    3    3  502    0 -0.96251138608E+03  0.91644642219E+03 -0.23383086922E+03  0.13494365819E+04  0.25500000920E-02 0. -1.
       -2    1    3    3    0  502  0.96251138608E+03 -0.91644642219E+03  0.42460816592E+03  0.13952040380E+04  0.25500000920E-02 0.  1.
</event>
<event>
 5   0  0.7812908E-06  0.2692827E+04  0.7818609E-02  0.8337336E-01
        2   -1    0    0  501    0  0.00000000000E+00  0.00000000000E+00  0.16085866506E+04  0.16085866506E+04  0.25500000920E-02 0. -1.
       -2   -1    0    0    0  501  0.00000000000E+00  0.00000000000E+00 -0.11269703512E+04  0.11269703512E+04  0.25500000920E-02 0.  1.
    10030    2    1    2    0    0  0.00000000000E+00  0.00000000000E+00  0.48161629939E+03  0.27355570018E+04  0.26928271111E+04 0.  0.
        5    1    3    3  502    0  0.76109926543E+03 -0.18554614517E+03 -0.87160581304E+03  0.11719292842E+04  0.46999998093E+01 0.  1.
       -5    1    3    3    0  502 -0.76109926543E+03  0.18554614517E+03  0.13532221124E+04  0.15636277177E+04  0.46999998093E+01 0. -1.
</event>
<event>
 5   0  0.8407622E-06  0.2689650E+04  0.7818609E-02  0.8338371E-01
       -2   -1    0    0    0  501  0.00000000000E+00  0.00000000000E+00  0.11214717057E+04  0.11214717057E+04  0.25500000920E-02 0.  1.
        2   -1    0    0  501    0  0.00000000000E+00  0.00000000000E+00 -0.16126612591E+04  0.16126612591E+04  0.25500000920E-02 0. -1.
    10030    2    1    2    0    0  0.00000000000E+00  0.00000000000E+00 -0.49118955342E+03  0.27341329648E+04  0.26896497712E+04 0.  0.
        1    1    3    3  502    0 -0.58466361874E+03  0.80970120539E+03 -0.11611041776E+04  0.15315386056E+04  0.50400001928E-02 0. -1.
       -1    1    3    3    0  502  0.58466361874E+03 -0.80970120539E+03  0.66991462418E+03  0.12025943592E+04  0.50400001928E-02 0.  1.
</event>
<event>
 5   0  0.3046300E-06  0.2704156E+04  0.7818609E-02  0.8333658E-01
       -1   -1    0    0    0  501  0.00000000000E+00  0.00000000000E+00  0.10602584020E+04  0.10602584020E+04  0.50400001928E-02 0. -1.
        1   -1    0    0  501    0  0.00000000000E+00  0.00000000000E+00 -0.17242166803E+04  0.17242166803E+04  0.50400001928E-02 0.  1.
    10030    2    1    2    0    0  0.00000000000E+00  0.00000000000E+00 -0.66395827836E+03  0.27844750823E+04  0.27041562249E+04 0.  0.
        2    1    3    3  502    0  0.73808190593E+03  0.10754787049E+04 -0.69849502233E+03  0.14796332792E+04  0.25500000920E-02 0.  1.
       -2    1    3    3    0  502 -0.73808190593E+03 -0.10754787049E+04  0.34536743970E+02  0.13048418031E+04  0.25500000920E-02 0. -1.
</event>
<event>
 5   0  0.8407622E-06  0.2652973E+04  0.7818609E-02  0.8350427E-01
        2   -1    0    0  501    0  0.00000000000E+00  0.00000000000E+00  0.11988439930E+04  0.11988439930E+04  0.25500000920E-02 0. -1.
       -2   -1    0    0    0  501  0.00000000000E+00  0.00000000000E+00 -0.14677196225E+04  0.14677196225E+04  0.25500000920E-02 0.  1.
    10030    2    1    2    0    0  0.00000000000E+00  0.00000000000E+00 -0.26887562950E+03  0.26665636156E+04  0.26529733153E+04 0.  0.
        1    1    3    3  502    0 -0.11902373056E+04  0.93264809361E+02  0.44662714145E+03  0.12746917164E+04  0.50400001928E-02 0.  1.
       -1    1    3    3    0  502  0.11902373056E+04 -0.93264809361E+02 -0.71550277095E+03  0.13918718992E+04  0.50400001928E-02 0. -1.
</event>
<event>
 5   0  0.3013407E-06  0.2687174E+04  0.7818609E-02  0.8339179E-01
        1   -1    0    0  501    0  0.00000000000E+00  0.00000000000E+00  0.19452427970E+04  0.19452427970E+04  0.50400001928E-02 0. -1.
       -1   -1    0    0    0  501  0.00000000000E+00  0.00000000000E+00 -0.92802101289E+03  0.92802101291E+03  0.50400001928E-02 0.  1.
    10030    2    1    2    0    0  0.00000000000E+00  0.00000000000E+00  0.10172217841E+04  0.28732638099E+04  0.26871741222E+04 0.  0.
        4    1    3    3  502    0  0.10995736589E+04 -0.55962623554E+03  0.10774090705E+04  0.16380035632E+04  0.12699999809E+01 0. -1.
       -4    1    3    3    0  502 -0.10995736589E+04  0.55962623554E+03 -0.60187286466E+02  0.12352602467E+04  0.12699999809E+01 0.  1.
</event>
<event>
 5   0  0.8213334E-06  0.2710326E+04  0.7818609E-02  0.8331662E-01
        2   -1    0    0  501    0  0.00000000000E+00  0.00000000000E+00  0.13334658910E+04  0.13334658910E+04  0.25500000920E-02 0.  1.
       -2   -1    0    0    0  501  0.00000000000E+00  0.00000000000E+00 -0.13772129469E+04  0.13772129469E+04  0.25500000920E-02 0. -1.
    10030    2    1    2    0    0  0.00000000000E+00  0.00000000000E+00 -0.43747055980E+02  0.27106788379E+04  0.27103258028E+04 0.  0.
        3    1    3    3  502    0 -0.33461863057E+03  0.56665948360E+03  0.11629300441E+04  0.13362181319E+04  0.10100000352E+00 0.  1.
       -3    1    3    3    0  502  0.33461863057E+03 -0.56665948360E+03 -0.12066771001E+04  0.13744607060E+04  0.10100000352E+00 0. -1.
</event>
<event>
 5   0  0.3013407E-06  0.2686255E+04  0.7818609E-02  0.8339478E-01
        1   -1    0    0  501    0  0.00000000000E+00  0.00000000000E+00  0.18958423581E+04  0.18958423581E+04  0.50400001928E-02 0. -1.
       -1   -1    0    0    0  501  0.00000000000E+00  0.00000000000E+00 -0.95155166230E+03  0.95155166231E+03  0.50400001928E-02 0.  1.
    10030    2    1    2    0    0  0.00000000000E+00  0.00000000000E+00  0.94429069580E+03  0.28473940204E+04  0.26862553470E+04 0.  0.
        4    1    3    3  502    0 -0.99437070444E+03  0.83388430534E+03  0.83911226033E+03  0.15453954610E+04  0.12699999809E+01 0. -1.
       -4    1    3    3    0  502  0.99437070444E+03 -0.83388430534E+03  0.10517843547E+03  0.13019985594E+04  0.12699999809E+01 0.  1.
</event>
<event>
 5   0  0.8213334E-06  0.2691019E+04  0.7818609E-02  0.8337925E-01
        2   -1    0    0  501    0  0.00000000000E+00  0.00000000000E+00  0.20008138995E+04  0.20008138995E+04  0.25500000920E-02 0. -1.
       -2   -1    0    0    0  501  0.00000000000E+00  0.00000000000E+00 -0.90482964850E+03  0.90482964851E+03  0.25500000920E-02 0.  1.
    10030    2    1    2    0    0  0.00000000000E+00  0.00000000000E+00  0.10959842510E+04  0.29056435480E+04  0.26910189427E+04 0.  0.
        3    1    3    3  502    0  0.11373423357E+03 -0.10580579431E+03  0.19910992547E+04  0.19971496174E+04  0.10100000352E+00 0. -1.
       -3    1    3    3    0  502 -0.11373423357E+03  0.10580579431E+03 -0.89511500368E+03  0.90849393064E+03  0.10100000352E+00 0.  1.
</event>
<event>
 5   0  0.7729970E-06  0.2692128E+04  0.7818609E-02  0.8337564E-01
        2   -1    0    0  501    0  0.00000000000E+00  0.00000000000E+00  0.14154924732E+04  0.14154924732E+04  0.25500000920E-02 0.  1.
       -2   -1    0    0    0  501  0.00000000000E+00  0.00000000000E+00 -0.12800407977E+04  0.12800407977E+04  0.25500000920E-02 0. -1.
    10030    2    1    2    0    0  0.00000000000E+00  0.00000000000E+00  0.13545167554E+03  0.26955332709E+04  0.26921278681E+04 0.  0.
        4    1    3    3  502    0  0.58078670564E+03 -0.11737543577E+04 -0.24391377494E+03  0.13321066144E+04  0.12699999809E+01 0.  1.
       -4    1    3    3    0  502 -0.58078670564E+03  0.11737543577E+04  0.37936545048E+03  0.13634266565E+04  0.12699999809E+01 0. -1.
</event>
<event>
 5   0  0.7838364E-06  0.2702954E+04  0.7818609E-02  0.8334047E-01
       -2   -1    0    0    0  501  0.00000000000E+00  0.00000000000E+00  0.12137301519E+04  0.12137301519E+04  0.25500000920E-02 0.  1.
        2   -1    0    0  501    0  0.00000000000E+00  0.00000000000E+00 -0.15048571339E+04  0.15048571339E+04  0.25500000920E-02 0. -1.
    10030    2    1    2    0    0  0.00000000000E+00  0.00000000000E+00 -0.29112698202E+03  0.27185872858E+04  0.27029542931E+04 0.  0.
        2    1    3    3  502    0  0.16634521630E+03  0.15140360101E+03  0.11947717277E+04  0.12157603640E+04  0.25500000920E-02 0.  1.
       -2    1    3    3    0  502 -0.16634521630E+03 -0.15140360101E+03 -0.14858987097E+04  0.15028269218E+04  0.25500000920E-02 0. -1.
</event>
<event>
 5   0  0.7838364E-06  0.2724630E+04  0.7818609E-02  0.8327057E-01
        2   -1    0    0  501    0  0.00000000000E+00  0.00000000000E+00  0.26209465668E+04  0.26209465668E+04  0.25500000920E-02 0.  1.
       -2   -1    0    0    0  501  0.00000000000E+00  0.00000000000E+00 -0.70810388221E+03  0.70810388222E+03  0.25500000920E-02 0. -1.
    10030    2    1    2    0    0  0.00000000000E+00  0.00000000000E+00  0.19128426846E+04  0.33290504491E+04  0.27246302054E+04 0.  0.
        2    1    3    3  502    0  0.11159155198E+04 -0.78126974069E+03  0.93700284394E+03  0.16533675286E+04  0.25500000920E-02 0.  1.
       -2    1    3    3    0  502 -0.11159155198E+04  0.78126974069E+03  0.97583984068E+03  0.16756829204E+04  0.25500000920E-02 0. -1.
</event>
<event>
 5   0  0.3013407E-06  0.2692925E+04  0.7818609E-02  0.8337304E-01
       -1   -1    0    0    0  501  0.00000000000E+00  0.00000000000E+00  0.14947483917E+04  0.14947483917E+04  0.50400001928E-02 0. -1.
        1   -1    0    0  501    0  0.00000000000E+00  0.00000000000E+00 -0.12128874975E+04  0.12128874975E+04  0.50400001928E-02 0.  1.
    10030    2    1    2    0    0  0.00000000000E+00  0.00000000000E+00  0.28186089412E+03  0.27076358892E+04  0.26929252765E+04 0.  0.
        4    1    3    3  502    0 -0.10010222893E+04 -0.19618396782E+03  0.10246093191E+04  0.14458076091E+04  0.12699999809E+01 0. -1.
       -4    1    3    3    0  502  0.10010222893E+04  0.19618396782E+03 -0.74274842493E+03  0.12618282801E+04  0.12699999809E+01 0.  1.
</event>
<event>
 5   0  0.7838364E-06  0.2723656E+04  0.7818609E-02  0.8327370E-01
       -2   -1    0    0    0  501  0.00000000000E+00  0.00000000000E+00  0.11361152541E+04  0.11361152541E+04  0.25500000920E-02 0. -1.
        2   -1    0    0  501    0  0.00000000000E+00  0.00000000000E+00 -0.16323835939E+04  0.16323835940E+04  0.25500000920E-02 0.  1.
    10030    2    1    2    0    0  0.00000000000E+00  0.00000000000E+00 -0.49626833986E+03  0.27684988480E+04  0.27236562937E+04 0.  0.
        2    1    3    3  502    0 -0.63819692753E+02  0.13515107273E+04 -0.40534703714E+03  0.14124306778E+04  0.25500000920E-02 0.  1.
       -2    1    3    3    0  502  0.63819692753E+02 -0.13515107273E+04 -0.90921302718E+02  0.13560681702E+04  0.25500000920E-02 0. -1.
</event>
<event>
 5   0  0.7812908E-06  0.2723240E+04  0.7818609E-02  0.8327503E-01
        2   -1    0    0  501    0  0.00000000000E+00  0.00000000000E+00  0.91174690744E+03  0.91174690745E+03  0.25500000920E-02 0.  1.
       -2   -1    0    0    0  501  0.00000000000E+00  0.00000000000E+00 -0.20334693388E+04  0.20334693388E+04  0.25500000920E-02 0. -1.
    10030    2    1    2    0    0  0.00000000000E+00  0.00000000000E+00 -0.11217224314E+04  0.29452162463E+04  0.27232402619E+04 0.  0.
        5    1    3    3  502    0  0.16494909333E+03 -0.28297866630E+02 -0.20222946418E+04  0.20292133157E+04  0.46999998093E+01 0. -1.
       -5    1    3    3    0  502 -0.16494909333E+03  0.28297866630E+02  0.90057221038E+03  0.91600293054E+03  0.46999998093E+01 0.  1.
</event>
<event>
 5   0  0.7812908E-06  0.2671409E+04  0.7818609E-02  0.8344342E-01
        2   -1    0    0  501    0  0.00000000000E+00  0.00000000000E+00  0.28513413371E+04  0.28513413371E+04  0.25500000920E-02 0.  1.
       -2   -1    0    0    0  501  0.00000000000E+00  0.00000000000E+00 -0.62570762002E+03  0.62570762003E+03  0.25500000920E-02 0. -1.
    10030    2    1    2    0    0  0.00000000000E+00  0.00000000000E+00  0.22256337171E+04  0.34770489571E+04  0.26714086186E+04 0.  0.
        5    1    3    3  502    0 -0.23360944406E+03 -0.45980044532E+03 -0.49087094992E+03  0.71201559066E+03  0.46999998093E+01 0. -1.
       -5    1    3    3    0  502  0.23360944406E+03  0.45980044532E+03  0.27165046670E+04  0.27650333664E+04  0.46999998093E+01 0.  1.
</event>
<event>
 5   0  0.8213334E-06  0.2702285E+04  0.7818609E-02  0.8334264E-01
       -2   -1    0    0    0  501  0.00000000000E+00  0.00000000000E+00  0.71210815099E+03  0.71210815100E+03  0.25500000920E-02 0.  1.
        2   -1    0    0  501    0  0.00000000000E+00  0.00000000000E+00 -0.25636354484E+04  0.25636354484E+04  0.25500000920E-02 0. -1.
    10030    2    1    2    0    0  0.00000000000E+00  0.00000000000E+00 -0.18515272974E+04  0.32757435994E+04  0.27022847363E+04 0.  0.
        3    1    3    3  502    0 -0.13156538371E+04  0.25756380141E+03 -0.72183231293E+03  0.15226050142E+04  0.10100000352E+00 0. -1.
       -3    1    3    3    0  502  0.13156538371E+04 -0.25756380141E+03 -0.11296949845E+04  0.17531385852E+04  0.10100000352E+00 0.  1.
</event>
<event>
 5   0  0.3089218E-06  0.2670399E+04  0.7818609E-02  0.8344674E-01
       -1   -1    0    0    0  501  0.00000000000E+00  0.00000000000E+00  0.11067731020E+04  0.11067731020E+04  0.50400001928E-02 0. -1.
        1   -1    0    0  501    0  0.00000000000E+00  0.00000000000E+00 -0.16107701511E+04  0.16107701511E+04  0.50400001928E-02 0.  1.
    10030    2    1    2    0    0  0.00000000000E+00  0.00000000000E+00 -0.50399704911E+03  0.27175432532E+04  0.26703985297E+04 0.  0.
        5    1    3    3  502    0 -0.18483980347E+03  0.56211446691E+03 -0.14700407299E+04  0.15846703962E+04  0.46999998093E+01 0.  1.
       -5    1    3    3    0  502  0.18483980347E+03 -0.56211446691E+03  0.96604368082E+03  0.11328728570E+04  0.46999998093E+01 0. -1.
</event>
<event>
 5   0  0.3199840E-06  0.2670998E+04  0.7818609E-02  0.8344477E-01
        1   -1    0    0  501    0  0.00000000000E+00  0.00000000000E+00  0.16407948793E+04  0.16407948793E+04  0.50400001928E-02 0.  1.
       -1   -1    0    0    0  501  0.00000000000E+00  0.00000000000E+00 -0.10870079686E+04  0.10870079686E+04  0.50400001928E-02 0. -1.
    10030    2    1    2    0    0  0.00000000000E+00  0.00000000000E+00  0.55378691073E+03  0.27278028479E+04  0.26709976478E+04 0.  0.
        1    1    3    3  502    0 -0.32897097491E+03  0.93533988473E+03  0.11906136538E+04  0.15494010052E+04  0.50400001928E-02 0.  1.
       -1    1    3    3    0  502  0.32897097491E+03 -0.93533988473E+03 -0.63682674303E+03  0.11784018427E+04  0.50400001928E-02 0. -1.
</event>
<event>
 5   0  0.8213334E-06  0.2699115E+04  0.7818609E-02  0.8335292E-01
        2   -1    0    0  501    0  0.00000000000E+00  0.00000000000E+00  0.11258330854E+04  0.11258330854E+04  0.25500000920E-02 0.  1.
       -2   -1    0    0    0  501  0.00000000000E+00  0.00000000000E+00 -0.16177401938E+04  0.16177401938E+04  0.25500000920E-02 0. -1.
    10030    2    1    2    0    0  0.00000000000E+00  0.00000000000E+00 -0.49190710838E+03  0.27435732792E+04  0.26991149910E+04 0.  0.
        3    1    3    3  502    0  0.21639709666E+03  0.85249619534E+03 -0.12863993110E+04  0.15583326552E+04  0.10100000352E+00 0. -1.
       -3    1    3    3    0  502 -0.21639709666E+03 -0.85249619534E+03  0.79449220264E+03  0.11852406240E+04  0.10100000352E+00 0.  1.
</event>
<event>
 5   0  0.3046300E-06  0.2698519E+04  0.7818609E-02  0.8335486E-01
        1   -1    0    0  501    0  0.00000000000E+00  0.00000000000E+00  0.22052348276E+04  0.22052348276E+04  0.50400001928E-02 0. -1.
       -1   -1    0    0    0  501  0.00000000000E+00  0.00000000000E+00 -0.82553628181E+03  0.82553628182E+03  0.50400001928E-02 0.  1.
    10030    2    1    2    0    0  0.00000000000E+00  0.00000000000E+00  0.13796985458E+04  0.30307711094E+04  0.26985191199E+04 0.  0.
        2    1    3    3  502    0 -0.10337860557E+03 -0.21878946334E+03 -0.80096609721E+03  0.83672137193E+03  0.25500000920E-02 0.  1.
       -2    1    3    3    0  502  0.10337860557E+03  0.21878946334E+03  0.21806646430E+04  0.21940497375E+04  0.25500000920E-02 0. -1.
</event>
<event>
 5   0  0.7729970E-06  0.2695511E+04  0.7818609E-02  0.8336463E-01
       -2   -1    0    0    0  501  0.00000000000E+00  0.00000000000E+00  0.88955189619E+03  0.88955189619E+03  0.25500000920E-02 0.  1.
        2   -1    0    0  501    0  0.00000000000E+00  0.00000000000E+00 -0.20419772660E+04  0.20419772660E+04  0.25500000920E-02 0. -1.
    10030    2    1    2    0    0  0.00000000000E+00  0.00000000000E+00 -0.11524253698E+04  0.29315291621E+04  0.26955108970E+04 0.  0.
        4    1    3    3  502    0  0.98597954894E+03  0.53707717898E+03  0.23461075337E+03  0.11470184766E+04  0.12699999809E+01 0.  1.
       -4    1    3    3    0  502 -0.98597954894E+03 -0.53707717898E+03 -0.13870361231E+04  0.17845106856E+04  0.12699999809E+01 0. -1.
</event>
<event>
 5   0  0.3013407E-06  0.2630814E+04  0.7818609E-02  0.8357809E-01
       -1   -1    0    0    0  501  0.00000000000E+00  0.00000000000E+00  0.13532824962E+04  0.13532824962E+04  0.50400001928E-02 0.  1.
        1   -1    0    0  501    0  0.00000000000E+00  0.00000000000E+00 -0.12785919852E+04  0.12785919852E+04  0.50400001928E-02 0. -1.
    10030    2    1    2    0    0  0.00000000000E+00  0.00000000000E+00  0.74690510994E+02  0.26318744814E+04  0.26308144392E+04 0.  0.
        4    1    3    3  502    0  0.42199876205E+03  0.14810616817E+03  0.12748870102E+04  0.13510576945E+04  0.12699999809E+01 0.  1.
       -4    1    3    3    0  502 -0.42199876205E+03 -0.14810616817E+03 -0.12001964992E+04  0.12808167870E+04  0.12699999809E+01 0. -1.
</event>
<event>
 5   0  0.7729970E-06  0.2714544E+04  0.7818609E-02  0.8330301E-01
       -2   -1    0    0    0  501  0.00000000000E+00  0.00000000000E+00  0.13436436189E+04  0.13436436189E+04  0.25500000920E-02 0.  1.
        2   -1    0    0  501    0  0.00000000000E+00  0.00000000000E+00 -0.13710388582E+04  0.13710388582E+04  0.25500000920E-02 0. -1.
    10030    2    1    2    0    0  0.00000000000E+00  0.00000000000E+00 -0.27395239294E+02  0.27146824771E+04  0.27145442440E+04 0.  0.
        4    1    3    3  502    0 -0.69421370128E+03 -0.11662728392E+04 -0.21508385427E+02  0.13574200610E+04  0.12699999809E+01 0. -1.
       -4    1    3    3    0  502  0.69421370128E+03  0.11662728392E+04 -0.58868538672E+01  0.13572624162E+04  0.12699999809E+01 0.  1.
</event>
<event>
 5   0  0.8407622E-06  0.2705933E+04  0.7818609E-02  0.8333083E-01
       -2   -1    0    0    0  501  0.00000000000E+00  0.00000000000E+00  0.10236997137E+04  0.10236997137E+04  0.25500000920E-02 0.  1.
        2   -1    0    0  501    0  0.00000000000E+00  0.00000000000E+00 -0.17881398058E+04  0.17881398058E+04  0.25500000920E-02 0. -1.
    10030    2    1    2    0    0  0.00000000000E+00  0.00000000000E+00 -0.76444009208E+03  0.28118395195E+04  0.27059328944E+04 0.  0.
        1    1    3    3  502    0 -0.56600948690E+03 -0.90657643350E+03 -0.12443110829E+04  0.16402919375E+04  0.50400001928E-02 0. -1.
       -1    1    3    3    0  502  0.56600948690E+03  0.90657643350E+03  0.47987099084E+03  0.11715475820E+04  0.50400001928E-02 0.  1.
</event>
<event>
 5   0  0.7838364E-06  0.2708838E+04  0.7818609E-02  0.8332143E-01
        2   -1    0    0  501    0  0.00000000000E+00  0.00000000000E+00  0.16302906226E+04  0.16302906226E+04  0.25500000920E-02 0.  1.
       -2   -1    0    0    0  501  0.00000000000E+00  0.00000000000E+00 -0.11252291354E+04  0.11252291354E+04  0.25500000920E-02 0. -1.
    10030    2    1    2    0    0  0.00000000000E+00  0.00000000000E+00  0.50506148719E+03  0.27555197580E+04  0.27088377638E+04 0.  0.
        2    1    3    3  502    0 -0.46036406263E+03 -0.67415382094E+03 -0.84684947015E+03  0.11762535737E+04  0.25500000920E-02 0. -1.
       -2    1    3    3    0  502  0.46036406263E+03  0.67415382094E+03  0.13519109573E+04  0.15792661843E+04  0.25500000920E-02 0.  1.
</event>
<event>
 5   0  0.3028601E-06  0.2693527E+04  0.7818609E-02  0.8337108E-01
       -1   -1    0    0    0  501  0.00000000000E+00  0.00000000000E+00  0.11518906070E+04  0.11518906070E+04  0.50400001928E-02 0. -1.
        1   -1    0    0  501    0  0.00000000000E+00  0.00000000000E+00 -0.15746038457E+04  0.15746038457E+04  0.50400001928E-02 0.  1.
    10030    2    1    2    0    0  0.00000000000E+00  0.00000000000E+00 -0.42271323867E+03  0.27264944527E+04  0.26935265951E+04 0.  0.
        3    1    3    3  502    0 -0.51448653785E+03  0.17657628708E+03 -0.14584653745E+04  0.15565978420E+04  0.10100000352E+00 0.  1.
       -3    1    3    3    0  502  0.51448653785E+03 -0.17657628708E+03  0.10357521358E+04  0.11698966108E+04  0.10100000352E+00 0. -1.
</event>
<event>
 5   0  0.3199840E-06  0.2704737E+04  0.7818609E-02  0.8333470E-01
        1   -1    0    0  501    0  0.00000000000E+00  0.00000000000E+00  0.22049675578E+04  0.22049675578E+04  0.50400001928E-02 0.  1.
       -1   -1    0    0    0  501  0.00000000000E+00  0.00000000000E+00 -0.82944550984E+03  0.82944550986E+03  0.50400001928E-02 0. -1.
    10030    2    1    2    0    0  0.00000000000E+00  0.00000000000E+00  0.13755220480E+04  0.30344130677E+04  0.27047369116E+04 0.  0.
        1    1    3    3  502    0 -0.83325023621E+03  0.10095208026E+04  0.30654631566E+03  0.13443990668E+04  0.50400001928E-02 0.  1.
       -1    1    3    3    0  502  0.83325023621E+03 -0.10095208026E+04  0.10689757323E+04  0.16900140009E+04  0.50400001928E-02 0. -1.
</event>
<event>
 5   0  0.3046300E-06  0.2684845E+04  0.7818609E-02  0.8339939E-01
        1   -1    0    0  501    0  0.00000000000E+00  0.00000000000E+00  0.19632942205E+04  0.19632942205E+04  0.50400001928E-02 0.  1.
       -1   -1    0    0    0  501  0.00000000000E+00  0.00000000000E+00 -0.91789504875E+03  0.91789504876E+03  0.50400001928E-02 0. -1.
    10030    2    1    2    0    0  0.00000000000E+00  0.00000000000E+00  0.10453991717E+04  0.28811892692E+04  0.26848449074E+04 0.  0.
        2    1    3    3  502    0  0.75970095835E+03  0.20008230626E+03 -0.64544613176E+03  0.10167493223E+04  0.25500000920E-02 0. -1.
       -2    1    3    3    0  502 -0.75970095835E+03 -0.20008230626E+03  0.16908453035E+04  0.18644399469E+04  0.25500000920E-02 0.  1.
</event>
<event>
 5   0  0.7838364E-06  0.2720554E+04  0.7818609E-02  0.8328366E-01
       -2   -1    0    0    0  501  0.00000000000E+00  0.00000000000E+00  0.85851268863E+03  0.85851268863E+03  0.25500000920E-02 0.  1.
        2   -1    0    0  501    0  0.00000000000E+00  0.00000000000E+00 -0.21553019574E+04  0.21553019574E+04  0.25500000920E-02 0. -1.
    10030    2    1    2    0    0  0.00000000000E+00  0.00000000000E+00 -0.12967892687E+04  0.30138146460E+04  0.27205544128E+04 0.  0.
        2    1    3    3  502    0  0.10166971466E+04  0.62050712447E+03  0.79428658536E+02  0.11937382842E+04  0.25500000920E-02 0.  1.
       -2    1    3    3    0  502 -0.10166971466E+04 -0.62050712447E+03 -0.13762179273E+04  0.18200763618E+04  0.25500000920E-02 0. -1.
</event>
<event>
 5   0  0.7812908E-06  0.2708872E+04  0.7818609E-02  0.8332132E-01
       -2   -1    0    0    0  501  0.00000000000E+00  0.00000000000E+00  0.10731221584E+04  0.10731221584E+04  0.25500000920E-02 0. -1.
        2   -1    0    0  501    0  0.00000000000E+00  0.00000000000E+00 -0.17094948130E+04  0.17094948130E+04  0.25500000920E-02 0.  1.
    10030    2    1    2    0    0  0.00000000000E+00  0.00000000000E+00 -0.63637265467E+03  0.27826169714E+04  0.27088719154E+04 0.  0.
        5    1    3    3  502    0 -0.86309237017E+02  0.11538264935E+04  0.40504747628E+03  0.12259079939E+04  0.46999998093E+01 0.  1.
       -5    1    3    3    0  502  0.86309237017E+02 -0.11538264935E+04 -0.10414201310E+04  0.15567089775E+04  0.46999998093E+01 0. -1.
</event>
<event>
 5   0  0.3199840E-06  0.2707990E+04  0.7818609E-02  0.8332417E-01
        1   -1    0    0  501    0  0.00000000000E+00  0.00000000000E+00  0.13470015415E+04  0.13470015416E+04  0.50400001928E-02 0. -1.
       -1   -1    0    0    0  501  0.00000000000E+00  0.00000000000E+00 -0.13610244899E+04  0.13610244899E+04  0.50400001928E-02 0.  1.
    10030    2    1    2    0    0  0.00000000000E+00  0.00000000000E+00 -0.14022948357E+02  0.27080260315E+04  0.27079897238E+04 0.  0.
        1    1    3    3  502    0 -0.62696613013E+03 -0.10852358633E+04  0.50532212518E+03  0.13513600030E+04  0.50400001928E-02 0. -1.
       -1    1    3    3    0  502  0.62696613013E+03  0.10852358633E+04 -0.51934507354E+03  0.13566660285E+04  0.50400001928E-02 0.  1.
</event>
<event>
 5   0  0.8407622E-06  0.2597693E+04  0.7818609E-02  0.8368985E-01
        2   -1    0    0  501    0  0.00000000000E+00  0.00000000000E+00  0.15258454331E+04  0.15258454332E+04  0.25500000920E-02 0.  1.
       -2   -1    0    0    0  501  0.00000000000E+00  0.00000000000E+00 -0.11056178022E+04  0.11056178022E+04  0.25500000920E-02 0. -1.
    10030    2    1    2    0    0  0.00000000000E+00  0.00000000000E+00  0.42022763092E+03  0.26314632354E+04  0.25976927257E+04 0.  0.
        1    1    3    3  502    0  0.23124783965E+03  0.51816716291E+03 -0.97341949021E+03  0.11267290162E+04  0.50400001928E-02 0. -1.
       -1    1    3    3    0  502 -0.23124783965E+03 -0.51816716291E+03  0.13936471211E+04  0.15047342192E+04  0.50400001928E-02 0.  1.
</event>
<event>
 5   0  0.3199840E-06  0.2703386E+04  0.7818609E-02  0.8333907E-01
       -1   -1    0    0    0  501  0.00000000000E+00  0.00000000000E+00  0.86667910957E+03  0.86667910959E+03  0.50400001928E-02 0.  1.
        1   -1    0    0  501    0  0.00000000000E+00  0.00000000000E+00 -0.21081317798E+04  0.21081317798E+04  0.50400001928E-02 0. -1.
    10030    2    1    2    0    0  0.00000000000E+00  0.00000000000E+00 -0.12414526702E+04  0.29748108894E+04  0.27033858576E+04 0.  0.
        1    1    3    3  502    0  0.10969802560E+04  0.57359855145E+03 -0.12180862589E+04  0.17366966097E+04  0.50400001928E-02 0. -1.
       -1    1    3    3    0  502 -0.10969802560E+04 -0.57359855145E+03 -0.23366411323E+02  0.12381142796E+04  0.50400001928E-02 0.  1.
</event>
<event>
 5   0  0.7812908E-06  0.2699316E+04  0.7818609E-02  0.8335227E-01
       -2   -1    0    0    0  501  0.00000000000E+00  0.00000000000E+00  0.86453355238E+03  0.86453355239E+03  0.25500000920E-02 0.  1.
        2   -1    0    0  501    0  0.00000000000E+00  0.00000000000E+00 -0.21070058675E+04  0.21070058675E+04  0.25500000920E-02 0. -1.
    10030    2    1    2    0    0  0.00000000000E+00  0.00000000000E+00 -0.12424723151E+04  0.29715394199E+04  0.26993164079E+04 0.  0.
        5    1    3    3  502    0 -0.80441136019E+02 -0.57259453641E+03 -0.19637392507E+04  0.20471026389E+04  0.46999998093E+01 0. -1.
       -5    1    3    3    0  502  0.80441136019E+02  0.57259453641E+03  0.72126693564E+03  0.92443678093E+03  0.46999998093E+01 0.  1.
</event>
<event>
 5   0  0.7729970E-06  0.2695196E+04  0.7818609E-02  0.8336565E-01
        2   -1    0    0  501    0  0.00000000000E+00  0.00000000000E+00  0.12817317895E+04  0.12817317895E+04  0.25500000920E-02 0.  1.
       -2   -1    0    0    0  501  0.00000000000E+00  0.00000000000E+00 -0.14168490461E+04  0.14168490461E+04  0.25500000920E-02 0. -1.
    10030    2    1    2    0    0  0.00000000000E+00  0.00000000000E+00 -0.13511725659E+03  0.26985808356E+04  0.26951960696E+04 0.  0.
        4    1    3    3  502    0 -0.30358533019E+03  0.52627168558E+03 -0.12719378701E+04  0.14095933804E+04  0.12699999809E+01 0. -1.
       -4    1    3    3    0  502  0.30358533019E+03 -0.52627168558E+03  0.11368206135E+04  0.12889874553E+04  0.12699999809E+01 0.  1.
</event>
<event>
 5   0  0.7812908E-06  0.2700406E+04  0.7818609E-02  0.8334873E-01
        2   -1    0    0  501    0  0.00000000000E+00  0.00000000000E+00  0.99105915298E+03  0.99105915298E+03  0.25500000920E-02 0.  1.
       -2   -1    0    0    0  501  0.00000000000E+00  0.00000000000E+00 -0.18394949846E+04  0.18394949846E+04  0.25500000920E-02 0. -1.
    10030    2    1    2    0    0  0.00000000000E+00  0.00000000000E+00 -0.84843583164E+03  0.28305541376E+04  0.27004061482E+04 0.  0.
        5    1    3    3  502    0  0.71877447691E+03  0.25148324654E+02 -0.16219882973E+04  0.17742991049E+04  0.46999998093E+01 0. -1.
       -5    1    3    3    0  502 -0.71877447691E+03 -0.25148324654E+02  0.77355246571E+03  0.10562550327E+04  0.46999998093E+01 0.  1.
</event>
<event>
 5   0  0.7812908E-06  0.2701072E+04  0.7818609E-02  0.8334657E-01
       -2   -1    0    0    0  501  0.00000000000E+00  0.00000000000E+00  0.11927363275E+04  0.11927363275E+04  0.25500000920E-02 0. -1.
        2   -1    0    0  501    0  0.00000000000E+00  0.00000000000E+00 -0.15292128198E+04  0.15292128198E+04  0.25500000920E-02 0.  1.
    10030    2    1    2    0    0  0.00000000000E+00  0.00000000000E+00 -0.33647649233E+03  0.27219491473E+04  0.27010721447E+04 0.  0.
        5    1    3    3  502    0 -0.23565715322E+03 -0.11265279663E+04 -0.88032995745E+03  0.14490005096E+04  0.46999998093E+01 0.  1.
       -5    1    3    3    0  502  0.23565715322E+03  0.11265279663E+04  0.54385346512E+03  0.12729486377E+04  0.46999998093E+01 0. -1.
</event>
<event>
 5   0  0.3046300E-06  0.2686614E+04  0.7818609E-02  0.8339361E-01
       -1   -1    0    0    0  501  0.00000000000E+00  0.00000000000E+00  0.87221089578E+03  0.87221089580E+03  0.50400001928E-02 0. -1.
        1   -1    0    0  501    0  0.00000000000E+00  0.00000000000E+00 -0.20688509149E+04  0.20688509149E+04  0.50400001928E-02 0.  1.
    10030    2    1    2    0    0  0.00000000000E+00  0.00000000000E+00 -0.11966400191E+04  0.29410618107E+04  0.26866144567E+04 0.  0.
        2    1    3    3  502    0  0.28647702262E+03  0.84508098912E+02 -0.20320396713E+04  0.20538733966E+04  0.25500000920E-02 0.  1.
       -2    1    3    3    0  502 -0.28647702262E+03 -0.84508098912E+02  0.83539965221E+03  0.88718841414E+03  0.25500000920E-02 0. -1.
</event>
<event>
 5   0  0.8407622E-06  0.2705665E+04  0.7818609E-02  0.8333169E-01
       -2   -1    0    0    0  501  0.00000000000E+00  0.00000000000E+00  0.10386666531E+04  0.10386666531E+04  0.25500000920E-02 0. -1.
        2   -1    0    0  501    0  0.00000000000E+00  0.00000000000E+00 -0.17620238304E+04  0.17620238304E+04  0.25500000920E-02 0.  1.
    10030    2    1    2    0    0  0.00000000000E+00  0.00000000000E+00 -0.72335717725E+03  0.28006904835E+04  0.27056647203E+04 0.  0.
        1    1    3    3  502    0 -0.10993938582E+03  0.72286650726E+02 -0.17553849352E+04  0.17603091488E+04  0.50400001928E-02 0.  1.
       -1    1    3    3    0  502  0.10993938582E+03 -0.72286650726E+02  0.10320277580E+04  0.10403813348E+04  0.50400001928E-02 0. -1.
</event>
<event>
 5   0  0.3046300E-06  0.2703683E+04  0.7818609E-02  0.8333811E-01
       -1   -1    0    0    0  501  0.00000000000E+00  0.00000000000E+00  0.90011946995E+03  0.90011946997E+03  0.50400001928E-02 0.  1.
        1   -1    0    0  501    0  0.00000000000E+00  0.00000000000E+00 -0.20302585074E+04  0.20302585074E+04  0.50400001928E-02 0. -1.
    10030    2    1    2    0    0  0.00000000000E+00  0.00000000000E+00 -0.11301390374E+04  0.29303779774E+04  0.27036828302E+04 0.  0.
        2    1    3    3  502    0 -0.17335116474E+03 -0.63314681532E+03  0.71577406189E+03  0.97121471557E+03  0.25500000920E-02 0.  1.
       -2    1    3    3    0  502  0.17335116474E+03  0.63314681532E+03 -0.18459130993E+04  0.19591632618E+04  0.25500000920E-02 0. -1.
</event>
<event>
 5   0  0.7729970E-06  0.2692924E+04  0.7818609E-02  0.8337305E-01
        2   -1    0    0  501    0  0.00000000000E+00  0.00000000000E+00  0.12850114428E+04  0.12850114428E+04  0.25500000920E-02 0.  1.
       -2   -1    0    0    0  501  0.00000000000E+00  0.00000000000E+00 -0.14108509440E+04  0.14108509440E+04  0.25500000920E-02 0. -1.
    10030    2    1    2    0    0  0.00000000000E+00  0.00000000000E+00 -0.12583950120E+03  0.26958623868E+04  0.26929237695E+04 0.  0.
        4    1    3    3  502    0  0.42988655015E+03 -0.70912010661E+03  0.99904141121E+03  0.12983601680E+04  0.12699999809E+01 0.  1.
       -4    1    3    3    0  502 -0.42988655015E+03  0.70912010661E+03 -0.11248809124E+04  0.13975022188E+04  0.12699999809E+01 0. -1.
</event>
<event>
 5   0  0.3028601E-06  0.2699687E+04  0.7818609E-02  0.8335106E-01
        1   -1    0    0  501    0  0.00000000000E+00  0.00000000000E+00  0.21834100355E+04  0.21834100355E+04  0.50400001928E-02 0.  1.
       -1   -1    0    0    0  501  0.00000000000E+00  0.00000000000E+00 -0.83451012119E+03  0.83451012121E+03  0.50400001928E-02 0. -1.
    10030    2    1    2    0    0  0.00000000000E+00  0.00000000000E+00  0.13488999143E+04  0.30179201567E+04  0.26996872214E+04 0.  0.
        3    1    3    3  502    0 -0.23075357291E+03  0.12270700807E+04  0.12478782563E+04  0.17652615520E+04  0.10100000352E+00 0.  1.
       -3    1    3    3    0  502  0.23075357291E+03 -0.12270700807E+04  0.10102165802E+03  0.12526586047E+04  0.10100000352E+00 0. -1.
</event>
<event>
 5   0  0.8213334E-06  0.2701004E+04  0.7818609E-02  0.8334679E-01
       -2   -1    0    0    0  501  0.00000000000E+00  0.00000000000E+00  0.88124324678E+03  0.88124324678E+03  0.25500000920E-02 0.  1.
        2   -1    0    0  501    0  0.00000000000E+00  0.00000000000E+00 -0.20696398378E+04  0.20696398378E+04  0.25500000920E-02 0. -1.
    10030    2    1    2    0    0  0.00000000000E+00  0.00000000000E+00 -0.11883965910E+04  0.29508830845E+04  0.27010043542E+04 0.  0.
        3    1    3    3  502    0  0.11398731750E+04  0.44191317368E+03 -0.12210934230E+04  0.17279083500E+04  0.10100000352E+00 0. -1.
       -3    1    3    3    0  502 -0.11398731750E+04 -0.44191317368E+03  0.32696831991E+02  0.12229747345E+04  0.10100000352E+00 0.  1.
</event>
<event>
 5   0  0.3013407E-06  0.2708561E+04  0.7818609E-02  0.8332232E-01
       -1   -1    0    0    0  501  0.00000000000E+00  0.00000000000E+00  0.72846308849E+03  0.72846308851E+03  0.50400001928E-02 0. -1.
        1   -1    0    0  501    0  0.00000000000E+00  0.00000000000E+00 -0.25177338373E+04  0.25177338373E+04  0.50400001928E-02 0.  1.
    10030    2    1    2    0    0  0.00000000000E+00  0.00000000000E+00 -0.17892707488E+04  0.32461969258E+04  0.27085613651E+04 0.  0.
        4    1    3    3  502    0  0.30616306286E+03 -0.58238220869E+03 -0.23133059159E+04  0.24050552450E+04  0.12699999809E+01 0.  1.
       -4    1    3    3    0  502 -0.30616306286E+03  0.58238220869E+03  0.52403516706E+03  0.84114168085E+03  0.12699999809E+01 0. -1.
</event>
<event>
 5   0  0.8407622E-06  0.2726496E+04  0.7818609E-02  0.8326459E-01
       -2   -1    0    0    0  501  0.00000000000E+00  0.00000000000E+00  0.17775059978E+04  0.17775059978E+04  0.25500000920E-02 0. -1.
        2   -1    0    0  501    0  0.00000000000E+00  0.00000000000E+00 -0.10455352547E+04  0.10455352547E+04  0.25500000920E-02 0.  1.
    10030    2    1    2    0    0  0.00000000000E+00  0.00000000000E+00  0.73197074308E+03  0.28230412525E+04  0.27264960562E+04 0.  0.
        1    1    3    3  502    0 -0.22401090532E+03 -0.99600972324E+03 -0.56945981120E+03  0.11689742217E+04  0.50400001928E-02 0.  1.
       -1    1    3    3    0  502  0.22401090532E+03  0.99600972324E+03  0.13014305543E+04  0.16540670307E+04  0.50400001928E-02 0. -1.
</event>
<event>
 5   0  0.3089218E-06  0.2709554E+04  0.7818609E-02  0.8331912E-01
       -1   -1    0    0    0  501  0.00000000000E+00  0.00000000000E+00  0.19811948127E+04  0.19811948127E+04  0.50400001928E-02 0. -1.
        1   -1    0    0  501    0  0.00000000000E+00  0.00000000000E+00 -0.92642096043E+03  0.92642096044E+03  0.50400001928E-02 0.  1.
    10030    2    1    2    0    0  0.00000000000E+00  0.00000000000E+00  0.10547738522E+04  0.29076157731E+04  0.27095537649E+04 0.  0.
        5    1    3    3  502    0  0.93777121008E+03 -0.40143899758E+03  0.14840883561E+04  0.18008632513E+04  0.46999998093E+01 0. -1.
       -5    1    3    3    0  502 -0.93777121008E+03  0.40143899758E+03 -0.42931450388E+03  0.11067525218E+04  0.46999998093E+01 0.  1.
</event>
<event>
 5   0  0.3013407E-06  0.2678194E+04  0.7818609E-02  0.8342115E-01
       -1   -1    0    0    0  501  0.00000000000E+00  0.00000000000E+00  0.15886000661E+04  0.15886000661E+04  0.50400001928E-02 0. -1.
        1   -1    0    0  501    0  0.00000000000E+00  0.00000000000E+00 -0.11287807052E+04  0.11287807052E+04  0.50400001928E-02 0.  1.
    10030    2    1    2    0    0  0.00000000000E+00  0.00000000000E+00  0.45981936093E+03  0.27173807713E+04  0.26781942445E+04 0.  0.
        4    1    3    3  502    0  0.49506554980E+03 -0.45458609998E+03 -0.94524280842E+03  0.11598379200E+04  0.12699999809E+01 0.  1.
       -4    1    3    3    0  502 -0.49506554980E+03  0.45458609998E+03  0.14050621693E+04  0.15575428513E+04  0.12699999809E+01 0. -1.
</event>
<event>
 5   0  0.8213334E-06  0.2704934E+04  0.7818609E-02  0.8333406E-01
       -2   -1    0    0    0  501  0.00000000000E+00  0.00000000000E+00  0.17797785282E+04  0.17797785282E+04  0.25500000920E-02 0. -1.
        2   -1    0    0  501    0  0.00000000000E+00  0.00000000000E+00 -0.10277496859E+04  0.10277496859E+04  0.25500000920E-02 0.  1.
    10030    2    1    2    0    0  0.00000000000E+00  0.00000000000E+00  0.75202884234E+03  0.28075282141E+04  0.27049338796E+04 0.  0.
        3    1    3    3  502    0 -0.82144535222E+02  0.30604495614E+03  0.17407052484E+04  0.17693122992E+04  0.10100000352E+00 0. -1.
       -3    1    3    3    0  502  0.82144535222E+02 -0.30604495614E+03 -0.98867640608E+03  0.10382159149E+04  0.10100000352E+00 0.  1.
</event>
<event>
 5   0  0.3089218E-06  0.2680840E+04  0.7818609E-02  0.8341248E-01
        1   -1    0    0  501    0  0.00000000000E+00  0.00000000000E+00  0.88762999891E+03  0.88762999893E+03  0.50400001928E-02 0. -1.
       -1   -1    0    0    0  501  0.00000000000E+00  0.00000000000E+00 -0.20241837606E+04  0.20241837606E+04  0.50400001928E-02 0.  1.
    10030    2    1    2    0    0  0.00000000000E+00  0.00000000000E+00 -0.11365537617E+04  0.29118137596E+04  0.26808403379E+04 0.  0.
        5    1    3    3  502    0 -0.98638525934E+03  0.37117556212E+03  0.33131889904E+03  0.11047721397E+04  0.46999998093E+01 0. -1.
       -5    1    3    3    0  502  0.98638525934E+03 -0.37117556212E+03 -0.14678726607E+04  0.18070416199E+04  0.46999998093E+01 0.  1.
</event>
<event>
 5   0  0.3028601E-06  0.2721945E+04  0.7818609E-02  0.8327920E-01
       -1   -1    0    0    0  501  0.00000000000E+00  0.00000000000E+00  0.14172879909E+04  0.14172879910E+04  0.50400001928E-02 0.  1.
        1   -1    0    0  501    0  0.00000000000E+00  0.00000000000E+00 -0.13068944906E+04  0.13068944906E+04  0.50400001928E-02 0. -1.
    10030    2    1    2    0    0  0.00000000000E+00  0.00000000000E+00  0.11039350035E+03  0.27241824816E+04  0.27219447952E+04 0.  0.
        3    1    3    3  502    0 -0.67824568218E+03 -0.58959141902E+03 -0.96770541817E+03  0.13206396304E+04  0.10100000352E+00 0. -1.
       -3    1    3    3    0  502  0.67824568218E+03  0.58959141902E+03  0.10780989185E+04  0.14035428512E+04  0.10100000352E+00 0.  1.
</event>
<event>
 5   0  0.3046300E-06  0.2436390E+04  0.7818609E-02  0.8426004E-01
        1   -1    0    0  501    0  0.00000000000E+00  0.00000000000E+00  0.78645382047E+03  0.78645382048E+03  0.50400001928E-02 0.  1.
       -1   -1    0    0    0  501  0.00000000000E+00  0.00000000000E+00 -0.18869505666E+04  0.18869505666E+04  0.50400001928E-02 0. -1.
    10030    2    1    2    0    0  0.00000000000E+00  0.00000000000E+00 -0.11004967462E+04  0.26734043871E+04  0.24363903482E+04 0.  0.
        2    1    3    3  502    0 -0.28865540773E+03  0.49236541657E+03  0.63066940121E+03  0.85058188406E+03  0.25500000920E-02 0.  1.
       -2    1    3    3    0  502  0.28865540773E+03 -0.49236541657E+03 -0.17311661474E+04  0.18228225031E+04  0.25500000920E-02 0. -1.
</event>
<event>
 5   0  0.7838364E-06  0.2702034E+04  0.7818609E-02  0.8334345E-01
       -2   -1    0    0    0  501  0.00000000000E+00  0.00000000000E+00  0.10726091913E+04  0.10726091913E+04  0.25500000920E-02 0.  1.
        2   -1    0    0  501    0  0.00000000000E+00  0.00000000000E+00 -0.17016890551E+04  0.17016890551E+04  0.25500000920E-02 0. -1.
    10030    2    1    2    0    0  0.00000000000E+00  0.00000000000E+00 -0.62907986386E+03  0.27742982464E+04  0.27020342864E+04 0.  0.
        2    1    3    3  502    0 -0.13401789642E+04  0.11099105217E+03 -0.18126610598E+03  0.13569289115E+04  0.25500000920E-02 0.  1.
       -2    1    3    3    0  502  0.13401789642E+04 -0.11099105217E+03 -0.44781375788E+03  0.14173693349E+04  0.25500000920E-02 0. -1.
</event>
<event>
 5   0  0.3013407E-06  0.2700005E+04  0.7818609E-02  0.8335003E-01
        1   -1    0    0  501    0  0.00000000000E+00  0.00000000000E+00  0.11845319419E+04  0.11845319419E+04  0.50400001928E-02 0.  1.
       -1   -1    0    0    0  501  0.00000000000E+00  0.00000000000E+00 -0.15385881242E+04  0.15385881242E+04  0.50400001928E-02 0. -1.
    10030    2    1    2    0    0  0.00000000000E+00  0.00000000000E+00 -0.35405618231E+03  0.27231200662E+04  0.27000050212E+04 0.  0.
        4    1    3    3  502    0  0.12737828972E+04 -0.41238700330E+03 -0.35148075826E+03  0.13842421197E+04  0.12699999809E+01 0. -1.
       -4    1    3    3    0  502 -0.12737828972E+04  0.41238700330E+03 -0.25754240530E+01  0.13388779464E+04  0.12699999809E+01 0.  1.
</event>
<event>
 5   0  0.3046300E-06  0.2708842E+04  0.7818609E-02  0.8332142E-01
        1   -1    0    0  501    0  0.00000000000E+00  0.00000000000E+00  0.18102205388E+04  0.18102205388E+04  0.50400001928E-02 0.  1.
       -1   -1    0    0    0  501  0.00000000000E+00  0.00000000000E+00 -0.10133883722E+04  0.10133883722E+04  0.50400001928E-02 0. -1.
    10030    2    1    2    0    0  0.00000000000E+00  0.00000000000E+00  0.79683216662E+03  0.28236089110E+04  0.27088421476E+04 0.  0.
        2    1    3    3  502    0 -0.11801836169E+04  0.58301279949E+03  0.73086292340E+03  0.15056220996E+04  0.25500000920E-02 0. -1.
       -2    1    3    3    0  502  0.11801836169E+04 -0.58301279949E+03  0.65969243223E+02  0.13179868114E+04  0.25500000920E-02 0.  1.
</event>
<event>
 5   0  0.3028601E-06  0.2693845E+04  0.7818609E-02  0.8337005E-01
        1   -1    0    0  501    0  0.00000000000E+00  0.00000000000E+00  0.11594221563E+04  0.11594221563E+04  0.50400001928E-02 0.  1.
       -1   -1    0    0    0  501  0.00000000000E+00  0.00000000000E+00 -0.15647446655E+04  0.15647446655E+04  0.50400001928E-02 0. -1.
    10030    2    1    2    0    0  0.00000000000E+00  0.00000000000E+00 -0.40532250918E+03  0.27241668219E+04  0.26938445643E+04 0.  0.
        3    1    3    3  502    0 -0.41293412801E+03 -0.11253682093E+04  0.41844384816E+03  0.12696706128E+04  0.10100000352E+00 0.  1.
       -3    1    3    3    0  502  0.41293412801E+03  0.11253682093E+04 -0.82376635735E+03  0.14544962091E+04  0.10100000352E+00 0. -1.
</event>
<event>
 5   0  0.8407622E-06  0.2715533E+04  0.7818609E-02  0.8329983E-01
       -2   -1    0    0    0  501  0.00000000000E+00  0.00000000000E+00  0.11828255808E+04  0.11828255808E+04  0.25500000920E-02 0. -1.
        2   -1    0    0  501    0  0.00000000000E+00  0.00000000000E+00 -0.15585815131E+04  0.15585815131E+04  0.25500000920E-02 0.  1.
    10030    2    1    2    0    0  0.00000000000E+00  0.00000000000E+00 -0.37575593232E+03  0.27414070940E+04  0.27155331584E+04 0.  0.
        1    1    3    3  502    0  0.81127763303E+02  0.51987744104E+03 -0.14514732370E+04  0.15439005231E+04  0.50400001928E-02 0.  1.
       -1    1    3    3    0  502 -0.81127763303E+02 -0.51987744104E+03  0.10757173046E+04  0.11975065708E+04  0.50400001928E-02 0. -1.
</event>
<event>
 5   0  0.7729970E-06  0.2711163E+04  0.7818609E-02  0.8331392E-01
        2   -1    0    0  501    0  0.00000000000E+00  0.00000000000E+00  0.18689036781E+04  0.18689036781E+04  0.25500000920E-02 0. -1.
       -2   -1    0    0    0  501  0.00000000000E+00  0.00000000000E+00 -0.98325091880E+03  0.98325091880E+03  0.25500000920E-02 0.  1.
    10030    2    1    2    0    0  0.00000000000E+00  0.00000000000E+00  0.88565275927E+03  0.28521545969E+04  0.27111630409E+04 0.  0.
        4    1    3    3  502    0 -0.91469834425E+03  0.67573029868E+03  0.12189709739E+04  0.16670861842E+04  0.12699999809E+01 0. -1.
       -4    1    3    3    0  502  0.91469834425E+03 -0.67573029868E+03 -0.33331821464E+03  0.11850684126E+04  0.12699999809E+01 0.  1.
</event>
<event>
 5   0  0.3199840E-06  0.2703606E+04  0.7818609E-02  0.8333836E-01
       -1   -1    0    0    0  501  0.00000000000E+00  0.00000000000E+00  0.20198852380E+04  0.20198852381E+04  0.50400001928E-02 0. -1.
        1   -1    0    0  501    0  0.00000000000E+00  0.00000000000E+00 -0.90469059497E+03  0.90469059499E+03  0.50400001928E-02 0.  1.
    10030    2    1    2    0    0  0.00000000000E+00  0.00000000000E+00  0.11151946431E+04  0.29245758330E+04  0.27036058720E+04 0.  0.
        1    1    3    3  502    0 -0.28937950697E+03  0.20856479419E+01  0.19859853940E+04  0.20069586030E+04  0.50400001928E-02 0. -1.
       -1    1    3    3    0  502  0.28937950697E+03 -0.20856479419E+01 -0.87079075091E+03  0.91761723005E+03  0.50400001928E-02 0.  1.
</event>
<event>
 5   0  0.8407622E-06  0.2691541E+04  0.7818609E-02  0.8337755E-01
        2   -1    0    0  501    0  0.00000000000E+00  0.00000000000E+00  0.23133155332E+04  0.23133155332E+04  0.25500000920E-02 0. -1.
       -2   -1    0    0    0  501  0.00000000000E+00  0.00000000000E+00 -0.78290127890E+03  0.78290127891E+03  0.25500000920E-02 0.  1.
    10030    2    1    2    0    0  0.00000000000E+00  0.00000000000E+00  0.15304142543E+04  0.30962168121E+04  0.26915405919E+04 0.  0.
        1    1    3    3  502    0 -0.10860180731E+04 -0.79214500427E+03  0.69093392676E+03  0.15113962597E+04  0.50400001928E-02 0. -1.
       -1    1    3    3    0  502  0.10860180731E+04  0.79214500427E+03  0.83948032752E+03  0.15848205523E+04  0.50400001928E-02 0.  1.
</event>
<event>
 5   0  0.7729970E-06  0.2694431E+04  0.7818609E-02  0.8336814E-01
       -2   -1    0    0    0  501  0.00000000000E+00  0.00000000000E+00  0.87812585480E+03  0.87812585480E+03  0.25500000920E-02 0.  1.
        2   -1    0    0  501    0  0.00000000000E+00  0.00000000000E+00 -0.20668906580E+04  0.20668906580E+04  0.25500000920E-02 0. -1.
    10030    2    1    2    0    0  0.00000000000E+00  0.00000000000E+00 -0.11887648032E+04  0.29450165128E+04  0.26944313878E+04 0.  0.
        4    1    3    3  502    0 -0.93771479001E+03  0.87176118850E+01  0.46284040083E+03  0.10457570816E+04  0.12699999809E+01 0.  1.
       -4    1    3    3    0  502  0.93771479001E+03 -0.87176118850E+01 -0.16516052041E+04  0.18992594312E+04  0.12699999809E+01 0. -1.
</event>
<event>
 5   0  0.7812908E-06  0.2690435E+04  0.7818609E-02  0.8338115E-01
       -2   -1    0    0    0  501  0.00000000000E+00  0.00000000000E+00  0.19384375505E+04  0.19384375505E+04  0.25500000920E-02 0. -1.
        2   -1    0    0  501    0  0.00000000000E+00  0.00000000000E+00 -0.93354034803E+03  0.93354034803E+03  0.25500000920E-02 0.  1.
    10030    2    1    2    0    0  0.00000000000E+00  0.00000000000E+00  0.10048972024E+04  0.28719778985E+04  0.26904346604E+04 0.  0.
        5    1    3    3  502    0 -0.90471105391E+03 -0.40094203513E+03 -0.47026337320E+03  0.10956396929E+04  0.46999998093E+01 0.  1.
       -5    1    3    3    0  502  0.90471105391E+03  0.40094203513E+03  0.14751605756E+04  0.17763382056E+04  0.46999998093E+01 0. -1.
</event>
<event>
 5   0  0.8407622E-06  0.2692224E+04  0.7818609E-02  0.8337532E-01
       -2   -1    0    0    0  501  0.00000000000E+00  0.00000000000E+00  0.10973296169E+04  0.10973296169E+04  0.25500000920E-02 0.  1.
        2   -1    0    0  501    0  0.00000000000E+00  0.00000000000E+00 -0.16512977801E+04  0.16512977801E+04  0.25500000920E-02 0. -1.
    10030    2    1    2    0    0  0.00000000000E+00  0.00000000000E+00 -0.55396816324E+03  0.27486273970E+04  0.26922243298E+04 0.  0.
        1    1    3    3  502    0 -0.54157081130E+03  0.12093295448E+04 -0.34863666907E+02  0.13255158871E+04  0.50400001928E-02 0. -1.
       -1    1    3    3    0  502  0.54157081130E+03 -0.12093295448E+04 -0.51910449634E+03  0.14231115099E+04  0.50400001928E-02 0.  1.
</event>
<event>
 5   0  0.7812908E-06  0.2753711E+04  0.7818609E-02  0.8317785E-01
       -2   -1    0    0    0  501  0.00000000000E+00  0.00000000000E+00  0.69020752792E+03  0.69020752793E+03  0.25500000920E-02 0. -1.
        2   -1    0    0  501    0  0.00000000000E+00  0.00000000000E+00 -0.27466101371E+04  0.27466101371E+04  0.25500000920E-02 0.  1.
    10030    2    1    2    0    0  0.00000000000E+00  0.00000000000E+00 -0.20564026091E+04  0.34368176650E+04  0.27537109455E+04 0.  0.
        5    1    3    3  502    0  0.13178584464E+04  0.17971402445E+03 -0.14723817186E+04  0.19841819550E+04  0.46999998093E+01 0. -1.
       -5    1    3    3    0  502 -0.13178584464E+04 -0.17971402445E+03 -0.58402089057E+03  0.14526357100E+04  0.46999998093E+01 0.  1.
</event>
<event>
 5   0  0.8407622E-06  0.2694839E+04  0.7818609E-02  0.8336682E-01
       -2   -1    0    0    0  501  0.00000000000E+00  0.00000000000E+00  0.11554220485E+04  0.11554220485E+04  0.25500000920E-02 0. -1.
        2   -1    0    0  501    0  0.00000000000E+00  0.00000000000E+00 -0.15713209780E+04  0.15713209780E+04  0.25500000920E-02 0.  1.
    10030    2    1    2    0    0  0.00000000000E+00  0.00000000000E+00 -0.41589892950E+03  0.27267430265E+04  0.26948386989E+04 0.  0.
        1    1    3    3  502    0 -0.66729952006E+03 -0.23302721300E+03  0.95277969342E+03  0.11863302557E+04  0.50400001928E-02 0. -1.
       -1    1    3    3    0  502  0.66729952006E+03  0.23302721300E+03 -0.13686786229E+04  0.15404127708E+04  0.50400001928E-02 0.  1.
</event>
<event>
 5   0  0.3013407E-06  0.2703265E+04  0.7818609E-02  0.8333946E-01
        1   -1    0    0  501    0  0.00000000000E+00  0.00000000000E+00  0.12304083502E+04  0.12304083502E+04  0.50400001928E-02 0. -1.
       -1   -1    0    0    0  501  0.00000000000E+00  0.00000000000E+00 -0.14847999578E+04  0.14847999578E+04  0.50400001928E-02 0.  1.
    10030    2    1    2    0    0  0.00000000000E+00  0.00000000000E+00 -0.25439160765E+03  0.27152083080E+04  0.27032648901E+04 0.  0.
        4    1    3    3  502    0 -0.26206253760E+03  0.93893164001E+03  0.81323101795E+03  0.12694942693E+04  0.12699999809E+01 0. -1.
       -4    1    3    3    0  502  0.26206253760E+03 -0.93893164001E+03 -0.10676226256E+04  0.14457140387E+04  0.12699999809E+01 0.  1.
</event>
<event>
 5   0  0.3028601E-06  0.2706047E+04  0.7818609E-02  0.8333046E-01
       -1   -1    0    0    0  501  0.00000000000E+00  0.00000000000E+00  0.14225942853E+04  0.14225942854E+04  0.50400001928E-02 0.  1.
        1   -1    0    0  501    0  0.00000000000E+00  0.00000000000E+00 -0.12868550062E+04  0.12868550062E+04  0.50400001928E-02 0. -1.
    10030    2    1    2    0    0  0.00000000000E+00  0.00000000000E+00  0.13573927915E+03  0.27094492916E+04  0.27060469899E+04 0.  0.
        3    1    3    3  502    0  0.10758242967E+03 -0.77677689017E+02  0.14160635236E+04  0.14222671041E+04  0.10100000352E+00 0.  1.
       -3    1    3    3    0  502 -0.10758242967E+03  0.77677689017E+02 -0.12803242444E+04  0.12871821874E+04  0.10100000352E+00 0. -1.
</event>
<event>
 5   0  0.8407622E-06  0.2706843E+04  0.7818609E-02  0.8332788E-01
       -2   -1    0    0    0  501  0.00000000000E+00  0.00000000000E+00  0.99377853657E+03  0.99377853657E+03  0.25500000920E-02 0.  1.
        2   -1    0    0  501    0  0.00000000000E+00  0.00000000000E+00 -0.18432171846E+04  0.18432171846E+04  0.25500000920E-02 0. -1.
    10030    2    1    2    0    0  0.00000000000E+00  0.00000000000E+00 -0.84943864804E+03  0.28369957212E+04  0.27068429406E+04 0.  0.
        1    1    3    3  502    0 -0.11085597880E+04 -0.18995302098E+03  0.36431566544E+03  0.11822490676E+04  0.50400001928E-02 0.  1.
       -1    1    3    3    0  502  0.11085597880E+04  0.18995302098E+03 -0.12137543135E+04  0.16547466535E+04  0.50400001928E-02 0. -1.
</event>
<event>
 5   0  0.3046300E-06  0.2728225E+04  0.7818609E-02  0.8325905E-01
       -1   -1    0    0    0  501  0.00000000000E+00  0.00000000000E+00  0.13195146199E+04  0.13195146199E+04  0.50400001928E-02 0.  1.
        1   -1    0    0  501    0  0.00000000000E+00  0.00000000000E+00 -0.14102173407E+04  0.14102173407E+04  0.50400001928E-02 0. -1.
    10030    2    1    2    0    0  0.00000000000E+00  0.00000000000E+00 -0.90702720795E+02  0.27297319607E+04  0.27282246230E+04 0.  0.
        2    1    3    3  502    0 -0.41451063648E+03 -0.70562928955E+03  0.10466134410E+04  0.13285824991E+04  0.25500000920E-02 0.  1.
       -2    1    3    3    0  502  0.41451063648E+03  0.70562928955E+03 -0.11373161617E+04  0.14011494616E+04  0.25500000920E-02 0. -1.
</event>
<event>
 5   0  0.7838364E-06  0.2704264E+04  0.7818609E-02  0.8333623E-01
       -2   -1    0    0    0  501  0.00000000000E+00  0.00000000000E+00  0.26196400941E+04  0.26196400941E+04  0.25500000920E-02 0.  1.
        2   -1    0    0  501    0  0.00000000000E+00  0.00000000000E+00 -0.69790534839E+03  0.69790534840E+03  0.25500000920E-02 0. -1.
    10030    2    1    2    0    0  0.00000000000E+00  0.00000000000E+00  0.19217347457E+04  0.33175454425E+04  0.27042639165E+04 0.  0.
        2    1    3    3  502    0  0.96418304900E+03  0.47266257768E+03  0.19689233681E+04  0.22427033004E+04  0.25500000920E-02 0.  1.
       -2    1    3    3    0  502 -0.96418304900E+03 -0.47266257768E+03 -0.47188622374E+02  0.10748421421E+04  0.25500000920E-02 0. -1.
</event>
<event>
 5   0  0.3013407E-06  0.2698827E+04  0.7818609E-02  0.8335386E-01
       -1   -1    0    0    0  501  0.00000000000E+00  0.00000000000E+00  0.95773790414E+03  0.95773790415E+03  0.50400001928E-02 0.  1.
        1   -1    0    0  501    0  0.00000000000E+00  0.00000000000E+00 -0.19012683183E+04  0.19012683183E+04  0.50400001928E-02 0. -1.
    10030    2    1    2    0    0  0.00000000000E+00  0.00000000000E+00 -0.94353041417E+03  0.28590062225E+04  0.26988269558E+04 0.  0.
        4    1    3    3  502    0 -0.23904373609E+03 -0.71858510679E+03 -0.16549278216E+04  0.18199709259E+04  0.12699999809E+01 0. -1.
       -4    1    3    3    0  502  0.23904373609E+03  0.71858510679E+03  0.71139740739E+03  0.10390352966E+04  0.12699999809E+01 0.  1.
</event>
<event>
 5   0  0.7812908E-06  0.2678933E+04  0.7818609E-02  0.8341873E-01
       -2   -1    0    0    0  501  0.00000000000E+00  0.00000000000E+00  0.10783205902E+04  0.10783205902E+04  0.25500000920E-02 0.  1.
        2   -1    0    0  501    0  0.00000000000E+00  0.00000000000E+00 -0.16638558028E+04  0.16638558028E+04  0.25500000920E-02 0. -1.
    10030    2    1    2    0    0  0.00000000000E+00  0.00000000000E+00 -0.58553521255E+03  0.27421763930E+04  0.26789326019E+04 0.  0.
        5    1    3    3  502    0  0.11441593832E+04 -0.13396371483E+03 -0.99235013843E+03  0.15204696177E+04  0.46999998093E+01 0. -1.
       -5    1    3    3    0  502 -0.11441593832E+04  0.13396371483E+03  0.40681492587E+03  0.12217067754E+04  0.46999998093E+01 0.  1.
</event>
<event>
 5   0  0.3199840E-06  0.2699469E+04  0.7818609E-02  0.8335177E-01
       -1   -1    0    0    0  501  0.00000000000E+00  0.00000000000E+00  0.63988541788E+03  0.63988541790E+03  0.50400001928E-02 0. -1.
        1   -1    0    0  501    0  0.00000000000E+00  0.00000000000E+00 -0.28470463183E+04  0.28470463183E+04  0.50400001928E-02 0.  1.
    10030    2    1    2    0    0  0.00000000000E+00  0.00000000000E+00 -0.22071609005E+04  0.34869317362E+04  0.26994691502E+04 0.  0.
        1    1    3    3  502    0  0.27232170850E+03  0.11526928892E+04 -0.26753017670E+03  0.12142620826E+04  0.50400001928E-02 0. -1.
       -1    1    3    3    0  502 -0.27232170850E+03 -0.11526928892E+04 -0.19396307238E+04  0.22726696536E+04  0.50400001928E-02 0.  1.
</event>
<event>
 5   0  0.8407622E-06  0.2698410E+04  0.7818609E-02  0.8335521E-01
       -2   -1    0    0    0  501  0.00000000000E+00  0.00000000000E+00  0.11775977164E+04  0.11775977164E+04  0.25500000920E-02 0. -1.
        2   -1    0    0  501    0  0.00000000000E+00  0.00000000000E+00 -0.15458194572E+04  0.15458194572E+04  0.25500000920E-02 0.  1.
    10030    2    1    2    0    0  0.00000000000E+00  0.00000000000E+00 -0.36822174079E+03  0.27234171736E+04  0.26984095040E+04 0.  0.
        1    1    3    3  502    0  0.40317023522E+03 -0.12486126367E+04 -0.50130635198E+03  0.14045952490E+04  0.50400001928E-02 0.  1.
       -1    1    3    3    0  502 -0.40317023522E+03  0.12486126367E+04  0.13308461120E+03  0.13188219246E+04  0.50400001928E-02 0. -1.
</event>
<event>
 5   0  0.3046300E-06  0.2661973E+04  0.7818609E-02  0.8347450E-01
        1   -1    0    0  501    0  0.00000000000E+00  0.00000000000E+00  0.18368382583E+04  0.18368382583E+04  0.50400001928E-02 0.  1.
       -1   -1    0    0    0  501  0.00000000000E+00  0.00000000000E+00 -0.96444290449E+03  0.96444290450E+03  0.50400001928E-02 0. -1.
    10030    2    1    2    0    0  0.00000000000E+00  0.00000000000E+00  0.87239535382E+03  0.28012811628E+04  0.26619734221E+04 0.  0.
        2    1    3    3  502    0  0.63155749163E+03 -0.22385018283E+03  0.16464037845E+04  0.17775317694E+04  0.25500000920E-02 0.  1.
       -2    1    3    3    0  502 -0.63155749163E+03  0.22385018283E+03 -0.77400843073E+03  0.10237493934E+04  0.25500000920E-02 0. -1.
</event>
<event>
 5   0  0.3046300E-06  0.2713559E+04  0.7818609E-02  0.8330619E-01
        1   -1    0    0  501    0  0.00000000000E+00  0.00000000000E+00  0.17565988062E+04  0.17565988062E+04  0.50400001928E-02 0. -1.
       -1   -1    0    0    0  501  0.00000000000E+00  0.00000000000E+00 -0.10479631356E+04  0.10479631356E+04  0.50400001928E-02 0.  1.
    10030    2    1    2    0    0  0.00000000000E+00  0.00000000000E+00  0.70863567057E+03  0.28045619418E+04  0.27135591336E+04 0.  0.
        2    1    3    3  502    0 -0.50180396878E+03  0.11711766996E+04 -0.12756808482E+03  0.12805216519E+04  0.25500000920E-02 0.  1.
       -2    1    3    3    0  502  0.50180396878E+03 -0.11711766996E+04  0.83620375538E+03  0.15240402899E+04  0.25500000920E-02 0. -1.
</event>
<event>
 5   0  0.3089218E-06  0.2703687E+04  0.7818609E-02  0.8333810E-01
        1   -1    0    0  501    0  0.00000000000E+00  0.00000000000E+00  0.17441916052E+04  0.17441916052E+04  0.50400001928E-02 0. -1.
       -1   -1    0    0    0  501  0.00000000000E+00  0.00000000000E+00 -0.10477524093E+04  0.10477524093E+04  0.50400001928E-02 0.  1.
    10030    2    1    2    0    0  0.00000000000E+00  0.00000000000E+00  0.69643919597E+03  0.27919440145E+04  0.27036870800E+04 0.  0.
        5    1    3    3  502    0 -0.71871160660E+03  0.36473571957E+03 -0.77251006718E+03  0.11164105036E+04  0.46999998093E+01 0.  1.
       -5    1    3    3    0  502  0.71871160660E+03 -0.36473571957E+03  0.14689492631E+04  0.16755335109E+04  0.46999998093E+01 0. -1.
</event>
<event>
 5   0  0.3089218E-06  0.2711173E+04  0.7818609E-02  0.8331389E-01
        1   -1    0    0  501    0  0.00000000000E+00  0.00000000000E+00  0.19699418446E+04  0.19699418446E+04  0.50400001928E-02 0. -1.
       -1   -1    0    0    0  501  0.00000000000E+00  0.00000000000E+00 -0.93282705037E+03  0.93282705038E+03  0.50400001928E-02 0.  1.
    10030    2    1    2    0    0  0.00000000000E+00  0.00000000000E+00  0.10371147943E+04  0.29027688950E+04  0.27111732076E+04 0.  0.
        5    1    3    3  502    0 -0.12671375743E+04 -0.38663745819E+03  0.21109305774E+03  0.13415321559E+04  0.46999998093E+01 0.  1.
       -5    1    3    3    0  502  0.12671375743E+04  0.38663745819E+03  0.82602173652E+03  0.15612367391E+04  0.46999998093E+01 0. -1.
</event>
<event>
 5   0  0.3013407E-06  0.2637140E+04  0.7818609E-02  0.8355694E-01
        1   -1    0    0  501    0  0.00000000000E+00  0.00000000000E+00  0.13350840868E+04  0.13350840868E+04  0.50400001928E-02 0.  1.
       -1   -1    0    0    0  501  0.00000000000E+00  0.00000000000E+00 -0.13022605810E+04  0.13022605810E+04  0.50400001928E-02 0. -1.
    10030    2    1    2    0    0  0.00000000000E+00  0.00000000000E+00  0.32823505843E+02  0.26373446678E+04  0.26371404048E+04 0.  0.
        4    1    3    3  502    0  0.46101120310E+01 -0.89615108980E+03 -0.95088482305E+03  0.13066336857E+04  0.12699999809E+01 0. -1.
       -4    1    3    3    0  502 -0.46101120310E+01  0.89615108980E+03  0.98370832889E+03  0.13307109822E+04  0.12699999809E+01 0.  1.
</event>
<event>
 5   0  0.7729970E-06  0.2691719E+04  0.7818609E-02  0.8337697E-01
        2   -1    0    0  501    0  0.00000000000E+00  0.00000000000E+00  0.12294209246E+04  0.12294209246E+04  0.25500000920E-02 0. -1.
       -2   -1    0    0    0  501  0.00000000000E+00  0.00000000000E+00 -0.14733260217E+04  0.14733260218E+04  0.25500000920E-02 0.  1.
    10030    2    1    2    0    0  0.00000000000E+00  0.00000000000E+00 -0.24390509716E+03  0.27027469463E+04  0.26917190343E+04 0.  0.
        4    1    3    3  502    0 -0.34256449167E+03 -0.43521662239E+03 -0.13535880221E+04  0.14625204565E+04  0.12699999809E+01 0.  1.
       -4    1    3    3    0  502  0.34256449167E+03  0.43521662239E+03  0.11096829249E+04  0.12402264898E+04  0.12699999809E+01 0. -1.
</event>
<event>
 5   0  0.8407622E-06  0.2703227E+04  0.7818609E-02  0.8333959E-01
       -2   -1    0    0    0  501  0.00000000000E+00  0.00000000000E+00  0.11983798570E+04  0.11983798570E+04  0.25500000920E-02 0.  1.
        2   -1    0    0  501    0  0.00000000000E+00  0.00000000000E+00 -0.15244410636E+04  0.15244410636E+04  0.25500000920E-02 0. -1.
    10030    2    1    2    0    0  0.00000000000E+00  0.00000000000E+00 -0.32606120658E+03  0.27228209206E+04  0.27032273036E+04 0.  0.
        1    1    3    3  502    0 -0.18933899203E+03  0.50601797104E+03  0.10848828943E+04  0.12119712601E+04  0.50400001928E-02 0.  1.
       -1    1    3    3    0  502  0.18933899203E+03 -0.50601797104E+03 -0.14109441008E+04  0.15108496605E+04  0.50400001928E-02 0. -1.
</event>
<event>
 5   0  0.7812908E-06  0.2649024E+04  0.7818609E-02  0.8351737E-01
        2   -1    0    0  501    0  0.00000000000E+00  0.00000000000E+00  0.22956781558E+04  0.22956781558E+04  0.25500000920E-02 0.  1.
       -2   -1    0    0    0  501  0.00000000000E+00  0.00000000000E+00 -0.76418923015E+03  0.76418923015E+03  0.25500000920E-02 0. -1.
    10030    2    1    2    0    0  0.00000000000E+00  0.00000000000E+00  0.15314889257E+04  0.30598673860E+04  0.26490243657E+04 0.  0.
        5    1    3    3  502    0  0.27769012556E+03  0.93550034349E+03  0.18002052968E+04  0.20476898933E+04  0.46999998093E+01 0.  1.
       -5    1    3    3    0  502 -0.27769012556E+03 -0.93550034349E+03 -0.26871637116E+03  0.10121774926E+04  0.46999998093E+01 0. -1.
</event>
<event>
 5   0  0.7838364E-06  0.2688600E+04  0.7818609E-02  0.8338713E-01
       -2   -1    0    0    0  501  0.00000000000E+00  0.00000000000E+00  0.53526449126E+03  0.53526449126E+03  0.25500000920E-02 0. -1.
        2   -1    0    0  501    0  0.00000000000E+00  0.00000000000E+00 -0.33761682594E+04  0.33761682594E+04  0.25500000920E-02 0.  1.
    10030    2    1    2    0    0  0.00000000000E+00  0.00000000000E+00 -0.28409037682E+04  0.39114327507E+04  0.26886003688E+04 0.  0.
        2    1    3    3  502    0  0.98455698419E+02  0.38554667248E+03 -0.32885256779E+04  0.33125127767E+04  0.25500000920E-02 0.  1.
       -2    1    3    3    0  502 -0.98455698419E+02 -0.38554667248E+03  0.44762190974E+03  0.59891997404E+03  0.25500000920E-02 0. -1.
</event>
<event>
 5   0  0.3046300E-06  0.2700323E+04  0.7818609E-02  0.8334900E-01
        1   -1    0    0  501    0  0.00000000000E+00  0.00000000000E+00  0.12632927114E+04  0.12632927114E+04  0.50400001928E-02 0.  1.
       -1   -1    0    0    0  501  0.00000000000E+00  0.00000000000E+00 -0.14430034198E+04  0.14430034199E+04  0.50400001928E-02 0. -1.
    10030    2    1    2    0    0  0.00000000000E+00  0.00000000000E+00 -0.17971070841E+03  0.27062961313E+04  0.27003227236E+04 0.  0.
        2    1    3    3  502    0  0.24023567384E+02 -0.40923463662E+03  0.11994139176E+04  0.12675345618E+04  0.25500000920E-02 0.  1.
       -2    1    3    3    0  502 -0.24023567384E+02  0.40923463662E+03 -0.13791246261E+04  0.14387615695E+04  0.25500000920E-02 0. -1.
</event>
<event>
 5   0  0.3199840E-06  0.2634218E+04  0.7818609E-02  0.8356670E-01
       -1   -1    0    0    0  501  0.00000000000E+00  0.00000000000E+00  0.15775040485E+04  0.15775040485E+04  0.50400001928E-02 0.  1.
        1   -1    0    0  501    0  0.00000000000E+00  0.00000000000E+00 -0.10996964545E+04  0.10996964545E+04  0.50400001928E-02 0. -1.
    10030    2    1    2    0    0  0.00000000000E+00  0.00000000000E+00  0.47780759401E+03  0.26772005031E+04  0.26342176138E+04 0.  0.
        1    1    3    3  502    0 -0.10427034535E+04 -0.75498241620E+03  0.52191968782E+03  0.13891109031E+04  0.50400001928E-02 0. -1.
       -1    1    3    3    0  502  0.10427034535E+04  0.75498241620E+03 -0.44112093813E+02  0.12880895999E+04  0.50400001928E-02 0.  1.
</event>
<event>
 5   0  0.7812908E-06  0.2762546E+04  0.7818609E-02  0.8314992E-01
       -2   -1    0    0    0  501  0.00000000000E+00  0.00000000000E+00  0.10544913860E+04  0.10544913860E+04  0.25500000920E-02 0. -1.
        2   -1    0    0  501    0  0.00000000000E+00  0.00000000000E+00 -0.18093220143E+04  0.18093220143E+04  0.25500000920E-02 0.  1.
    10030    2    1    2    0    0  0.00000000000E+00  0.00000000000E+00 -0.75483062822E+03  0.28638134003E+04  0.27625455497E+04 0.  0.
        5    1    3    3  502    0  0.58878082705E+03 -0.65381941054E+03 -0.14812241414E+04  0.17228435016E+04  0.46999998093E+01 0.  1.
       -5    1    3    3    0  502 -0.58878082705E+03  0.65381941054E+03  0.72639351314E+03  0.11409698987E+04  0.46999998093E+01 0. -1.
</event>
<event>
 5   0  0.8407622E-06  0.2862004E+04  0.7818609E-02  0.8284273E-01
        2   -1    0    0  501    0  0.00000000000E+00  0.00000000000E+00  0.16633701394E+04  0.16633701394E+04  0.25500000920E-02 0. -1.
       -2   -1    0    0    0  501  0.00000000000E+00  0.00000000000E+00 -0.12310946140E+04  0.12310946140E+04  0.25500000920E-02 0.  1.
    10030    2    1    2    0    0  0.00000000000E+00  0.00000000000E+00  0.43227552540E+03  0.28944647533E+04  0.28620035077E+04 0.  0.
        1    1    3    3  502    0 -0.10154936224E+04 -0.54654263825E+03  0.10729957824E+04  0.15752003370E+04  0.50400001928E-02 0. -1.
       -1    1    3    3    0  502  0.10154936224E+04  0.54654263825E+03 -0.64072025703E+03  0.13192644164E+04  0.50400001928E-02 0.  1.
</event>
<event>
 5   0  0.3089218E-06  0.2686958E+04  0.7818609E-02  0.8339249E-01
       -1   -1    0    0    0  501  0.00000000000E+00  0.00000000000E+00  0.13231164124E+04  0.13231164125E+04  0.50400001928E-02 0. -1.
        1   -1    0    0  501    0  0.00000000000E+00  0.00000000000E+00 -0.13641553151E+04  0.13641553151E+04  0.50400001928E-02 0.  1.
    10030    2    1    2    0    0  0.00000000000E+00  0.00000000000E+00 -0.41038902644E+02  0.26872717275E+04  0.26869583447E+04 0.  0.
        5    1    3    3  502    0  0.85779853005E+03 -0.78657802115E+03  0.65067050712E+03  0.13333857283E+04  0.46999998093E+01 0. -1.
       -5    1    3    3    0  502 -0.85779853005E+03  0.78657802115E+03 -0.69170940976E+03  0.13538859993E+04  0.46999998093E+01 0.  1.
</event>
<event>
 5   0  0.3028601E-06  0.2718712E+04  0.7818609E-02  0.8328959E-01
       -1   -1    0    0    0  501  0.00000000000E+00  0.00000000000E+00  0.87710043835E+03  0.87710043836E+03  0.50400001928E-02 0. -1.
        1   -1    0    0  501    0  0.00000000000E+00  0.00000000000E+00 -0.21067700684E+04  0.21067700684E+04  0.50400001928E-02 0.  1.
    10030    2    1    2    0    0  0.00000000000E+00  0.00000000000E+00 -0.12296696301E+04  0.29838705068E+04  0.27187121587E+04 0.  0.
        3    1    3    3  502    0  0.32805240570E+03  0.13132405943E+04 -0.47762282068E+03  0.14353894274E+04  0.10100000352E+00 0.  1.
       -3    1    3    3    0  502 -0.32805240570E+03 -0.13132405943E+04 -0.75204680939E+03  0.15484810793E+04  0.10100000352E+00 0. -1.
</event>
<event>
 5   0  0.7812908E-06  0.2714271E+04  0.7818609E-02  0.8330389E-01
       -2   -1    0    0    0  501  0.00000000000E+00  0.00000000000E+00  0.74758298009E+03  0.74758298010E+03  0.25500000920E-02 0.  1.
        2   -1    0    0  501    0  0.00000000000E+00  0.00000000000E+00 -0.24636955727E+04  0.24636955727E+04  0.25500000920E-02 0. -1.
    10030    2    1    2    0    0  0.00000000000E+00  0.00000000000E+00 -0.17161125926E+04  0.32112785528E+04  0.27142710832E+04 0.  0.
        5    1    3    3  502    0  0.64646572155E+03 -0.61195569558E+03  0.35391578743E+03  0.95795938174E+03  0.46999998093E+01 0.  1.
       -5    1    3    3    0  502 -0.64646572155E+03  0.61195569558E+03 -0.20700283800E+04  0.22533191710E+04  0.46999998093E+01 0. -1.
</event>
<event>
 5   0  0.3028601E-06  0.2694443E+04  0.7818609E-02  0.8336810E-01
        1   -1    0    0  501    0  0.00000000000E+00  0.00000000000E+00  0.19282732241E+04  0.19282732241E+04  0.50400001928E-02 0.  1.
       -1   -1    0    0    0  501  0.00000000000E+00  0.00000000000E+00 -0.94125935612E+03  0.94125935613E+03  0.50400001928E-02 0. -1.
    10030    2    1    2    0    0  0.00000000000E+00  0.00000000000E+00  0.98701386796E+03  0.28695325802E+04  0.26944425868E+04 0.  0.
        3    1    3    3  502    0 -0.18409707729E+03 -0.89097829630E+03  0.15516891244E+04  0.17987421181E+04  0.10100000352E+00 0.  1.
       -3    1    3    3    0  502  0.18409707729E+03  0.89097829630E+03 -0.56467525645E+03  0.10707904621E+04  0.10100000352E+00 0. -1.
</event>
<event>
 5   0  0.7812908E-06  0.2698910E+04  0.7818609E-02  0.8335359E-01
        2   -1    0    0  501    0  0.00000000000E+00  0.00000000000E+00  0.25278768435E+04  0.25278768435E+04  0.25500000920E-02 0. -1.
       -2   -1    0    0    0  501  0.00000000000E+00  0.00000000000E+00 -0.72037899213E+03  0.72037899214E+03  0.25500000920E-02 0.  1.
    10030    2    1    2    0    0  0.00000000000E+00  0.00000000000E+00  0.18074978514E+04  0.32482558357E+04  0.26989104267E+04 0.  0.
        5    1    3    3  502    0  0.50182706812E+03 -0.10802754961E+04  0.14048818461E+03  0.11994100941E+04  0.46999998093E+01 0. -1.
       -5    1    3    3    0  502 -0.50182706812E+03  0.10802754961E+04  0.16670096668E+04  0.20488457416E+04  0.46999998093E+01 0.  1.
</event>
<event>
 5   0  0.3046300E-06  0.2705293E+04  0.7818609E-02  0.8333290E-01
       -1   -1    0    0    0  501  0.00000000000E+00  0.00000000000E+00  0.79133112988E+03  0.79133112989E+03  0.50400001928E-02 0. -1.
        1   -1    0    0  501    0  0.00000000000E+00  0.00000000000E+00 -0.23121203834E+04  0.23121203834E+04  0.50400001928E-02 0.  1.
    10030    2    1    2    0    0  0.00000000000E+00  0.00000000000E+00 -0.15207892535E+04  0.31034515133E+04  0.27052932081E+04 0.  0.
        2    1    3    3  502    0 -0.24294820122E+03 -0.11769313889E+04 -0.14726260542E+04  0.19007416495E+04  0.25500000920E-02 0.  1.
       -2    1    3    3    0  502  0.24294820122E+03  0.11769313889E+04 -0.48163199339E+02  0.12027098638E+04  0.25500000920E-02 0. -1.
</event>
<event>
 5   0  0.8407622E-06  0.3040329E+04  0.7818609E-02  0.8232307E-01
        2   -1    0    0  501    0  0.00000000000E+00  0.00000000000E+00  0.13689153591E+04  0.13689153591E+04  0.25500000920E-02 0.  1.
       -2   -1    0    0    0  501  0.00000000000E+00  0.00000000000E+00 -0.16881254346E+04  0.16881254346E+04  0.25500000920E-02 0. -1.
    10030    2    1    2    0    0  0.00000000000E+00  0.00000000000E+00 -0.31921007556E+03  0.30570407937E+04  0.30403294792E+04 0.  0.
        1    1    3    3  502    0  0.12422474936E+04  0.24281163780E+03 -0.10061140082E+04  0.16169111677E+04  0.50400001928E-02 0. -1.
       -1    1    3    3    0  502 -0.12422474936E+04 -0.24281163780E+03  0.68690393262E+03  0.14401296260E+04  0.50400001928E-02 0.  1.
</event>
<event>
 5   0  0.3046300E-06  0.2700198E+04  0.7818609E-02  0.8334941E-01
       -1   -1    0    0    0  501  0.00000000000E+00  0.00000000000E+00  0.69696850926E+03  0.69696850928E+03  0.50400001928E-02 0. -1.
        1   -1    0    0  501    0  0.00000000000E+00  0.00000000000E+00 -0.26152800638E+04  0.26152800638E+04  0.50400001928E-02 0.  1.
    10030    2    1    2    0    0  0.00000000000E+00  0.00000000000E+00 -0.19183115545E+04  0.33122485731E+04  0.27001983982E+04 0.  0.
        2    1    3    3  502    0  0.30539684615E+03 -0.13147776566E+04 -0.99513561074E+03  0.16769622547E+04  0.25500000920E-02 0. -1.
       -2    1    3    3    0  502 -0.30539684615E+03  0.13147776566E+04 -0.92317594380E+03  0.16352863184E+04  0.25500000920E-02 0.  1.
</event>
<event>
 5   0  0.7729970E-06  0.2713356E+04  0.7818609E-02  0.8330684E-01
        2   -1    0    0  501    0  0.00000000000E+00  0.00000000000E+00  0.20794190746E+04  0.20794190746E+04  0.25500000920E-02 0.  1.
       -2   -1    0    0    0  501  0.00000000000E+00  0.00000000000E+00 -0.88513926412E+03  0.88513926412E+03  0.25500000920E-02 0. -1.
    10030    2    1    2    0    0  0.00000000000E+00  0.00000000000E+00  0.11942798105E+04  0.29645583387E+04  0.27133562018E+04 0.  0.
        4    1    3    3  502    0 -0.12931927219E+04 -0.40932574686E+03  0.62560729492E+03  0.14937473292E+04  0.12699999809E+01 0.  1.
       -4    1    3    3    0  502  0.12931927219E+04  0.40932574686E+03  0.56867251553E+03  0.14708110096E+04  0.12699999809E+01 0. -1.
</event>
<event>
 5   0  0.3013407E-06  0.2688409E+04  0.7818609E-02  0.8338776E-01
       -1   -1    0    0    0  501  0.00000000000E+00  0.00000000000E+00  0.15544261865E+04  0.15544261866E+04  0.50400001928E-02 0.  1.
        1   -1    0    0  501    0  0.00000000000E+00  0.00000000000E+00 -0.11624135199E+04  0.11624135200E+04  0.50400001928E-02 0. -1.
    10030    2    1    2    0    0  0.00000000000E+00  0.00000000000E+00  0.39201266661E+03  0.27168397065E+04  0.26884092062E+04 0.  0.
        4    1    3    3  502    0 -0.63271506702E+03 -0.11721127843E+04  0.37877149955E+03  0.13847910300E+04  0.12699999809E+01 0.  1.
       -4    1    3    3    0  502  0.63271506702E+03  0.11721127843E+04  0.13241167060E+02  0.13320486765E+04  0.12699999809E+01 0. -1.
</event>
<event>
 5   0  0.3046300E-06  0.2710403E+04  0.7818609E-02  0.8331637E-01
       -1   -1    0    0    0  501  0.00000000000E+00  0.00000000000E+00  0.11690599740E+04  0.11690599740E+04  0.50400001928E-02 0.  1.
        1   -1    0    0  501    0  0.00000000000E+00  0.00000000000E+00 -0.15709812613E+04  0.15709812613E+04  0.50400001928E-02 0. -1.
    10030    2    1    2    0    0  0.00000000000E+00  0.00000000000E+00 -0.40192128729E+03  0.27400412353E+04  0.27104031526E+04 0.  0.
        2    1    3    3  502    0  0.92886906666E+03 -0.38407882159E+01 -0.11985433379E+04  0.15163504303E+04  0.25500000920E-02 0. -1.
       -2    1    3    3    0  502 -0.92886906666E+03  0.38407882159E+01  0.79662205061E+03  0.12236908050E+04  0.25500000920E-02 0.  1.
</event>
<event>
 5   0  0.3089218E-06  0.2659745E+04  0.7818609E-02  0.8348186E-01
       -1   -1    0    0    0  501  0.00000000000E+00  0.00000000000E+00  0.14971181229E+04  0.14971181229E+04  0.50400001928E-02 0. -1.
        1   -1    0    0  501    0  0.00000000000E+00  0.00000000000E+00 -0.11813102236E+04  0.11813102236E+04  0.50400001928E-02 0.  1.
    10030    2    1    2    0    0  0.00000000000E+00  0.00000000000E+00  0.31580789927E+03  0.26784283465E+04  0.26597450589E+04 0.  0.
        5    1    3    3  502    0 -0.86397649726E+03  0.13967198311E+03 -0.85041632891E+03  0.12203252325E+04  0.46999998093E+01 0.  1.
       -5    1    3    3    0  502  0.86397649726E+03 -0.13967198311E+03  0.11662242282E+04  0.14581031140E+04  0.46999998093E+01 0. -1.
</event>
<event>
 5   0  0.3046300E-06  0.2671718E+04  0.7818609E-02  0.8344240E-01
        1   -1    0    0  501    0  0.00000000000E+00  0.00000000000E+00  0.12253647916E+04  0.12253647916E+04  0.50400001928E-02 0.  1.
       -1   -1    0    0    0  501  0.00000000000E+00  0.00000000000E+00 -0.14563165186E+04  0.14563165186E+04  0.50400001928E-02 0. -1.
    10030    2    1    2    0    0  0.00000000000E+00  0.00000000000E+00 -0.23095172694E+03  0.26816813102E+04  0.26717177900E+04 0.  0.
        2    1    3    3  502    0 -0.21407766445E+03  0.12868577038E+04  0.17314995505E+03  0.13159836257E+04  0.25500000920E-02 0.  1.
       -2    1    3    3    0  502  0.21407766445E+03 -0.12868577038E+04 -0.40410168199E+03  0.13656976845E+04  0.25500000920E-02 0. -1.
</event>
<event>
 5   0  0.3028601E-06  0.2356794E+04  0.7818609E-02  0.8455859E-01
       -1   -1    0    0    0  501  0.00000000000E+00  0.00000000000E+00  0.87365595522E+03  0.87365595523E+03  0.50400001928E-02 0.  1.
        1   -1    0    0  501    0  0.00000000000E+00  0.00000000000E+00 -0.15894353761E+04  0.15894353762E+04  0.50400001928E-02 0. -1.
    10030    2    1    2    0    0  0.00000000000E+00  0.00000000000E+00 -0.71577942093E+03  0.24630913314E+04  0.23567941631E+04 0.  0.
        3    1    3    3  502    0 -0.45869717948E+03 -0.10205129546E+04  0.28614378255E+02  0.11192267804E+04  0.10100000352E+00 0.  1.
       -3    1    3    3    0  502  0.45869717948E+03  0.10205129546E+04 -0.74439379918E+03  0.13438645510E+04  0.10100000352E+00 0. -1.
</event>
<event>
 5   0  0.3089218E-06  0.2705199E+04  0.7818609E-02  0.8333320E-01
        1   -1    0    0  501    0  0.00000000000E+00  0.00000000000E+00  0.16234193611E+04  0.16234193611E+04  0.50400001928E-02 0.  1.
       -1   -1    0    0    0  501  0.00000000000E+00  0.00000000000E+00 -0.11269581613E+04  0.11269581613E+04  0.50400001928E-02 0. -1.
    10030    2    1    2    0    0  0.00000000000E+00  0.00000000000E+00  0.49646119975E+03  0.27503775224E+04  0.27051992150E+04 0.  0.
        5    1    3    3  502    0 -0.91476860445E+02 -0.11543331728E+04  0.95894029398E+03  0.15034765270E+04  0.46999998093E+01 0. -1.
       -5    1    3    3    0  502  0.91476860445E+02  0.11543331728E+04 -0.46247909423E+03  0.12469009954E+04  0.46999998093E+01 0.  1.
</event>
<event>
 5   0  0.3089218E-06  0.2690469E+04  0.7818609E-02  0.8338104E-01
        1   -1    0    0  501    0  0.00000000000E+00  0.00000000000E+00  0.82758657570E+03  0.82758657571E+03  0.50400001928E-02 0.  1.
       -1   -1    0    0    0  501  0.00000000000E+00  0.00000000000E+00 -0.21866669724E+04  0.21866669724E+04  0.50400001928E-02 0. -1.
    10030    2    1    2    0    0  0.00000000000E+00  0.00000000000E+00 -0.13590803967E+04  0.30142535481E+04  0.26904692764E+04 0.  0.
        5    1    3    3  502    0  0.14258255445E+03  0.91053188768E+03 -0.17773844809E+04  0.20021278147E+04  0.46999998093E+01 0. -1.
       -5    1    3    3    0  502 -0.14258255445E+03 -0.91053188768E+03  0.41830408424E+03  0.10121257334E+04  0.46999998093E+01 0.  1.
</event>
<event>
 5   0  0.3089218E-06  0.2695101E+04  0.7818609E-02  0.8336596E-01
       -1   -1    0    0    0  501  0.00000000000E+00  0.00000000000E+00  0.14431186525E+04  0.14431186525E+04  0.50400001928E-02 0. -1.
        1   -1    0    0  501    0  0.00000000000E+00  0.00000000000E+00 -0.12583116311E+04  0.12583116311E+04  0.50400001928E-02 0.  1.
    10030    2    1    2    0    0  0.00000000000E+00  0.00000000000E+00  0.18480702144E+03  0.27014302836E+04  0.26951014716E+04 0.  0.
        5    1    3    3  502    0 -0.62328754906E+03 -0.68647495490E+03 -0.88771457145E+03  0.12836644744E+04  0.46999998093E+01 0.  1.
       -5    1    3    3    0  502  0.62328754906E+03  0.68647495490E+03  0.10725215929E+04  0.14177658092E+04  0.46999998093E+01 0. -1.
</event>
<event>
 5   0  0.7729970E-06  0.2692669E+04  0.7818609E-02  0.8337387E-01
        2   -1    0    0  501    0  0.00000000000E+00  0.00000000000E+00  0.14235032236E+04  0.14235032236E+04  0.25500000920E-02 0.  1.
       -2   -1    0    0    0  501  0.00000000000E+00  0.00000000000E+00 -0.12733493379E+04  0.12733493380E+04  0.25500000920E-02 0. -1.
    10030    2    1    2    0    0  0.00000000000E+00  0.00000000000E+00  0.15015388561E+03  0.26968525615E+04  0.26926692239E+04 0.  0.
        4    1    3    3  502    0 -0.32531768677E+02  0.25655689386E+03 -0.12482386244E+04  0.12747474386E+04  0.12699999809E+01 0. -1.
       -4    1    3    3    0  502  0.32531768677E+02 -0.25655689386E+03  0.13983925100E+04  0.14221051230E+04  0.12699999809E+01 0.  1.
</event>
<event>
 5   0  0.3013407E-06  0.2653059E+04  0.7818609E-02  0.8350398E-01
        1   -1    0    0  501    0  0.00000000000E+00  0.00000000000E+00  0.25480363679E+04  0.25480363679E+04  0.50400001928E-02 0. -1.
       -1   -1    0    0    0  501  0.00000000000E+00  0.00000000000E+00 -0.69060245786E+03  0.69060245787E+03  0.50400001928E-02 0.  1.
    10030    2    1    2    0    0  0.00000000000E+00  0.00000000000E+00  0.18574339101E+04  0.32386388258E+04  0.26530587468E+04 0.  0.
        4    1    3    3  502    0  0.12011289500E+04 -0.31036128647E+03  0.15021218556E+04  0.19481803214E+04  0.12699999809E+01 0. -1.
       -4    1    3    3    0  502 -0.12011289500E+04  0.31036128647E+03  0.35531205451E+03  0.12904585044E+04  0.12699999809E+01 0.  1.
</event>
<event>
 5   0  0.8213334E-06  0.2731914E+04  0.7818609E-02  0.8324724E-01
       -2   -1    0    0    0  501  0.00000000000E+00  0.00000000000E+00  0.10462359519E+04  0.10462359519E+04  0.25500000920E-02 0.  1.
        2   -1    0    0  501    0  0.00000000000E+00  0.00000000000E+00 -0.17833819682E+04  0.17833819682E+04  0.25500000920E-02 0. -1.
    10030    2    1    2    0    0  0.00000000000E+00  0.00000000000E+00 -0.73714601636E+03  0.28296179201E+04  0.27319138574E+04 0.  0.
        3    1    3    3  502    0 -0.83164641720E+03  0.10824958182E+04 -0.31777450161E+03  0.14015754007E+04  0.10100000352E+00 0.  1.
       -3    1    3    3    0  502  0.83164641720E+03 -0.10824958182E+04 -0.41937151475E+03  0.14280425194E+04  0.10100000352E+00 0. -1.
</event>
<event>
 5   0  0.8407622E-06  0.2685009E+04  0.7818609E-02  0.8339886E-01
       -2   -1    0    0    0  501  0.00000000000E+00  0.00000000000E+00  0.11668056978E+04  0.11668056978E+04  0.25500000920E-02 0.  1.
        2   -1    0    0  501    0  0.00000000000E+00  0.00000000000E+00 -0.15446598185E+04  0.15446598185E+04  0.25500000920E-02 0. -1.
    10030    2    1    2    0    0  0.00000000000E+00  0.00000000000E+00 -0.37785412066E+03  0.27114655164E+04  0.26850086610E+04 0.  0.
        1    1    3    3  502    0  0.10675981021E+04  0.18577606631E+03  0.61137115343E+03  0.12442078371E+04  0.50400001928E-02 0.  1.
       -1    1    3    3    0  502 -0.10675981021E+04 -0.18577606631E+03 -0.98922527409E+03  0.14672576793E+04  0.50400001928E-02 0. -1.
</event>
<event>
 5   0  0.3013407E-06  0.2688599E+04  0.7818609E-02  0.8338714E-01
        1   -1    0    0  501    0  0.00000000000E+00  0.00000000000E+00  0.14319493179E+04  0.14319493179E+04  0.50400001928E-02 0. -1.
       -1   -1    0    0    0  501  0.00000000000E+00  0.00000000000E+00 -0.12620151823E+04  0.12620151824E+04  0.50400001928E-02 0.  1.
    10030    2    1    2    0    0  0.00000000000E+00  0.00000000000E+00  0.16993413552E+03  0.26939645002E+04  0.26885994715E+04 0.  0.
        4    1    3    3  502    0  0.95807804287E+03  0.67539249169E+03  0.74436201981E+03  0.13885766034E+04  0.12699999809E+01 0. -1.
       -4    1    3    3    0  502 -0.95807804287E+03 -0.67539249169E+03 -0.57442788429E+03  0.13053878968E+04  0.12699999809E+01 0.  1.
</event>
<event>
 5   0  0.8407622E-06  0.2705751E+04  0.7818609E-02  0.8333141E-01
       -2   -1    0    0    0  501  0.00000000000E+00  0.00000000000E+00  0.99210868553E+03  0.99210868553E+03  0.25500000920E-02 0.  1.
        2   -1    0    0  501    0  0.00000000000E+00  0.00000000000E+00 -0.18448302472E+04  0.18448302472E+04  0.25500000920E-02 0. -1.
    10030    2    1    2    0    0  0.00000000000E+00  0.00000000000E+00 -0.85272156171E+03  0.28369389328E+04  0.27057509949E+04 0.  0.
        1    1    3    3  502    0 -0.40512662459E+03 -0.64245315990E+02 -0.17780594943E+04  0.18247604248E+04  0.50400001928E-02 0. -1.
       -1    1    3    3    0  502  0.40512662459E+03  0.64245315990E+02  0.92533793257E+03  0.10121785080E+04  0.50400001928E-02 0.  1.
</event>
<event>
 5   0  0.8213334E-06  0.2831247E+04  0.7818609E-02  0.8293632E-01
       -2   -1    0    0    0  501  0.00000000000E+00  0.00000000000E+00  0.17205118320E+04  0.17205118320E+04  0.25500000920E-02 0.  1.
        2   -1    0    0  501    0  0.00000000000E+00  0.00000000000E+00 -0.11647640220E+04  0.11647640220E+04  0.25500000920E-02 0. -1.
    10030    2    1    2    0    0  0.00000000000E+00  0.00000000000E+00  0.55574780995E+03  0.28852758540E+04  0.28312472738E+04 0.  0.
        3    1    3    3  502    0  0.90399346923E+03  0.74472385760E+03  0.10881393617E+04  0.15987073206E+04  0.10100000352E+00 0.  1.
       -3    1    3    3    0  502 -0.90399346923E+03 -0.74472385760E+03 -0.53239155172E+03  0.12865685334E+04  0.10100000352E+00 0. -1.
</event>
<event>
 5   0  0.3046300E-06  0.2682874E+04  0.7818609E-02  0.8340583E-01
        1   -1    0    0  501    0  0.00000000000E+00  0.00000000000E+00  0.17000107454E+04  0.17000107454E+04  0.50400001928E-02 0.  1.
       -1   -1    0    0    0  501  0.00000000000E+00  0.00000000000E+00 -0.10584949500E+04  0.10584949500E+04  0.50400001928E-02 0. -1.
    10030    2    1    2    0    0  0.00000000000E+00  0.00000000000E+00  0.64151579538E+03  0.27585056955E+04  0.26828736750E+04 0.  0.
        2    1    3    3  502    0  0.10962911204E+04  0.77081676798E+03  0.38106352516E+03  0.13932774744E+04  0.25500000920E-02 0. -1.
       -2    1    3    3    0  502 -0.10962911204E+04 -0.77081676798E+03  0.26045227022E+03  0.13652282211E+04  0.25500000920E-02 0.  1.
</event>
<event>
 5   0  0.8213334E-06  0.2708686E+04  0.7818609E-02  0.8332192E-01
       -2   -1    0    0    0  501  0.00000000000E+00  0.00000000000E+00  0.12829619611E+04  0.12829619611E+04  0.25500000920E-02 0. -1.
        2   -1    0    0  501    0  0.00000000000E+00  0.00000000000E+00 -0.14296957133E+04  0.14296957133E+04  0.25500000920E-02 0.  1.
    10030    2    1    2    0    0  0.00000000000E+00  0.00000000000E+00 -0.14673375223E+03  0.27126576744E+04  0.27086861879E+04 0.  0.
        3    1    3    3  502    0  0.12347276885E+04  0.19645734479E+03 -0.59480028823E+03  0.13845343427E+04  0.10100000352E+00 0.  1.
       -3    1    3    3    0  502 -0.12347276885E+04 -0.19645734479E+03  0.44806653601E+03  0.13281233316E+04  0.10100000352E+00 0. -1.
</event>
<event>
 5   0  0.3013407E-06  0.2692843E+04  0.7818609E-02  0.8337331E-01
       -1   -1    0    0    0  501  0.00000000000E+00  0.00000000000E+00  0.13630397756E+04  0.13630397756E+04  0.50400001928E-02 0.  1.
        1   -1    0    0  501    0  0.00000000000E+00  0.00000000000E+00 -0.13300055230E+04  0.13300055230E+04  0.50400001928E-02 0. -1.
    10030    2    1    2    0    0  0.00000000000E+00  0.00000000000E+00  0.33034252562E+02  0.26930452986E+04  0.26928426836E+04 0.  0.
        4    1    3    3  502    0  0.80910023499E+03 -0.96534134398E+03  0.49228574141E+03  0.13523586672E+04  0.12699999809E+01 0.  1.
       -4    1    3    3    0  502 -0.80910023499E+03  0.96534134398E+03 -0.45925148885E+03  0.13406866314E+04  0.12699999809E+01 0. -1.
</event>
<event>
 5   0  0.3046300E-06  0.2705407E+04  0.7818609E-02  0.8333253E-01
        1   -1    0    0  501    0  0.00000000000E+00  0.00000000000E+00  0.26334330925E+04  0.26334330925E+04  0.50400001928E-02 0. -1.
       -1   -1    0    0    0  501  0.00000000000E+00  0.00000000000E+00 -0.69483682692E+03  0.69483682693E+03  0.50400001928E-02 0.  1.
    10030    2    1    2    0    0  0.00000000000E+00  0.00000000000E+00  0.19385962655E+04  0.33282699194E+04  0.27054066562E+04 0.  0.
        2    1    3    3  502    0  0.11066301129E+04 -0.25923640252E+03  0.18716294981E+04  0.21897101857E+04  0.25500000920E-02 0. -1.
       -2    1    3    3    0  502 -0.11066301129E+04  0.25923640252E+03  0.66966767418E+02  0.11385597337E+04  0.25500000920E-02 0.  1.
</event>
<event>
 5   0  0.3199840E-06  0.2692706E+04  0.7818609E-02  0.8337375E-01
        1   -1    0    0  501    0  0.00000000000E+00  0.00000000000E+00  0.15366373831E+04  0.15366373831E+04  0.50400001928E-02 0. -1.
       -1   -1    0    0    0  501  0.00000000000E+00  0.00000000000E+00 -0.11796318413E+04  0.11796318414E+04  0.50400001928E-02 0.  1.
    10030    2    1    2    0    0  0.00000000000E+00  0.00000000000E+00  0.35700554175E+03  0.27162692245E+04  0.26927059890E+04 0.  0.
        1    1    3    3  502    0 -0.11149789500E+04 -0.71897420016E+03 -0.52772842038E+02  0.13277375239E+04  0.50400001928E-02 0.  1.
       -1    1    3    3    0  502  0.11149789500E+04  0.71897420016E+03  0.40977838379E+03  0.13885317005E+04  0.50400001928E-02 0. -1.
</event>
<event>
 5   0  0.8407622E-06  0.2690767E+04  0.7818609E-02  0.8338007E-01
        2   -1    0    0  501    0  0.00000000000E+00  0.00000000000E+00  0.16604067159E+04  0.16604067159E+04  0.25500000920E-02 0.  1.
       -2   -1    0    0    0  501  0.00000000000E+00  0.00000000000E+00 -0.10901282038E+04  0.10901282038E+04  0.25500000920E-02 0. -1.
    10030    2    1    2    0    0  0.00000000000E+00  0.00000000000E+00  0.57027851208E+03  0.27505349196E+04  0.26907665753E+04 0.  0.
        1    1    3    3  502    0 -0.30616701186E+03  0.32777993992E+03 -0.10114509318E+04  0.11064406517E+04  0.50400001928E-02 0. -1.
       -1    1    3    3    0  502  0.30616701186E+03 -0.32777993992E+03  0.15817294439E+04  0.16440942680E+04  0.50400001928E-02 0.  1.
</event>
<event>
 5   0  0.3199840E-06  0.2684124E+04  0.7818609E-02  0.8340175E-01
        1   -1    0    0  501    0  0.00000000000E+00  0.00000000000E+00  0.13916452036E+04  0.13916452036E+04  0.50400001928E-02 0.  1.
       -1   -1    0    0    0  501  0.00000000000E+00  0.00000000000E+00 -0.12942450794E+04  0.12942450794E+04  0.50400001928E-02 0. -1.
    10030    2    1    2    0    0  0.00000000000E+00  0.00000000000E+00  0.97400124146E+02  0.26858902830E+04  0.26841236611E+04 0.  0.
        1    1    3    3  502    0 -0.82590573733E+03 -0.53607490752E+03 -0.86383949527E+03  0.13098531471E+04  0.50400001928E-02 0. -1.
       -1    1    3    3    0  502  0.82590573733E+03  0.53607490752E+03  0.96123961942E+03  0.13760371359E+04  0.50400001928E-02 0.  1.
</event>
<event>
 5   0  0.3013407E-06  0.2691017E+04  0.7818609E-02  0.8337926E-01
       -1   -1    0    0    0  501  0.00000000000E+00  0.00000000000E+00  0.82909985034E+03  0.82909985035E+03  0.50400001928E-02 0.  1.
        1   -1    0    0  501    0  0.00000000000E+00  0.00000000000E+00 -0.21835643730E+04  0.21835643730E+04  0.50400001928E-02 0. -1.
    10030    2    1    2    0    0  0.00000000000E+00  0.00000000000E+00 -0.13544645227E+04  0.30126642234E+04  0.26910168301E+04 0.  0.
        4    1    3    3  502    0 -0.41557537255E+03  0.56506440682E+03 -0.19626857474E+04  0.20842594920E+04  0.12699999809E+01 0. -1.
       -4    1    3    3    0  502  0.41557537255E+03 -0.56506440682E+03  0.60822122471E+03  0.92840473136E+03  0.12699999809E+01 0.  1.
</event>
<event>
 5   0  0.7838364E-06  0.2711058E+04  0.7818609E-02  0.8331426E-01
       -2   -1    0    0    0  501  0.00000000000E+00  0.00000000000E+00  0.23257350247E+04  0.23257350247E+04  0.25500000920E-02 0.  1.
        2   -1    0    0  501    0  0.00000000000E+00  0.00000000000E+00 -0.79005494226E+03  0.79005494226E+03  0.25500000920E-02 0. -1.
    10030    2    1    2    0    0  0.00000000000E+00  0.00000000000E+00  0.15356800824E+04  0.31157899669E+04  0.27110576907E+04 0.  0.
        2    1    3    3  502    0  0.10016924875E+04 -0.35698490556E+03  0.17339491678E+04  0.20340614000E+04  0.25500000920E-02 0. -1.
       -2    1    3    3    0  502 -0.10016924875E+04  0.35698490556E+03 -0.19826908542E+03  0.10817285669E+04  0.25500000920E-02 0.  1.
</event>
<event>
 5   0  0.7838364E-06  0.2693105E+04  0.7818609E-02  0.8337246E-01
        2   -1    0    0  501    0  0.00000000000E+00  0.00000000000E+00  0.24307124537E+04  0.24307124537E+04  0.25500000920E-02 0.  1.
       -2   -1    0    0    0  501  0.00000000000E+00  0.00000000000E+00 -0.74595554630E+03  0.74595554630E+03  0.25500000920E-02 0. -1.
    10030    2    1    2    0    0  0.00000000000E+00  0.00000000000E+00  0.16847569074E+04  0.31766680000E+04  0.26931048523E+04 0.  0.
        2    1    3    3  502    0 -0.50905600051E+03 -0.17828916800E+03  0.22977222802E+04  0.23601806533E+04  0.25500000920E-02 0.  1.
       -2    1    3    3    0  502  0.50905600051E+03  0.17828916800E+03 -0.61296537282E+03  0.81648734672E+03  0.25500000920E-02 0. -1.
</event>
<event>
 5   0  0.2654625E-06  0.2470002E+04  0.7818609E-02  0.8413751E-01
        4   -1    0    0  501    0  0.00000000000E+00  0.00000000000E+00  0.83133167112E+03  0.83133264119E+03  0.12699999809E+01 0. -1.
       -4   -1    0    0    0  501  0.00000000000E+00  0.00000000000E+00 -0.18346777899E+04  0.18346782294E+04  0.12699999809E+01 0.  1.
    10030    2    1    2    0    0  0.00000000000E+00  0.00000000000E+00 -0.10033461187E+04  0.26660108706E+04  0.24700021312E+04 0.  0.
        3    1    3    3  502    0  0.98843204457E+03 -0.50134040384E+02 -0.12990213144E+04  0.16330853359E+04  0.10100000352E+00 0.  1.
       -3    1    3    3    0  502 -0.98843204457E+03  0.50134040384E+02  0.29567519569E+03  0.10329255347E+04  0.10100000352E+00 0. -1.
</event>
<event>
 5   0  0.8407622E-06  0.2703071E+04  0.7818609E-02  0.8334009E-01
       -2   -1    0    0    0  501  0.00000000000E+00  0.00000000000E+00  0.97314741987E+03  0.97314741987E+03  0.25500000920E-02 0. -1.
        2   -1    0    0  501    0  0.00000000000E+00  0.00000000000E+00 -0.18770521671E+04  0.18770521671E+04  0.25500000920E-02 0.  1.
    10030    2    1    2    0    0  0.00000000000E+00  0.00000000000E+00 -0.90390474722E+03  0.28501995870E+04  0.27030711965E+04 0.  0.
        1    1    3    3  502    0  0.72273100640E+03 -0.84983139852E+03 -0.12564313655E+04  0.16802301300E+04  0.50400001928E-02 0.  1.
       -1    1    3    3    0  502 -0.72273100640E+03  0.84983139852E+03  0.35252661831E+03  0.11699694569E+04  0.50400001928E-02 0. -1.
</event>
<event>
 5   0  0.3028601E-06  0.2693475E+04  0.7818609E-02  0.8337125E-01
       -1   -1    0    0    0  501  0.00000000000E+00  0.00000000000E+00  0.62511917576E+03  0.62511917578E+03  0.50400001928E-02 0. -1.
        1   -1    0    0  501    0  0.00000000000E+00  0.00000000000E+00 -0.29013704199E+04  0.29013704199E+04  0.50400001928E-02 0.  1.
    10030    2    1    2    0    0  0.00000000000E+00  0.00000000000E+00 -0.22762512442E+04  0.35264895957E+04  0.26934752908E+04 0.  0.
        3    1    3    3  502    0  0.12171878216E+04 -0.57512829990E+03 -0.11868248954E+04  0.17946788283E+04  0.10100000352E+00 0.  1.
       -3    1    3    3    0  502 -0.12171878216E+04  0.57512829990E+03 -0.10894263488E+04  0.17318107674E+04  0.10100000352E+00 0. -1.
</event>
<event>
 5   0  0.7729970E-06  0.2706163E+04  0.7818609E-02  0.8333008E-01
        2   -1    0    0  501    0  0.00000000000E+00  0.00000000000E+00  0.10160391645E+04  0.10160391645E+04  0.25500000920E-02 0.  1.
       -2   -1    0    0    0  501  0.00000000000E+00  0.00000000000E+00 -0.18019276140E+04  0.18019276140E+04  0.25500000920E-02 0. -1.
    10030    2    1    2    0    0  0.00000000000E+00  0.00000000000E+00 -0.78588844947E+03  0.28179667786E+04  0.27061626171E+04 0.  0.
        4    1    3    3  502    0  0.12339804393E+04  0.48073816498E+03 -0.68191702673E+03  0.14895735471E+04  0.12699999809E+01 0.  1.
       -4    1    3    3    0  502 -0.12339804393E+04 -0.48073816498E+03 -0.10397142274E+03  0.13283932315E+04  0.12699999809E+01 0. -1.
</event>
<event>
 5   0  0.7812908E-06  0.2701094E+04  0.7818609E-02  0.8334650E-01
        2   -1    0    0  501    0  0.00000000000E+00  0.00000000000E+00  0.25111589193E+04  0.25111589193E+04  0.25500000920E-02 0. -1.
       -2   -1    0    0    0  501  0.00000000000E+00  0.00000000000E+00 -0.72634853063E+03  0.72634853064E+03  0.25500000920E-02 0.  1.
    10030    2    1    2    0    0  0.00000000000E+00  0.00000000000E+00  0.17848103887E+04  0.32375074499E+04  0.27010935498E+04 0.  0.
        5    1    3    3  502    0  0.30172729389E+03  0.10818478179E+04 -0.65546747253E+01  0.11231647763E+04  0.46999998093E+01 0.  1.
       -5    1    3    3    0  502 -0.30172729389E+03 -0.10818478179E+04  0.17913650634E+04  0.21143426736E+04  0.46999998093E+01 0. -1.
</event>
<event>
 5   0  0.8213334E-06  0.2696399E+04  0.7818609E-02  0.8336174E-01
       -2   -1    0    0    0  501  0.00000000000E+00  0.00000000000E+00  0.97998122488E+03  0.97998122489E+03  0.25500000920E-02 0.  1.
        2   -1    0    0  501    0  0.00000000000E+00  0.00000000000E+00 -0.18547716427E+04  0.18547716427E+04  0.25500000920E-02 0. -1.
    10030    2    1    2    0    0  0.00000000000E+00  0.00000000000E+00 -0.87479041783E+03  0.28347528676E+04  0.26963986251E+04 0.  0.
        3    1    3    3  502    0  0.11377902657E+04 -0.52132191693E+03  0.89623155558E+02  0.12547412283E+04  0.10100000352E+00 0.  1.
       -3    1    3    3    0  502 -0.11377902657E+04  0.52132191693E+03 -0.96441357339E+03  0.15800116393E+04  0.10100000352E+00 0. -1.
</event>
<event>
 5   0  0.3199840E-06  0.2698896E+04  0.7818609E-02  0.8335363E-01
        1   -1    0    0  501    0  0.00000000000E+00  0.00000000000E+00  0.16625036399E+04  0.16625036399E+04  0.50400001928E-02 0. -1.
       -1   -1    0    0    0  501  0.00000000000E+00  0.00000000000E+00 -0.10953422048E+04  0.10953422048E+04  0.50400001928E-02 0.  1.
    10030    2    1    2    0    0  0.00000000000E+00  0.00000000000E+00  0.56716143505E+03  0.27578458447E+04  0.26988963689E+04 0.  0.
        1    1    3    3  502    0  0.11134023264E+03 -0.12627792693E+04  0.75628873665E+03  0.14761371155E+04  0.50400001928E-02 0. -1.
       -1    1    3    3    0  502 -0.11134023264E+03  0.12627792693E+04 -0.18912730160E+03  0.12817087293E+04  0.50400001928E-02 0.  1.
</event>
<event>
 5   0  0.3046300E-06  0.2700777E+04  0.7818609E-02  0.8334753E-01
       -1   -1    0    0    0  501  0.00000000000E+00  0.00000000000E+00  0.95054133066E+03  0.95054133068E+03  0.50400001928E-02 0. -1.
        1   -1    0    0  501    0  0.00000000000E+00  0.00000000000E+00 -0.19184325715E+04  0.19184325715E+04  0.50400001928E-02 0.  1.
    10030    2    1    2    0    0  0.00000000000E+00  0.00000000000E+00 -0.96789124088E+03  0.28689739022E+04  0.27007772580E+04 0.  0.
        2    1    3    3  502    0  0.56570181865E+03 -0.12012620084E+04 -0.74523230092E+03  0.15226359194E+04  0.25500000920E-02 0.  1.
       -2    1    3    3    0  502 -0.56570181865E+03  0.12012620084E+04 -0.22265893995E+03  0.13463379829E+04  0.25500000920E-02 0. -1.
</event>
<event>
 5   0  0.3046300E-06  0.2708547E+04  0.7818609E-02  0.8332237E-01
        1   -1    0    0  501    0  0.00000000000E+00  0.00000000000E+00  0.12214605499E+04  0.12214605499E+04  0.50400001928E-02 0. -1.
       -1   -1    0    0    0  501  0.00000000000E+00  0.00000000000E+00 -0.15015274731E+04  0.15015274731E+04  0.50400001928E-02 0.  1.
    10030    2    1    2    0    0  0.00000000000E+00  0.00000000000E+00 -0.28006692320E+03  0.27229880231E+04  0.27085468968E+04 0.  0.
        2    1    3    3  502    0 -0.67426198068E+03  0.19884284180E+03  0.10236738494E+04  0.12418034645E+04  0.25500000920E-02 0. -1.
       -2    1    3    3    0  502  0.67426198068E+03 -0.19884284180E+03 -0.13037407726E+04  0.14811845586E+04  0.25500000920E-02 0.  1.
</event>
<event>
 5   0  0.7838364E-06  0.2740620E+04  0.7818609E-02  0.8321944E-01
       -2   -1    0    0    0  501  0.00000000000E+00  0.00000000000E+00  0.11108389745E+04  0.11108389745E+04  0.25500000920E-02 0. -1.
        2   -1    0    0  501    0  0.00000000000E+00  0.00000000000E+00 -0.16903885292E+04  0.16903885292E+04  0.25500000920E-02 0.  1.
    10030    2    1    2    0    0  0.00000000000E+00  0.00000000000E+00 -0.57954955469E+03  0.28012275036E+04  0.27406199738E+04 0.  0.
        2    1    3    3  502    0 -0.14714353116E+02 -0.10431719084E+03 -0.16862431749E+04  0.16895308915E+04  0.25500000920E-02 0.  1.
       -2    1    3    3    0  502  0.14714353116E+02  0.10431719084E+03  0.11066936202E+04  0.11116966121E+04  0.25500000920E-02 0. -1.
</event>
<event>
 5   0  0.7729970E-06  0.2681017E+04  0.7818609E-02  0.8341191E-01
       -2   -1    0    0    0  501  0.00000000000E+00  0.00000000000E+00  0.90177070849E+03  0.90177070849E+03  0.25500000920E-02 0. -1.
        2   -1    0    0  501    0  0.00000000000E+00  0.00000000000E+00 -0.19927047109E+04  0.19927047109E+04  0.25500000920E-02 0.  1.
    10030    2    1    2    0    0  0.00000000000E+00  0.00000000000E+00 -0.10909340025E+04  0.28944754194E+04  0.26810167765E+04 0.  0.
        4    1    3    3  502    0 -0.13172401511E+04  0.95881211282E+02 -0.79318312586E+03  0.15406024491E+04  0.12699999809E+01 0.  1.
       -4    1    3    3    0  502  0.13172401511E+04 -0.95881211282E+02 -0.29775087660E+03  0.13538729703E+04  0.12699999809E+01 0. -1.
</event>
<event>
 5   0  0.7812908E-06  0.2692407E+04  0.7818609E-02  0.8337473E-01
        2   -1    0    0  501    0  0.00000000000E+00  0.00000000000E+00  0.97675577179E+03  0.97675577179E+03  0.25500000920E-02 0.  1.
       -2   -1    0    0    0  501  0.00000000000E+00  0.00000000000E+00 -0.18553911811E+04  0.18553911811E+04  0.25500000920E-02 0. -1.
    10030    2    1    2    0    0  0.00000000000E+00  0.00000000000E+00 -0.87863540934E+03  0.28321469529E+04  0.26924071350E+04 0.  0.
        5    1    3    3  502    0 -0.10177612142E+04 -0.75848899371E+03  0.32397071254E+02  0.12697303269E+04  0.46999998093E+01 0.  1.
       -5    1    3    3    0  502  0.10177612142E+04  0.75848899371E+03 -0.91103248059E+03  0.15624166261E+04  0.46999998093E+01 0. -1.
</event>
<event>
 5   0  0.3199840E-06  0.2708930E+04  0.7818609E-02  0.8332113E-01
        1   -1    0    0  501    0  0.00000000000E+00  0.00000000000E+00  0.30990213438E+04  0.30990213438E+04  0.50400001928E-02 0. -1.
       -1   -1    0    0    0  501  0.00000000000E+00  0.00000000000E+00 -0.59198556550E+03  0.59198556553E+03  0.50400001928E-02 0.  1.
    10030    2    1    2    0    0  0.00000000000E+00  0.00000000000E+00  0.25070357782E+04  0.36910069093E+04  0.27089303444E+04 0.  0.
        1    1    3    3  502    0  0.62756879608E+03 -0.11566937039E+04  0.16903642853E+04  0.21422218222E+04  0.50400001928E-02 0.  1.
       -1    1    3    3    0  502 -0.62756879608E+03  0.11566937039E+04  0.81667149292E+03  0.15487850870E+04  0.50400001928E-02 0. -1.
</event>
<event>
 5   0  0.3013407E-06  0.2699723E+04  0.7818609E-02  0.8335095E-01
       -1   -1    0    0    0  501  0.00000000000E+00  0.00000000000E+00  0.13250939078E+04  0.13250939078E+04  0.50400001928E-02 0.  1.
        1   -1    0    0  501    0  0.00000000000E+00  0.00000000000E+00 -0.13750917483E+04  0.13750917483E+04  0.50400001928E-02 0. -1.
    10030    2    1    2    0    0  0.00000000000E+00  0.00000000000E+00 -0.49997840482E+02  0.27001856561E+04  0.26997227252E+04 0.  0.
        4    1    3    3  502    0  0.75971358940E+03 -0.35039608948E+03 -0.10845114543E+04  0.13697112341E+04  0.12699999809E+01 0. -1.
       -4    1    3    3    0  502 -0.75971358940E+03  0.35039608948E+03  0.10345136138E+04  0.13304744220E+04  0.12699999809E+01 0.  1.
</event>
<event>
 5   0  0.7838364E-06  0.2699591E+04  0.7818609E-02  0.8335138E-01
        2   -1    0    0  501    0  0.00000000000E+00  0.00000000000E+00  0.15626706838E+04  0.15626706838E+04  0.25500000920E-02 0. -1.
       -2   -1    0    0    0  501  0.00000000000E+00  0.00000000000E+00 -0.11659196657E+04  0.11659196657E+04  0.25500000920E-02 0.  1.
    10030    2    1    2    0    0  0.00000000000E+00  0.00000000000E+00  0.39675101813E+03  0.27285903496E+04  0.26995914367E+04 0.  0.
        2    1    3    3  502    0 -0.38228979664E-01 -0.67056642503E+03 -0.98565559597E+03  0.11921309851E+04  0.25500000920E-02 0.  1.
       -2    1    3    3    0  502  0.38228979664E-01  0.67056642503E+03  0.13824066141E+04  0.15364593644E+04  0.25500000920E-02 0. -1.
</event>
<event>
 5   0  0.8407622E-06  0.2712761E+04  0.7818609E-02  0.8330876E-01
        2   -1    0    0  501    0  0.00000000000E+00  0.00000000000E+00  0.16888302835E+04  0.16888302835E+04  0.25500000920E-02 0.  1.
       -2   -1    0    0    0  501  0.00000000000E+00  0.00000000000E+00 -0.10893737647E+04  0.10893737647E+04  0.25500000920E-02 0. -1.
    10030    2    1    2    0    0  0.00000000000E+00  0.00000000000E+00  0.59945651882E+03  0.27782040482E+04  0.27127605157E+04 0.  0.
        1    1    3    3  502    0  0.87412766754E+03  0.59047146715E+02 -0.76071362083E+03  0.11602891698E+04  0.50400001928E-02 0. -1.
       -1    1    3    3    0  502 -0.87412766754E+03 -0.59047146715E+02  0.13601701397E+04  0.16179148783E+04  0.50400001928E-02 0.  1.
</event>
<event>
 5   0  0.8407622E-06  0.2722167E+04  0.7818609E-02  0.8327848E-01
        2   -1    0    0  501    0  0.00000000000E+00  0.00000000000E+00  0.17253341130E+04  0.17253341130E+04  0.25500000920E-02 0.  1.
       -2   -1    0    0    0  501  0.00000000000E+00  0.00000000000E+00 -0.10737327581E+04  0.10737327581E+04  0.25500000920E-02 0. -1.
    10030    2    1    2    0    0  0.00000000000E+00  0.00000000000E+00  0.65160135485E+03  0.27990668711E+04  0.27221666046E+04 0.  0.
        1    1    3    3  502    0  0.13162313187E+03  0.14090009776E+03  0.17112198123E+04  0.17220484118E+04  0.50400001928E-02 0.  1.
       -1    1    3    3    0  502 -0.13162313187E+03 -0.14090009776E+03 -0.10596184575E+04  0.10770184594E+04  0.50400001928E-02 0. -1.
</event>
<event>
 5   0  0.3046300E-06  0.2701467E+04  0.7818609E-02  0.8334529E-01
       -1   -1    0    0    0  501  0.00000000000E+00  0.00000000000E+00  0.29200821522E+04  0.29200821522E+04  0.50400001928E-02 0. -1.
        1   -1    0    0  501    0  0.00000000000E+00  0.00000000000E+00 -0.62480488544E+03  0.62480488546E+03  0.50400001928E-02 0.  1.
    10030    2    1    2    0    0  0.00000000000E+00  0.00000000000E+00  0.22952772667E+04  0.35448870376E+04  0.27014674491E+04 0.  0.
        2    1    3    3  502    0 -0.88909716143E+03  0.87245759455E+03  0.18330152516E+04  0.22162177081E+04  0.25500000920E-02 0. -1.
       -2    1    3    3    0  502  0.88909716143E+03 -0.87245759455E+03  0.46226201510E+03  0.13286693296E+04  0.25500000920E-02 0.  1.
</event>
<event>
 5   0  0.7812908E-06  0.2718352E+04  0.7818609E-02  0.8329075E-01
       -2   -1    0    0    0  501  0.00000000000E+00  0.00000000000E+00  0.12543636028E+04  0.12543636028E+04  0.25500000920E-02 0.  1.
        2   -1    0    0  501    0  0.00000000000E+00  0.00000000000E+00 -0.14727463977E+04  0.14727463977E+04  0.25500000920E-02 0. -1.
    10030    2    1    2    0    0  0.00000000000E+00  0.00000000000E+00 -0.21838279492E+03  0.27271100005E+04  0.27183520577E+04 0.  0.
        5    1    3    3  502    0  0.60765278588E+03  0.57391024630E+02  0.11091353414E+04  0.12659932597E+04  0.46999998093E+01 0.  1.
       -5    1    3    3    0  502 -0.60765278588E+03 -0.57391024630E+02 -0.13275181364E+04  0.14611167408E+04  0.46999998093E+01 0. -1.
</event>
<event>
 5   0  0.3013407E-06  0.2741419E+04  0.7818609E-02  0.8321690E-01
        1   -1    0    0  501    0  0.00000000000E+00  0.00000000000E+00  0.19337240234E+04  0.19337240234E+04  0.50400001928E-02 0.  1.
       -1   -1    0    0    0  501  0.00000000000E+00  0.00000000000E+00 -0.97161991378E+03  0.97161991379E+03  0.50400001928E-02 0. -1.
    10030    2    1    2    0    0  0.00000000000E+00  0.00000000000E+00  0.96210410959E+03  0.29053439372E+04  0.27414191718E+04 0.  0.
        4    1    3    3  502    0  0.42269556505E+03  0.99145851892E+03  0.13785566522E+04  0.17498804507E+04  0.12699999809E+01 0.  1.
       -4    1    3    3    0  502 -0.42269556505E+03 -0.99145851892E+03 -0.41645254262E+03  0.11554634865E+04  0.12699999809E+01 0. -1.
</event>
<event>
 5   0  0.3199840E-06  0.2687435E+04  0.7818609E-02  0.8339093E-01
        1   -1    0    0  501    0  0.00000000000E+00  0.00000000000E+00  0.12380244179E+04  0.12380244180E+04  0.50400001928E-02 0.  1.
       -1   -1    0    0    0  501  0.00000000000E+00  0.00000000000E+00 -0.14584341351E+04  0.14584341351E+04  0.50400001928E-02 0. -1.
    10030    2    1    2    0    0  0.00000000000E+00  0.00000000000E+00 -0.22040971715E+03  0.26964585531E+04  0.26874352615E+04 0.  0.
        1    1    3    3  502    0 -0.52705196866E+03  0.45917349805E+03  0.10412339810E+04  0.12541101555E+04  0.50400001928E-02 0.  1.
       -1    1    3    3    0  502  0.52705196866E+03 -0.45917349805E+03 -0.12616436981E+04  0.14423483976E+04  0.50400001928E-02 0. -1.
</event>
<event>
 5   0  0.3199840E-06  0.2690296E+04  0.7818609E-02  0.8338160E-01
        1   -1    0    0  501    0  0.00000000000E+00  0.00000000000E+00  0.18845961049E+04  0.18845961049E+04  0.50400001928E-02 0.  1.
       -1   -1    0    0    0  501  0.00000000000E+00  0.00000000000E+00 -0.96011196090E+03  0.96011196091E+03  0.50400001928E-02 0. -1.
    10030    2    1    2    0    0  0.00000000000E+00  0.00000000000E+00  0.92448414396E+03  0.28447080658E+04  0.26902960891E+04 0.  0.
        1    1    3    3  502    0 -0.67355031893E+03  0.13990638981E+03  0.16845201285E+04  0.18195746463E+04  0.50400001928E-02 0.  1.
       -1    1    3    3    0  502  0.67355031893E+03 -0.13990638981E+03 -0.76003598451E+03  0.10251334195E+04  0.50400001928E-02 0. -1.
</event>
<event>
 5   0  0.3046300E-06  0.2709923E+04  0.7818609E-02  0.8331792E-01
        1   -1    0    0  501    0  0.00000000000E+00  0.00000000000E+00  0.12438686537E+04  0.12438686537E+04  0.50400001928E-02 0. -1.
       -1   -1    0    0    0  501  0.00000000000E+00  0.00000000000E+00 -0.14759765115E+04  0.14759765115E+04  0.50400001928E-02 0.  1.
    10030    2    1    2    0    0  0.00000000000E+00  0.00000000000E+00 -0.23210785786E+03  0.27198451652E+04  0.27099231844E+04 0.  0.
        2    1    3    3  502    0  0.28431937581E+03  0.13247279810E+04 -0.10261891368E+03  0.13587760568E+04  0.25500000920E-02 0.  1.
       -2    1    3    3    0  502 -0.28431937581E+03 -0.13247279810E+04 -0.12948894418E+03  0.13610691084E+04  0.25500000920E-02 0. -1.
</event>
<event>
 5   0  0.3028601E-06  0.2739164E+04  0.7818609E-02  0.8322408E-01
        1   -1    0    0  501    0  0.00000000000E+00  0.00000000000E+00  0.17139296744E+04  0.17139296744E+04  0.50400001928E-02 0. -1.
       -1   -1    0    0    0  501  0.00000000000E+00  0.00000000000E+00 -0.10944178205E+04  0.10944178205E+04  0.50400001928E-02 0.  1.
    10030    2    1    2    0    0  0.00000000000E+00  0.00000000000E+00  0.61951185387E+03  0.28083474949E+04  0.27391642366E+04 0.  0.
        3    1    3    3  502    0  0.96528748827E+03 -0.27337976789E+03 -0.64612172459E+03  0.11933104063E+04  0.10100000352E+00 0.  1.
       -3    1    3    3    0  502 -0.96528748827E+03  0.27337976789E+03  0.12656335785E+04  0.16150370886E+04  0.10100000352E+00 0. -1.
</event>
<event>
 5   0  0.8213334E-06  0.2703271E+04  0.7818609E-02  0.8333945E-01
        2   -1    0    0  501    0  0.00000000000E+00  0.00000000000E+00  0.19691737394E+04  0.19691737394E+04  0.25500000920E-02 0.  1.
       -2   -1    0    0    0  501  0.00000000000E+00  0.00000000000E+00 -0.92775870156E+03  0.92775870157E+03  0.25500000920E-02 0. -1.
    10030    2    1    2    0    0  0.00000000000E+00  0.00000000000E+00  0.10414150379E+04  0.28969324410E+04  0.27032706647E+04 0.  0.
        3    1    3    3  502    0  0.11266440780E+04 -0.66928176477E+02 -0.27628693337E+03  0.11619555667E+04  0.10100000352E+00 0. -1.
       -3    1    3    3    0  502 -0.11266440780E+04  0.66928176477E+02  0.13177019712E+04  0.17349768743E+04  0.10100000352E+00 0.  1.
</event>
<event>
 5   0  0.3028601E-06  0.2714845E+04  0.7818609E-02  0.8330204E-01
        1   -1    0    0  501    0  0.00000000000E+00  0.00000000000E+00  0.15240301405E+04  0.15240301405E+04  0.50400001928E-02 0. -1.
       -1   -1    0    0    0  501  0.00000000000E+00  0.00000000000E+00 -0.12090289152E+04  0.12090289152E+04  0.50400001928E-02 0.  1.
    10030    2    1    2    0    0  0.00000000000E+00  0.00000000000E+00  0.31500122532E+03  0.27330590557E+04  0.27148454891E+04 0.  0.
        3    1    3    3  502    0  0.12780124839E+04  0.23451394420E+03  0.55292555470E+03  0.14121045918E+04  0.10100000352E+00 0.  1.
       -3    1    3    3    0  502 -0.12780124839E+04 -0.23451394420E+03 -0.23792432938E+03  0.13209544639E+04  0.10100000352E+00 0. -1.
</event>
<event>
 5   0  0.7729970E-06  0.2719186E+04  0.7818609E-02  0.8328807E-01
       -2   -1    0    0    0  501  0.00000000000E+00  0.00000000000E+00  0.93446216902E+03  0.93446216902E+03  0.25500000920E-02 0. -1.
        2   -1    0    0  501    0  0.00000000000E+00  0.00000000000E+00 -0.19781352061E+04  0.19781352061E+04  0.25500000920E-02 0.  1.
    10030    2    1    2    0    0  0.00000000000E+00  0.00000000000E+00 -0.10436730370E+04  0.29125973751E+04  0.27191855511E+04 0.  0.
        4    1    3    3  502    0  0.88419719770E+03 -0.43182436890E+03 -0.15267663283E+04  0.18163958831E+04  0.12699999809E+01 0.  1.
       -4    1    3    3    0  502 -0.88419719770E+03  0.43182436890E+03  0.48309329129E+03  0.10962014920E+04  0.12699999809E+01 0. -1.
</event>
<event>
 5   0  0.8213334E-06  0.2540582E+04  0.7818609E-02  0.8388669E-01
        2   -1    0    0  501    0  0.00000000000E+00  0.00000000000E+00  0.20242155537E+04  0.20242155537E+04  0.25500000920E-02 0.  1.
       -2   -1    0    0    0  501  0.00000000000E+00  0.00000000000E+00 -0.79716754544E+03  0.79716754545E+03  0.25500000920E-02 0. -1.
    10030    2    1    2    0    0  0.00000000000E+00  0.00000000000E+00  0.12270480083E+04  0.28213830992E+04  0.25405817794E+04 0.  0.
        3    1    3    3  502    0 -0.11333858951E+04  0.22363836835E+03  0.12001734047E+04  0.16658312995E+04  0.10100000352E+00 0.  1.
       -3    1    3    3    0  502  0.11333858951E+04 -0.22363836835E+03  0.26874603593E+02  0.11555517996E+04  0.10100000352E+00 0. -1.
</event>
<event>
 5   0  0.7838364E-06  0.2699053E+04  0.7818609E-02  0.8335312E-01
       -2   -1    0    0    0  501  0.00000000000E+00  0.00000000000E+00  0.19351012799E+04  0.19351012799E+04  0.25500000920E-02 0. -1.
        2   -1    0    0  501    0  0.00000000000E+00  0.00000000000E+00 -0.94115067817E+03  0.94115067818E+03  0.25500000920E-02 0.  1.
    10030    2    1    2    0    0  0.00000000000E+00  0.00000000000E+00  0.99395060172E+03  0.28762519581E+04  0.26990530798E+04 0.  0.
        2    1    3    3  502    0 -0.10729863242E+04  0.78376891513E+03  0.74831682550E+03  0.15249824378E+04  0.25500000920E-02 0.  1.
       -2    1    3    3    0  502  0.10729863242E+04 -0.78376891513E+03  0.24563377622E+03  0.13512695203E+04  0.25500000920E-02 0. -1.
</event>
<event>
 5   0  0.3089218E-06  0.2699299E+04  0.7818609E-02  0.8335232E-01
       -1   -1    0    0    0  501  0.00000000000E+00  0.00000000000E+00  0.81453645207E+03  0.81453645209E+03  0.50400001928E-02 0.  1.
        1   -1    0    0  501    0  0.00000000000E+00  0.00000000000E+00 -0.22363075412E+04  0.22363075412E+04  0.50400001928E-02 0. -1.
    10030    2    1    2    0    0  0.00000000000E+00  0.00000000000E+00 -0.14217710891E+04  0.30508439933E+04  0.26992991760E+04 0.  0.
        5    1    3    3  502    0  0.29902802082E+03 -0.41498133132E+02 -0.21976468035E+04  0.22182906517E+04  0.46999998093E+01 0. -1.
       -5    1    3    3    0  502 -0.29902802082E+03  0.41498133132E+02  0.77587571444E+03  0.83255334156E+03  0.46999998093E+01 0.  1.
</event>
<event>
 5   0  0.3199840E-06  0.2678795E+04  0.7818609E-02  0.8341918E-01
        1   -1    0    0  501    0  0.00000000000E+00  0.00000000000E+00  0.19423658359E+04  0.19423658359E+04  0.50400001928E-02 0.  1.
       -1   -1    0    0    0  501  0.00000000000E+00  0.00000000000E+00 -0.92360850477E+03  0.92360850479E+03  0.50400001928E-02 0. -1.
    10030    2    1    2    0    0  0.00000000000E+00  0.00000000000E+00  0.10187573311E+04  0.28659743407E+04  0.26787949570E+04 0.  0.
        1    1    3    3  502    0  0.90231568163E+03  0.50108531011E+03 -0.40392419295E+03  0.11083387709E+04  0.50400001928E-02 0. -1.
       -1    1    3    3    0  502 -0.90231568163E+03 -0.50108531011E+03  0.14226815240E+04  0.17576355698E+04  0.50400001928E-02 0.  1.
</event>
<event>
 5   0  0.7729970E-06  0.2670812E+04  0.7818609E-02  0.8344538E-01
       -2   -1    0    0    0  501  0.00000000000E+00  0.00000000000E+00  0.10610991387E+04  0.10610991387E+04  0.25500000920E-02 0. -1.
        2   -1    0    0  501    0  0.00000000000E+00  0.00000000000E+00 -0.16806249638E+04  0.16806249638E+04  0.25500000920E-02 0.  1.
    10030    2    1    2    0    0  0.00000000000E+00  0.00000000000E+00 -0.61952582513E+03  0.27417241025E+04  0.26708123869E+04 0.  0.
        4    1    3    3  502    0 -0.74454124310E+03 -0.10541411279E+04  0.42499406315E+02  0.12912641065E+04  0.12699999809E+01 0.  1.
       -4    1    3    3    0  502  0.74454124310E+03  0.10541411279E+04 -0.66202523144E+03  0.14504599961E+04  0.12699999809E+01 0. -1.
</event>
<event>
 5   0  0.7729970E-06  0.2680181E+04  0.7818609E-02  0.8341464E-01
        2   -1    0    0  501    0  0.00000000000E+00  0.00000000000E+00  0.16206152747E+04  0.16206152747E+04  0.25500000920E-02 0. -1.
       -2   -1    0    0    0  501  0.00000000000E+00  0.00000000000E+00 -0.11081242305E+04  0.11081242305E+04  0.25500000920E-02 0.  1.
    10030    2    1    2    0    0  0.00000000000E+00  0.00000000000E+00  0.51249104425E+03  0.27287395052E+04  0.26801813776E+04 0.  0.
        4    1    3    3  502    0  0.68599004175E+03 -0.90021241060E+03  0.98679480855E+03  0.15015759483E+04  0.12699999809E+01 0. -1.
       -4    1    3    3    0  502 -0.68599004175E+03  0.90021241060E+03 -0.47430376430E+03  0.12271635569E+04  0.12699999809E+01 0.  1.
</event>
<event>
 5   0  0.7812908E-06  0.2731941E+04  0.7818609E-02  0.8324715E-01
       -2   -1    0    0    0  501  0.00000000000E+00  0.00000000000E+00  0.10319272392E+04  0.10319272392E+04  0.25500000920E-02 0. -1.
        2   -1    0    0  501    0  0.00000000000E+00  0.00000000000E+00 -0.18081459397E+04  0.18081459397E+04  0.25500000920E-02 0.  1.
    10030    2    1    2    0    0  0.00000000000E+00  0.00000000000E+00 -0.77621870047E+03  0.28400731789E+04  0.27319407370E+04 0.  0.
        5    1    3    3  502    0  0.11209516880E+04 -0.61059862015E+02 -0.11971089526E+04  0.16411437865E+04  0.46999998093E+01 0.  1.
       -5    1    3    3    0  502 -0.11209516880E+04  0.61059862015E+02  0.42089025211E+03  0.11989293924E+04  0.46999998093E+01 0. -1.
</event>
<event>
 5   0  0.8213334E-06  0.2704388E+04  0.7818609E-02  0.8333583E-01
       -2   -1    0    0    0  501  0.00000000000E+00  0.00000000000E+00  0.17762849781E+04  0.17762849781E+04  0.25500000920E-02 0.  1.
        2   -1    0    0  501    0  0.00000000000E+00  0.00000000000E+00 -0.10293555648E+04  0.10293555648E+04  0.25500000920E-02 0. -1.
    10030    2    1    2    0    0  0.00000000000E+00  0.00000000000E+00  0.74692941329E+03  0.28056405429E+04  0.27043881577E+04 0.  0.
        3    1    3    3  502    0 -0.97841848884E+03 -0.28366147118E+03 -0.54901857562E+03  0.11572328962E+04  0.10100000352E+00 0. -1.
       -3    1    3    3    0  502  0.97841848884E+03  0.28366147118E+03  0.12959479889E+04  0.16484076467E+04  0.10100000352E+00 0.  1.
</event>
<event>
 5   0  0.7729970E-06  0.2700701E+04  0.7818609E-02  0.8334777E-01
       -2   -1    0    0    0  501  0.00000000000E+00  0.00000000000E+00  0.14482997940E+04  0.14482997940E+04  0.25500000920E-02 0.  1.
        2   -1    0    0  501    0  0.00000000000E+00  0.00000000000E+00 -0.12590259523E+04  0.12590259523E+04  0.25500000920E-02 0. -1.
    10030    2    1    2    0    0  0.00000000000E+00  0.00000000000E+00  0.18927384170E+03  0.27073257462E+04  0.27007014106E+04 0.  0.
        4    1    3    3  502    0 -0.81250372352E+03  0.97305478046E+03 -0.37174342159E+03  0.13210574139E+04  0.12699999809E+01 0.  1.
       -4    1    3    3    0  502  0.81250372352E+03 -0.97305478046E+03  0.56101726329E+03  0.13862683323E+04  0.12699999809E+01 0. -1.
</event>
<event>
 5   0  0.3089218E-06  0.2725962E+04  0.7818609E-02  0.8326630E-01
        1   -1    0    0  501    0  0.00000000000E+00  0.00000000000E+00  0.12872545361E+04  0.12872545361E+04  0.50400001928E-02 0. -1.
       -1   -1    0    0    0  501  0.00000000000E+00  0.00000000000E+00 -0.14431620616E+04  0.14431620616E+04  0.50400001928E-02 0.  1.
    10030    2    1    2    0    0  0.00000000000E+00  0.00000000000E+00 -0.15590752552E+03  0.27304165976E+04  0.27259617826E+04 0.  0.
        5    1    3    3  502    0 -0.11359744909E+04 -0.27132800505E+03  0.62578811588E+03  0.13250244474E+04  0.46999998093E+01 0. -1.
       -5    1    3    3    0  502  0.11359744909E+04  0.27132800505E+03 -0.78169564140E+03  0.14053921503E+04  0.46999998093E+01 0.  1.
</event>
<event>
 5   0  0.3046300E-06  0.2734615E+04  0.7818609E-02  0.8323860E-01
       -1   -1    0    0    0  501  0.00000000000E+00  0.00000000000E+00  0.10892926746E+04  0.10892926746E+04  0.50400001928E-02 0.  1.
        1   -1    0    0  501    0  0.00000000000E+00  0.00000000000E+00 -0.17162787923E+04  0.17162787923E+04  0.50400001928E-02 0. -1.
    10030    2    1    2    0    0  0.00000000000E+00  0.00000000000E+00 -0.62698611768E+03  0.28055714669E+04  0.27346150852E+04 0.  0.
        2    1    3    3  502    0  0.25364959754E+03  0.23566774299E+02 -0.16917176287E+04  0.17107898897E+04  0.25500000920E-02 0. -1.
       -2    1    3    3    0  502 -0.25364959754E+03 -0.23566774299E+02  0.10647315111E+04  0.10947815772E+04  0.25500000920E-02 0.  1.
</event>
<event>
 5   0  0.7729970E-06  0.2684441E+04  0.7818609E-02  0.8340071E-01
       -2   -1    0    0    0  501  0.00000000000E+00  0.00000000000E+00  0.72050522225E+03  0.72050522226E+03  0.25500000920E-02 0.  1.
        2   -1    0    0  501    0  0.00000000000E+00  0.00000000000E+00 -0.25004063439E+04  0.25004063439E+04  0.25500000920E-02 0. -1.
    10030    2    1    2    0    0  0.00000000000E+00  0.00000000000E+00 -0.17799011217E+04  0.32209115662E+04  0.26844409687E+04 0.  0.
        4    1    3    3  502    0 -0.10089675773E+04  0.88214547286E+03 -0.80212384700E+03  0.15619220487E+04  0.12699999809E+01 0.  1.
       -4    1    3    3    0  502  0.10089675773E+04 -0.88214547286E+03 -0.97777727468E+03  0.16589895175E+04  0.12699999809E+01 0. -1.
</event>
<event>
 5   0  0.8213334E-06  0.2737023E+04  0.7818609E-02  0.8323091E-01
        2   -1    0    0  501    0  0.00000000000E+00  0.00000000000E+00  0.10121160781E+04  0.10121160781E+04  0.25500000920E-02 0.  1.
       -2   -1    0    0    0  501  0.00000000000E+00  0.00000000000E+00 -0.18504046243E+04  0.18504046243E+04  0.25500000920E-02 0. -1.
    10030    2    1    2    0    0  0.00000000000E+00  0.00000000000E+00 -0.83828854613E+03  0.28625207024E+04  0.27370233987E+04 0.  0.
        3    1    3    3  502    0 -0.84321596580E+03 -0.50161057200E+03 -0.14169317477E+04  0.17234621895E+04  0.10100000352E+00 0. -1.
       -3    1    3    3    0  502  0.84321596580E+03  0.50161057200E+03  0.57864320155E+03  0.11390585129E+04  0.10100000352E+00 0.  1.
</event>
<event>
 5   0  0.2654625E-06  0.2718911E+04  0.7818609E-02  0.8328895E-01
        3   -1    0    0  501    0  0.00000000000E+00  0.00000000000E+00  0.13101305194E+04  0.13101305233E+04  0.10100000352E+00 0.  1.
       -3   -1    0    0    0  501  0.00000000000E+00  0.00000000000E+00 -0.14106370194E+04  0.14106370231E+04  0.10100000352E+00 0. -1.
    10030    2    1    2    0    0  0.00000000000E+00  0.00000000000E+00 -0.10050650003E+03  0.27207675464E+04  0.27189105327E+04 0.  0.
        3    1    3    3  502    0 -0.43364665901E+03  0.40208667848E+03 -0.12751789596E+04  0.14056331353E+04  0.10100000352E+00 0. -1.
       -3    1    3    3    0  502  0.43364665901E+03 -0.40208667848E+03  0.11746724595E+04  0.13151344111E+04  0.10100000352E+00 0.  1.
</event>
<event>
 5   0  0.7838364E-06  0.2696207E+04  0.7818609E-02  0.8336237E-01
       -2   -1    0    0    0  501  0.00000000000E+00  0.00000000000E+00  0.25522462131E+04  0.25522462131E+04  0.25500000920E-02 0.  1.
        2   -1    0    0  501    0  0.00000000000E+00  0.00000000000E+00 -0.71207224853E+03  0.71207224853E+03  0.25500000920E-02 0. -1.
    10030    2    1    2    0    0  0.00000000000E+00  0.00000000000E+00  0.18401739646E+04  0.32643184617E+04  0.26962074844E+04 0.  0.
        2    1    3    3  502    0 -0.56919824611E+03  0.68532006762E+03  0.21450773129E+04  0.23227154188E+04  0.25500000920E-02 0.  1.
       -2    1    3    3    0  502  0.56919824611E+03 -0.68532006762E+03 -0.30490334832E+03  0.94160304283E+03  0.25500000920E-02 0. -1.
</event>
<event>
 5   0  0.7729970E-06  0.2680496E+04  0.7818609E-02  0.8341361E-01
        2   -1    0    0  501    0  0.00000000000E+00  0.00000000000E+00  0.22946749628E+04  0.22946749628E+04  0.25500000920E-02 0.  1.
       -2   -1    0    0    0  501  0.00000000000E+00  0.00000000000E+00 -0.78279710019E+03  0.78279710020E+03  0.25500000920E-02 0. -1.
    10030    2    1    2    0    0  0.00000000000E+00  0.00000000000E+00  0.15118778627E+04  0.30774720630E+04  0.26804961532E+04 0.  0.
        4    1    3    3  502    0 -0.15531770144E+03  0.16229321439E+03  0.22729063471E+04  0.22839806372E+04  0.12699999809E+01 0.  1.
       -4    1    3    3    0  502  0.15531770144E+03 -0.16229321439E+03 -0.76102848442E+03  0.79349142580E+03  0.12699999809E+01 0. -1.
</event>
<event>
 5   0  0.3199840E-06  0.2695659E+04  0.7818609E-02  0.8336415E-01
       -1   -1    0    0    0  501  0.00000000000E+00  0.00000000000E+00  0.13323880396E+04  0.13323880396E+04  0.50400001928E-02 0.  1.
        1   -1    0    0  501    0  0.00000000000E+00  0.00000000000E+00 -0.13634503383E+04  0.13634503383E+04  0.50400001928E-02 0. -1.
    10030    2    1    2    0    0  0.00000000000E+00  0.00000000000E+00 -0.31062298620E+02  0.26958383779E+04  0.26956594172E+04 0.  0.
        1    1    3    3  502    0  0.92959135674E+03 -0.76594679286E+01 -0.99152942414E+03  0.13591649484E+04  0.50400001928E-02 0. -1.
       -1    1    3    3    0  502 -0.92959135674E+03  0.76594679286E+01  0.96046712552E+03  0.13366734295E+04  0.50400001928E-02 0.  1.
</event>
<event>
 5   0  0.7838364E-06  0.2707587E+04  0.7818609E-02  0.8332547E-01
        2   -1    0    0  501    0  0.00000000000E+00  0.00000000000E+00  0.13589503171E+04  0.13589503172E+04  0.25500000920E-02 0. -1.
       -2   -1    0    0    0  501  0.00000000000E+00  0.00000000000E+00 -0.13486566277E+04  0.13486566277E+04  0.25500000920E-02 0.  1.
    10030    2    1    2    0    0  0.00000000000E+00  0.00000000000E+00  0.10293689461E+02  0.27076069448E+04  0.27075873777E+04 0.  0.
        2    1    3    3  502    0  0.10395290705E+04 -0.75750186954E+03 -0.41714471157E+03  0.13521980185E+04  0.25500000920E-02 0. -1.
       -2    1    3    3    0  502 -0.10395290705E+04  0.75750186954E+03  0.42743840103E+03  0.13554089263E+04  0.25500000920E-02 0.  1.
</event>
<event>
 5   0  0.3089218E-06  0.2718429E+04  0.7818609E-02  0.8329050E-01
       -1   -1    0    0    0  501  0.00000000000E+00  0.00000000000E+00  0.98887784396E+03  0.98887784398E+03  0.50400001928E-02 0. -1.
        1   -1    0    0  501    0  0.00000000000E+00  0.00000000000E+00 -0.18682430975E+04  0.18682430975E+04  0.50400001928E-02 0.  1.
    10030    2    1    2    0    0  0.00000000000E+00  0.00000000000E+00 -0.87936525351E+03  0.28571209415E+04  0.27184291098E+04 0.  0.
        5    1    3    3  502    0 -0.61668177368E+03 -0.46213975274E+03  0.73707047032E+03  0.10663791677E+04  0.46999998093E+01 0. -1.
       -5    1    3    3    0  502  0.61668177368E+03  0.46213975274E+03 -0.16164357238E+04  0.17907417738E+04  0.46999998093E+01 0.  1.
</event>
<event>
 5   0  0.3028601E-06  0.2686538E+04  0.7818609E-02  0.8339386E-01
       -1   -1    0    0    0  501  0.00000000000E+00  0.00000000000E+00  0.11698977086E+04  0.11698977086E+04  0.50400001928E-02 0. -1.
        1   -1    0    0  501    0  0.00000000000E+00  0.00000000000E+00 -0.15423328279E+04  0.15423328279E+04  0.50400001928E-02 0.  1.
    10030    2    1    2    0    0  0.00000000000E+00  0.00000000000E+00 -0.37243511926E+03  0.27122305365E+04  0.26865380260E+04 0.  0.
        3    1    3    3  502    0 -0.19231759796E+03 -0.55675022046E+03  0.10325620834E+04  0.11887562125E+04  0.10100000352E+00 0. -1.
       -3    1    3    3    0  502  0.19231759796E+03  0.55675022046E+03 -0.14049972026E+04  0.15234743241E+04  0.10100000352E+00 0.  1.
</event>
<event>
 5   0  0.7812908E-06  0.2682524E+04  0.7818609E-02  0.8340698E-01
        2   -1    0    0  501    0  0.00000000000E+00  0.00000000000E+00  0.22231840773E+04  0.22231840773E+04  0.25500000920E-02 0. -1.
       -2   -1    0    0    0  501  0.00000000000E+00  0.00000000000E+00 -0.80919237600E+03  0.80919237601E+03  0.25500000920E-02 0.  1.
    10030    2    1    2    0    0  0.00000000000E+00  0.00000000000E+00  0.14139917013E+04  0.30323764533E+04  0.26825238905E+04 0.  0.
        5    1    3    3  502    0  0.41319666196E+03  0.10681077141E+04 -0.82175957566E+02  0.11481988279E+04  0.46999998093E+01 0.  1.
       -5    1    3    3    0  502 -0.41319666196E+03 -0.10681077141E+04  0.14961676588E+04  0.18841776253E+04  0.46999998093E+01 0. -1.
</event>
<event>
 5   0  0.3089218E-06  0.2724226E+04  0.7818609E-02  0.8327187E-01
       -1   -1    0    0    0  501  0.00000000000E+00  0.00000000000E+00  0.95902589311E+03  0.95902589313E+03  0.50400001928E-02 0.  1.
        1   -1    0    0  501    0  0.00000000000E+00  0.00000000000E+00 -0.19346210675E+04  0.19346210675E+04  0.50400001928E-02 0. -1.
    10030    2    1    2    0    0  0.00000000000E+00  0.00000000000E+00 -0.97559517440E+03  0.28936469606E+04  0.27242259063E+04 0.  0.
        5    1    3    3  502    0  0.12863451999E+03  0.45715909458E+03 -0.18438236201E+04  0.19040086422E+04  0.46999998093E+01 0. -1.
       -5    1    3    3    0  502 -0.12863451999E+03 -0.45715909458E+03  0.86822844569E+03  0.98963831847E+03  0.46999998093E+01 0.  1.
</event>
<event>
 5   0  0.8213334E-06  0.2696665E+04  0.7818609E-02  0.8336088E-01
        2   -1    0    0  501    0  0.00000000000E+00  0.00000000000E+00  0.13952731308E+04  0.13952731308E+04  0.25500000920E-02 0. -1.
       -2   -1    0    0    0  501  0.00000000000E+00  0.00000000000E+00 -0.13029712513E+04  0.13029712513E+04  0.25500000920E-02 0.  1.
    10030    2    1    2    0    0  0.00000000000E+00  0.00000000000E+00  0.92301879446E+02  0.26982443821E+04  0.26966651829E+04 0.  0.
        3    1    3    3  502    0  0.10098930872E+04  0.69568977513E+03  0.60695436625E+03  0.13683062244E+04  0.10100000352E+00 0. -1.
       -3    1    3    3    0  502 -0.10098930872E+04 -0.69568977513E+03 -0.51465248681E+03  0.13299381577E+04  0.10100000352E+00 0.  1.
</event>
<event>
 5   0  0.3199840E-06  0.2695612E+04  0.7818609E-02  0.8336430E-01
        1   -1    0    0  501    0  0.00000000000E+00  0.00000000000E+00  0.19721064413E+04  0.19721064414E+04  0.50400001928E-02 0.  1.
       -1   -1    0    0    0  501  0.00000000000E+00  0.00000000000E+00 -0.92113731533E+03  0.92113731534E+03  0.50400001928E-02 0. -1.
    10030    2    1    2    0    0  0.00000000000E+00  0.00000000000E+00  0.10509691260E+04  0.28932437567E+04  0.26956118659E+04 0.  0.
        1    1    3    3  502    0 -0.12673761380E+04 -0.21807737355E+02  0.33789799251E+02  0.12680140390E+04  0.50400001928E-02 0. -1.
       -1    1    3    3    0  502  0.12673761380E+04  0.21807737355E+02  0.10171793268E+04  0.16252297177E+04  0.50400001928E-02 0.  1.
</event>
<event>
 5   0  0.3089218E-06  0.2726662E+04  0.7818609E-02  0.8326406E-01
       -1   -1    0    0    0  501  0.00000000000E+00  0.00000000000E+00  0.79726491677E+03  0.79726491679E+03  0.50400001928E-02 0.  1.
        1   -1    0    0  501    0  0.00000000000E+00  0.00000000000E+00 -0.23313096846E+04  0.23313096846E+04  0.50400001928E-02 0. -1.
    10030    2    1    2    0    0  0.00000000000E+00  0.00000000000E+00 -0.15340447678E+04  0.31285746014E+04  0.27266620045E+04 0.  0.
        5    1    3    3  502    0 -0.11972667757E+03  0.10805754823E+04 -0.17108749167E+04  0.20270897663E+04  0.46999998093E+01 0. -1.
       -5    1    3    3    0  502  0.11972667757E+03 -0.10805754823E+04  0.17683014888E+03  0.11014848350E+04  0.46999998093E+01 0.  1.
</event>
<event>
 5   0  0.8213334E-06  0.2741388E+04  0.7818609E-02  0.8321700E-01
        2   -1    0    0  501    0  0.00000000000E+00  0.00000000000E+00  0.21503753697E+04  0.21503753697E+04  0.25500000920E-02 0.  1.
       -2   -1    0    0    0  501  0.00000000000E+00  0.00000000000E+00 -0.87370857143E+03  0.87370857143E+03  0.25500000920E-02 0. -1.
    10030    2    1    2    0    0  0.00000000000E+00  0.00000000000E+00  0.12766667983E+04  0.30240839411E+04  0.27413875263E+04 0.  0.
        3    1    3    3  502    0 -0.15404032196E+03  0.63478366716E+03 -0.69097289302E+03  0.95085344506E+03  0.10100000352E+00 0. -1.
       -3    1    3    3    0  502  0.15404032196E+03 -0.63478366716E+03  0.19676396913E+04  0.20732304961E+04  0.10100000352E+00 0.  1.
</event>
<event>
 5   0  0.7812908E-06  0.2684849E+04  0.7818609E-02  0.8339938E-01
        2   -1    0    0  501    0  0.00000000000E+00  0.00000000000E+00  0.17893575836E+04  0.17893575836E+04  0.25500000920E-02 0.  1.
       -2   -1    0    0    0  501  0.00000000000E+00  0.00000000000E+00 -0.10071235725E+04  0.10071235725E+04  0.25500000920E-02 0. -1.
    10030    2    1    2    0    0  0.00000000000E+00  0.00000000000E+00  0.78223401116E+03  0.27964811561E+04  0.26848494945E+04 0.  0.
        5    1    3    3  502    0  0.45901417369E+03  0.71321809059E+03 -0.69267922426E+03  0.10950802044E+04  0.46999998093E+01 0. -1.
       -5    1    3    3    0  502 -0.45901417369E+03 -0.71321809059E+03  0.14749132354E+04  0.17014009517E+04  0.46999998093E+01 0.  1.
</event>
<event>
 5   0  0.7812908E-06  0.2715485E+04  0.7818609E-02  0.8329998E-01
       -2   -1    0    0    0  501  0.00000000000E+00  0.00000000000E+00  0.14439586183E+04  0.14439586183E+04  0.25500000920E-02 0. -1.
        2   -1    0    0  501    0  0.00000000000E+00  0.00000000000E+00 -0.12766745487E+04  0.12766745488E+04  0.25500000920E-02 0.  1.
    10030    2    1    2    0    0  0.00000000000E+00  0.00000000000E+00  0.16728406956E+03  0.27206331671E+04  0.27154853838E+04 0.  0.
        5    1    3    3  502    0 -0.37493564996E+03 -0.12805664342E+04 -0.16786371159E+03  0.13448522037E+04  0.46999998093E+01 0.  1.
       -5    1    3    3    0  502  0.37493564996E+03  0.12805664342E+04  0.33514778116E+03  0.13757809634E+04  0.46999998093E+01 0. -1.
</event>
<event>
 5   0  0.3013407E-06  0.2697467E+04  0.7818609E-02  0.8335827E-01
        1   -1    0    0  501    0  0.00000000000E+00  0.00000000000E+00  0.15872082564E+04  0.15872082564E+04  0.50400001928E-02 0. -1.
       -1   -1    0    0    0  501  0.00000000000E+00  0.00000000000E+00 -0.11460889643E+04  0.11460889643E+04  0.50400001928E-02 0.  1.
    10030    2    1    2    0    0  0.00000000000E+00  0.00000000000E+00  0.44111929207E+03  0.27332972207E+04  0.26974668612E+04 0.  0.
        4    1    3    3  502    0 -0.37425923796E+03  0.19990881881E+03 -0.10766985136E+04  0.11572876976E+04  0.12699999809E+01 0.  1.
       -4    1    3    3    0  502  0.37425923796E+03 -0.19990881881E+03  0.15178178056E+04  0.15760095231E+04  0.12699999809E+01 0. -1.
</event>
<event>
 5   0  0.2654625E-06  0.2697678E+04  0.7818609E-02  0.8335759E-01
        3   -1    0    0  501    0  0.00000000000E+00  0.00000000000E+00  0.20528531396E+04  0.20528531421E+04  0.10100000352E+00 0.  1.
       -3   -1    0    0    0  501  0.00000000000E+00  0.00000000000E+00 -0.88626252065E+03  0.88626252640E+03  0.10100000352E+00 0. -1.
    10030    2    1    2    0    0  0.00000000000E+00  0.00000000000E+00  0.11665906190E+04  0.29391156685E+04  0.26976781203E+04 0.  0.
        4    1    3    3  502    0  0.12397837913E+04 -0.29475391224E+02  0.53141114825E+01  0.12401461610E+04  0.12699999809E+01 0.  1.
       -4    1    3    3    0  502 -0.12397837913E+04  0.29475391224E+02  0.11612765075E+04  0.16989695076E+04  0.12699999809E+01 0. -1.
</event>
<event>
 5   0  0.3013407E-06  0.2657254E+04  0.7818609E-02  0.8349009E-01
        1   -1    0    0  501    0  0.00000000000E+00  0.00000000000E+00  0.14608823959E+04  0.14608823960E+04  0.50400001928E-02 0.  1.
       -1   -1    0    0    0  501  0.00000000000E+00  0.00000000000E+00 -0.12083449409E+04  0.12083449410E+04  0.50400001928E-02 0. -1.
    10030    2    1    2    0    0  0.00000000000E+00  0.00000000000E+00  0.25253745500E+03  0.26692273369E+04  0.26572541109E+04 0.  0.
        4    1    3    3  502    0  0.82391643073E+02  0.45306243745E+03  0.13781564156E+04  0.14530556334E+04  0.12699999809E+01 0.  1.
       -4    1    3    3    0  502 -0.82391643073E+02 -0.45306243745E+03 -0.11256189606E+04  0.12161717035E+04  0.12699999809E+01 0. -1.
</event>
<event>
 5   0  0.3028601E-06  0.2708377E+04  0.7818609E-02  0.8332292E-01
       -1   -1    0    0    0  501  0.00000000000E+00  0.00000000000E+00  0.91493269392E+03  0.91493269393E+03  0.50400001928E-02 0. -1.
        1   -1    0    0  501    0  0.00000000000E+00  0.00000000000E+00 -0.20043289115E+04  0.20043289115E+04  0.50400001928E-02 0.  1.
    10030    2    1    2    0    0  0.00000000000E+00  0.00000000000E+00 -0.10893962176E+04  0.29192616055E+04  0.27083766729E+04 0.  0.
        3    1    3    3  502    0  0.17148615949E+03 -0.10656846415E+04 -0.14261343581E+04  0.17885610070E+04  0.10100000352E+00 0.  1.
       -3    1    3    3    0  502 -0.17148615949E+03  0.10656846415E+04  0.33673814052E+03  0.11307005985E+04  0.10100000352E+00 0. -1.
</event>
<event>
 5   0  0.3199840E-06  0.2695119E+04  0.7818609E-02  0.8336590E-01
       -1   -1    0    0    0  501  0.00000000000E+00  0.00000000000E+00  0.25925039923E+04  0.25925039923E+04  0.50400001928E-02 0. -1.
        1   -1    0    0  501    0  0.00000000000E+00  0.00000000000E+00 -0.70044909000E+03  0.70044909002E+03  0.50400001928E-02 0.  1.
    10030    2    1    2    0    0  0.00000000000E+00  0.00000000000E+00  0.18920549023E+04  0.32929530824E+04  0.26951193386E+04 0.  0.
        1    1    3    3  502    0  0.12663864816E+04 -0.14085443744E+03  0.14818796573E+04  0.19543648616E+04  0.50400001928E-02 0. -1.
       -1    1    3    3    0  502 -0.12663864816E+04  0.14085443744E+03  0.41017524501E+03  0.13385882208E+04  0.50400001928E-02 0.  1.
</event>
<event>
 5   0  0.8213334E-06  0.2699467E+04  0.7818609E-02  0.8335178E-01
        2   -1    0    0  501    0  0.00000000000E+00  0.00000000000E+00  0.11977635578E+04  0.11977635578E+04  0.25500000920E-02 0. -1.
       -2   -1    0    0    0  501  0.00000000000E+00  0.00000000000E+00 -0.15209848980E+04  0.15209848980E+04  0.25500000920E-02 0.  1.
    10030    2    1    2    0    0  0.00000000000E+00  0.00000000000E+00 -0.32322134023E+03  0.27187484558E+04  0.26994668235E+04 0.  0.
        3    1    3    3  502    0  0.46220223993E+03  0.79987807725E+03 -0.11526843924E+04  0.14771990955E+04  0.10100000352E+00 0.  1.
       -3    1    3    3    0  502 -0.46220223993E+03 -0.79987807725E+03  0.82946305215E+03  0.12415493603E+04  0.10100000352E+00 0. -1.
</event>
<event>
 5   0  0.7812908E-06  0.2664211E+04  0.7818609E-02  0.8346712E-01
       -2   -1    0    0    0  501  0.00000000000E+00  0.00000000000E+00  0.64403596745E+03  0.64403596746E+03  0.25500000920E-02 0.  1.
        2   -1    0    0  501    0  0.00000000000E+00  0.00000000000E+00 -0.27552885337E+04  0.27552885337E+04  0.25500000920E-02 0. -1.
    10030    2    1    2    0    0  0.00000000000E+00  0.00000000000E+00 -0.21112525662E+04  0.33993245011E+04  0.26642108898E+04 0.  0.
        5    1    3    3  502    0 -0.11719601143E+04  0.55529568792E+03 -0.66727835561E+03  0.14584671077E+04  0.46999998093E+01 0.  1.
       -5    1    3    3    0  502  0.11719601143E+04 -0.55529568792E+03 -0.14439742106E+04  0.19408573934E+04  0.46999998093E+01 0. -1.
</event>
<event>
 5   0  0.7812908E-06  0.2702195E+04  0.7818609E-02  0.8334293E-01
       -2   -1    0    0    0  501  0.00000000000E+00  0.00000000000E+00  0.10128787935E+04  0.10128787935E+04  0.25500000920E-02 0. -1.
        2   -1    0    0  501    0  0.00000000000E+00  0.00000000000E+00 -0.18022532020E+04  0.18022532020E+04  0.25500000920E-02 0.  1.
    10030    2    1    2    0    0  0.00000000000E+00  0.00000000000E+00 -0.78937440851E+03  0.28151319955E+04  0.27021946997E+04 0.  0.
        5    1    3    3  502    0 -0.61590287320E+03  0.10348750977E+04 -0.10327718807E+04  0.15864875243E+04  0.46999998093E+01 0.  1.
       -5    1    3    3    0  502  0.61590287320E+03 -0.10348750977E+04  0.24339747217E+03  0.12286444712E+04  0.46999998093E+01 0. -1.
</event>
<event>
 5   0  0.3199840E-06  0.2710624E+04  0.7818609E-02  0.8331566E-01
       -1   -1    0    0    0  501  0.00000000000E+00  0.00000000000E+00  0.12260317683E+04  0.12260317683E+04  0.50400001928E-02 0. -1.
        1   -1    0    0  501    0  0.00000000000E+00  0.00000000000E+00 -0.14982245374E+04  0.14982245374E+04  0.50400001928E-02 0.  1.
    10030    2    1    2    0    0  0.00000000000E+00  0.00000000000E+00 -0.27219276909E+03  0.27242563058E+04  0.27106241930E+04 0.  0.
        1    1    3    3  502    0 -0.29783728962E+03 -0.79453739614E+03 -0.11982339645E+04  0.14682511224E+04  0.50400001928E-02 0.  1.
       -1    1    3    3    0  502  0.29783728962E+03  0.79453739614E+03  0.92604119537E+03  0.12560051833E+04  0.50400001928E-02 0. -1.
</event>
<event>
 5   0  0.8407622E-06  0.2708362E+04  0.7818609E-02  0.8332297E-01
        2   -1    0    0  501    0  0.00000000000E+00  0.00000000000E+00  0.19489025847E+04  0.19489025847E+04  0.25500000920E-02 0.  1.
       -2   -1    0    0    0  501  0.00000000000E+00  0.00000000000E+00 -0.94094293809E+03  0.94094293809E+03  0.25500000920E-02 0. -1.
    10030    2    1    2    0    0  0.00000000000E+00  0.00000000000E+00  0.10079596466E+04  0.28898455228E+04  0.27083619581E+04 0.  0.
        1    1    3    3  502    0  0.75901700864E+03 -0.90999766462E+03 -0.19538189524E+03  0.12009898642E+04  0.50400001928E-02 0. -1.
       -1    1    3    3    0  502 -0.75901700864E+03  0.90999766462E+03  0.12033415418E+04  0.16888556585E+04  0.50400001928E-02 0.  1.
</event>
<event>
 5   0  0.8407622E-06  0.2725566E+04  0.7818609E-02  0.8326757E-01
        2   -1    0    0  501    0  0.00000000000E+00  0.00000000000E+00  0.15298857192E+04  0.15298857192E+04  0.25500000920E-02 0. -1.
       -2   -1    0    0    0  501  0.00000000000E+00  0.00000000000E+00 -0.12139324932E+04  0.12139324932E+04  0.25500000920E-02 0.  1.
    10030    2    1    2    0    0  0.00000000000E+00  0.00000000000E+00  0.31595322597E+03  0.27438182124E+04  0.27255663525E+04 0.  0.
        1    1    3    3  502    0  0.12584788901E+04 -0.21726687247E+03  0.63677060406E+03  0.14270426808E+04  0.50400001928E-02 0. -1.
       -1    1    3    3    0  502 -0.12584788901E+04  0.21726687247E+03 -0.32081737809E+03  0.13167755316E+04  0.50400001928E-02 0.  1.
</event>
<event>
 5   0  0.3028601E-06  0.2688786E+04  0.7818609E-02  0.8338653E-01
       -1   -1    0    0    0  501  0.00000000000E+00  0.00000000000E+00  0.62981176079E+03  0.62981176081E+03  0.50400001928E-02 0. -1.
        1   -1    0    0  501    0  0.00000000000E+00  0.00000000000E+00 -0.28697343883E+04  0.28697343883E+04  0.50400001928E-02 0.  1.
    10030    2    1    2    0    0  0.00000000000E+00  0.00000000000E+00 -0.22399226275E+04  0.34995461491E+04  0.26887859477E+04 0.  0.
        3    1    3    3  502    0 -0.10980914157E+04  0.42119730748E+03 -0.27228341533E+03  0.12072076033E+04  0.10100000352E+00 0. -1.
       -3    1    3    3    0  502  0.10980914157E+04 -0.42119730748E+03 -0.19676392122E+04  0.22923385458E+04  0.10100000352E+00 0.  1.
</event>
<event>
 5   0  0.7729970E-06  0.2691699E+04  0.7818609E-02  0.8337703E-01
        2   -1    0    0  501    0  0.00000000000E+00  0.00000000000E+00  0.24033193879E+04  0.24033193879E+04  0.25500000920E-02 0. -1.
       -2   -1    0    0    0  501  0.00000000000E+00  0.00000000000E+00 -0.75367051647E+03  0.75367051647E+03  0.25500000920E-02 0.  1.
    10030    2    1    2    0    0  0.00000000000E+00  0.00000000000E+00  0.16496488714E+04  0.31569899044E+04  0.26916990651E+04 0.  0.
        4    1    3    3  502    0  0.62483716586E+03 -0.89618535943E+03  0.17466514583E+04  0.20601850917E+04  0.12699999809E+01 0. -1.
       -4    1    3    3    0  502 -0.62483716586E+03  0.89618535943E+03 -0.97002586910E+02  0.10968048127E+04  0.12699999809E+01 0.  1.
</event>
<event>
 5   0  0.3046300E-06  0.2699967E+04  0.7818609E-02  0.8335016E-01
       -1   -1    0    0    0  501  0.00000000000E+00  0.00000000000E+00  0.94435444320E+03  0.94435444322E+03  0.50400001928E-02 0. -1.
        1   -1    0    0  501    0  0.00000000000E+00  0.00000000000E+00 -0.19298430976E+04  0.19298430976E+04  0.50400001928E-02 0.  1.
    10030    2    1    2    0    0  0.00000000000E+00  0.00000000000E+00 -0.98548865436E+03  0.28741975408E+04  0.26999673360E+04 0.  0.
        2    1    3    3  502    0  0.12750210586E+04 -0.22156288122E+03 -0.83644425096E+02  0.12968289016E+04  0.25500000920E-02 0. -1.
       -2    1    3    3    0  502 -0.12750210586E+04  0.22156288122E+03 -0.90184422927E+03  0.15773686392E+04  0.25500000920E-02 0.  1.
</event>
<event>
 5   0  0.7838364E-06  0.2699155E+04  0.7818609E-02  0.8335279E-01
        2   -1    0    0  501    0  0.00000000000E+00  0.00000000000E+00  0.18321871766E+04  0.18321871766E+04  0.25500000920E-02 0. -1.
       -2   -1    0    0    0  501  0.00000000000E+00  0.00000000000E+00 -0.99409050590E+03  0.99409050590E+03  0.25500000920E-02 0.  1.
    10030    2    1    2    0    0  0.00000000000E+00  0.00000000000E+00  0.83809667073E+03  0.28262776825E+04  0.26991553326E+04 0.  0.
        2    1    3    3  502    0 -0.27691098692E+03  0.10470060265E+04 -0.42414674831E+03  0.11631000723E+04  0.25500000920E-02 0.  1.
       -2    1    3    3    0  502  0.27691098692E+03 -0.10470060265E+04  0.12622434190E+04  0.16631776102E+04  0.25500000920E-02 0. -1.
</event>
<event>
 5   0  0.3199840E-06  0.2674896E+04  0.7818609E-02  0.8343197E-01
        1   -1    0    0  501    0  0.00000000000E+00  0.00000000000E+00  0.13504687511E+04  0.13504687511E+04  0.50400001928E-02 0. -1.
       -1   -1    0    0    0  501  0.00000000000E+00  0.00000000000E+00 -0.13245526614E+04  0.13245526615E+04  0.50400001928E-02 0.  1.
    10030    2    1    2    0    0  0.00000000000E+00  0.00000000000E+00  0.25916089619E+02  0.26750214125E+04  0.26748958697E+04 0.  0.
        1    1    3    3  502    0 -0.92565177772E+03  0.31089476313E+03  0.92693759520E+03  0.13463655049E+04  0.50400001928E-02 0. -1.
       -1    1    3    3    0  502  0.92565177772E+03 -0.31089476313E+03 -0.90102150559E+03  0.13286559076E+04  0.50400001928E-02 0.  1.
</event>
<event>
 5   0  0.7838364E-06  0.2661650E+04  0.7818609E-02  0.8347557E-01
        2   -1    0    0  501    0  0.00000000000E+00  0.00000000000E+00  0.18573537924E+04  0.18573537924E+04  0.25500000920E-02 0.  1.
       -2   -1    0    0    0  501  0.00000000000E+00  0.00000000000E+00 -0.95355800734E+03  0.95355800734E+03  0.25500000920E-02 0. -1.
    10030    2    1    2    0    0  0.00000000000E+00  0.00000000000E+00  0.90379578511E+03  0.28109117998E+04  0.26616495496E+04 0.  0.
        2    1    3    3  502    0 -0.56784529720E+02 -0.12475020589E+04 -0.33908379178E+02  0.12492540366E+04  0.25500000920E-02 0. -1.
       -2    1    3    3    0  502  0.56784529720E+02  0.12475020589E+04  0.93770416429E+03  0.15616577632E+04  0.25500000920E-02 0.  1.
</event>
<event>
 5   0  0.7812908E-06  0.2714392E+04  0.7818609E-02  0.8330350E-01
        2   -1    0    0  501    0  0.00000000000E+00  0.00000000000E+00  0.11033645684E+04  0.11033645684E+04  0.25500000920E-02 0.  1.
       -2   -1    0    0    0  501  0.00000000000E+00  0.00000000000E+00 -0.16694217217E+04  0.16694217217E+04  0.25500000920E-02 0. -1.
    10030    2    1    2    0    0  0.00000000000E+00  0.00000000000E+00 -0.56605715331E+03  0.27727862902E+04  0.27143918491E+04 0.  0.
        5    1    3    3  502    0  0.12054395998E+03  0.13501137957E+04 -0.35246576092E+03  0.14005685668E+04  0.46999998093E+01 0.  1.
       -5    1    3    3    0  502 -0.12054395998E+03 -0.13501137957E+04 -0.21359139239E+03  0.13722177234E+04  0.46999998093E+01 0. -1.
</event>
<event>
 5   0  0.7812908E-06  0.2716454E+04  0.7818609E-02  0.8329686E-01
        2   -1    0    0  501    0  0.00000000000E+00  0.00000000000E+00  0.20230756394E+04  0.20230756394E+04  0.25500000920E-02 0. -1.
       -2   -1    0    0    0  501  0.00000000000E+00  0.00000000000E+00 -0.91186953343E+03  0.91186953343E+03  0.25500000920E-02 0.  1.
    10030    2    1    2    0    0  0.00000000000E+00  0.00000000000E+00  0.11112061059E+04  0.29349451728E+04  0.27164543356E+04 0.  0.
        5    1    3    3  502    0 -0.61142335689E+03  0.44754544021E+03  0.17734873383E+04  0.19285784587E+04  0.46999998093E+01 0. -1.
       -5    1    3    3    0  502  0.61142335689E+03 -0.44754544021E+03 -0.66228123238E+03  0.10063667141E+04  0.46999998093E+01 0.  1.
</event>
<event>
 5   0  0.2654625E-06  0.2695084E+04  0.7818609E-02  0.8336602E-01
       -4   -1    0    0    0  501  0.00000000000E+00  0.00000000000E+00  0.19287975348E+04  0.19287979529E+04  0.12699999809E+01 0. -1.
        4   -1    0    0  501    0  0.00000000000E+00  0.00000000000E+00 -0.94145056719E+03  0.94145142379E+03  0.12699999809E+01 0.  1.
    10030    2    1    2    0    0  0.00000000000E+00  0.00000000000E+00  0.98734696757E+03  0.28702493767E+04  0.26950839412E+04 0.  0.
        3    1    3    3  502    0 -0.11790680325E+04 -0.21469907661E+03  0.11498105202E+04  0.16608315271E+04  0.10100000352E+00 0. -1.
       -3    1    3    3    0  502  0.11790680325E+04  0.21469907661E+03 -0.16246355264E+03  0.12094178496E+04  0.10100000352E+00 0.  1.
</event>
<event>
 5   0  0.3028601E-06  0.2602525E+04  0.7818609E-02  0.8367344E-01
       -1   -1    0    0    0  501  0.00000000000E+00  0.00000000000E+00  0.11970132392E+04  0.11970132392E+04  0.50400001928E-02 0. -1.
        1   -1    0    0  501    0  0.00000000000E+00  0.00000000000E+00 -0.14145913048E+04  0.14145913049E+04  0.50400001928E-02 0.  1.
    10030    2    1    2    0    0  0.00000000000E+00  0.00000000000E+00 -0.21757806563E+03  0.26116045441E+04  0.26025253274E+04 0.  0.
        3    1    3    3  502    0  0.35928126553E+03  0.97652804778E+03 -0.89292049291E+03  0.13711298526E+04  0.10100000352E+00 0.  1.
       -3    1    3    3    0  502 -0.35928126553E+03 -0.97652804778E+03  0.67534242729E+03  0.12404746915E+04  0.10100000352E+00 0. -1.
</event>
<event>
 5   0  0.3028601E-06  0.2701701E+04  0.7818609E-02  0.8334453E-01
        1   -1    0    0  501    0  0.00000000000E+00  0.00000000000E+00  0.10933968942E+04  0.10933968943E+04  0.50400001928E-02 0.  1.
       -1   -1    0    0    0  501  0.00000000000E+00  0.00000000000E+00 -0.16689246616E+04  0.16689246616E+04  0.50400001928E-02 0. -1.
    10030    2    1    2    0    0  0.00000000000E+00  0.00000000000E+00 -0.57552776736E+03  0.27623215559E+04  0.27017009766E+04 0.  0.
        3    1    3    3  502    0  0.92281903260E+02 -0.79878088144E+03 -0.13975825501E+04  0.16123907222E+04  0.10100000352E+00 0. -1.
       -3    1    3    3    0  502 -0.92281903260E+02  0.79878088144E+03  0.82205478278E+03  0.11499308337E+04  0.10100000352E+00 0.  1.
</event>
<event>
 5   0  0.3028601E-06  0.2696697E+04  0.7818609E-02  0.8336078E-01
        1   -1    0    0  501    0  0.00000000000E+00  0.00000000000E+00  0.16867430522E+04  0.16867430523E+04  0.50400001928E-02 0.  1.
       -1   -1    0    0    0  501  0.00000000000E+00  0.00000000000E+00 -0.10778423294E+04  0.10778423294E+04  0.50400001928E-02 0. -1.
    10030    2    1    2    0    0  0.00000000000E+00  0.00000000000E+00  0.60890072283E+03  0.27645853817E+04  0.26966965425E+04 0.  0.
        3    1    3    3  502    0  0.13318482859E+04  0.61179879037E+02  0.51071241628E+03  0.14277219676E+04  0.10100000352E+00 0.  1.
       -3    1    3    3    0  502 -0.13318482859E+04 -0.61179879037E+02  0.98188306545E+02  0.13368634141E+04  0.10100000352E+00 0. -1.
</event>
<event>
 5   0  0.8407622E-06  0.2723755E+04  0.7818609E-02  0.8327338E-01
       -2   -1    0    0    0  501  0.00000000000E+00  0.00000000000E+00  0.10035076174E+04  0.10035076175E+04  0.25500000920E-02 0.  1.
        2   -1    0    0  501    0  0.00000000000E+00  0.00000000000E+00 -0.18482272010E+04  0.18482272010E+04  0.25500000920E-02 0. -1.
    10030    2    1    2    0    0  0.00000000000E+00  0.00000000000E+00 -0.84471958359E+03  0.28517348185E+04  0.27237548164E+04 0.  0.
        1    1    3    3  502    0 -0.10299803917E+04 -0.40687805273E+03  0.40753856561E+03  0.11800411177E+04  0.50400001928E-02 0.  1.
       -1    1    3    3    0  502  0.10299803917E+04  0.40687805273E+03 -0.12522581492E+04  0.16716937008E+04  0.50400001928E-02 0. -1.
</event>
<event>
 5   0  0.3089218E-06  0.2604367E+04  0.7818609E-02  0.8366719E-01
        1   -1    0    0  501    0  0.00000000000E+00  0.00000000000E+00  0.12927150060E+04  0.12927150060E+04  0.50400001928E-02 0.  1.
       -1   -1    0    0    0  501  0.00000000000E+00  0.00000000000E+00 -0.13117212054E+04  0.13117212054E+04  0.50400001928E-02 0. -1.
    10030    2    1    2    0    0  0.00000000000E+00  0.00000000000E+00 -0.19006199346E+02  0.26044362114E+04  0.26043668604E+04 0.  0.
        5    1    3    3  502    0  0.12030206908E+04  0.45944198188E+03 -0.20267624994E+03  0.13036278109E+04  0.46999998093E+01 0. -1.
       -5    1    3    3    0  502 -0.12030206908E+04 -0.45944198188E+03  0.18367005060E+03  0.13008084004E+04  0.46999998093E+01 0.  1.
</event>
<event>
 5   0  0.8407622E-06  0.2716598E+04  0.7818609E-02  0.8329640E-01
        2   -1    0    0  501    0  0.00000000000E+00  0.00000000000E+00  0.23031387383E+04  0.23031387383E+04  0.25500000920E-02 0. -1.
       -2   -1    0    0    0  501  0.00000000000E+00  0.00000000000E+00 -0.80107019822E+03  0.80107019822E+03  0.25500000920E-02 0.  1.
    10030    2    1    2    0    0  0.00000000000E+00  0.00000000000E+00  0.15020685401E+04  0.31042089365E+04  0.27165977292E+04 0.  0.
        1    1    3    3  502    0  0.39103174992E+03 -0.22336515744E+03  0.22153533595E+04  0.22606610383E+04  0.50400001928E-02 0. -1.
       -1    1    3    3    0  502 -0.39103174992E+03  0.22336515744E+03 -0.71328481936E+03  0.84354789820E+03  0.50400001928E-02 0.  1.
</event>
<event>
 5   0  0.8213334E-06  0.2701609E+04  0.7818609E-02  0.8334483E-01
       -2   -1    0    0    0  501  0.00000000000E+00  0.00000000000E+00  0.11237734084E+04  0.11237734084E+04  0.25500000920E-02 0. -1.
        2   -1    0    0  501    0  0.00000000000E+00  0.00000000000E+00 -0.16237020297E+04  0.16237020297E+04  0.25500000920E-02 0.  1.
    10030    2    1    2    0    0  0.00000000000E+00  0.00000000000E+00 -0.49992862138E+03  0.27474754381E+04  0.27016092716E+04 0.  0.
        3    1    3    3  502    0 -0.89526057787E+03  0.62323499815E+03 -0.10602086097E+04  0.15211691791E+04  0.10100000352E+00 0.  1.
       -3    1    3    3    0  502  0.89526057787E+03 -0.62323499815E+03  0.56027998837E+03  0.12263062590E+04  0.10100000352E+00 0. -1.
</event>
<event>
 5   0  0.7838364E-06  0.2656565E+04  0.7818609E-02  0.8349237E-01
        2   -1    0    0  501    0  0.00000000000E+00  0.00000000000E+00  0.76874155116E+03  0.76874155117E+03  0.25500000920E-02 0. -1.
       -2   -1    0    0    0  501  0.00000000000E+00  0.00000000000E+00 -0.22950940091E+04  0.22950940091E+04  0.25500000920E-02 0.  1.
    10030    2    1    2    0    0  0.00000000000E+00  0.00000000000E+00 -0.15263524580E+04  0.30638355603E+04  0.26565647959E+04 0.  0.
        2    1    3    3  502    0  0.58548529742E+03  0.64433600911E+02 -0.21362365928E+04  0.22159538585E+04  0.25500000920E-02 0.  1.
       -2    1    3    3    0  502 -0.58548529742E+03 -0.64433600911E+02  0.60988413482E+03  0.84788170185E+03  0.25500000920E-02 0. -1.
</event>
<event>
 5   0  0.3046300E-06  0.2641606E+04  0.7818609E-02  0.8354204E-01
       -1   -1    0    0    0  501  0.00000000000E+00  0.00000000000E+00  0.14437251567E+04  0.14437251567E+04  0.50400001928E-02 0. -1.
        1   -1    0    0  501    0  0.00000000000E+00  0.00000000000E+00 -0.12083468317E+04  0.12083468317E+04  0.50400001928E-02 0.  1.
    10030    2    1    2    0    0  0.00000000000E+00  0.00000000000E+00  0.23537832498E+03  0.26520719884E+04  0.26416061167E+04 0.  0.
        2    1    3    3  502    0  0.51702394726E+03 -0.56889419893E+03  0.11959865076E+04  0.14217377037E+04  0.25500000920E-02 0. -1.
       -2    1    3    3    0  502 -0.51702394726E+03  0.56889419893E+03 -0.96060818267E+03  0.12303342847E+04  0.25500000920E-02 0.  1.
</event>
<event>
 5   0  0.7812908E-06  0.2709182E+04  0.7818609E-02  0.8332032E-01
        2   -1    0    0  501    0  0.00000000000E+00  0.00000000000E+00  0.16790244012E+04  0.16790244012E+04  0.25500000920E-02 0. -1.
       -2   -1    0    0    0  501  0.00000000000E+00  0.00000000000E+00 -0.10928473547E+04  0.10928473547E+04  0.25500000920E-02 0.  1.
    10030    2    1    2    0    0  0.00000000000E+00  0.00000000000E+00  0.58617704648E+03  0.27718717560E+04  0.27091824416E+04 0.  0.
        5    1    3    3  502    0  0.10719980212E+04 -0.77960075586E+03  0.57872261254E+03  0.14463398799E+04  0.46999998093E+01 0. -1.
       -5    1    3    3    0  502 -0.10719980212E+04  0.77960075586E+03  0.74544339393E+01  0.13255318761E+04  0.46999998093E+01 0.  1.
</event>
<event>
 5   0  0.7812908E-06  0.2686333E+04  0.7818609E-02  0.8339453E-01
       -2   -1    0    0    0  501  0.00000000000E+00  0.00000000000E+00  0.96039165565E+03  0.96039165566E+03  0.25500000920E-02 0.  1.
        2   -1    0    0  501    0  0.00000000000E+00  0.00000000000E+00 -0.18785011311E+04  0.18785011311E+04  0.25500000920E-02 0. -1.
    10030    2    1    2    0    0  0.00000000000E+00  0.00000000000E+00 -0.91810947542E+03  0.28388927867E+04  0.26863334204E+04 0.  0.
        5    1    3    3  502    0 -0.24635339955E+02 -0.77468153776E+03  0.70020990908E+03  0.10445354909E+04  0.46999998093E+01 0.  1.
       -5    1    3    3    0  502  0.24635339955E+02  0.77468153776E+03 -0.16183193845E+04  0.17943572958E+04  0.46999998093E+01 0. -1.
</event>
<event>
 5   0  0.8407622E-06  0.2738815E+04  0.7818609E-02  0.8322519E-01
        2   -1    0    0  501    0  0.00000000000E+00  0.00000000000E+00  0.13970215634E+04  0.13970215634E+04  0.25500000920E-02 0.  1.
       -2   -1    0    0    0  501  0.00000000000E+00  0.00000000000E+00 -0.13423397089E+04  0.13423397089E+04  0.25500000920E-02 0. -1.
    10030    2    1    2    0    0  0.00000000000E+00  0.00000000000E+00  0.54681854545E+02  0.27393612723E+04  0.27388154511E+04 0.  0.
        1    1    3    3  502    0 -0.12767085522E+04 -0.49444877434E+03 -0.11814337300E+01  0.13691112861E+04  0.50400001928E-02 0. -1.
       -1    1    3    3    0  502  0.12767085522E+04  0.49444877434E+03  0.55863288275E+02  0.13702499862E+04  0.50400001928E-02 0.  1.
</event>
<event>
 5   0  0.7729970E-06  0.2699212E+04  0.7818609E-02  0.8335261E-01
        2   -1    0    0  501    0  0.00000000000E+00  0.00000000000E+00  0.12095876200E+04  0.12095876200E+04  0.25500000920E-02 0.  1.
       -2   -1    0    0    0  501  0.00000000000E+00  0.00000000000E+00 -0.15058330054E+04  0.15058330054E+04  0.25500000920E-02 0. -1.
    10030    2    1    2    0    0  0.00000000000E+00  0.00000000000E+00 -0.29624538534E+03  0.27154206254E+04  0.26992124490E+04 0.  0.
        4    1    3    3  502    0 -0.40518563643E+02 -0.11697627206E+02  0.12089239713E+04  0.12096600224E+04  0.12699999809E+01 0.  1.
       -4    1    3    3    0  502  0.40518563643E+02  0.11697627206E+02 -0.15051693567E+04  0.15057606030E+04  0.12699999809E+01 0. -1.
</event>
<event>
 5   0  0.3046300E-06  0.2693357E+04  0.7818609E-02  0.8337164E-01
        1   -1    0    0  501    0  0.00000000000E+00  0.00000000000E+00  0.25967306919E+04  0.25967306919E+04  0.50400001928E-02 0. -1.
       -1   -1    0    0    0  501  0.00000000000E+00  0.00000000000E+00 -0.69839456956E+03  0.69839456957E+03  0.50400001928E-02 0.  1.
    10030    2    1    2    0    0  0.00000000000E+00  0.00000000000E+00  0.18983361223E+04  0.32951252615E+04  0.26933567264E+04 0.  0.
        2    1    3    3  502    0  0.12667506604E+02  0.78322871096E+03  0.22893288260E+04  0.24196351280E+04  0.25500000920E-02 0. -1.
       -2    1    3    3    0  502 -0.12667506604E+02 -0.78322871096E+03 -0.39099270365E+03  0.87549013342E+03  0.25500000920E-02 0.  1.
</event>
<event>
 5   0  0.3046300E-06  0.2659445E+04  0.7818609E-02  0.8348285E-01
       -1   -1    0    0    0  501  0.00000000000E+00  0.00000000000E+00  0.16303719950E+04  0.16303719950E+04  0.50400001928E-02 0. -1.
        1   -1    0    0  501    0  0.00000000000E+00  0.00000000000E+00 -0.10845145175E+04  0.10845145175E+04  0.50400001928E-02 0.  1.
    10030    2    1    2    0    0  0.00000000000E+00  0.00000000000E+00  0.54585747745E+03  0.27148865125E+04  0.26594451282E+04 0.  0.
        2    1    3    3  502    0  0.33911830967E+03 -0.56724925210E+03  0.14508415723E+04  0.15942754498E+04  0.25500000920E-02 0. -1.
       -2    1    3    3    0  502 -0.33911830967E+03  0.56724925210E+03 -0.90498409482E+03  0.11206110627E+04  0.25500000920E-02 0.  1.
</event>
<event>
 5   0  0.7812908E-06  0.2686820E+04  0.7818609E-02  0.8339294E-01
       -2   -1    0    0    0  501  0.00000000000E+00  0.00000000000E+00  0.12020381946E+04  0.12020381946E+04  0.25500000920E-02 0.  1.
        2   -1    0    0  501    0  0.00000000000E+00  0.00000000000E+00 -0.15014083851E+04  0.15014083851E+04  0.25500000920E-02 0. -1.
    10030    2    1    2    0    0  0.00000000000E+00  0.00000000000E+00 -0.29937019051E+03  0.27034465797E+04  0.26868198485E+04 0.  0.
        5    1    3    3  502    0 -0.57829458736E+02 -0.61796124619E+03 -0.13484889588E+04  0.14844746243E+04  0.46999998093E+01 0. -1.
       -5    1    3    3    0  502  0.57829458736E+02  0.61796124619E+03  0.10491187683E+04  0.12189719554E+04  0.46999998093E+01 0.  1.
</event>
<event>
 5   0  0.8213334E-06  0.2695083E+04  0.7818609E-02  0.8336602E-01
       -2   -1    0    0    0  501  0.00000000000E+00  0.00000000000E+00  0.12976061326E+04  0.12976061326E+04  0.25500000920E-02 0.  1.
        2   -1    0    0  501    0  0.00000000000E+00  0.00000000000E+00 -0.13993986276E+04  0.13993986276E+04  0.25500000920E-02 0. -1.
    10030    2    1    2    0    0  0.00000000000E+00  0.00000000000E+00 -0.10179249499E+03  0.26970047602E+04  0.26950831090E+04 0.  0.
        3    1    3    3  502    0  0.10680061307E+04 -0.40335493757E+03  0.66553036310E+03  0.13214624381E+04  0.10100000352E+00 0.  1.
       -3    1    3    3    0  502 -0.10680061307E+04  0.40335493757E+03 -0.76732285809E+03  0.13755423220E+04  0.10100000352E+00 0. -1.
</event>
<event>
 5   0  0.3046300E-06  0.2695031E+04  0.7818609E-02  0.8336619E-01
       -1   -1    0    0    0  501  0.00000000000E+00  0.00000000000E+00  0.95577504358E+03  0.95577504359E+03  0.50400001928E-02 0.  1.
        1   -1    0    0  501    0  0.00000000000E+00  0.00000000000E+00 -0.18998179423E+04  0.18998179423E+04  0.50400001928E-02 0. -1.
    10030    2    1    2    0    0  0.00000000000E+00  0.00000000000E+00 -0.94404289870E+03  0.28555929859E+04  0.26950314110E+04 0.  0.
        2    1    3    3  502    0 -0.34399912830E+01 -0.13438044645E+04 -0.36618937292E+03  0.13928090067E+04  0.25500000920E-02 0. -1.
       -2    1    3    3    0  502  0.34399912830E+01  0.13438044645E+04 -0.57785352578E+03  0.14627839791E+04  0.25500000920E-02 0.  1.
</event>
<event>
 5   0  0.7729970E-06  0.2691990E+04  0.7818609E-02  0.8337609E-01
        2   -1    0    0  501    0  0.00000000000E+00  0.00000000000E+00  0.14188735827E+04  0.14188735827E+04  0.25500000920E-02 0.  1.
       -2   -1    0    0    0  501  0.00000000000E+00  0.00000000000E+00 -0.12768600077E+04  0.12768600077E+04  0.25500000920E-02 0. -1.
    10030    2    1    2    0    0  0.00000000000E+00  0.00000000000E+00  0.14201357502E+03  0.26957335903E+04  0.26919902925E+04 0.  0.
        4    1    3    3  502    0  0.76901798359E+03 -0.47725999791E+03  0.10686529069E+04  0.14004236548E+04  0.12699999809E+01 0.  1.
       -4    1    3    3    0  502 -0.76901798359E+03  0.47725999791E+03 -0.92663933190E+03  0.12953099355E+04  0.12699999809E+01 0. -1.
</event>
<event>
 5   0  0.3013407E-06  0.2735152E+04  0.7818609E-02  0.8323689E-01
        1   -1    0    0  501    0  0.00000000000E+00  0.00000000000E+00  0.28796494880E+04  0.28796494880E+04  0.50400001928E-02 0. -1.
       -1   -1    0    0    0  501  0.00000000000E+00  0.00000000000E+00 -0.64947607754E+03  0.64947607756E+03  0.50400001928E-02 0.  1.
    10030    2    1    2    0    0  0.00000000000E+00  0.00000000000E+00  0.22301734105E+04  0.35291255656E+04  0.27351515162E+04 0.  0.
        4    1    3    3  502    0  0.47941339916E+03 -0.11849984256E+04  0.48799831304E+03  0.13682844888E+04  0.12699999809E+01 0.  1.
       -4    1    3    3    0  502 -0.47941339916E+03  0.11849984256E+04  0.17421750974E+04  0.21608410767E+04  0.12699999809E+01 0. -1.
</event>
<event>
 5   0  0.3028601E-06  0.2698384E+04  0.7818609E-02  0.8335530E-01
        1   -1    0    0  501    0  0.00000000000E+00  0.00000000000E+00  0.14560518337E+04  0.14560518337E+04  0.50400001928E-02 0.  1.
       -1   -1    0    0    0  501  0.00000000000E+00  0.00000000000E+00 -0.12501744856E+04  0.12501744857E+04  0.50400001928E-02 0. -1.
    10030    2    1    2    0    0  0.00000000000E+00  0.00000000000E+00  0.20587734804E+03  0.27062263193E+04  0.26983838513E+04 0.  0.
        3    1    3    3  502    0 -0.12054623197E+03 -0.12326578503E+04  0.63960329517E+03  0.13939401549E+04  0.10100000352E+00 0. -1.
       -3    1    3    3    0  502  0.12054623197E+03  0.12326578503E+04 -0.43372594713E+03  0.13122861645E+04  0.10100000352E+00 0.  1.
</event>
<event>
 5   0  0.8407622E-06  0.2715538E+04  0.7818609E-02  0.8329981E-01
        2   -1    0    0  501    0  0.00000000000E+00  0.00000000000E+00  0.12138015257E+04  0.12138015257E+04  0.25500000920E-02 0.  1.
       -2   -1    0    0    0  501  0.00000000000E+00  0.00000000000E+00 -0.15188122578E+04  0.15188122578E+04  0.25500000920E-02 0. -1.
    10030    2    1    2    0    0  0.00000000000E+00  0.00000000000E+00 -0.30501073214E+03  0.27326137835E+04  0.27155379841E+04 0.  0.
        1    1    3    3  502    0 -0.87011044737E+03  0.65510630952E+03  0.66332081259E+03  0.12752454540E+04  0.50400001928E-02 0.  1.
       -1    1    3    3    0  502  0.87011044737E+03 -0.65510630952E+03 -0.96833154473E+03  0.14573683295E+04  0.50400001928E-02 0. -1.
</event>
<event>
 5   0  0.3046300E-06  0.2715864E+04  0.7818609E-02  0.8329876E-01
       -1   -1    0    0    0  501  0.00000000000E+00  0.00000000000E+00  0.88741804093E+03  0.88741804095E+03  0.50400001928E-02 0.  1.
        1   -1    0    0  501    0  0.00000000000E+00  0.00000000000E+00 -0.20779145106E+04  0.20779145106E+04  0.50400001928E-02 0. -1.
    10030    2    1    2    0    0  0.00000000000E+00  0.00000000000E+00 -0.11904964697E+04  0.29653325516E+04  0.27158636374E+04 0.  0.
        2    1    3    3  502    0  0.24531119998E+03 -0.35071807817E+00  0.86302417909E+03  0.89721148094E+03  0.25500000920E-02 0.  1.
       -2    1    3    3    0  502 -0.24531119998E+03  0.35071807817E+00 -0.20535206488E+04  0.20681210707E+04  0.25500000920E-02 0. -1.
</event>
<event>
 5   0  0.8407622E-06  0.2700052E+04  0.7818609E-02  0.8334988E-01
        2   -1    0    0  501    0  0.00000000000E+00  0.00000000000E+00  0.16204744998E+04  0.16204744998E+04  0.25500000920E-02 0.  1.
       -2   -1    0    0    0  501  0.00000000000E+00  0.00000000000E+00 -0.11247136701E+04  0.11247136701E+04  0.25500000920E-02 0. -1.
    10030    2    1    2    0    0  0.00000000000E+00  0.00000000000E+00  0.49576082976E+03  0.27451881699E+04  0.27000517195E+04 0.  0.
        1    1    3    3  502    0  0.48576083272E+03 -0.61067218859E+03 -0.87221019247E+03  0.11703139444E+04  0.50400001928E-02 0. -1.
       -1    1    3    3    0  502 -0.48576083272E+03  0.61067218859E+03  0.13679710222E+04  0.15748742255E+04  0.50400001928E-02 0.  1.
</event>
<event>
 5   0  0.8213334E-06  0.2598442E+04  0.7818609E-02  0.8368730E-01
        2   -1    0    0  501    0  0.00000000000E+00  0.00000000000E+00  0.12365683422E+04  0.12365683422E+04  0.25500000920E-02 0.  1.
       -2   -1    0    0    0  501  0.00000000000E+00  0.00000000000E+00 -0.13650484894E+04  0.13650484894E+04  0.25500000920E-02 0. -1.
    10030    2    1    2    0    0  0.00000000000E+00  0.00000000000E+00 -0.12848014719E+03  0.26016168316E+04  0.25984424162E+04 0.  0.
        3    1    3    3  502    0  0.10092849775E+04 -0.33177535772E+03  0.68450015698E+03  0.12638320810E+04  0.10100000352E+00 0.  1.
       -3    1    3    3    0  502 -0.10092849775E+04  0.33177535772E+03 -0.81298030418E+03  0.13377847506E+04  0.10100000352E+00 0. -1.
</event>
<event>
 5   0  0.3199840E-06  0.2719585E+04  0.7818609E-02  0.8328678E-01
        1   -1    0    0  501    0  0.00000000000E+00  0.00000000000E+00  0.12368390086E+04  0.12368390086E+04  0.50400001928E-02 0.  1.
       -1   -1    0    0    0  501  0.00000000000E+00  0.00000000000E+00 -0.14949686072E+04  0.14949686072E+04  0.50400001928E-02 0. -1.
    10030    2    1    2    0    0  0.00000000000E+00  0.00000000000E+00 -0.25812959853E+03  0.27318076158E+04  0.27195848874E+04 0.  0.
        1    1    3    3  502    0 -0.11579194696E+03  0.28753022776E+03 -0.14590069862E+04  0.14915705792E+04  0.50400001928E-02 0. -1.
       -1    1    3    3    0  502  0.11579194696E+03 -0.28753022776E+03  0.12008773876E+04  0.12402370366E+04  0.50400001928E-02 0.  1.
</event>
<event>
 5   0  0.3199840E-06  0.2704492E+04  0.7818609E-02  0.8333549E-01
        1   -1    0    0  501    0  0.00000000000E+00  0.00000000000E+00  0.19239357453E+04  0.19239357453E+04  0.50400001928E-02 0.  1.
       -1   -1    0    0    0  501  0.00000000000E+00  0.00000000000E+00 -0.95043183038E+03  0.95043183039E+03  0.50400001928E-02 0. -1.
    10030    2    1    2    0    0  0.00000000000E+00  0.00000000000E+00  0.97350391491E+03  0.28743675757E+04  0.27044923900E+04 0.  0.
        1    1    3    3  502    0  0.11333075292E+04 -0.31322461380E+02  0.12700688804E+04  0.17024811345E+04  0.50400001928E-02 0.  1.
       -1    1    3    3    0  502 -0.11333075292E+04  0.31322461380E+02 -0.29656496553E+03  0.11718864412E+04  0.50400001928E-02 0. -1.
</event>
<event>
 5   0  0.8407622E-06  0.2702917E+04  0.7818609E-02  0.8334059E-01
        2   -1    0    0  501    0  0.00000000000E+00  0.00000000000E+00  0.16099273375E+04  0.16099273375E+04  0.25500000920E-02 0. -1.
       -2   -1    0    0    0  501  0.00000000000E+00  0.00000000000E+00 -0.11344863853E+04  0.11344863853E+04  0.25500000920E-02 0.  1.
    10030    2    1    2    0    0  0.00000000000E+00  0.00000000000E+00  0.47544095217E+03  0.27444137228E+04  0.27029174206E+04 0.  0.
        1    1    3    3  502    0  0.98029073222E+03 -0.15588053130E+03  0.11689552935E+04  0.15335335464E+04  0.50400001928E-02 0. -1.
       -1    1    3    3    0  502 -0.98029073222E+03  0.15588053130E+03 -0.69351434138E+03  0.12108801763E+04  0.50400001928E-02 0.  1.
</event>
<event>
 5   0  0.3046300E-06  0.2653690E+04  0.7818609E-02  0.8350189E-01
        1   -1    0    0  501    0  0.00000000000E+00  0.00000000000E+00  0.11360269990E+04  0.11360269990E+04  0.50400001928E-02 0.  1.
       -1   -1    0    0    0  501  0.00000000000E+00  0.00000000000E+00 -0.15497148469E+04  0.15497148469E+04  0.50400001928E-02 0. -1.
    10030    2    1    2    0    0  0.00000000000E+00  0.00000000000E+00 -0.41368784794E+03  0.26857418459E+04  0.26536901905E+04 0.  0.
        2    1    3    3  502    0 -0.52384353287E+03  0.10074327188E+04 -0.90156401157E+03  0.14498794422E+04  0.25500000920E-02 0. -1.
       -2    1    3    3    0  502  0.52384353287E+03 -0.10074327188E+04  0.48787616363E+03  0.12358624037E+04  0.25500000920E-02 0.  1.
</event>
<event>
 5   0  0.3199840E-06  0.2700900E+04  0.7818609E-02  0.8334713E-01
       -1   -1    0    0    0  501  0.00000000000E+00  0.00000000000E+00  0.97721105869E+03  0.97721105870E+03  0.50400001928E-02 0. -1.
        1   -1    0    0  501    0  0.00000000000E+00  0.00000000000E+00 -0.18662444969E+04  0.18662444969E+04  0.50400001928E-02 0.  1.
    10030    2    1    2    0    0  0.00000000000E+00  0.00000000000E+00 -0.88903343820E+03  0.28434555556E+04  0.27008996728E+04 0.  0.
        1    1    3    3  502    0 -0.11169219283E+04 -0.51819866876E+03  0.13944016723E+03  0.12391481003E+04  0.50400001928E-02 0. -1.
       -1    1    3    3    0  502  0.11169219283E+04  0.51819866876E+03 -0.10284736054E+04  0.16043074553E+04  0.50400001928E-02 0.  1.
</event>
<event>
 5   0  0.8213334E-06  0.2693086E+04  0.7818609E-02  0.8337252E-01
        2   -1    0    0  501    0  0.00000000000E+00  0.00000000000E+00  0.12910335868E+04  0.12910335868E+04  0.25500000920E-02 0.  1.
       -2   -1    0    0    0  501  0.00000000000E+00  0.00000000000E+00 -0.14044392899E+04  0.14044392899E+04  0.25500000920E-02 0. -1.
    10030    2    1    2    0    0  0.00000000000E+00  0.00000000000E+00 -0.11340570302E+03  0.26954728767E+04  0.26930861805E+04 0.  0.
        3    1    3    3  502    0 -0.13207533011E+04  0.16295402533E+03 -0.26239650753E+03  0.13563905168E+04  0.10100000352E+00 0. -1.
       -3    1    3    3    0  502  0.13207533011E+04 -0.16295402533E+03  0.14899080452E+03  0.13390823599E+04  0.10100000352E+00 0.  1.
</event>
<event>
 5   0  0.3013407E-06  0.2690110E+04  0.7818609E-02  0.8338221E-01
       -1   -1    0    0    0  501  0.00000000000E+00  0.00000000000E+00  0.85514067997E+03  0.85514067999E+03  0.50400001928E-02 0. -1.
        1   -1    0    0  501    0  0.00000000000E+00  0.00000000000E+00 -0.21156438318E+04  0.21156438318E+04  0.50400001928E-02 0.  1.
    10030    2    1    2    0    0  0.00000000000E+00  0.00000000000E+00 -0.12605031518E+04  0.29707845118E+04  0.26901101129E+04 0.  0.
        4    1    3    3  502    0 -0.11409400548E+04  0.55381639770E+03 -0.11250071133E+04  0.16953169111E+04  0.12699999809E+01 0.  1.
       -4    1    3    3    0  502  0.11409400548E+04 -0.55381639770E+03 -0.13549603854E+03  0.12754676007E+04  0.12699999809E+01 0. -1.
</event>
<event>
 5   0  0.3199840E-06  0.2691828E+04  0.7818609E-02  0.8337662E-01
        1   -1    0    0  501    0  0.00000000000E+00  0.00000000000E+00  0.15472061659E+04  0.15472061659E+04  0.50400001928E-02 0. -1.
       -1   -1    0    0    0  501  0.00000000000E+00  0.00000000000E+00 -0.11708096528E+04  0.11708096528E+04  0.50400001928E-02 0.  1.
    10030    2    1    2    0    0  0.00000000000E+00  0.00000000000E+00  0.37639651306E+03  0.27180158188E+04  0.26918275680E+04 0.  0.
        1    1    3    3  502    0 -0.49033802903E+03 -0.72614057619E+02 -0.10752867036E+04  0.11840378706E+04  0.50400001928E-02 0.  1.
       -1    1    3    3    0  502  0.49033802903E+03  0.72614057619E+02  0.14516832166E+04  0.15339779482E+04  0.50400001928E-02 0. -1.
</event>
<event>
 5   0  0.3199840E-06  0.2692619E+04  0.7818609E-02  0.8337404E-01
       -1   -1    0    0    0  501  0.00000000000E+00  0.00000000000E+00  0.98751003719E+03  0.98751003720E+03  0.50400001928E-02 0.  1.
        1   -1    0    0  501    0  0.00000000000E+00  0.00000000000E+00 -0.18354745832E+04  0.18354745832E+04  0.50400001928E-02 0. -1.
    10030    2    1    2    0    0  0.00000000000E+00  0.00000000000E+00 -0.84796454604E+03  0.28229846204E+04  0.26926192259E+04 0.  0.
        1    1    3    3  502    0  0.11835616149E+04 -0.51098861402E+03 -0.17091408544E+02  0.12892709475E+04  0.50400001928E-02 0.  1.
       -1    1    3    3    0  502 -0.11835616149E+04  0.51098861402E+03 -0.83087313750E+03  0.15337136729E+04  0.50400001928E-02 0. -1.
</event>
<event>
 5   0  0.7838364E-06  0.2758909E+04  0.7818609E-02  0.8316140E-01
       -2   -1    0    0    0  501  0.00000000000E+00  0.00000000000E+00  0.12246096333E+04  0.12246096333E+04  0.25500000920E-02 0.  1.
        2   -1    0    0  501    0  0.00000000000E+00  0.00000000000E+00 -0.15538787999E+04  0.15538787999E+04  0.25500000920E-02 0. -1.
    10030    2    1    2    0    0  0.00000000000E+00  0.00000000000E+00 -0.32926916659E+03  0.27784884332E+04  0.27589091666E+04 0.  0.
        2    1    3    3  502    0 -0.29923322239E+03  0.15173505231E+03 -0.15121627280E+04  0.15489351708E+04  0.25500000920E-02 0. -1.
       -2    1    3    3    0  502  0.29923322239E+03 -0.15173505231E+03  0.11828935614E+04  0.12295532624E+04  0.25500000920E-02 0.  1.
</event>
<event>
 5   0  0.7729970E-06  0.2710568E+04  0.7818609E-02  0.8331584E-01
        2   -1    0    0  501    0  0.00000000000E+00  0.00000000000E+00  0.18710596504E+04  0.18710596504E+04  0.25500000920E-02 0.  1.
       -2   -1    0    0    0  501  0.00000000000E+00  0.00000000000E+00 -0.98168663139E+03  0.98168663139E+03  0.25500000920E-02 0. -1.
    10030    2    1    2    0    0  0.00000000000E+00  0.00000000000E+00  0.88937301901E+03  0.28527462818E+04  0.27105676493E+04 0.  0.
        4    1    3    3  502    0  0.17061774836E+03  0.35882673545E+01  0.18597059071E+04  0.18675200041E+04  0.12699999809E+01 0.  1.
       -4    1    3    3    0  502 -0.17061774836E+03 -0.35882673545E+01 -0.97033288810E+03  0.98522627774E+03  0.12699999809E+01 0. -1.
</event>
<event>
 5   0  0.8213334E-06  0.2713910E+04  0.7818609E-02  0.8330506E-01
       -2   -1    0    0    0  501  0.00000000000E+00  0.00000000000E+00  0.10642801760E+04  0.10642801760E+04  0.25500000920E-02 0.  1.
        2   -1    0    0  501    0  0.00000000000E+00  0.00000000000E+00 -0.17301151637E+04  0.17301151637E+04  0.25500000920E-02 0. -1.
    10030    2    1    2    0    0  0.00000000000E+00  0.00000000000E+00 -0.66583498763E+03  0.27943953397E+04  0.27139102940E+04 0.  0.
        3    1    3    3  502    0  0.33089251799E+03  0.69335084260E+03  0.81878079394E+03  0.11227765798E+04  0.10100000352E+00 0.  1.
       -3    1    3    3    0  502 -0.33089251799E+03 -0.69335084260E+03 -0.14846157816E+04  0.16716187599E+04  0.10100000352E+00 0. -1.
</event>
<event>
 5   0  0.3028601E-06  0.2439425E+04  0.7818609E-02  0.8424889E-01
       -1   -1    0    0    0  501  0.00000000000E+00  0.00000000000E+00  0.11940639381E+04  0.11940639381E+04  0.50400001928E-02 0.  1.
        1   -1    0    0  501    0  0.00000000000E+00  0.00000000000E+00 -0.12459118438E+04  0.12459118438E+04  0.50400001928E-02 0. -1.
    10030    2    1    2    0    0  0.00000000000E+00  0.00000000000E+00 -0.51847905746E+02  0.24399757819E+04  0.24394248525E+04 0.  0.
        3    1    3    3  502    0  0.73336142854E+03 -0.40635134811E+03  0.86014178696E+03  0.12011595676E+04  0.10100000352E+00 0.  1.
       -3    1    3    3    0  502 -0.73336142854E+03  0.40635134811E+03 -0.91198969271E+03  0.12388162143E+04  0.10100000352E+00 0. -1.
</event>
<event>
 5   0  0.7812908E-06  0.2765832E+04  0.7818609E-02  0.8313955E-01
        2   -1    0    0  501    0  0.00000000000E+00  0.00000000000E+00  0.18159692924E+04  0.18159692924E+04  0.25500000920E-02 0. -1.
       -2   -1    0    0    0  501  0.00000000000E+00  0.00000000000E+00 -0.10531326652E+04  0.10531326652E+04  0.25500000920E-02 0.  1.
    10030    2    1    2    0    0  0.00000000000E+00  0.00000000000E+00  0.76283662717E+03  0.28691019576E+04  0.27658319405E+04 0.  0.
        5    1    3    3  502    0  0.71727839997E+03 -0.36061802043E+01  0.16079065895E+04  0.17606495955E+04  0.46999998093E+01 0. -1.
       -5    1    3    3    0  502 -0.71727839997E+03  0.36061802043E+01 -0.84506996236E+03  0.11084523620E+04  0.46999998093E+01 0.  1.
</event>
<event>
 5   0  0.7838364E-06  0.2616549E+04  0.7818609E-02  0.8362601E-01
       -2   -1    0    0    0  501  0.00000000000E+00  0.00000000000E+00  0.91557190491E+03  0.91557190492E+03  0.25500000920E-02 0. -1.
        2   -1    0    0  501    0  0.00000000000E+00  0.00000000000E+00 -0.18694133930E+04  0.18694133930E+04  0.25500000920E-02 0.  1.
    10030    2    1    2    0    0  0.00000000000E+00  0.00000000000E+00 -0.95384148805E+03  0.27849852979E+04  0.26165491635E+04 0.  0.
        2    1    3    3  502    0  0.88390122272E+03 -0.32881331821E+03  0.48819234168E+03  0.10619469536E+04  0.25500000920E-02 0. -1.
       -2    1    3    3    0  502 -0.88390122272E+03  0.32881331821E+03 -0.14420338297E+04  0.17230383443E+04  0.25500000920E-02 0.  1.
</event>
<event>
 5   0  0.3028601E-06  0.2694139E+04  0.7818609E-02  0.8336909E-01
        1   -1    0    0  501    0  0.00000000000E+00  0.00000000000E+00  0.14194579970E+04  0.14194579971E+04  0.50400001928E-02 0. -1.
       -1   -1    0    0    0  501  0.00000000000E+00  0.00000000000E+00 -0.12783723257E+04  0.12783723257E+04  0.50400001928E-02 0.  1.
    10030    2    1    2    0    0  0.00000000000E+00  0.00000000000E+00  0.14108567133E+03  0.26978303228E+04  0.26941386905E+04 0.  0.
        3    1    3    3  502    0 -0.19283542669E+02  0.22029332655E+03  0.14011581043E+04  0.14185009863E+04  0.10100000352E+00 0. -1.
       -3    1    3    3    0  502  0.19283542669E+02 -0.22029332655E+03 -0.12600724329E+04  0.12793293365E+04  0.10100000352E+00 0.  1.
</event>
<event>
 5   0  0.7812908E-06  0.2703506E+04  0.7818609E-02  0.8333868E-01
        2   -1    0    0  501    0  0.00000000000E+00  0.00000000000E+00  0.83934792367E+03  0.83934792368E+03  0.25500000920E-02 0.  1.
       -2   -1    0    0    0  501  0.00000000000E+00  0.00000000000E+00 -0.21769703920E+04  0.21769703920E+04  0.25500000920E-02 0. -1.
    10030    2    1    2    0    0  0.00000000000E+00  0.00000000000E+00 -0.13376224683E+04  0.30163183157E+04  0.27035055601E+04 0.  0.
        5    1    3    3  502    0 -0.53821707355E+03 -0.10650385371E+04 -0.13772880900E+04  0.18223417014E+04  0.46999998093E+01 0. -1.
       -5    1    3    3    0  502  0.53821707355E+03  0.10650385371E+04  0.39665621699E+02  0.11939766142E+04  0.46999998093E+01 0.  1.
</event>
<event>
 5   0  0.2654625E-06  0.2685726E+04  0.7818609E-02  0.8339651E-01
       -3   -1    0    0    0  501  0.00000000000E+00  0.00000000000E+00  0.11082138340E+04  0.11082138386E+04  0.10100000352E+00 0.  1.
        3   -1    0    0  501    0  0.00000000000E+00  0.00000000000E+00 -0.16271964637E+04  0.16271964669E+04  0.10100000352E+00 0. -1.
    10030    2    1    2    0    0  0.00000000000E+00  0.00000000000E+00 -0.51898262971E+03  0.27354103055E+04  0.26857264509E+04 0.  0.
        4    1    3    3  502    0  0.53764982422E+03 -0.85670863228E+03  0.64017448872E+03  0.11970137856E+04  0.12699999809E+01 0.  1.
       -4    1    3    3    0  502 -0.53764982422E+03  0.85670863228E+03 -0.11591571184E+04  0.15383965198E+04  0.12699999809E+01 0. -1.
</event>
<event>
 5   0  0.7812908E-06  0.2684801E+04  0.7818609E-02  0.8339953E-01
       -2   -1    0    0    0  501  0.00000000000E+00  0.00000000000E+00  0.83928710610E+03  0.83928710610E+03  0.25500000920E-02 0. -1.
        2   -1    0    0  501    0  0.00000000000E+00  0.00000000000E+00 -0.21471064279E+04  0.21471064279E+04  0.25500000920E-02 0.  1.
    10030    2    1    2    0    0  0.00000000000E+00  0.00000000000E+00 -0.13078193218E+04  0.29863935340E+04  0.26848007303E+04 0.  0.
        5    1    3    3  502    0  0.10000655522E+04  0.49566070106E+03 -0.14834792410E+04  0.18564868402E+04  0.46999998093E+01 0.  1.
       -5    1    3    3    0  502 -0.10000655522E+04 -0.49566070106E+03  0.17565991925E+03  0.11299066938E+04  0.46999998093E+01 0. -1.
</event>
<event>
 5   0  0.8407622E-06  0.2726971E+04  0.7818609E-02  0.8326306E-01
       -2   -1    0    0    0  501  0.00000000000E+00  0.00000000000E+00  0.11172786913E+04  0.11172786913E+04  0.25500000920E-02 0. -1.
        2   -1    0    0  501    0  0.00000000000E+00  0.00000000000E+00 -0.16639477092E+04  0.16639477092E+04  0.25500000920E-02 0.  1.
    10030    2    1    2    0    0  0.00000000000E+00  0.00000000000E+00 -0.54666901796E+03  0.27812264005E+04  0.27269714476E+04 0.  0.
        1    1    3    3  502    0 -0.86668295433E+03  0.30131286908E+03 -0.13019459635E+04  0.15927937971E+04  0.50400001928E-02 0.  1.
       -1    1    3    3    0  502  0.86668295433E+03 -0.30131286908E+03  0.75527694550E+03  0.11884326034E+04  0.50400001928E-02 0. -1.
</event>
<event>
 5   0  0.7729970E-06  0.2703509E+04  0.7818609E-02  0.8333867E-01
       -2   -1    0    0    0  501  0.00000000000E+00  0.00000000000E+00  0.13782122857E+04  0.13782122857E+04  0.25500000920E-02 0.  1.
        2   -1    0    0  501    0  0.00000000000E+00  0.00000000000E+00 -0.13258043653E+04  0.13258043653E+04  0.25500000920E-02 0. -1.
    10030    2    1    2    0    0  0.00000000000E+00  0.00000000000E+00  0.52407920450E+02  0.27040166510E+04  0.27035087311E+04 0.  0.
        4    1    3    3  502    0 -0.71817034900E+03 -0.11088261012E+03  0.11662315290E+04  0.13741037790E+04  0.12699999809E+01 0.  1.
       -4    1    3    3    0  502  0.71817034900E+03  0.11088261012E+03 -0.11138236085E+04  0.13299128720E+04  0.12699999809E+01 0. -1.
</event>
<event>
 5   0  0.3028601E-06  0.2662365E+04  0.7818609E-02  0.8347320E-01
        1   -1    0    0  501    0  0.00000000000E+00  0.00000000000E+00  0.92978184791E+03  0.92978184793E+03  0.50400001928E-02 0.  1.
       -1   -1    0    0    0  501  0.00000000000E+00  0.00000000000E+00 -0.19058744092E+04  0.19058744092E+04  0.50400001928E-02 0. -1.
    10030    2    1    2    0    0  0.00000000000E+00  0.00000000000E+00 -0.97609256133E+03  0.28356562572E+04  0.26623654371E+04 0.  0.
        3    1    3    3  502    0  0.57064930576E+03 -0.93429499299E+03 -0.12946356578E+04  0.16954731672E+04  0.10100000352E+00 0. -1.
       -3    1    3    3    0  502 -0.57064930576E+03  0.93429499299E+03  0.31854309648E+03  0.11401830900E+04  0.10100000352E+00 0.  1.
</event>
<event>
 5   0  0.3013407E-06  0.2738234E+04  0.7818609E-02  0.8322705E-01
       -1   -1    0    0    0  501  0.00000000000E+00  0.00000000000E+00  0.12154036340E+04  0.12154036340E+04  0.50400001928E-02 0.  1.
        1   -1    0    0  501    0  0.00000000000E+00  0.00000000000E+00 -0.15422704128E+04  0.15422704128E+04  0.50400001928E-02 0. -1.
    10030    2    1    2    0    0  0.00000000000E+00  0.00000000000E+00 -0.32686677883E+03  0.27576740468E+04  0.27382337843E+04 0.  0.
        4    1    3    3  502    0  0.68276692762E+03 -0.10857451253E+04  0.31899389384E+03  0.13216549746E+04  0.12699999809E+01 0.  1.
       -4    1    3    3    0  502 -0.68276692762E+03  0.10857451253E+04 -0.64586067267E+03  0.14360190723E+04  0.12699999809E+01 0. -1.
</event>
<event>
 5   0  0.8407622E-06  0.2684886E+04  0.7818609E-02  0.8339925E-01
       -2   -1    0    0    0  501  0.00000000000E+00  0.00000000000E+00  0.15942041793E+04  0.15942041793E+04  0.25500000920E-02 0. -1.
        2   -1    0    0  501    0  0.00000000000E+00  0.00000000000E+00 -0.11304409805E+04  0.11304409805E+04  0.25500000920E-02 0.  1.
    10030    2    1    2    0    0  0.00000000000E+00  0.00000000000E+00  0.46376319878E+03  0.27246451598E+04  0.26848863928E+04 0.  0.
        1    1    3    3  502    0 -0.76606773668E+03  0.39149329940E+03  0.12776892305E+04  0.15403300135E+04  0.50400001928E-02 0. -1.
       -1    1    3    3    0  502  0.76606773668E+03 -0.39149329940E+03 -0.81392603172E+03  0.11843151463E+04  0.50400001928E-02 0.  1.
</event>
<event>
 5   0  0.3199840E-06  0.2708466E+04  0.7818609E-02  0.8332263E-01
        1   -1    0    0  501    0  0.00000000000E+00  0.00000000000E+00  0.16987020789E+04  0.16987020789E+04  0.50400001928E-02 0.  1.
       -1   -1    0    0    0  501  0.00000000000E+00  0.00000000000E+00 -0.10796166672E+04  0.10796166672E+04  0.50400001928E-02 0. -1.
    10030    2    1    2    0    0  0.00000000000E+00  0.00000000000E+00  0.61908541174E+03  0.27783187462E+04  0.27084660434E+04 0.  0.
        1    1    3    3  502    0 -0.10595310509E+03 -0.33645063725E+03 -0.10316649362E+04  0.10903016245E+04  0.50400001928E-02 0. -1.
       -1    1    3    3    0  502  0.10595310509E+03  0.33645063725E+03  0.16507503479E+04  0.16880171217E+04  0.50400001928E-02 0.  1.
</event>
<event>
 5   0  0.7729970E-06  0.2708305E+04  0.7818609E-02  0.8332315E-01
       -2   -1    0    0    0  501  0.00000000000E+00  0.00000000000E+00  0.70185176784E+03  0.70185176784E+03  0.25500000920E-02 0.  1.
        2   -1    0    0  501    0  0.00000000000E+00  0.00000000000E+00 -0.26127007425E+04  0.26127007425E+04  0.25500000920E-02 0. -1.
    10030    2    1    2    0    0  0.00000000000E+00  0.00000000000E+00 -0.19108489747E+04  0.33145525104E+04  0.27083047354E+04 0.  0.
        4    1    3    3  502    0  0.29211867893E+03  0.12738392221E+04 -0.52147195122E+03  0.14071013806E+04  0.12699999809E+01 0.  1.
       -4    1    3    3    0  502 -0.29211867893E+03 -0.12738392221E+04 -0.13893770235E+04  0.19074511298E+04  0.12699999809E+01 0. -1.
</event>
<event>
 5   0  0.7812908E-06  0.2707656E+04  0.7818609E-02  0.8332525E-01
        2   -1    0    0  501    0  0.00000000000E+00  0.00000000000E+00  0.10888529980E+04  0.10888529980E+04  0.25500000920E-02 0. -1.
       -2   -1    0    0    0  501  0.00000000000E+00  0.00000000000E+00 -0.16832855424E+04  0.16832855424E+04  0.25500000920E-02 0.  1.
    10030    2    1    2    0    0  0.00000000000E+00  0.00000000000E+00 -0.59443254440E+03  0.27721385404E+04  0.27076561889E+04 0.  0.
        5    1    3    3  502    0  0.12578950454E+03 -0.12891334179E+04 -0.70047515017E+03  0.14725404899E+04  0.46999998093E+01 0. -1.
       -5    1    3    3    0  502 -0.12578950454E+03  0.12891334179E+04  0.10604260577E+03  0.12995980505E+04  0.46999998093E+01 0.  1.
</event>
<event>
 5   0  0.7812908E-06  0.2715005E+04  0.7818609E-02  0.8330153E-01
       -2   -1    0    0    0  501  0.00000000000E+00  0.00000000000E+00  0.11674615792E+04  0.11674615792E+04  0.25500000920E-02 0. -1.
        2   -1    0    0  501    0  0.00000000000E+00  0.00000000000E+00 -0.15784789756E+04  0.15784789756E+04  0.25500000920E-02 0.  1.
    10030    2    1    2    0    0  0.00000000000E+00  0.00000000000E+00 -0.41101739640E+03  0.27459405548E+04  0.27150053831E+04 0.  0.
        5    1    3    3  502    0 -0.68190113344E+03 -0.52151670521E+03  0.85805418923E+03  0.12137742423E+04  0.46999998093E+01 0. -1.
       -5    1    3    3    0  502  0.68190113344E+03  0.52151670521E+03 -0.12690715856E+04  0.15321663125E+04  0.46999998093E+01 0.  1.
</event>
<event>
 5   0  0.3013407E-06  0.2730746E+04  0.7818609E-02  0.8325097E-01
        1   -1    0    0  501    0  0.00000000000E+00  0.00000000000E+00  0.27486868329E+04  0.27486868329E+04  0.50400001928E-02 0.  1.
       -1   -1    0    0    0  501  0.00000000000E+00  0.00000000000E+00 -0.67823058280E+03  0.67823058282E+03  0.50400001928E-02 0. -1.
    10030    2    1    2    0    0  0.00000000000E+00  0.00000000000E+00  0.20704562501E+04  0.34269174157E+04  0.27307460319E+04 0.  0.
        4    1    3    3  502    0  0.17153253929E+03 -0.10973798376E+04  0.20317596116E+04  0.23155376595E+04  0.12699999809E+01 0.  1.
       -4    1    3    3    0  502 -0.17153253929E+03  0.10973798376E+04  0.38696638457E+02  0.11113797563E+04  0.12699999809E+01 0. -1.
</event>
<event>
 5   0  0.3013407E-06  0.2698824E+04  0.7818609E-02  0.8335387E-01
        1   -1    0    0  501    0  0.00000000000E+00  0.00000000000E+00  0.19427731394E+04  0.19427731394E+04  0.50400001928E-02 0.  1.
       -1   -1    0    0    0  501  0.00000000000E+00  0.00000000000E+00 -0.93727510381E+03  0.93727510383E+03  0.50400001928E-02 0. -1.
    10030    2    1    2    0    0  0.00000000000E+00  0.00000000000E+00  0.10054980356E+04  0.28800482432E+04  0.26988241113E+04 0.  0.
        4    1    3    3  502    0 -0.21219868742E+02  0.10691195299E+04  0.13810877202E+04  0.17466744848E+04  0.12699999809E+01 0.  1.
       -4    1    3    3    0  502  0.21219868742E+02 -0.10691195299E+04 -0.37558968465E+03  0.11333737584E+04  0.12699999809E+01 0. -1.
</event>
<event>
 5   0  0.3199840E-06  0.2700210E+04  0.7818609E-02  0.8334937E-01
        1   -1    0    0  501    0  0.00000000000E+00  0.00000000000E+00  0.14873075990E+04  0.14873075990E+04  0.50400001928E-02 0. -1.
       -1   -1    0    0    0  501  0.00000000000E+00  0.00000000000E+00 -0.12255587808E+04  0.12255587808E+04  0.50400001928E-02 0.  1.
    10030    2    1    2    0    0  0.00000000000E+00  0.00000000000E+00  0.26174881826E+03  0.27128663798E+04  0.27002095383E+04 0.  0.
        1    1    3    3  502    0 -0.14225908576E+03 -0.25209664687E+03 -0.11940155034E+04  0.12286022095E+04  0.50400001928E-02 0.  1.
       -1    1    3    3    0  502  0.14225908576E+03  0.25209664687E+03  0.14557643217E+04  0.14842641703E+04  0.50400001928E-02 0. -1.
</event>
<event>
 5   0  0.7812908E-06  0.2702879E+04  0.7818609E-02  0.8334071E-01
       -2   -1    0    0    0  501  0.00000000000E+00  0.00000000000E+00  0.75468285199E+03  0.75468285199E+03  0.25500000920E-02 0. -1.
        2   -1    0    0  501    0  0.00000000000E+00  0.00000000000E+00 -0.24200745505E+04  0.24200745505E+04  0.25500000920E-02 0.  1.
    10030    2    1    2    0    0  0.00000000000E+00  0.00000000000E+00 -0.16653916985E+04  0.31747574025E+04  0.27028790308E+04 0.  0.
        5    1    3    3  502    0 -0.13265487353E+04  0.12696187657E+03 -0.10966919971E+04  0.17258639262E+04  0.46999998093E+01 0.  1.
       -5    1    3    3    0  502  0.13265487353E+04 -0.12696187657E+03 -0.56869970144E+03  0.14488934763E+04  0.46999998093E+01 0. -1.
</event>
<event>
 5   0  0.7729970E-06  0.2703788E+04  0.7818609E-02  0.8333777E-01
       -2   -1    0    0    0  501  0.00000000000E+00  0.00000000000E+00  0.91529159794E+03  0.91529159794E+03  0.25500000920E-02 0. -1.
        2   -1    0    0  501    0  0.00000000000E+00  0.00000000000E+00 -0.19967592186E+04  0.19967592186E+04  0.25500000920E-02 0.  1.
    10030    2    1    2    0    0  0.00000000000E+00  0.00000000000E+00 -0.10814676206E+04  0.29120508165E+04  0.27037876661E+04 0.  0.
        4    1    3    3  502    0  0.26387561697E+03  0.13257314280E+04 -0.56283681228E+03  0.14642339466E+04  0.12699999809E+01 0.  1.
       -4    1    3    3    0  502 -0.26387561697E+03 -0.13257314280E+04 -0.51863080835E+03  0.14478168699E+04  0.12699999809E+01 0. -1.
</event>
<event>
 5   0  0.8407622E-06  0.2705675E+04  0.7818609E-02  0.8333166E-01
        2   -1    0    0  501    0  0.00000000000E+00  0.00000000000E+00  0.32980391604E+04  0.32980391604E+04  0.25500000920E-02 0. -1.
       -2   -1    0    0    0  501  0.00000000000E+00  0.00000000000E+00 -0.55492668868E+03  0.55492668869E+03  0.25500000920E-02 0.  1.
    10030    2    1    2    0    0  0.00000000000E+00  0.00000000000E+00  0.27431124717E+04  0.38529658491E+04  0.27056754798E+04 0.  0.
        1    1    3    3  502    0 -0.87521178635E+03 -0.93583837875E+03  0.75348606854E+03  0.14864489220E+04  0.50400001928E-02 0.  1.
       -1    1    3    3    0  502  0.87521178635E+03  0.93583837875E+03  0.19896264032E+04  0.23665169271E+04  0.50400001928E-02 0. -1.
</event>
<event>
 5   0  0.8407622E-06  0.2629315E+04  0.7818609E-02  0.8358311E-01
       -2   -1    0    0    0  501  0.00000000000E+00  0.00000000000E+00  0.67091233394E+03  0.67091233395E+03  0.25500000920E-02 0.  1.
        2   -1    0    0  501    0  0.00000000000E+00  0.00000000000E+00 -0.25760813085E+04  0.25760813085E+04  0.25500000920E-02 0. -1.
    10030    2    1    2    0    0  0.00000000000E+00  0.00000000000E+00 -0.19051689746E+04  0.32469936425E+04  0.26293152897E+04 0.  0.
        1    1    3    3  502    0  0.56221597587E+02 -0.10828080432E+04 -0.18706629709E+04  0.21621780864E+04  0.50400001928E-02 0. -1.
       -1    1    3    3    0  502 -0.56221597587E+02  0.10828080432E+04 -0.34506003714E+02  0.10848155561E+04  0.50400001928E-02 0.  1.
</event>
<event>
 5   0  0.3046300E-06  0.2687592E+04  0.7818609E-02  0.8339042E-01
       -1   -1    0    0    0  501  0.00000000000E+00  0.00000000000E+00  0.10906114860E+04  0.10906114860E+04  0.50400001928E-02 0.  1.
        1   -1    0    0  501    0  0.00000000000E+00  0.00000000000E+00 -0.16557572075E+04  0.16557572075E+04  0.50400001928E-02 0. -1.
    10030    2    1    2    0    0  0.00000000000E+00  0.00000000000E+00 -0.56514572155E+03  0.27463686935E+04  0.26875921033E+04 0.  0.
        2    1    3    3  502    0 -0.13164417209E+04  0.18414791720E+03 -0.81136028757E+02  0.13317328242E+04  0.25500000920E-02 0. -1.
       -2    1    3    3    0  502  0.13164417209E+04 -0.18414791720E+03 -0.48400969279E+03  0.14146358693E+04  0.25500000920E-02 0.  1.
</event>
<event>
 5   0  0.3089218E-06  0.2698939E+04  0.7818609E-02  0.8335349E-01
       -1   -1    0    0    0  501  0.00000000000E+00  0.00000000000E+00  0.15449662774E+04  0.15449662774E+04  0.50400001928E-02 0.  1.
        1   -1    0    0  501    0  0.00000000000E+00  0.00000000000E+00 -0.11787106087E+04  0.11787106087E+04  0.50400001928E-02 0. -1.
    10030    2    1    2    0    0  0.00000000000E+00  0.00000000000E+00  0.36625566869E+03  0.27236768860E+04  0.26989391554E+04 0.  0.
        5    1    3    3  502    0  0.29815350042E+03  0.83618005425E+03  0.12087865345E+04  0.14997598371E+04  0.46999998093E+01 0.  1.
       -5    1    3    3    0  502 -0.29815350042E+03 -0.83618005425E+03 -0.84253086580E+03  0.12239170490E+04  0.46999998093E+01 0. -1.
</event>
<event>
 5   0  0.7812908E-06  0.2707606E+04  0.7818609E-02  0.8332541E-01
        2   -1    0    0  501    0  0.00000000000E+00  0.00000000000E+00  0.14410271958E+04  0.14410271958E+04  0.25500000920E-02 0. -1.
       -2   -1    0    0    0  501  0.00000000000E+00  0.00000000000E+00 -0.12718586424E+04  0.12718586424E+04  0.25500000920E-02 0.  1.
    10030    2    1    2    0    0  0.00000000000E+00  0.00000000000E+00  0.16916855344E+03  0.27128858382E+04  0.27076062439E+04 0.  0.
        5    1    3    3  502    0 -0.22710442816E+03 -0.11766730490E+04  0.71559393835E+03  0.13957910517E+04  0.46999998093E+01 0. -1.
       -5    1    3    3    0  502  0.22710442816E+03  0.11766730490E+04 -0.54642538491E+03  0.13170947865E+04  0.46999998093E+01 0.  1.
</event>
<event>
 5   0  0.3013407E-06  0.2706285E+04  0.7818609E-02  0.8332969E-01
        1   -1    0    0  501    0  0.00000000000E+00  0.00000000000E+00  0.27655172078E+04  0.27655172078E+04  0.50400001928E-02 0.  1.
       -1   -1    0    0    0  501  0.00000000000E+00  0.00000000000E+00 -0.66208027170E+03  0.66208027172E+03  0.50400001928E-02 0. -1.
    10030    2    1    2    0    0  0.00000000000E+00  0.00000000000E+00  0.21034369361E+04  0.34275974795E+04  0.27062848220E+04 0.  0.
        4    1    3    3  502    0 -0.87687946131E+02  0.10066798054E+04 -0.88089902997E+02  0.10143248249E+04  0.12699999809E+01 0. -1.
       -4    1    3    3    0  502  0.87687946131E+02 -0.10066798054E+04  0.21915268391E+04  0.24132726547E+04  0.12699999809E+01 0.  1.
</event>
<event>
 5   0  0.7838364E-06  0.2685565E+04  0.7818609E-02  0.8339704E-01
       -2   -1    0    0    0  501  0.00000000000E+00  0.00000000000E+00  0.83270957935E+03  0.83270957935E+03  0.25500000920E-02 0. -1.
        2   -1    0    0  501    0  0.00000000000E+00  0.00000000000E+00 -0.21652992640E+04  0.21652992640E+04  0.25500000920E-02 0.  1.
    10030    2    1    2    0    0  0.00000000000E+00  0.00000000000E+00 -0.13325896846E+04  0.29980088433E+04  0.26855654446E+04 0.  0.
        2    1    3    3  502    0 -0.58966611469E+03  0.57513283690E+03  0.51754415755E+03  0.97279795534E+03  0.25500000920E-02 0. -1.
       -2    1    3    3    0  502  0.58966611469E+03 -0.57513283690E+03 -0.18501338422E+04  0.20252108880E+04  0.25500000920E-02 0.  1.
</event>
<event>
 5   0  0.3199840E-06  0.2692275E+04  0.7818609E-02  0.8337516E-01
       -1   -1    0    0    0  501  0.00000000000E+00  0.00000000000E+00  0.11359876155E+04  0.11359876155E+04  0.50400001928E-02 0. -1.
        1   -1    0    0  501    0  0.00000000000E+00  0.00000000000E+00 -0.15951635519E+04  0.15951635520E+04  0.50400001928E-02 0.  1.
    10030    2    1    2    0    0  0.00000000000E+00  0.00000000000E+00 -0.45917593647E+03  0.27311511674E+04  0.26922749040E+04 0.  0.
        1    1    3    3  502    0 -0.17573599224E+03 -0.22533241228E+03  0.11048645585E+04  0.11412201925E+04  0.50400001928E-02 0. -1.
       -1    1    3    3    0  502  0.17573599224E+03  0.22533241228E+03 -0.15640404950E+04  0.15899309749E+04  0.50400001928E-02 0.  1.
</event>
<event>
 5   0  0.8213334E-06  0.2702861E+04  0.7818609E-02  0.8334077E-01
       -2   -1    0    0    0  501  0.00000000000E+00  0.00000000000E+00  0.12679978982E+04  0.12679978982E+04  0.25500000920E-02 0. -1.
        2   -1    0    0  501    0  0.00000000000E+00  0.00000000000E+00 -0.14403525930E+04  0.14403525930E+04  0.25500000920E-02 0.  1.
    10030    2    1    2    0    0  0.00000000000E+00  0.00000000000E+00 -0.17235469481E+03  0.27083504913E+04  0.27028607516E+04 0.  0.
        3    1    3    3  502    0  0.85456555702E+03 -0.49739210318E+03  0.83693361552E+03  0.12954300763E+04  0.10100000352E+00 0. -1.
       -3    1    3    3    0  502 -0.85456555702E+03  0.49739210318E+03 -0.10092883103E+04  0.14129204150E+04  0.10100000352E+00 0.  1.
</event>
<event>
 5   0  0.7812908E-06  0.2702378E+04  0.7818609E-02  0.8334234E-01
        2   -1    0    0  501    0  0.00000000000E+00  0.00000000000E+00  0.23583325582E+04  0.23583325582E+04  0.25500000920E-02 0.  1.
       -2   -1    0    0    0  501  0.00000000000E+00  0.00000000000E+00 -0.77415368715E+03  0.77415368716E+03  0.25500000920E-02 0. -1.
    10030    2    1    2    0    0  0.00000000000E+00  0.00000000000E+00  0.15841788711E+04  0.31324862454E+04  0.27023780975E+04 0.  0.
        5    1    3    3  502    0  0.82934128661E+03  0.88707927042E+03  0.10536893977E+03  0.12189509035E+04  0.46999998093E+01 0. -1.
       -5    1    3    3    0  502 -0.82934128661E+03 -0.88707927042E+03  0.14788099313E+04  0.19135353419E+04  0.46999998093E+01 0.  1.
</event>
<event>
 5   0  0.3199840E-06  0.2681951E+04  0.7818609E-02  0.8340885E-01
       -1   -1    0    0    0  501  0.00000000000E+00  0.00000000000E+00  0.12654947366E+04  0.12654947366E+04  0.50400001928E-02 0.  1.
        1   -1    0    0  501    0  0.00000000000E+00  0.00000000000E+00 -0.14209584891E+04  0.14209584891E+04  0.50400001928E-02 0. -1.
    10030    2    1    2    0    0  0.00000000000E+00  0.00000000000E+00 -0.15546375247E+03  0.26864532257E+04  0.26819511471E+04 0.  0.
        1    1    3    3  502    0  0.10753905918E+03  0.41766077143E+03 -0.13495917592E+04  0.14168285309E+04  0.50400001928E-02 0. -1.
       -1    1    3    3    0  502 -0.10753905918E+03 -0.41766077143E+03  0.11941280068E+04  0.12696246949E+04  0.50400001928E-02 0.  1.
</event>
<event>
 5   0  0.3013407E-06  0.2824511E+04  0.7818609E-02  0.8295699E-01
        1   -1    0    0  501    0  0.00000000000E+00  0.00000000000E+00  0.16690752834E+04  0.16690752834E+04  0.50400001928E-02 0. -1.
       -1   -1    0    0    0  501  0.00000000000E+00  0.00000000000E+00 -0.11949523775E+04  0.11949523775E+04  0.50400001928E-02 0.  1.
    10030    2    1    2    0    0  0.00000000000E+00  0.00000000000E+00  0.47412290585E+03  0.28640276609E+04  0.28245109156E+04 0.  0.
        4    1    3    3  502    0  0.10663961534E+03 -0.24708695051E+03  0.16428342975E+04  0.16647312428E+04  0.12699999809E+01 0. -1.
       -4    1    3    3    0  502 -0.10663961534E+03  0.24708695051E+03 -0.11687113916E+04  0.11992964181E+04  0.12699999809E+01 0.  1.
</event>
<event>
 5   0  0.2654625E-06  0.2698378E+04  0.7818609E-02  0.8335531E-01
        3   -1    0    0  501    0  0.00000000000E+00  0.00000000000E+00  0.21667820203E+04  0.21667820226E+04  0.10100000352E+00 0. -1.
       -3   -1    0    0    0  501  0.00000000000E+00  0.00000000000E+00 -0.84009894298E+03  0.84009894905E+03  0.10100000352E+00 0.  1.
    10030    2    1    2    0    0  0.00000000000E+00  0.00000000000E+00  0.13266830773E+04  0.30068809717E+04  0.26983782519E+04 0.  0.
        4    1    3    3  502    0  0.54347788029E+03  0.95718543539E+03  0.15327591723E+04  0.18870411912E+04  0.12699999809E+01 0. -1.
       -4    1    3    3    0  502 -0.54347788029E+03 -0.95718543539E+03 -0.20607609503E+03  0.11198397805E+04  0.12699999809E+01 0.  1.
</event>
<event>
 5   0  0.3089218E-06  0.2687557E+04  0.7818609E-02  0.8339054E-01
        1   -1    0    0  501    0  0.00000000000E+00  0.00000000000E+00  0.14013598134E+04  0.14013598134E+04  0.50400001928E-02 0.  1.
       -1   -1    0    0    0  501  0.00000000000E+00  0.00000000000E+00 -0.12885632211E+04  0.12885632211E+04  0.50400001928E-02 0. -1.
    10030    2    1    2    0    0  0.00000000000E+00  0.00000000000E+00  0.11279659231E+03  0.26899230346E+04  0.26875570433E+04 0.  0.
        5    1    3    3  502    0  0.13055811517E+04 -0.19559899865E+03 -0.19465616204E+03  0.13344340461E+04  0.46999998093E+01 0.  1.
       -5    1    3    3    0  502 -0.13055811517E+04  0.19559899865E+03  0.30745275434E+03  0.13554889885E+04  0.46999998093E+01 0. -1.
</event>
<event>
 5   0  0.7812908E-06  0.2695694E+04  0.7818609E-02  0.8336404E-01
        2   -1    0    0  501    0  0.00000000000E+00  0.00000000000E+00  0.18049585057E+04  0.18049585057E+04  0.25500000920E-02 0. -1.
       -2   -1    0    0    0  501  0.00000000000E+00  0.00000000000E+00 -0.10065001530E+04  0.10065001531E+04  0.25500000920E-02 0.  1.
    10030    2    1    2    0    0  0.00000000000E+00  0.00000000000E+00  0.79845835263E+03  0.28114586587E+04  0.26956936118E+04 0.  0.
        5    1    3    3  502    0 -0.12382280007E+04  0.22476717466E+03 -0.10413610978E+03  0.12627728552E+04  0.46999998093E+01 0.  1.
       -5    1    3    3    0  502  0.12382280007E+04 -0.22476717466E+03  0.90259446241E+03  0.15486858035E+04  0.46999998093E+01 0. -1.
</event>
<event>
 5   0  0.7812908E-06  0.2720294E+04  0.7818609E-02  0.8328450E-01
       -2   -1    0    0    0  501  0.00000000000E+00  0.00000000000E+00  0.89706751989E+03  0.89706751989E+03  0.25500000920E-02 0. -1.
        2   -1    0    0  501    0  0.00000000000E+00  0.00000000000E+00 -0.20622753863E+04  0.20622753863E+04  0.25500000920E-02 0.  1.
    10030    2    1    2    0    0  0.00000000000E+00  0.00000000000E+00 -0.11652078664E+04  0.29593429062E+04  0.27202942974E+04 0.  0.
        5    1    3    3  502    0  0.66662131002E+03 -0.16923113388E+03  0.69395032288E+03  0.97704262357E+03  0.46999998093E+01 0. -1.
       -5    1    3    3    0  502 -0.66662131002E+03  0.16923113388E+03 -0.18591581893E+04  0.19823002826E+04  0.46999998093E+01 0.  1.
</event>
<event>
 5   0  0.8213334E-06  0.2679632E+04  0.7818609E-02  0.8341644E-01
       -2   -1    0    0    0  501  0.00000000000E+00  0.00000000000E+00  0.13894316426E+04  0.13894316426E+04  0.25500000920E-02 0. -1.
        2   -1    0    0  501    0  0.00000000000E+00  0.00000000000E+00 -0.12919725274E+04  0.12919725274E+04  0.25500000920E-02 0.  1.
    10030    2    1    2    0    0  0.00000000000E+00  0.00000000000E+00  0.97459115197E+02  0.26814041700E+04  0.26796324456E+04 0.  0.
        3    1    3    3  502    0 -0.37832669747E+03 -0.91261771995E+03  0.95437232445E+03  0.13736188469E+04  0.10100000352E+00 0. -1.
       -3    1    3    3    0  502  0.37832669747E+03  0.91261771995E+03 -0.85691320925E+03  0.13077853230E+04  0.10100000352E+00 0.  1.
</event>
<event>
 5   0  0.7812908E-06  0.2687151E+04  0.7818609E-02  0.8339186E-01
        2   -1    0    0  501    0  0.00000000000E+00  0.00000000000E+00  0.17192644705E+04  0.17192644705E+04  0.25500000920E-02 0. -1.
       -2   -1    0    0    0  501  0.00000000000E+00  0.00000000000E+00 -0.10499807670E+04  0.10499807670E+04  0.25500000920E-02 0.  1.
    10030    2    1    2    0    0  0.00000000000E+00  0.00000000000E+00  0.66928370355E+03  0.27692452375E+04  0.26871506302E+04 0.  0.
        5    1    3    3  502    0 -0.11531144635E+04 -0.61145211460E+03  0.61144707148E+01  0.13052226366E+04  0.46999998093E+01 0.  1.
       -5    1    3    3    0  502  0.11531144635E+04  0.61145211460E+03  0.66316923284E+03  0.14640226008E+04  0.46999998093E+01 0. -1.
</event>
<event>
 5   0  0.3046300E-06  0.2700140E+04  0.7818609E-02  0.8334960E-01
        1   -1    0    0  501    0  0.00000000000E+00  0.00000000000E+00  0.20337129816E+04  0.20337129816E+04  0.50400001928E-02 0. -1.
       -1   -1    0    0    0  501  0.00000000000E+00  0.00000000000E+00 -0.89623717028E+03  0.89623717029E+03  0.50400001928E-02 0.  1.
    10030    2    1    2    0    0  0.00000000000E+00  0.00000000000E+00  0.11374758113E+04  0.29299501519E+04  0.27001401207E+04 0.  0.
        2    1    3    3  502    0 -0.39603505165E+03  0.11633483122E+04  0.11753001725E+04  0.17004568660E+04  0.25500000920E-02 0. -1.
       -2    1    3    3    0  502  0.39603505165E+03 -0.11633483122E+04 -0.37824361162E+02  0.12294932859E+04  0.25500000920E-02 0.  1.
</event>
<event>
 5   0  0.8213334E-06  0.2680124E+04  0.7818609E-02  0.8341483E-01
       -2   -1    0    0    0  501  0.00000000000E+00  0.00000000000E+00  0.12847876527E+04  0.12847876527E+04  0.25500000920E-02 0. -1.
        2   -1    0    0  501    0  0.00000000000E+00  0.00000000000E+00 -0.13977143321E+04  0.13977143321E+04  0.25500000920E-02 0.  1.
    10030    2    1    2    0    0  0.00000000000E+00  0.00000000000E+00 -0.11292667931E+03  0.26825019848E+04  0.26801239642E+04 0.  0.
        3    1    3    3  502    0 -0.50210378694E+03 -0.10121627707E+04 -0.77764719351E+03  0.13716110437E+04  0.10100000352E+00 0.  1.
       -3    1    3    3    0  502  0.50210378694E+03  0.10121627707E+04  0.66472051420E+03  0.13108909411E+04  0.10100000352E+00 0. -1.
</event>
<event>
 5   0  0.7838364E-06  0.2684661E+04  0.7818609E-02  0.8339999E-01
        2   -1    0    0  501    0  0.00000000000E+00  0.00000000000E+00  0.14059593190E+04  0.14059593190E+04  0.25500000920E-02 0.  1.
       -2   -1    0    0    0  501  0.00000000000E+00  0.00000000000E+00 -0.12815817695E+04  0.12815817695E+04  0.25500000920E-02 0. -1.
    10030    2    1    2    0    0  0.00000000000E+00  0.00000000000E+00  0.12437754950E+03  0.26875410884E+04  0.26846614921E+04 0.  0.
        2    1    3    3  502    0  0.17545724739E+03  0.22284982070E+03  0.13756191374E+04  0.14045551963E+04  0.25500000920E-02 0.  1.
       -2    1    3    3    0  502 -0.17545724739E+03 -0.22284982070E+03 -0.12512415879E+04  0.12829858921E+04  0.25500000920E-02 0. -1.
</event>
<event>
 5   0  0.8213334E-06  0.2695347E+04  0.7818609E-02  0.8336516E-01
       -2   -1    0    0    0  501  0.00000000000E+00  0.00000000000E+00  0.12433920250E+04  0.12433920250E+04  0.25500000920E-02 0.  1.
        2   -1    0    0  501    0  0.00000000000E+00  0.00000000000E+00 -0.14607008911E+04  0.14607008911E+04  0.25500000920E-02 0. -1.
    10030    2    1    2    0    0  0.00000000000E+00  0.00000000000E+00 -0.21730886612E+03  0.27040929161E+04  0.26953469824E+04 0.  0.
        3    1    3    3  502    0 -0.12628814137E+04 -0.30008235088E+03 -0.47219047327E+03  0.13812612843E+04  0.10100000352E+00 0. -1.
       -3    1    3    3    0  502  0.12628814137E+04  0.30008235088E+03  0.25488160715E+03  0.13228316318E+04  0.10100000352E+00 0.  1.
</event>
<event>
 5   0  0.3046300E-06  0.2651142E+04  0.7818609E-02  0.8351034E-01
        1   -1    0    0  501    0  0.00000000000E+00  0.00000000000E+00  0.14088885582E+04  0.14088885582E+04  0.50400001928E-02 0.  1.
       -1   -1    0    0    0  501  0.00000000000E+00  0.00000000000E+00 -0.12471809468E+04  0.12471809468E+04  0.50400001928E-02 0. -1.
    10030    2    1    2    0    0  0.00000000000E+00  0.00000000000E+00  0.16170761144E+03  0.26560695050E+04  0.26511423696E+04 0.  0.
        2    1    3    3  502    0  0.12709493553E+04 -0.34733260314E+03  0.22668106404E+03  0.13369130509E+04  0.25500000920E-02 0.  1.
       -2    1    3    3    0  502 -0.12709493553E+04  0.34733260314E+03 -0.64973452600E+02  0.13191564541E+04  0.25500000920E-02 0. -1.
</event>
<event>
 5   0  0.7838364E-06  0.2665753E+04  0.7818609E-02  0.8346203E-01
        2   -1    0    0  501    0  0.00000000000E+00  0.00000000000E+00  0.16701345069E+04  0.16701345069E+04  0.25500000920E-02 0. -1.
       -2   -1    0    0    0  501  0.00000000000E+00  0.00000000000E+00 -0.10637226825E+04  0.10637226825E+04  0.25500000920E-02 0.  1.
    10030    2    1    2    0    0  0.00000000000E+00  0.00000000000E+00  0.60641182436E+03  0.27338571894E+04  0.26657531453E+04 0.  0.
        2    1    3    3  502    0  0.39513990453E+03  0.40181096528E+03  0.15419438153E+04  0.16416998281E+04  0.25500000920E-02 0. -1.
       -2    1    3    3    0  502 -0.39513990453E+03 -0.40181096528E+03 -0.93553199091E+03  0.10921573614E+04  0.25500000920E-02 0.  1.
</event>
<event>
 5   0  0.3013407E-06  0.2679162E+04  0.7818609E-02  0.8341798E-01
        1   -1    0    0  501    0  0.00000000000E+00  0.00000000000E+00  0.16672685213E+04  0.16672685213E+04  0.50400001928E-02 0.  1.
       -1   -1    0    0    0  501  0.00000000000E+00  0.00000000000E+00 -0.10762976148E+04  0.10762976148E+04  0.50400001928E-02 0. -1.
    10030    2    1    2    0    0  0.00000000000E+00  0.00000000000E+00  0.59097090658E+03  0.27435661361E+04  0.26791619083E+04 0.  0.
        4    1    3    3  502    0 -0.10734002337E+04  0.64499945106E+02 -0.52254619728E+03  0.11955770347E+04  0.12699999809E+01 0. -1.
       -4    1    3    3    0  502  0.10734002337E+04 -0.64499945106E+02  0.11135171039E+04  0.15479891014E+04  0.12699999809E+01 0.  1.
</event>
<event>
 5   0  0.3013407E-06  0.2706196E+04  0.7818609E-02  0.8332998E-01
       -1   -1    0    0    0  501  0.00000000000E+00  0.00000000000E+00  0.15864905049E+04  0.15864905049E+04  0.50400001928E-02 0. -1.
        1   -1    0    0  501    0  0.00000000000E+00  0.00000000000E+00 -0.11540400841E+04  0.11540400841E+04  0.50400001928E-02 0.  1.
    10030    2    1    2    0    0  0.00000000000E+00  0.00000000000E+00  0.43245042076E+03  0.27405305890E+04  0.27061955847E+04 0.  0.
        4    1    3    3  502    0 -0.28917223850E+02 -0.13232518720E+04  0.50093327137E+03  0.14151916753E+04  0.12699999809E+01 0.  1.
       -4    1    3    3    0  502  0.28917223850E+02  0.13232518720E+04 -0.68482850607E+02  0.13253389137E+04  0.12699999809E+01 0. -1.
</event>
<event>
 5   0  0.7729970E-06  0.2739949E+04  0.7818609E-02  0.8322158E-01
        2   -1    0    0  501    0  0.00000000000E+00  0.00000000000E+00  0.12402328342E+04  0.12402328343E+04  0.25500000920E-02 0.  1.
       -2   -1    0    0    0  501  0.00000000000E+00  0.00000000000E+00 -0.15132883202E+04  0.15132883202E+04  0.25500000920E-02 0. -1.
    10030    2    1    2    0    0  0.00000000000E+00  0.00000000000E+00 -0.27305548592E+03  0.27535211544E+04  0.27399488042E+04 0.  0.
        4    1    3    3  502    0  0.84313311415E+03  0.77891375364E+03 -0.88806108574E+03  0.14512870800E+04  0.12699999809E+01 0. -1.
       -4    1    3    3    0  502 -0.84313311415E+03 -0.77891375364E+03  0.61500559981E+03  0.13022340744E+04  0.12699999809E+01 0.  1.
</event>
<event>
 5   0  0.3028601E-06  0.2666566E+04  0.7818609E-02  0.8345935E-01
        1   -1    0    0  501    0  0.00000000000E+00  0.00000000000E+00  0.98451889170E+03  0.98451889171E+03  0.50400001928E-02 0.  1.
       -1   -1    0    0    0  501  0.00000000000E+00  0.00000000000E+00 -0.18055955788E+04  0.18055955788E+04  0.50400001928E-02 0. -1.
    10030    2    1    2    0    0  0.00000000000E+00  0.00000000000E+00 -0.82107668713E+03  0.27901144706E+04  0.26665655500E+04 0.  0.
        3    1    3    3  502    0  0.12269435083E+04 -0.85883822446E+02 -0.94904553621E+03  0.15535294795E+04  0.10100000352E+00 0. -1.
       -3    1    3    3    0  502 -0.12269435083E+04  0.85883822446E+02  0.12796884907E+03  0.12365849911E+04  0.10100000352E+00 0.  1.
</event>
<event>
 5   0  0.3046300E-06  0.2694387E+04  0.7818609E-02  0.8336829E-01
       -1   -1    0    0    0  501  0.00000000000E+00  0.00000000000E+00  0.11149695754E+04  0.11149695754E+04  0.50400001928E-02 0. -1.
        1   -1    0    0  501    0  0.00000000000E+00  0.00000000000E+00 -0.16277843810E+04  0.16277843810E+04  0.50400001928E-02 0.  1.
    10030    2    1    2    0    0  0.00000000000E+00  0.00000000000E+00 -0.51281480560E+03  0.27427539564E+04  0.26943868023E+04 0.  0.
        2    1    3    3  502    0 -0.11763803389E+04 -0.38168863876E+02  0.41079915426E+03  0.12466288577E+04  0.25500000920E-02 0. -1.
       -2    1    3    3    0  502  0.11763803389E+04  0.38168863876E+02 -0.92361395986E+03  0.14961250986E+04  0.25500000920E-02 0.  1.
</event>
<event>
 5   0  0.8213334E-06  0.2707547E+04  0.7818609E-02  0.8332560E-01
       -2   -1    0    0    0  501  0.00000000000E+00  0.00000000000E+00  0.12491592486E+04  0.12491592486E+04  0.25500000920E-02 0. -1.
        2   -1    0    0  501    0  0.00000000000E+00  0.00000000000E+00 -0.14671488136E+04  0.14671488136E+04  0.25500000920E-02 0.  1.
    10030    2    1    2    0    0  0.00000000000E+00  0.00000000000E+00 -0.21798956499E+03  0.27163080621E+04  0.27075468672E+04 0.  0.
        3    1    3    3  502    0 -0.13139945753E+04  0.18277389037E+03  0.16153397156E+03  0.13364435166E+04  0.10100000352E+00 0. -1.
       -3    1    3    3    0  502  0.13139945753E+04 -0.18277389037E+03 -0.37952353655E+03  0.13798645455E+04  0.10100000352E+00 0.  1.
</event>
<event>
 5   0  0.8213334E-06  0.2695369E+04  0.7818609E-02  0.8336509E-01
        2   -1    0    0  501    0  0.00000000000E+00  0.00000000000E+00  0.21080025353E+04  0.21080025353E+04  0.25500000920E-02 0. -1.
       -2   -1    0    0    0  501  0.00000000000E+00  0.00000000000E+00 -0.86159921855E+03  0.86159921855E+03  0.25500000920E-02 0.  1.
    10030    2    1    2    0    0  0.00000000000E+00  0.00000000000E+00  0.12464033167E+04  0.29696017538E+04  0.26953688706E+04 0.  0.
        3    1    3    3  502    0 -0.39151809263E+03 -0.29515688041E+03 -0.75984664389E+03  0.90430688007E+03  0.10100000352E+00 0.  1.
       -3    1    3    3    0  502  0.39151809263E+03  0.29515688041E+03  0.20062499606E+04  0.20652948737E+04  0.10100000352E+00 0. -1.
</event>
<event>
 5   0  0.7838364E-06  0.2705351E+04  0.7818609E-02  0.8333271E-01
        2   -1    0    0  501    0  0.00000000000E+00  0.00000000000E+00  0.21110666144E+04  0.21110666144E+04  0.25500000920E-02 0. -1.
       -2   -1    0    0    0  501  0.00000000000E+00  0.00000000000E+00 -0.86673323319E+03  0.86673323320E+03  0.25500000920E-02 0.  1.
    10030    2    1    2    0    0  0.00000000000E+00  0.00000000000E+00  0.12443333812E+04  0.29777998476E+04  0.27053514317E+04 0.  0.
        2    1    3    3  502    0  0.12075318315E+04 -0.37456740885E+03  0.92798923055E+02  0.12676929865E+04  0.25500000920E-02 0.  1.
       -2    1    3    3    0  502 -0.12075318315E+04  0.37456740885E+03  0.11515344582E+04  0.17101068611E+04  0.25500000920E-02 0. -1.
</event>
<event>
 5   0  0.3199840E-06  0.2702849E+04  0.7818609E-02  0.8334081E-01
       -1   -1    0    0    0  501  0.00000000000E+00  0.00000000000E+00  0.10509085779E+04  0.10509085779E+04  0.50400001928E-02 0. -1.
        1   -1    0    0  501    0  0.00000000000E+00  0.00000000000E+00 -0.17378755638E+04  0.17378755638E+04  0.50400001928E-02 0.  1.
    10030    2    1    2    0    0  0.00000000000E+00  0.00000000000E+00 -0.68696698595E+03  0.27887841417E+04  0.27028491170E+04 0.  0.
        1    1    3    3  502    0  0.66246505201E+03  0.94685879762E+03 -0.10664369167E+04  0.15724786883E+04  0.50400001928E-02 0.  1.
       -1    1    3    3    0  502 -0.66246505201E+03 -0.94685879762E+03  0.37946993074E+03  0.12163054535E+04  0.50400001928E-02 0. -1.
</event>
<event>
 5   0  0.7729970E-06  0.2683205E+04  0.7818609E-02  0.8340475E-01
       -2   -1    0    0    0  501  0.00000000000E+00  0.00000000000E+00  0.84734403634E+03  0.84734403634E+03  0.25500000920E-02 0.  1.
        2   -1    0    0  501    0  0.00000000000E+00  0.00000000000E+00 -0.21241634164E+04  0.21241634164E+04  0.25500000920E-02 0. -1.
    10030    2    1    2    0    0  0.00000000000E+00  0.00000000000E+00 -0.12768193800E+04  0.29715074527E+04  0.26832049516E+04 0.  0.
        4    1    3    3  502    0  0.69663086131E+03 -0.63868026900E+03 -0.16929229427E+04  0.19388648085E+04  0.12699999809E+01 0. -1.
       -4    1    3    3    0  502 -0.69663086131E+03  0.63868026900E+03  0.41610356262E+03  0.10326426442E+04  0.12699999809E+01 0.  1.
</event>
<event>
 5   0  0.3028601E-06  0.2875460E+04  0.7818609E-02  0.8280217E-01
       -1   -1    0    0    0  501  0.00000000000E+00  0.00000000000E+00  0.95793626697E+03  0.95793626699E+03  0.50400001928E-02 0.  1.
        1   -1    0    0  501    0  0.00000000000E+00  0.00000000000E+00 -0.21578336635E+04  0.21578336635E+04  0.50400001928E-02 0. -1.
    10030    2    1    2    0    0  0.00000000000E+00  0.00000000000E+00 -0.11998973965E+04  0.31157699305E+04  0.28754597020E+04 0.  0.
        3    1    3    3  502    0 -0.13362444499E+04  0.15525110424E+03 -0.50186336343E+02  0.13461689395E+04  0.10100000352E+00 0.  1.
       -3    1    3    3    0  502  0.13362444499E+04 -0.15525110424E+03 -0.11497110602E+04  0.17696009910E+04  0.10100000352E+00 0. -1.
</event>
<event>
 5   0  0.8213334E-06  0.2707366E+04  0.7818609E-02  0.8332619E-01
        2   -1    0    0  501    0  0.00000000000E+00  0.00000000000E+00  0.13326693756E+04  0.13326693756E+04  0.25500000920E-02 0.  1.
       -2   -1    0    0    0  501  0.00000000000E+00  0.00000000000E+00 -0.13750277695E+04  0.13750277695E+04  0.25500000920E-02 0. -1.
    10030    2    1    2    0    0  0.00000000000E+00  0.00000000000E+00 -0.42358393928E+02  0.27076971451E+04  0.27073658038E+04 0.  0.
        3    1    3    3  502    0 -0.63176920409E+03  0.71080178943E+03 -0.98466923807E+03  0.13689211189E+04  0.10100000352E+00 0. -1.
       -3    1    3    3    0  502  0.63176920409E+03 -0.71080178943E+03  0.94231084414E+03  0.13387760262E+04  0.10100000352E+00 0.  1.
</event>
<event>
 5   0  0.7812908E-06  0.2689892E+04  0.7818609E-02  0.8338292E-01
       -2   -1    0    0    0  501  0.00000000000E+00  0.00000000000E+00  0.12880941243E+04  0.12880941243E+04  0.25500000920E-02 0. -1.
        2   -1    0    0  501    0  0.00000000000E+00  0.00000000000E+00 -0.14043074990E+04  0.14043074990E+04  0.25500000920E-02 0.  1.
    10030    2    1    2    0    0  0.00000000000E+00  0.00000000000E+00 -0.11621337469E+03  0.26924016233E+04  0.26898923682E+04 0.  0.
        5    1    3    3  502    0  0.60660194049E+03 -0.11950486480E+04  0.54918811226E+02  0.13413222398E+04  0.46999998093E+01 0. -1.
       -5    1    3    3    0  502 -0.60660194049E+03  0.11950486480E+04 -0.17113218592E+03  0.13510793834E+04  0.46999998093E+01 0.  1.
</event>
<event>
 5   0  0.3199840E-06  0.2704158E+04  0.7818609E-02  0.8333657E-01
        1   -1    0    0  501    0  0.00000000000E+00  0.00000000000E+00  0.11197747555E+04  0.11197747555E+04  0.50400001928E-02 0.  1.
       -1   -1    0    0    0  501  0.00000000000E+00  0.00000000000E+00 -0.16325758222E+04  0.16325758222E+04  0.50400001928E-02 0. -1.
    10030    2    1    2    0    0  0.00000000000E+00  0.00000000000E+00 -0.51280106668E+03  0.27523505777E+04  0.27041576819E+04 0.  0.
        1    1    3    3  502    0  0.12454189918E+04  0.46016775633E+03 -0.51648210681E+03  0.14246320913E+04  0.50400001928E-02 0. -1.
       -1    1    3    3    0  502 -0.12454189918E+04 -0.46016775633E+03  0.36810401219E+01  0.13277184864E+04  0.50400001928E-02 0.  1.
</event>
<event>
 5   0  0.3199840E-06  0.2696849E+04  0.7818609E-02  0.8336028E-01
        1   -1    0    0  501    0  0.00000000000E+00  0.00000000000E+00  0.23303911866E+04  0.23303911866E+04  0.50400001928E-02 0. -1.
       -1   -1    0    0    0  501  0.00000000000E+00  0.00000000000E+00 -0.78023303560E+03  0.78023303561E+03  0.50400001928E-02 0.  1.
    10030    2    1    2    0    0  0.00000000000E+00  0.00000000000E+00  0.15501581510E+04  0.31106242222E+04  0.26968486718E+04 0.  0.
        1    1    3    3  502    0  0.86299374709E+03 -0.10357529117E+04  0.74443412640E+03  0.15400404118E+04  0.50400001928E-02 0. -1.
       -1    1    3    3    0  502 -0.86299374709E+03  0.10357529117E+04  0.80572402461E+03  0.15705838104E+04  0.50400001928E-02 0.  1.
</event>
<event>
 5   0  0.8407622E-06  0.2746389E+04  0.7818609E-02  0.8320108E-01
       -2   -1    0    0    0  501  0.00000000000E+00  0.00000000000E+00  0.12621554470E+04  0.12621554470E+04  0.25500000920E-02 0. -1.
        2   -1    0    0  501    0  0.00000000000E+00  0.00000000000E+00 -0.14940027196E+04  0.14940027196E+04  0.25500000920E-02 0.  1.
    10030    2    1    2    0    0  0.00000000000E+00  0.00000000000E+00 -0.23184727262E+03  0.27561581667E+04  0.27463893901E+04 0.  0.
        1    1    3    3  502    0 -0.41642021043E+03  0.61312462344E+03  0.10441882333E+04  0.12804907895E+04  0.50400001928E-02 0. -1.
       -1    1    3    3    0  502  0.41642021043E+03 -0.61312462344E+03 -0.12760355059E+04  0.14756673771E+04  0.50400001928E-02 0.  1.
</event>
<event>
 5   0  0.3013407E-06  0.2715000E+04  0.7818609E-02  0.8330154E-01
        1   -1    0    0  501    0  0.00000000000E+00  0.00000000000E+00  0.17353555094E+04  0.17353555094E+04  0.50400001928E-02 0. -1.
       -1   -1    0    0    0  501  0.00000000000E+00  0.00000000000E+00 -0.10619186162E+04  0.10619186163E+04  0.50400001928E-02 0.  1.
    10030    2    1    2    0    0  0.00000000000E+00  0.00000000000E+00  0.67343689315E+03  0.27972741257E+04  0.27150000525E+04 0.  0.
        4    1    3    3  502    0 -0.27255543655E+03  0.40064874166E+03  0.16432143425E+04  0.17131727492E+04  0.12699999809E+01 0. -1.
       -4    1    3    3    0  502  0.27255543655E+03 -0.40064874166E+03 -0.96977744939E+03  0.10841013765E+04  0.12699999809E+01 0.  1.
</event>
<event>
 5   0  0.7812908E-06  0.2748091E+04  0.7818609E-02  0.8319568E-01
        2   -1    0    0  501    0  0.00000000000E+00  0.00000000000E+00  0.12606312057E+04  0.12606312057E+04  0.25500000920E-02 0.  1.
       -2   -1    0    0    0  501  0.00000000000E+00  0.00000000000E+00 -0.14976635558E+04  0.14976635558E+04  0.25500000920E-02 0. -1.
    10030    2    1    2    0    0  0.00000000000E+00  0.00000000000E+00 -0.23703235011E+03  0.27582947615E+04  0.27480912751E+04 0.  0.
        5    1    3    3  502    0 -0.65663428413E+03  0.76007738614E+03 -0.10595970747E+04  0.14600185843E+04  0.46999998093E+01 0. -1.
       -5    1    3    3    0  502  0.65663428413E+03 -0.76007738614E+03  0.82256472455E+03  0.12982761771E+04  0.46999998093E+01 0.  1.
</event>
<event>
 5   0  0.3046300E-06  0.2661568E+04  0.7818609E-02  0.8347584E-01
       -1   -1    0    0    0  501  0.00000000000E+00  0.00000000000E+00  0.12787672319E+04  0.12787672319E+04  0.50400001928E-02 0.  1.
        1   -1    0    0  501    0  0.00000000000E+00  0.00000000000E+00 -0.13849162835E+04  0.13849162835E+04  0.50400001928E-02 0. -1.
    10030    2    1    2    0    0  0.00000000000E+00  0.00000000000E+00 -0.10614905158E+03  0.26636835154E+04  0.26615676300E+04 0.  0.
        2    1    3    3  502    0  0.65694922194E+03  0.74661979107E+03 -0.93806376183E+03  0.13671089985E+04  0.25500000920E-02 0. -1.
       -2    1    3    3    0  502 -0.65694922194E+03 -0.74661979107E+03  0.83191471025E+03  0.12965745169E+04  0.25500000920E-02 0.  1.
</event>
<event>
 5   0  0.3089218E-06  0.2701945E+04  0.7818609E-02  0.8334374E-01
       -1   -1    0    0    0  501  0.00000000000E+00  0.00000000000E+00  0.69913412045E+03  0.69913412046E+03  0.50400001928E-02 0.  1.
        1   -1    0    0  501    0  0.00000000000E+00  0.00000000000E+00 -0.26105529258E+04  0.26105529258E+04  0.50400001928E-02 0. -1.
    10030    2    1    2    0    0  0.00000000000E+00  0.00000000000E+00 -0.19114188053E+04  0.33096870462E+04  0.27019449466E+04 0.  0.
        5    1    3    3  502    0 -0.78131669043E+03  0.57297682590E+03 -0.21089293804E+04  0.23208540315E+04  0.46999998093E+01 0. -1.
       -5    1    3    3    0  502  0.78131669043E+03 -0.57297682590E+03  0.19751057513E+03  0.98883301475E+03  0.46999998093E+01 0.  1.
</event>
<event>
 5   0  0.3199840E-06  0.2730681E+04  0.7818609E-02  0.8325118E-01
        1   -1    0    0  501    0  0.00000000000E+00  0.00000000000E+00  0.21876327705E+04  0.21876327705E+04  0.50400001928E-02 0. -1.
       -1   -1    0    0    0  501  0.00000000000E+00  0.00000000000E+00 -0.85213344457E+03  0.85213344459E+03  0.50400001928E-02 0.  1.
    10030    2    1    2    0    0  0.00000000000E+00  0.00000000000E+00  0.13354993259E+04  0.30397662151E+04  0.27306812690E+04 0.  0.
        1    1    3    3  502    0 -0.13349585723E+04  0.11024403537E+03  0.96203396423E+03  0.16491747893E+04  0.50400001928E-02 0. -1.
       -1    1    3    3    0  502  0.13349585723E+04 -0.11024403537E+03  0.37346536171E+03  0.13905914258E+04  0.50400001928E-02 0.  1.
</event>
<event>
 5   0  0.7812908E-06  0.2708631E+04  0.7818609E-02  0.8332210E-01
        2   -1    0    0  501    0  0.00000000000E+00  0.00000000000E+00  0.17865815723E+04  0.17865815723E+04  0.25500000920E-02 0.  1.
       -2   -1    0    0    0  501  0.00000000000E+00  0.00000000000E+00 -0.10266370384E+04  0.10266370384E+04  0.25500000920E-02 0. -1.
    10030    2    1    2    0    0  0.00000000000E+00  0.00000000000E+00  0.75994453392E+03  0.28132186108E+04  0.27086312516E+04 0.  0.
        5    1    3    3  502    0 -0.77440067828E+03  0.10994647599E+04  0.21369834749E+03  0.13616931528E+04  0.46999998093E+01 0. -1.
       -5    1    3    3    0  502  0.77440067828E+03 -0.10994647599E+04  0.54624618643E+03  0.14515254579E+04  0.46999998093E+01 0.  1.
</event>
<event>
 5   0  0.3046300E-06  0.2704339E+04  0.7818609E-02  0.8333598E-01
       -1   -1    0    0    0  501  0.00000000000E+00  0.00000000000E+00  0.17639968928E+04  0.17639968928E+04  0.50400001928E-02 0. -1.
        1   -1    0    0  501    0  0.00000000000E+00  0.00000000000E+00 -0.10364885307E+04  0.10364885307E+04  0.50400001928E-02 0.  1.
    10030    2    1    2    0    0  0.00000000000E+00  0.00000000000E+00  0.72750836208E+03  0.28004854234E+04  0.27043391411E+04 0.  0.
        2    1    3    3  502    0 -0.28819415520E+03 -0.68437304000E+03  0.15339470451E+04  0.17042346864E+04  0.25500000920E-02 0. -1.
       -2    1    3    3    0  502  0.28819415520E+03  0.68437304000E+03 -0.80643868305E+03  0.10962507371E+04  0.25500000920E-02 0.  1.
</event>
<event>
 5   0  0.3028601E-06  0.2663899E+04  0.7818609E-02  0.8346814E-01
        1   -1    0    0  501    0  0.00000000000E+00  0.00000000000E+00  0.17467334112E+04  0.17467334112E+04  0.50400001928E-02 0.  1.
       -1   -1    0    0    0  501  0.00000000000E+00  0.00000000000E+00 -0.10156613544E+04  0.10156613544E+04  0.50400001928E-02 0. -1.
    10030    2    1    2    0    0  0.00000000000E+00  0.00000000000E+00  0.73107205681E+03  0.27623947657E+04  0.26638991139E+04 0.  0.
        3    1    3    3  502    0 -0.29411428930E+03 -0.56566246805E+03  0.15782251425E+04  0.17021374367E+04  0.10100000352E+00 0.  1.
       -3    1    3    3    0  502  0.29411428930E+03  0.56566246805E+03 -0.84715308565E+03  0.10602573290E+04  0.10100000352E+00 0. -1.
</event>
<event>
 5   0  0.8213334E-06  0.2703224E+04  0.7818609E-02  0.8333960E-01
       -2   -1    0    0    0  501  0.00000000000E+00  0.00000000000E+00  0.11061624048E+04  0.11061624048E+04  0.25500000920E-02 0. -1.
        2   -1    0    0  501    0  0.00000000000E+00  0.00000000000E+00 -0.16515250381E+04  0.16515250381E+04  0.25500000920E-02 0.  1.
    10030    2    1    2    0    0  0.00000000000E+00  0.00000000000E+00 -0.54536263332E+03  0.27576874429E+04  0.27032239328E+04 0.  0.
        3    1    3    3  502    0  0.13819512261E+03 -0.13203161504E+04 -0.13551234606E+02  0.13275979342E+04  0.10100000352E+00 0. -1.
       -3    1    3    3    0  502 -0.13819512261E+03  0.13203161504E+04 -0.53181139872E+03  0.14300895087E+04  0.10100000352E+00 0.  1.
</event>
<event>
 5   0  0.7812908E-06  0.2709359E+04  0.7818609E-02  0.8331975E-01
        2   -1    0    0  501    0  0.00000000000E+00  0.00000000000E+00  0.28324715807E+04  0.28324715807E+04  0.25500000920E-02 0.  1.
       -2   -1    0    0    0  501  0.00000000000E+00  0.00000000000E+00 -0.64789923675E+03  0.64789923676E+03  0.25500000920E-02 0. -1.
    10030    2    1    2    0    0  0.00000000000E+00  0.00000000000E+00  0.21845723439E+04  0.34803708174E+04  0.27093587250E+04 0.  0.
        5    1    3    3  502    0 -0.11280976208E+04 -0.53764998528E+03  0.17640363160E+04  0.21618320848E+04  0.46999998093E+01 0.  1.
       -5    1    3    3    0  502  0.11280976208E+04  0.53764998528E+03  0.42053602794E+03  0.13185387326E+04  0.46999998093E+01 0. -1.
</event>
<event>
 5   0  0.8407622E-06  0.2722519E+04  0.7818609E-02  0.8327735E-01
       -2   -1    0    0    0  501  0.00000000000E+00  0.00000000000E+00  0.64984185588E+03  0.64984185588E+03  0.25500000920E-02 0.  1.
        2   -1    0    0  501    0  0.00000000000E+00  0.00000000000E+00 -0.28515056629E+04  0.28515056629E+04  0.25500000920E-02 0. -1.
    10030    2    1    2    0    0  0.00000000000E+00  0.00000000000E+00 -0.22016638070E+04  0.35013475188E+04  0.27225192246E+04 0.  0.
        1    1    3    3  502    0  0.10139952945E+04  0.81650534424E+03 -0.16122934641E+04  0.20722831970E+04  0.50400001928E-02 0.  1.
       -1    1    3    3    0  502 -0.10139952945E+04 -0.81650534424E+03 -0.58937034298E+03  0.14290643218E+04  0.50400001928E-02 0. -1.
</event>
<event>
 5   0  0.3013407E-06  0.2699687E+04  0.7818609E-02  0.8335107E-01
       -1   -1    0    0    0  501  0.00000000000E+00  0.00000000000E+00  0.11262685636E+04  0.11262685636E+04  0.50400001928E-02 0. -1.
        1   -1    0    0  501    0  0.00000000000E+00  0.00000000000E+00 -0.16177996025E+04  0.16177996025E+04  0.50400001928E-02 0.  1.
    10030    2    1    2    0    0  0.00000000000E+00  0.00000000000E+00 -0.49153103887E+03  0.27440681661E+04  0.26996865259E+04 0.  0.
        4    1    3    3  502    0  0.20517840017E+03 -0.42442043628E+03 -0.15314086127E+04  0.16023248218E+04  0.12699999809E+01 0.  1.
       -4    1    3    3    0  502 -0.20517840017E+03  0.42442043628E+03  0.10398775739E+04  0.11417433443E+04  0.12699999809E+01 0. -1.
</event>
<event>
 5   0  0.3089218E-06  0.2707808E+04  0.7818609E-02  0.8332476E-01
        1   -1    0    0  501    0  0.00000000000E+00  0.00000000000E+00  0.12492332043E+04  0.12492332043E+04  0.50400001928E-02 0.  1.
       -1   -1    0    0    0  501  0.00000000000E+00  0.00000000000E+00 -0.14673448779E+04  0.14673448779E+04  0.50400001928E-02 0. -1.
    10030    2    1    2    0    0  0.00000000000E+00  0.00000000000E+00 -0.21811167355E+03  0.27165780822E+04  0.27078079279E+04 0.  0.
        5    1    3    3  502    0  0.42586285397E+03 -0.87813350008E+03  0.83236300541E+03  0.12827033473E+04  0.46999998093E+01 0.  1.
       -5    1    3    3    0  502 -0.42586285397E+03  0.87813350008E+03 -0.10504746790E+04  0.14338747349E+04  0.46999998093E+01 0. -1.
</event>
<event>
 5   0  0.3028601E-06  0.2662852E+04  0.7818609E-02  0.8347160E-01
        1   -1    0    0  501    0  0.00000000000E+00  0.00000000000E+00  0.13075051374E+04  0.13075051374E+04  0.50400001928E-02 0.  1.
       -1   -1    0    0    0  501  0.00000000000E+00  0.00000000000E+00 -0.13557840681E+04  0.13557840681E+04  0.50400001928E-02 0. -1.
    10030    2    1    2    0    0  0.00000000000E+00  0.00000000000E+00 -0.48278930699E+02  0.26632892055E+04  0.26628515800E+04 0.  0.
        3    1    3    3  502    0  0.10736654688E+04  0.78655506972E+03 -0.59757219420E+02  0.13322902657E+04  0.10100000352E+00 0. -1.
       -3    1    3    3    0  502 -0.10736654688E+04 -0.78655506972E+03  0.11478288721E+02  0.13309989398E+04  0.10100000352E+00 0.  1.
</event>
<event>
 5   0  0.7838364E-06  0.2691587E+04  0.7818609E-02  0.8337740E-01
       -2   -1    0    0    0  501  0.00000000000E+00  0.00000000000E+00  0.11369168745E+04  0.11369168745E+04  0.25500000920E-02 0. -1.
        2   -1    0    0  501    0  0.00000000000E+00  0.00000000000E+00 -0.15930450885E+04  0.15930450885E+04  0.25500000920E-02 0.  1.
    10030    2    1    2    0    0  0.00000000000E+00  0.00000000000E+00 -0.45612821399E+03  0.27299619630E+04  0.26915867758E+04 0.  0.
        2    1    3    3  502    0  0.12268844647E+04 -0.28628459695E+03 -0.70805064772E+03  0.14451782174E+04  0.25500000920E-02 0.  1.
       -2    1    3    3    0  502 -0.12268844647E+04  0.28628459695E+03  0.25192243374E+03  0.12847837456E+04  0.25500000920E-02 0. -1.
</event>
<event>
 5   0  0.3028601E-06  0.2689322E+04  0.7818609E-02  0.8338478E-01
       -1   -1    0    0    0  501  0.00000000000E+00  0.00000000000E+00  0.12505753772E+04  0.12505753772E+04  0.50400001928E-02 0.  1.
        1   -1    0    0  501    0  0.00000000000E+00  0.00000000000E+00 -0.14458253961E+04  0.14458253961E+04  0.50400001928E-02 0. -1.
    10030    2    1    2    0    0  0.00000000000E+00  0.00000000000E+00 -0.19525001891E+03  0.26964007733E+04  0.26893223236E+04 0.  0.
        3    1    3    3  502    0 -0.15555987833E+03 -0.82819307159E+03 -0.11482432332E+04  0.14242770701E+04  0.10100000352E+00 0. -1.
       -3    1    3    3    0  502  0.15555987833E+03  0.82819307159E+03  0.95299321428E+03  0.12721237032E+04  0.10100000352E+00 0.  1.
</event>
<event>
 5   0  0.3046300E-06  0.2651909E+04  0.7818609E-02  0.8350780E-01
        1   -1    0    0  501    0  0.00000000000E+00  0.00000000000E+00  0.13915597944E+04  0.13915597944E+04  0.50400001928E-02 0.  1.
       -1   -1    0    0    0  501  0.00000000000E+00  0.00000000000E+00 -0.12634421920E+04  0.12634421920E+04  0.50400001928E-02 0. -1.
    10030    2    1    2    0    0  0.00000000000E+00  0.00000000000E+00  0.12811760243E+03  0.26550019864E+04  0.26519090157E+04 0.  0.
        2    1    3    3  502    0 -0.80184908007E+03  0.21454158226E+03  0.10992692862E+04  0.13774552629E+04  0.25500000920E-02 0.  1.
       -2    1    3    3    0  502  0.80184908007E+03 -0.21454158226E+03 -0.97115168378E+03  0.12775467235E+04  0.25500000920E-02 0. -1.
</event>
<event>
 5   0  0.3013407E-06  0.2722078E+04  0.7818609E-02  0.8327877E-01
       -1   -1    0    0    0  501  0.00000000000E+00  0.00000000000E+00  0.13766498074E+04  0.13766498074E+04  0.50400001928E-02 0.  1.
        1   -1    0    0  501    0  0.00000000000E+00  0.00000000000E+00 -0.13456048038E+04  0.13456048038E+04  0.50400001928E-02 0. -1.
    10030    2    1    2    0    0  0.00000000000E+00  0.00000000000E+00  0.31045003603E+02  0.27222546112E+04  0.27220775845E+04 0.  0.
        4    1    3    3  502    0 -0.12604710897E+04  0.13677768250E+03  0.51045819172E+03  0.13667716271E+04  0.12699999809E+01 0. -1.
       -4    1    3    3    0  502  0.12604710897E+04 -0.13677768250E+03 -0.47941318812E+03  0.13554829841E+04  0.12699999809E+01 0.  1.
</event>
<event>
 5   0  0.8213334E-06  0.2653752E+04  0.7818609E-02  0.8350169E-01
        2   -1    0    0  501    0  0.00000000000E+00  0.00000000000E+00  0.18196413910E+04  0.18196413910E+04  0.25500000920E-02 0. -1.
       -2   -1    0    0    0  501  0.00000000000E+00  0.00000000000E+00 -0.96755329651E+03  0.96755329651E+03  0.25500000920E-02 0.  1.
    10030    2    1    2    0    0  0.00000000000E+00  0.00000000000E+00  0.85208809450E+03  0.27871946875E+04  0.26537520806E+04 0.  0.
        3    1    3    3  502    0  0.53542586872E+03 -0.11921816976E+04  0.66697380710E+03  0.14672532605E+04  0.10100000352E+00 0. -1.
       -3    1    3    3    0  502 -0.53542586872E+03  0.11921816976E+04  0.18511428740E+03  0.13199414270E+04  0.10100000352E+00 0.  1.
</event>
<event>
 5   0  0.8213334E-06  0.2671105E+04  0.7818609E-02  0.8344442E-01
       -2   -1    0    0    0  501  0.00000000000E+00  0.00000000000E+00  0.10608432866E+04  0.10608432866E+04  0.25500000920E-02 0. -1.
        2   -1    0    0  501    0  0.00000000000E+00  0.00000000000E+00 -0.16813985840E+04  0.16813985840E+04  0.25500000920E-02 0.  1.
    10030    2    1    2    0    0  0.00000000000E+00  0.00000000000E+00 -0.62055529745E+03  0.27422418706E+04  0.26711049398E+04 0.  0.
        3    1    3    3  502    0  0.54825861322E+03  0.98854390951E+03 -0.10404821318E+04  0.15363624718E+04  0.10100000352E+00 0.  1.
       -3    1    3    3    0  502 -0.54825861322E+03 -0.98854390951E+03  0.41992683433E+03  0.12058793988E+04  0.10100000352E+00 0. -1.
</event>
<event>
 5   0  0.3046300E-06  0.2731390E+04  0.7818609E-02  0.8324891E-01
        1   -1    0    0  501    0  0.00000000000E+00  0.00000000000E+00  0.19564175071E+04  0.19564175071E+04  0.50400001928E-02 0. -1.
       -1   -1    0    0    0  501  0.00000000000E+00  0.00000000000E+00 -0.95333600394E+03  0.95333600396E+03  0.50400001928E-02 0.  1.
    10030    2    1    2    0    0  0.00000000000E+00  0.00000000000E+00  0.10030815032E+04  0.29097535111E+04  0.27313903041E+04 0.  0.
        2    1    3    3  502    0  0.10106651848E+04  0.28932140716E+03  0.14302319005E+04  0.17750251496E+04  0.25500000920E-02 0. -1.
       -2    1    3    3    0  502 -0.10106651848E+04 -0.28932140716E+03 -0.42715039731E+03  0.11347283615E+04  0.25500000920E-02 0.  1.
</event>
<event>
 5   0  0.3089218E-06  0.2690396E+04  0.7818609E-02  0.8338128E-01
        1   -1    0    0  501    0  0.00000000000E+00  0.00000000000E+00  0.10991319727E+04  0.10991319728E+04  0.50400001928E-02 0. -1.
       -1   -1    0    0    0  501  0.00000000000E+00  0.00000000000E+00 -0.16463510066E+04  0.16463510066E+04  0.50400001928E-02 0.  1.
    10030    2    1    2    0    0  0.00000000000E+00  0.00000000000E+00 -0.54721903386E+03  0.27454829794E+04  0.26903955321E+04 0.  0.
        5    1    3    3  502    0  0.76931768982E+03  0.99082325496E+02 -0.13951432660E+04  0.15962812527E+04  0.46999998093E+01 0.  1.
       -5    1    3    3    0  502 -0.76931768982E+03 -0.99082325496E+02  0.84792423214E+03  0.11492017267E+04  0.46999998093E+01 0. -1.
</event>
<event>
 5   0  0.7812908E-06  0.2678069E+04  0.7818609E-02  0.8342156E-01
       -2   -1    0    0    0  501  0.00000000000E+00  0.00000000000E+00  0.11208551388E+04  0.11208551388E+04  0.25500000920E-02 0.  1.
        2   -1    0    0  501    0  0.00000000000E+00  0.00000000000E+00 -0.15996829604E+04  0.15996829604E+04  0.25500000920E-02 0. -1.
    10030    2    1    2    0    0  0.00000000000E+00  0.00000000000E+00 -0.47882782163E+03  0.27205380992E+04  0.26780686075E+04 0.  0.
        5    1    3    3  502    0  0.83122020442E+03  0.20452795558E+03 -0.12854184776E+04  0.15443708963E+04  0.46999998093E+01 0. -1.
       -5    1    3    3    0  502 -0.83122020442E+03 -0.20452795558E+03  0.80659065600E+03  0.11761672029E+04  0.46999998093E+01 0.  1.
</event>
<event>
 5   0  0.8407622E-06  0.2689593E+04  0.7818609E-02  0.8338390E-01
       -2   -1    0    0    0  501  0.00000000000E+00  0.00000000000E+00  0.83240743047E+03  0.83240743048E+03  0.25500000920E-02 0. -1.
        2   -1    0    0  501    0  0.00000000000E+00  0.00000000000E+00 -0.21725866065E+04  0.21725866065E+04  0.25500000920E-02 0.  1.
    10030    2    1    2    0    0  0.00000000000E+00  0.00000000000E+00 -0.13401791760E+04  0.30049940370E+04  0.26895927086E+04 0.  0.
        1    1    3    3  502    0  0.42567862920E+03 -0.12155776288E+04 -0.11022944073E+04  0.16952534405E+04  0.50400001928E-02 0.  1.
       -1    1    3    3    0  502 -0.42567862920E+03  0.12155776288E+04 -0.23788476867E+03  0.13097405965E+04  0.50400001928E-02 0. -1.
</event>
<event>
 5   0  0.2654625E-06  0.2716224E+04  0.7818609E-02  0.8329760E-01
        3   -1    0    0  501    0  0.00000000000E+00  0.00000000000E+00  0.81940100374E+03  0.81940100996E+03  0.10100000352E+00 0.  1.
       -3   -1    0    0    0  501  0.00000000000E+00  0.00000000000E+00 -0.22509952220E+04  0.22509952243E+04  0.10100000352E+00 0. -1.
    10030    2    1    2    0    0  0.00000000000E+00  0.00000000000E+00 -0.14315942183E+04  0.30703962342E+04  0.27162236707E+04 0.  0.
        4    1    3    3  502    0 -0.18975745853E+03 -0.52156587100E+03  0.68535376445E+03  0.88190149462E+03  0.12699999809E+01 0.  1.
       -4    1    3    3    0  502  0.18975745853E+03  0.52156587100E+03 -0.21169479827E+04  0.21884947396E+04  0.12699999809E+01 0. -1.
</event>
<event>
 5   0  0.3013407E-06  0.2694008E+04  0.7818609E-02  0.8336952E-01
        1   -1    0    0  501    0  0.00000000000E+00  0.00000000000E+00  0.18758718348E+04  0.18758718348E+04  0.50400001928E-02 0.  1.
       -1   -1    0    0    0  501  0.00000000000E+00  0.00000000000E+00 -0.96724076547E+03  0.96724076548E+03  0.50400001928E-02 0. -1.
    10030    2    1    2    0    0  0.00000000000E+00  0.00000000000E+00  0.90863106932E+03  0.28431126003E+04  0.26940079506E+04 0.  0.
        4    1    3    3  502    0  0.99823375309E+03 -0.90400506554E+03  0.48267889376E+03  0.14306209532E+04  0.12699999809E+01 0.  1.
       -4    1    3    3    0  502 -0.99823375309E+03  0.90400506554E+03  0.42595217556E+03  0.14124916471E+04  0.12699999809E+01 0. -1.
</event>
<event>
 5   0  0.7729970E-06  0.2702575E+04  0.7818609E-02  0.8334170E-01
       -2   -1    0    0    0  501  0.00000000000E+00  0.00000000000E+00  0.12566382697E+04  0.12566382697E+04  0.25500000920E-02 0.  1.
        2   -1    0    0  501    0  0.00000000000E+00  0.00000000000E+00 -0.14530653324E+04  0.14530653324E+04  0.25500000920E-02 0. -1.
    10030    2    1    2    0    0  0.00000000000E+00  0.00000000000E+00 -0.19642706269E+03  0.27097036022E+04  0.27025747021E+04 0.  0.
        4    1    3    3  502    0  0.65400285196E+03 -0.87992150486E+02  0.10840973676E+04  0.12691458010E+04  0.12699999809E+01 0.  1.
       -4    1    3    3    0  502 -0.65400285196E+03  0.87992150486E+02 -0.12805244303E+04  0.14405578011E+04  0.12699999809E+01 0. -1.
</event>
<event>
 5   0  0.8213334E-06  0.2694130E+04  0.7818609E-02  0.8336912E-01
        2   -1    0    0  501    0  0.00000000000E+00  0.00000000000E+00  0.11786309545E+04  0.11786309545E+04  0.25500000920E-02 0. -1.
       -2   -1    0    0    0  501  0.00000000000E+00  0.00000000000E+00 -0.15395698221E+04  0.15395698221E+04  0.25500000920E-02 0.  1.
    10030    2    1    2    0    0  0.00000000000E+00  0.00000000000E+00 -0.36093886757E+03  0.27182007766E+04  0.26941303970E+04 0.  0.
        3    1    3    3  502    0  0.12730254393E+04 -0.18862411124E+03  0.22109635315E+03  0.13057780945E+04  0.10100000352E+00 0. -1.
       -3    1    3    3    0  502 -0.12730254393E+04  0.18862411124E+03 -0.58203522072E+03  0.14124226821E+04  0.10100000352E+00 0.  1.
</event>
<event>
 5   0  0.7812908E-06  0.2700779E+04  0.7818609E-02  0.8334752E-01
        2   -1    0    0  501    0  0.00000000000E+00  0.00000000000E+00  0.71263312302E+03  0.71263312303E+03  0.25500000920E-02 0.  1.
       -2   -1    0    0    0  501  0.00000000000E+00  0.00000000000E+00 -0.25588921907E+04  0.25588921907E+04  0.25500000920E-02 0. -1.
    10030    2    1    2    0    0  0.00000000000E+00  0.00000000000E+00 -0.18462590677E+04  0.32715253137E+04  0.27007786532E+04 0.  0.
        5    1    3    3  502    0  0.30815359900E+03  0.12787215975E+04 -0.55284837933E+03  0.14267974576E+04  0.46999998093E+01 0.  1.
       -5    1    3    3    0  502 -0.30815359900E+03 -0.12787215975E+04 -0.12934106883E+04  0.18447278561E+04  0.46999998093E+01 0. -1.
</event>
<event>
 5   0  0.7812908E-06  0.2692038E+04  0.7818609E-02  0.8337593E-01
       -2   -1    0    0    0  501  0.00000000000E+00  0.00000000000E+00  0.10284116424E+04  0.10284116424E+04  0.25500000920E-02 0.  1.
        2   -1    0    0  501    0  0.00000000000E+00  0.00000000000E+00 -0.17617142531E+04  0.17617142531E+04  0.25500000920E-02 0. -1.
    10030    2    1    2    0    0  0.00000000000E+00  0.00000000000E+00 -0.73330261074E+03  0.27901258955E+04  0.26920382229E+04 0.  0.
        5    1    3    3  502    0  0.10539019777E+04  0.49331915256E+03  0.33451306850E+03  0.12107824940E+04  0.46999998093E+01 0.  1.
       -5    1    3    3    0  502 -0.10539019777E+04 -0.49331915256E+03 -0.10678156792E+04  0.15793434015E+04  0.46999998093E+01 0. -1.
</event>
<event>
 5   0  0.7812908E-06  0.2678070E+04  0.7818609E-02  0.8342156E-01
       -2   -1    0    0    0  501  0.00000000000E+00  0.00000000000E+00  0.11307677900E+04  0.11307677900E+04  0.25500000920E-02 0.  1.
        2   -1    0    0  501    0  0.00000000000E+00  0.00000000000E+00 -0.15856615347E+04  0.15856615347E+04  0.25500000920E-02 0. -1.
    10030    2    1    2    0    0  0.00000000000E+00  0.00000000000E+00 -0.45489374475E+03  0.27164293247E+04  0.26780701927E+04 0.  0.
        5    1    3    3  502    0  0.54131743172E+03  0.35152249554E+03  0.96255824606E+03  0.11589361906E+04  0.46999998093E+01 0.  1.
       -5    1    3    3    0  502 -0.54131743172E+03 -0.35152249554E+03 -0.14174519908E+04  0.15574931342E+04  0.46999998093E+01 0. -1.
</event>
<event>
 5   0  0.3089218E-06  0.2690075E+04  0.7818609E-02  0.8338232E-01
       -1   -1    0    0    0  501  0.00000000000E+00  0.00000000000E+00  0.13850807339E+04  0.13850807339E+04  0.50400001928E-02 0. -1.
        1   -1    0    0  501    0  0.00000000000E+00  0.00000000000E+00 -0.13061519779E+04  0.13061519779E+04  0.50400001928E-02 0.  1.
    10030    2    1    2    0    0  0.00000000000E+00  0.00000000000E+00  0.78928756021E+02  0.26912327119E+04  0.26900750474E+04 0.  0.
        5    1    3    3  502    0 -0.43882396903E+03 -0.93916101789E+03 -0.81794234227E+03  0.13204702415E+04  0.46999998093E+01 0.  1.
       -5    1    3    3    0  502  0.43882396903E+03  0.93916101789E+03  0.89687109829E+03  0.13707624704E+04  0.46999998093E+01 0. -1.
</event>
<event>
 5   0  0.8407622E-06  0.2681095E+04  0.7818609E-02  0.8341165E-01
        2   -1    0    0  501    0  0.00000000000E+00  0.00000000000E+00  0.12698571366E+04  0.12698571366E+04  0.25500000920E-02 0.  1.
       -2   -1    0    0    0  501  0.00000000000E+00  0.00000000000E+00 -0.14151732472E+04  0.14151732472E+04  0.25500000920E-02 0. -1.
    10030    2    1    2    0    0  0.00000000000E+00  0.00000000000E+00 -0.14531611059E+03  0.26850303838E+04  0.26810951848E+04 0.  0.
        1    1    3    3  502    0 -0.12293909199E+04  0.52847711378E+03 -0.15263611103E+03  0.13468436718E+04  0.50400001928E-02 0.  1.
       -1    1    3    3    0  502  0.12293909199E+04 -0.52847711378E+03  0.73200004417E+01  0.13381867120E+04  0.50400001928E-02 0. -1.
</event>
<event>
 5   0  0.3046300E-06  0.2670173E+04  0.7818609E-02  0.8344748E-01
       -1   -1    0    0    0  501  0.00000000000E+00  0.00000000000E+00  0.18675954538E+04  0.18675954538E+04  0.50400001928E-02 0. -1.
        1   -1    0    0  501    0  0.00000000000E+00  0.00000000000E+00 -0.95441226296E+03  0.95441226297E+03  0.50400001928E-02 0.  1.
    10030    2    1    2    0    0  0.00000000000E+00  0.00000000000E+00  0.91318319080E+03  0.28220077167E+04  0.26701730306E+04 0.  0.
        2    1    3    3  502    0 -0.33020172070E+03 -0.83431632423E+03  0.15014114776E+04  0.17491007205E+04  0.25500000920E-02 0. -1.
       -2    1    3    3    0  502  0.33020172070E+03  0.83431632423E+03 -0.58822828681E+03  0.10729069963E+04  0.25500000920E-02 0.  1.
</event>
<event>
 5   0  0.3013407E-06  0.2675521E+04  0.7818609E-02  0.8342991E-01
        1   -1    0    0  501    0  0.00000000000E+00  0.00000000000E+00  0.15869970566E+04  0.15869970566E+04  0.50400001928E-02 0.  1.
       -1   -1    0    0    0  501  0.00000000000E+00  0.00000000000E+00 -0.11276666480E+04  0.11276666480E+04  0.50400001928E-02 0. -1.
    10030    2    1    2    0    0  0.00000000000E+00  0.00000000000E+00  0.45933040857E+03  0.27146637046E+04  0.26755213706E+04 0.  0.
        4    1    3    3  502    0  0.65421642094E+03  0.79311918861E+03  0.10980868803E+04  0.15042717781E+04  0.12699999809E+01 0.  1.
       -4    1    3    3    0  502 -0.65421642094E+03 -0.79311918861E+03 -0.63875647170E+03  0.12103919265E+04  0.12699999809E+01 0. -1.
</event>
<event>
 5   0  0.3028601E-06  0.2652384E+04  0.7818609E-02  0.8350622E-01
       -1   -1    0    0    0  501  0.00000000000E+00  0.00000000000E+00  0.16001622850E+04  0.16001622850E+04  0.50400001928E-02 0. -1.
        1   -1    0    0  501    0  0.00000000000E+00  0.00000000000E+00 -0.10991295783E+04  0.10991295783E+04  0.50400001928E-02 0.  1.
    10030    2    1    2    0    0  0.00000000000E+00  0.00000000000E+00  0.50103270665E+03  0.26992918633E+04  0.26523843595E+04 0.  0.
        3    1    3    3  502    0  0.13194515025E+04  0.13248422029E+03  0.23344617963E+03  0.13464774283E+04  0.10100000352E+00 0.  1.
       -3    1    3    3    0  502 -0.13194515025E+04 -0.13248422029E+03  0.26758652702E+03  0.13528144350E+04  0.10100000352E+00 0. -1.
</event>
<event>
 5   0  0.8407622E-06  0.2705767E+04  0.7818609E-02  0.8333136E-01
        2   -1    0    0  501    0  0.00000000000E+00  0.00000000000E+00  0.14219455774E+04  0.14219455774E+04  0.25500000920E-02 0. -1.
       -2   -1    0    0    0  501  0.00000000000E+00  0.00000000000E+00 -0.12871760635E+04  0.12871760635E+04  0.25500000920E-02 0.  1.
    10030    2    1    2    0    0  0.00000000000E+00  0.00000000000E+00  0.13476951395E+03  0.27091216409E+04  0.27057674038E+04 0.  0.
        1    1    3    3  502    0 -0.12276095054E+03  0.88646373378E+03  0.10832390388E+04  0.14050960883E+04  0.50400001928E-02 0. -1.
       -1    1    3    3    0  502  0.12276095054E+03 -0.88646373378E+03 -0.94846952481E+03  0.13040255526E+04  0.50400001928E-02 0.  1.
</event>
<event>
 5   0  0.3013407E-06  0.2704393E+04  0.7818609E-02  0.8333581E-01
        1   -1    0    0  501    0  0.00000000000E+00  0.00000000000E+00  0.17589833251E+04  0.17589833251E+04  0.50400001928E-02 0. -1.
       -1   -1    0    0    0  501  0.00000000000E+00  0.00000000000E+00 -0.10394839130E+04  0.10394839130E+04  0.50400001928E-02 0.  1.
    10030    2    1    2    0    0  0.00000000000E+00  0.00000000000E+00  0.71949941213E+03  0.27984672382E+04  0.27043926266E+04 0.  0.
        4    1    3    3  502    0  0.63933190840E+03 -0.10294888550E+03 -0.86859362505E+03  0.10834206295E+04  0.12699999809E+01 0.  1.
       -4    1    3    3    0  502 -0.63933190840E+03  0.10294888550E+03  0.15880930372E+04  0.17150466086E+04  0.12699999809E+01 0. -1.
</event>
<event>
 5   0  0.3013407E-06  0.2709770E+04  0.7818609E-02  0.8331842E-01
        1   -1    0    0  501    0  0.00000000000E+00  0.00000000000E+00  0.16311508326E+04  0.16311508326E+04  0.50400001928E-02 0.  1.
       -1   -1    0    0    0  501  0.00000000000E+00  0.00000000000E+00 -0.11254103280E+04  0.11254103280E+04  0.50400001928E-02 0. -1.
    10030    2    1    2    0    0  0.00000000000E+00  0.00000000000E+00  0.50574050462E+03  0.27565611606E+04  0.27097704652E+04 0.  0.
        4    1    3    3  502    0  0.11098930417E+04  0.56844294354E+03  0.79185154320E+03  0.14771663493E+04  0.12699999809E+01 0. -1.
       -4    1    3    3    0  502 -0.11098930417E+04 -0.56844294354E+03 -0.28611103858E+03  0.12793948114E+04  0.12699999809E+01 0.  1.
</event>
<event>
 5   0  0.3089218E-06  0.2579857E+04  0.7818609E-02  0.8375076E-01
       -1   -1    0    0    0  501  0.00000000000E+00  0.00000000000E+00  0.18660444782E+04  0.18660444782E+04  0.50400001928E-02 0. -1.
        1   -1    0    0  501    0  0.00000000000E+00  0.00000000000E+00 -0.89168020221E+03  0.89168020222E+03  0.50400001928E-02 0.  1.
    10030    2    1    2    0    0  0.00000000000E+00  0.00000000000E+00  0.97436427602E+03  0.27577246805E+04  0.25798565214E+04 0.  0.
        5    1    3    3  502    0  0.10200136885E+03 -0.15606476153E+03 -0.87719217642E+03  0.89679913772E+03  0.46999998093E+01 0.  1.
       -5    1    3    3    0  502 -0.10200136885E+03  0.15606476153E+03  0.18515564524E+04  0.18609255427E+04  0.46999998093E+01 0. -1.
</event>
<event>
 5   0  0.7838364E-06  0.2641197E+04  0.7818609E-02  0.8354341E-01
       -2   -1    0    0    0  501  0.00000000000E+00  0.00000000000E+00  0.78142685429E+03  0.78142685430E+03  0.25500000920E-02 0. -1.
        2   -1    0    0  501    0  0.00000000000E+00  0.00000000000E+00 -0.22317900095E+04  0.22317900095E+04  0.25500000920E-02 0.  1.
    10030    2    1    2    0    0  0.00000000000E+00  0.00000000000E+00 -0.14503631552E+04  0.30132168638E+04  0.26411971880E+04 0.  0.
        2    1    3    3  502    0 -0.96962003399E+03  0.86965569578E+03 -0.97386811414E+03  0.16263096702E+04  0.25500000920E-02 0.  1.
       -2    1    3    3    0  502  0.96962003399E+03 -0.86965569578E+03 -0.47649504102E+03  0.13869071936E+04  0.25500000920E-02 0. -1.
</event>
<event>
 5   0  0.7729970E-06  0.2701564E+04  0.7818609E-02  0.8334498E-01
       -2   -1    0    0    0  501  0.00000000000E+00  0.00000000000E+00  0.90189305635E+03  0.90189305636E+03  0.25500000920E-02 0. -1.
        2   -1    0    0  501    0  0.00000000000E+00  0.00000000000E+00 -0.20230911931E+04  0.20230911931E+04  0.25500000920E-02 0.  1.
    10030    2    1    2    0    0  0.00000000000E+00  0.00000000000E+00 -0.11211981368E+04  0.29249842495E+04  0.27015639170E+04 0.  0.
        4    1    3    3  502    0  0.93936797323E+03  0.59769286765E+03 -0.13886782466E+04  0.17799095029E+04  0.12699999809E+01 0.  1.
       -4    1    3    3    0  502 -0.93936797323E+03 -0.59769286765E+03  0.26748010982E+03  0.11450747466E+04  0.12699999809E+01 0. -1.
</event>
<event>
 5   0  0.7812908E-06  0.2705026E+04  0.7818609E-02  0.8333376E-01
       -2   -1    0    0    0  501  0.00000000000E+00  0.00000000000E+00  0.19007700403E+04  0.19007700403E+04  0.25500000920E-02 0.  1.
        2   -1    0    0  501    0  0.00000000000E+00  0.00000000000E+00 -0.96239467920E+03  0.96239467920E+03  0.25500000920E-02 0. -1.
    10030    2    1    2    0    0  0.00000000000E+00  0.00000000000E+00  0.93837536109E+03  0.28631647195E+04  0.27050256732E+04 0.  0.
        5    1    3    3  502    0 -0.81189455100E+03  0.38702683513E+03 -0.59996625130E+03  0.10811771944E+04  0.46999998093E+01 0. -1.
       -5    1    3    3    0  502  0.81189455100E+03 -0.38702683513E+03  0.15383416124E+04  0.17819875251E+04  0.46999998093E+01 0.  1.
</event>
<event>
 5   0  0.8213334E-06  0.2741527E+04  0.7818609E-02  0.8321655E-01
        2   -1    0    0  501    0  0.00000000000E+00  0.00000000000E+00  0.24323388891E+04  0.24323388891E+04  0.25500000920E-02 0.  1.
       -2   -1    0    0    0  501  0.00000000000E+00  0.00000000000E+00 -0.77250452047E+03  0.77250452047E+03  0.25500000920E-02 0. -1.
    10030    2    1    2    0    0  0.00000000000E+00  0.00000000000E+00  0.16598343687E+04  0.32048434096E+04  0.27415271563E+04 0.  0.
        3    1    3    3  502    0 -0.26781529835E+03  0.11870703311E+04  0.15675286872E+04  0.19844412816E+04  0.10100000352E+00 0. -1.
       -3    1    3    3    0  502  0.26781529835E+03 -0.11870703311E+04  0.92305681459E+02  0.12204021280E+04  0.10100000352E+00 0.  1.
</event>
<event>
 5   0  0.7812908E-06  0.2668695E+04  0.7818609E-02  0.8345234E-01
       -2   -1    0    0    0  501  0.00000000000E+00  0.00000000000E+00  0.71264381666E+03  0.71264381667E+03  0.25500000920E-02 0.  1.
        2   -1    0    0  501    0  0.00000000000E+00  0.00000000000E+00 -0.24984190530E+04  0.24984190530E+04  0.25500000920E-02 0. -1.
    10030    2    1    2    0    0  0.00000000000E+00  0.00000000000E+00 -0.17857752363E+04  0.32110628696E+04  0.26686947293E+04 0.  0.
        5    1    3    3  502    0  0.90553235335E+03  0.96554557418E+03 -0.10949223119E+04  0.17178894196E+04  0.46999998093E+01 0.  1.
       -5    1    3    3    0  502 -0.90553235335E+03 -0.96554557418E+03 -0.69085292438E+03  0.14931734500E+04  0.46999998093E+01 0. -1.
</event>
<event>
 5   0  0.7838364E-06  0.2696567E+04  0.7818609E-02  0.8336120E-01
        2   -1    0    0  501    0  0.00000000000E+00  0.00000000000E+00  0.12926205056E+04  0.12926205056E+04  0.25500000920E-02 0.  1.
       -2   -1    0    0    0  501  0.00000000000E+00  0.00000000000E+00 -0.14063431171E+04  0.14063431172E+04  0.25500000920E-02 0. -1.
    10030    2    1    2    0    0  0.00000000000E+00  0.00000000000E+00 -0.11372261154E+03  0.26989636228E+04  0.26965666698E+04 0.  0.
        2    1    3    3  502    0 -0.74737143623E+03  0.10731857705E+04 -0.38514094466E+03  0.13633140904E+04  0.25500000920E-02 0. -1.
       -2    1    3    3    0  502  0.74737143623E+03 -0.10731857705E+04  0.27141833312E+03  0.13356495324E+04  0.25500000920E-02 0.  1.
</event>
<event>
 5   0  0.3199840E-06  0.2691921E+04  0.7818609E-02  0.8337631E-01
        1   -1    0    0  501    0  0.00000000000E+00  0.00000000000E+00  0.15582024888E+04  0.15582024888E+04  0.50400001928E-02 0. -1.
       -1   -1    0    0    0  501  0.00000000000E+00  0.00000000000E+00 -0.11626283081E+04  0.11626283081E+04  0.50400001928E-02 0.  1.
    10030    2    1    2    0    0  0.00000000000E+00  0.00000000000E+00  0.39557418066E+03  0.27208307969E+04  0.26919214872E+04 0.  0.
        1    1    3    3  502    0  0.46592922286E+03 -0.79307016565E+03  0.11909689475E+04  0.15048114042E+04  0.50400001928E-02 0. -1.
       -1    1    3    3    0  502 -0.46592922286E+03  0.79307016565E+03 -0.79539476680E+03  0.12160193927E+04  0.50400001928E-02 0.  1.
</event>
<event>
 5   0  0.3013407E-06  0.2688434E+04  0.7818609E-02  0.8338767E-01
        1   -1    0    0  501    0  0.00000000000E+00  0.00000000000E+00  0.17487803634E+04  0.17487803634E+04  0.50400001928E-02 0. -1.
       -1   -1    0    0    0  501  0.00000000000E+00  0.00000000000E+00 -0.10332457632E+04  0.10332457633E+04  0.50400001928E-02 0.  1.
    10030    2    1    2    0    0  0.00000000000E+00  0.00000000000E+00  0.71553460017E+03  0.27820261267E+04  0.26884344153E+04 0.  0.
        4    1    3    3  502    0 -0.10085158350E+04 -0.29435634581E+03  0.12255109482E+04  0.16141959437E+04  0.12699999809E+01 0. -1.
       -4    1    3    3    0  502  0.10085158350E+04  0.29435634581E+03 -0.50997634803E+03  0.11678301829E+04  0.12699999809E+01 0.  1.
</event>
<event>
 5   0  0.7729970E-06  0.2703615E+04  0.7818609E-02  0.8333833E-01
        2   -1    0    0  501    0  0.00000000000E+00  0.00000000000E+00  0.11385779017E+04  0.11385779017E+04  0.25500000920E-02 0. -1.
       -2   -1    0    0    0  501  0.00000000000E+00  0.00000000000E+00 -0.16049703372E+04  0.16049703372E+04  0.25500000920E-02 0.  1.
    10030    2    1    2    0    0  0.00000000000E+00  0.00000000000E+00 -0.46639243543E+03  0.27435482389E+04  0.27036151789E+04 0.  0.
        4    1    3    3  502    0 -0.92935048014E+03 -0.55303323431E+03  0.58985944570E+03  0.12318578862E+04  0.12699999809E+01 0. -1.
       -4    1    3    3    0  502  0.92935048014E+03  0.55303323431E+03 -0.10562518811E+04  0.15116903527E+04  0.12699999809E+01 0.  1.
</event>
<event>
 5   0  0.7729970E-06  0.2612877E+04  0.7818609E-02  0.8363840E-01
       -2   -1    0    0    0  501  0.00000000000E+00  0.00000000000E+00  0.61114335333E+03  0.61114335334E+03  0.25500000920E-02 0. -1.
        2   -1    0    0  501    0  0.00000000000E+00  0.00000000000E+00 -0.27927680622E+04  0.27927680622E+04  0.25500000920E-02 0.  1.
    10030    2    1    2    0    0  0.00000000000E+00  0.00000000000E+00 -0.21816247089E+04  0.34039114155E+04  0.26128770646E+04 0.  0.
        4    1    3    3  502    0 -0.56662847573E+03 -0.10207489329E+04 -0.32697308103E+03  0.12123981285E+04  0.12699999809E+01 0. -1.
       -4    1    3    3    0  502  0.56662847573E+03  0.10207489329E+04 -0.18546516278E+04  0.21915132870E+04  0.12699999809E+01 0.  1.
</event>
<event>
 5   0  0.3046300E-06  0.2638911E+04  0.7818609E-02  0.8355103E-01
       -1   -1    0    0    0  501  0.00000000000E+00  0.00000000000E+00  0.80808148060E+03  0.80808148062E+03  0.50400001928E-02 0.  1.
        1   -1    0    0  501    0  0.00000000000E+00  0.00000000000E+00 -0.21544401728E+04  0.21544401728E+04  0.50400001928E-02 0. -1.
    10030    2    1    2    0    0  0.00000000000E+00  0.00000000000E+00 -0.13463586922E+04  0.29625216534E+04  0.26389112942E+04 0.  0.
        2    1    3    3  502    0  0.87385499162E+03 -0.74971945450E+03  0.50252332431E+02  0.11524873551E+04  0.25500000920E-02 0. -1.
       -2    1    3    3    0  502 -0.87385499162E+03  0.74971945450E+03 -0.13966110246E+04  0.18100342983E+04  0.25500000920E-02 0.  1.
</event>
<event>
 5   0  0.3046300E-06  0.2688806E+04  0.7818609E-02  0.8338646E-01
       -1   -1    0    0    0  501  0.00000000000E+00  0.00000000000E+00  0.17840681879E+04  0.17840681879E+04  0.50400001928E-02 0. -1.
        1   -1    0    0  501    0  0.00000000000E+00  0.00000000000E+00 -0.10130887212E+04  0.10130887212E+04  0.50400001928E-02 0.  1.
    10030    2    1    2    0    0  0.00000000000E+00  0.00000000000E+00  0.77097946675E+03  0.27971569091E+04  0.26888059499E+04 0.  0.
        2    1    3    3  502    0  0.94573888422E+03  0.35440025314E+02  0.13788189031E+04  0.16723694568E+04  0.25500000920E-02 0. -1.
       -2    1    3    3    0  502 -0.94573888422E+03 -0.35440025314E+02 -0.60783943636E+03  0.11247874523E+04  0.25500000920E-02 0.  1.
</event>
<event>
 5   0  0.7838364E-06  0.2683500E+04  0.7818609E-02  0.8340378E-01
        2   -1    0    0  501    0  0.00000000000E+00  0.00000000000E+00  0.25348285144E+04  0.25348285144E+04  0.25500000920E-02 0. -1.
       -2   -1    0    0    0  501  0.00000000000E+00  0.00000000000E+00 -0.71022305122E+03  0.71022305123E+03  0.25500000920E-02 0.  1.
    10030    2    1    2    0    0  0.00000000000E+00  0.00000000000E+00  0.18246054632E+04  0.32450515657E+04  0.26835004318E+04 0.  0.
        2    1    3    3  502    0 -0.50531313682E+03  0.11416961663E+04  0.15065434956E+04  0.19566514269E+04  0.25500000920E-02 0.  1.
       -2    1    3    3    0  502  0.50531313682E+03 -0.11416961663E+04  0.31806196765E+03  0.12884001388E+04  0.25500000920E-02 0. -1.
</event>
<event>
 5   0  0.8213334E-06  0.2701829E+04  0.7818609E-02  0.8334412E-01
       -2   -1    0    0    0  501  0.00000000000E+00  0.00000000000E+00  0.13107258190E+04  0.13107258190E+04  0.25500000920E-02 0. -1.
        2   -1    0    0  501    0  0.00000000000E+00  0.00000000000E+00 -0.13923351344E+04  0.13923351344E+04  0.25500000920E-02 0.  1.
    10030    2    1    2    0    0  0.00000000000E+00  0.00000000000E+00 -0.81609315447E+02  0.27030609534E+04  0.27018287210E+04 0.  0.
        3    1    3    3  502    0 -0.12346560100E+04  0.18578858255E+03 -0.55686618049E+03  0.13671111197E+04  0.10100000352E+00 0.  1.
       -3    1    3    3    0  502  0.12346560100E+04 -0.18578858255E+03  0.47525686504E+03  0.13359498338E+04  0.10100000352E+00 0. -1.
</event>
<event>
 5   0  0.7838364E-06  0.2706520E+04  0.7818609E-02  0.8332892E-01
        2   -1    0    0  501    0  0.00000000000E+00  0.00000000000E+00  0.16095820563E+04  0.16095820563E+04  0.25500000920E-02 0.  1.
       -2   -1    0    0    0  501  0.00000000000E+00  0.00000000000E+00 -0.11377570035E+04  0.11377570035E+04  0.25500000920E-02 0. -1.
    10030    2    1    2    0    0  0.00000000000E+00  0.00000000000E+00  0.47182505276E+03  0.27473390598E+04  0.27065204653E+04 0.  0.
        2    1    3    3  502    0 -0.51819748135E+03 -0.60875578756E+03  0.13442593721E+04  0.15640158241E+04  0.25500000920E-02 0.  1.
       -2    1    3    3    0  502  0.51819748135E+03  0.60875578756E+03 -0.87243431931E+03  0.11833232357E+04  0.25500000920E-02 0. -1.
</event>
<event>
 5   0  0.8407622E-06  0.2700750E+04  0.7818609E-02  0.8334762E-01
       -2   -1    0    0    0  501  0.00000000000E+00  0.00000000000E+00  0.19102999867E+04  0.19102999867E+04  0.25500000920E-02 0. -1.
        2   -1    0    0  501    0  0.00000000000E+00  0.00000000000E+00 -0.95456854186E+03  0.95456854186E+03  0.25500000920E-02 0.  1.
    10030    2    1    2    0    0  0.00000000000E+00  0.00000000000E+00  0.95573144487E+03  0.28648685286E+04  0.27007497276E+04 0.  0.
        1    1    3    3  502    0  0.63431564113E+03  0.11829456080E+04  0.63447051804E+03  0.14846782420E+04  0.50400001928E-02 0. -1.
       -1    1    3    3    0  502 -0.63431564113E+03 -0.11829456080E+04  0.32126092682E+03  0.13801902866E+04  0.50400001928E-02 0.  1.
</event>
<event>
 5   0  0.3089218E-06  0.2678649E+04  0.7818609E-02  0.8341966E-01
        1   -1    0    0  501    0  0.00000000000E+00  0.00000000000E+00  0.17414356096E+04  0.17414356096E+04  0.50400001928E-02 0.  1.
       -1   -1    0    0    0  501  0.00000000000E+00  0.00000000000E+00 -0.10300639501E+04  0.10300639501E+04  0.50400001928E-02 0. -1.
    10030    2    1    2    0    0  0.00000000000E+00  0.00000000000E+00  0.71137165949E+03  0.27714995597E+04  0.26786489452E+04 0.  0.
        5    1    3    3  502    0  0.12839708830E+04 -0.26692167830E+03  0.74342001794E+02  0.13135361563E+04  0.46999998093E+01 0.  1.
       -5    1    3    3    0  502 -0.12839708830E+04  0.26692167830E+03  0.63702965769E+03  0.14579634034E+04  0.46999998093E+01 0. -1.
</event>
<event>
 5   0  0.7812908E-06  0.2704773E+04  0.7818609E-02  0.8333458E-01
        2   -1    0    0  501    0  0.00000000000E+00  0.00000000000E+00  0.99447761794E+03  0.99447761794E+03  0.25500000920E-02 0.  1.
       -2   -1    0    0    0  501  0.00000000000E+00  0.00000000000E+00 -0.18391058585E+04  0.18391058585E+04  0.25500000920E-02 0. -1.
    10030    2    1    2    0    0  0.00000000000E+00  0.00000000000E+00 -0.84462824060E+03  0.28335834765E+04  0.27047732721E+04 0.  0.
        5    1    3    3  502    0 -0.43106914516E+03  0.94502548909E+03 -0.13296029113E+04  0.16872343568E+04  0.46999998093E+01 0. -1.
       -5    1    3    3    0  502  0.43106914516E+03 -0.94502548909E+03  0.48497467074E+03  0.11463491197E+04  0.46999998093E+01 0.  1.
</event>
<event>
 5   0  0.7729970E-06  0.2701785E+04  0.7818609E-02  0.8334426E-01
        2   -1    0    0  501    0  0.00000000000E+00  0.00000000000E+00  0.24672552863E+04  0.24672552863E+04  0.25500000920E-02 0. -1.
       -2   -1    0    0    0  501  0.00000000000E+00  0.00000000000E+00 -0.73965194563E+03  0.73965194563E+03  0.25500000920E-02 0.  1.
    10030    2    1    2    0    0  0.00000000000E+00  0.00000000000E+00  0.17276033407E+04  0.32069072319E+04  0.27017847234E+04 0.  0.
        4    1    3    3  502    0  0.55082369370E+03  0.10875172204E+04  0.15546974765E+04  0.19756483246E+04  0.12699999809E+01 0. -1.
       -4    1    3    3    0  502 -0.55082369370E+03 -0.10875172204E+04  0.17290586413E+03  0.12312589073E+04  0.12699999809E+01 0.  1.
</event>
<event>
 5   0  0.7838364E-06  0.2689699E+04  0.7818609E-02  0.8338355E-01
        2   -1    0    0  501    0  0.00000000000E+00  0.00000000000E+00  0.19929469353E+04  0.19929469353E+04  0.25500000920E-02 0.  1.
       -2   -1    0    0    0  501  0.00000000000E+00  0.00000000000E+00 -0.90751026311E+03  0.90751026311E+03  0.25500000920E-02 0. -1.
    10030    2    1    2    0    0  0.00000000000E+00  0.00000000000E+00  0.10854366722E+04  0.29004571985E+04  0.26896987174E+04 0.  0.
        2    1    3    3  502    0  0.39131516859E+03  0.11906060468E+04  0.16694767634E+02  0.12533750577E+04  0.25500000920E-02 0. -1.
       -2    1    3    3    0  502 -0.39131516859E+03 -0.11906060468E+04  0.10687419046E+04  0.16470821408E+04  0.25500000920E-02 0.  1.
</event>
<event>
 5   0  0.3089218E-06  0.2706158E+04  0.7818609E-02  0.8333010E-01
        1   -1    0    0  501    0  0.00000000000E+00  0.00000000000E+00  0.19230224027E+04  0.19230224027E+04  0.50400001928E-02 0.  1.
       -1   -1    0    0    0  501  0.00000000000E+00  0.00000000000E+00 -0.95205503025E+03  0.95205503026E+03  0.50400001928E-02 0. -1.
    10030    2    1    2    0    0  0.00000000000E+00  0.00000000000E+00  0.97096737244E+03  0.28750774330E+04  0.27061582746E+04 0.  0.
        5    1    3    3  502    0 -0.43720576601E+03 -0.11503537998E+04  0.10830309348E+04  0.16393415880E+04  0.46999998093E+01 0.  1.
       -5    1    3    3    0  502  0.43720576601E+03  0.11503537998E+04 -0.11206356234E+03  0.12357358449E+04  0.46999998093E+01 0. -1.
</event>
<event>
 5   0  0.3089218E-06  0.2701253E+04  0.7818609E-02  0.8334599E-01
        1   -1    0    0  501    0  0.00000000000E+00  0.00000000000E+00  0.16219360996E+04  0.16219360996E+04  0.50400001928E-02 0.  1.
       -1   -1    0    0    0  501  0.00000000000E+00  0.00000000000E+00 -0.11246999174E+04  0.11246999174E+04  0.50400001928E-02 0. -1.
    10030    2    1    2    0    0  0.00000000000E+00  0.00000000000E+00  0.49723618217E+03  0.27466360170E+04  0.27012525963E+04 0.  0.
        5    1    3    3  502    0 -0.74412198809E+03  0.10745875464E+04 -0.97263702032E+02  0.13107014327E+04  0.46999998093E+01 0. -1.
       -5    1    3    3    0  502  0.74412198809E+03 -0.10745875464E+04  0.59449988420E+03  0.14359345843E+04  0.46999998093E+01 0.  1.
</event>
<event>
 5   0  0.8407622E-06  0.2684370E+04  0.7818609E-02  0.8340094E-01
       -2   -1    0    0    0  501  0.00000000000E+00  0.00000000000E+00  0.17373293050E+04  0.17373293050E+04  0.25500000920E-02 0. -1.
        2   -1    0    0  501    0  0.00000000000E+00  0.00000000000E+00 -0.10369136837E+04  0.10369136837E+04  0.25500000920E-02 0.  1.
    10030    2    1    2    0    0  0.00000000000E+00  0.00000000000E+00  0.70041562137E+03  0.27742429887E+04  0.26843699666E+04 0.  0.
        1    1    3    3  502    0 -0.39242875810E+03 -0.24694956153E+03  0.16519317587E+04  0.17157689098E+04  0.50400001928E-02 0. -1.
       -1    1    3    3    0  502  0.39242875810E+03  0.24694956153E+03 -0.95151613737E+03  0.10584740790E+04  0.50400001928E-02 0.  1.
</event>
<event>
 5   0  0.7812908E-06  0.2728933E+04  0.7818609E-02  0.8325678E-01
       -2   -1    0    0    0  501  0.00000000000E+00  0.00000000000E+00  0.14790883729E+04  0.14790883729E+04  0.25500000920E-02 0. -1.
        2   -1    0    0  501    0  0.00000000000E+00  0.00000000000E+00 -0.12587272701E+04  0.12587272701E+04  0.25500000920E-02 0.  1.
    10030    2    1    2    0    0  0.00000000000E+00  0.00000000000E+00  0.22036110282E+03  0.27378156430E+04  0.27289330295E+04 0.  0.
        5    1    3    3  502    0  0.13325142327E+04  0.11260564650E+03 -0.16175997387E+03  0.13470198926E+04  0.46999998093E+01 0. -1.
       -5    1    3    3    0  502 -0.13325142327E+04 -0.11260564650E+03  0.38212107669E+03  0.13907957504E+04  0.46999998093E+01 0.  1.
</event>
<event>
 5   0  0.7812908E-06  0.2710980E+04  0.7818609E-02  0.8331451E-01
       -2   -1    0    0    0  501  0.00000000000E+00  0.00000000000E+00  0.11930398105E+04  0.11930398105E+04  0.25500000920E-02 0. -1.
        2   -1    0    0  501    0  0.00000000000E+00  0.00000000000E+00 -0.15400601138E+04  0.15400601138E+04  0.25500000920E-02 0.  1.
    10030    2    1    2    0    0  0.00000000000E+00  0.00000000000E+00 -0.34702030335E+03  0.27330999243E+04  0.27109799160E+04 0.  0.
        5    1    3    3  502    0 -0.39604547564E+03  0.60753454348E+03  0.98098896020E+03  0.12199637988E+04  0.46999998093E+01 0. -1.
       -5    1    3    3    0  502  0.39604547564E+03 -0.60753454348E+03 -0.13280092635E+04  0.15131361255E+04  0.46999998093E+01 0.  1.
</event>
<event>
 5   0  0.3013407E-06  0.2704288E+04  0.7818609E-02  0.8333615E-01
        1   -1    0    0  501    0  0.00000000000E+00  0.00000000000E+00  0.12197105650E+04  0.12197105650E+04  0.50400001928E-02 0.  1.
       -1   -1    0    0    0  501  0.00000000000E+00  0.00000000000E+00 -0.14989564211E+04  0.14989564211E+04  0.50400001928E-02 0. -1.
    10030    2    1    2    0    0  0.00000000000E+00  0.00000000000E+00 -0.27924585607E+03  0.27186669861E+04  0.27042876942E+04 0.  0.
        4    1    3    3  502    0 -0.16846145020E+02  0.84426381052E+03 -0.12012808447E+04  0.14683808958E+04  0.12699999809E+01 0. -1.
       -4    1    3    3    0  502  0.16846145020E+02 -0.84426381052E+03  0.92203498867E+03  0.12502860903E+04  0.12699999809E+01 0.  1.
</event>
<event>
 5   0  0.3013407E-06  0.2680887E+04  0.7818609E-02  0.8341233E-01
       -1   -1    0    0    0  501  0.00000000000E+00  0.00000000000E+00  0.15855798902E+04  0.15855798902E+04  0.50400001928E-02 0.  1.
        1   -1    0    0  501    0  0.00000000000E+00  0.00000000000E+00 -0.11332057586E+04  0.11332057586E+04  0.50400001928E-02 0. -1.
    10030    2    1    2    0    0  0.00000000000E+00  0.00000000000E+00  0.45237413160E+03  0.27187856488E+04  0.26808866162E+04 0.  0.
        4    1    3    3  502    0 -0.84334504881E+03 -0.10282616716E+04  0.39659135340E+03  0.13877461047E+04  0.12699999809E+01 0.  1.
       -4    1    3    3    0  502  0.84334504881E+03  0.10282616716E+04  0.55782778196E+02  0.13310395441E+04  0.12699999809E+01 0. -1.
</event>
<event>
 5   0  0.3046300E-06  0.2707132E+04  0.7818609E-02  0.8332694E-01
        1   -1    0    0  501    0  0.00000000000E+00  0.00000000000E+00  0.75932419180E+03  0.75932419182E+03  0.50400001928E-02 0. -1.
       -1   -1    0    0    0  501  0.00000000000E+00  0.00000000000E+00 -0.24128579036E+04  0.24128579036E+04  0.50400001928E-02 0.  1.
    10030    2    1    2    0    0  0.00000000000E+00  0.00000000000E+00 -0.16535337118E+04  0.31721820955E+04  0.27071323408E+04 0.  0.
        2    1    3    3  502    0  0.21379111983E+03 -0.98701548980E+03 -0.18828290955E+04  0.21365747408E+04  0.25500000920E-02 0.  1.
       -2    1    3    3    0  502 -0.21379111983E+03  0.98701548980E+03  0.22929538370E+03  0.10356073547E+04  0.25500000920E-02 0. -1.
</event>
<event>
 5   0  0.8407622E-06  0.2698988E+04  0.7818609E-02  0.8335333E-01
        2   -1    0    0  501    0  0.00000000000E+00  0.00000000000E+00  0.16304454850E+04  0.16304454850E+04  0.25500000920E-02 0.  1.
       -2   -1    0    0    0  501  0.00000000000E+00  0.00000000000E+00 -0.11169552507E+04  0.11169552507E+04  0.25500000920E-02 0. -1.
    10030    2    1    2    0    0  0.00000000000E+00  0.00000000000E+00  0.51349023428E+03  0.27474007357E+04  0.26989884367E+04 0.  0.
        1    1    3    3  502    0  0.10734547548E+03 -0.34439747128E+03 -0.10669654744E+04  0.11262983587E+04  0.50400001928E-02 0. -1.
       -1    1    3    3    0  502 -0.10734547548E+03  0.34439747128E+03  0.15804557087E+04  0.16211023769E+04  0.50400001928E-02 0.  1.
</event>
<event>
 5   0  0.7812908E-06  0.2702509E+04  0.7818609E-02  0.8334191E-01
        2   -1    0    0  501    0  0.00000000000E+00  0.00000000000E+00  0.24353400564E+04  0.24353400564E+04  0.25500000920E-02 0.  1.
       -2   -1    0    0    0  501  0.00000000000E+00  0.00000000000E+00 -0.74974706335E+03  0.74974706335E+03  0.25500000920E-02 0. -1.
    10030    2    1    2    0    0  0.00000000000E+00  0.00000000000E+00  0.16855929930E+04  0.31850871197E+04  0.27025092455E+04 0.  0.
        5    1    3    3  502    0  0.56820443810E+03  0.32831277452E+03 -0.54932036110E+03  0.85581569891E+03  0.46999998093E+01 0. -1.
       -5    1    3    3    0  502 -0.56820443810E+03 -0.32831277452E+03  0.22349133541E+04  0.23292714208E+04  0.46999998093E+01 0.  1.
</event>
<event>
 5   0  0.8213334E-06  0.2695987E+04  0.7818609E-02  0.8336308E-01
       -2   -1    0    0    0  501  0.00000000000E+00  0.00000000000E+00  0.11601866942E+04  0.11601866942E+04  0.25500000920E-02 0.  1.
        2   -1    0    0  501    0  0.00000000000E+00  0.00000000000E+00 -0.15662012358E+04  0.15662012358E+04  0.25500000920E-02 0. -1.
    10030    2    1    2    0    0  0.00000000000E+00  0.00000000000E+00 -0.40601454165E+03  0.27263879300E+04  0.26959865238E+04 0.  0.
        3    1    3    3  502    0  0.12894666056E+03 -0.12975988733E+04 -0.54846701506E+03  0.14146399380E+04  0.10100000352E+00 0.  1.
       -3    1    3    3    0  502 -0.12894666056E+03  0.12975988733E+04  0.14245247342E+03  0.13117479920E+04  0.10100000352E+00 0. -1.
</event>
<event>
 5   0  0.3013407E-06  0.2692688E+04  0.7818609E-02  0.8337381E-01
        1   -1    0    0  501    0  0.00000000000E+00  0.00000000000E+00  0.10806204357E+04  0.10806204357E+04  0.50400001928E-02 0.  1.
       -1   -1    0    0    0  501  0.00000000000E+00  0.00000000000E+00 -0.16774090883E+04  0.16774090883E+04  0.50400001928E-02 0. -1.
    10030    2    1    2    0    0  0.00000000000E+00  0.00000000000E+00 -0.59678865260E+03  0.27580295241E+04  0.26926882775E+04 0.  0.
        4    1    3    3  502    0 -0.96298180651E+03 -0.81936190716E+02 -0.12584729638E+04  0.15867587443E+04  0.12699999809E+01 0. -1.
       -4    1    3    3    0  502  0.96298180651E+03  0.81936190716E+02  0.66168431120E+03  0.11712707798E+04  0.12699999809E+01 0.  1.
</event>
<event>
 5   0  0.8407622E-06  0.2674019E+04  0.7818609E-02  0.8343485E-01
       -2   -1    0    0    0  501  0.00000000000E+00  0.00000000000E+00  0.15675089078E+04  0.15675089078E+04  0.25500000920E-02 0. -1.
        2   -1    0    0  501    0  0.00000000000E+00  0.00000000000E+00 -0.11404042615E+04  0.11404042615E+04  0.25500000920E-02 0.  1.
    10030    2    1    2    0    0  0.00000000000E+00  0.00000000000E+00  0.42710464626E+03  0.27079131693E+04  0.26740185777E+04 0.  0.
        1    1    3    3  502    0  0.56130483854E+01  0.14951580159E+03  0.15590042302E+04  0.15661675105E+04  0.50400001928E-02 0. -1.
       -1    1    3    3    0  502 -0.56130483854E+01 -0.14951580159E+03 -0.11318995840E+04  0.11417456588E+04  0.50400001928E-02 0.  1.
</event>
<event>
 5   0  0.3013407E-06  0.2709982E+04  0.7818609E-02  0.8331773E-01
        1   -1    0    0  501    0  0.00000000000E+00  0.00000000000E+00  0.18355491943E+04  0.18355491943E+04  0.50400001928E-02 0.  1.
       -1   -1    0    0    0  501  0.00000000000E+00  0.00000000000E+00 -0.10002459697E+04  0.10002459697E+04  0.50400001928E-02 0. -1.
    10030    2    1    2    0    0  0.00000000000E+00  0.00000000000E+00  0.83530322456E+03  0.28357951640E+04  0.27099820544E+04 0.  0.
        4    1    3    3  502    0  0.66269975856E+03 -0.71176032980E+03 -0.56966948495E+03  0.11270752735E+04  0.12699999809E+01 0. -1.
       -4    1    3    3    0  502 -0.66269975856E+03  0.71176032980E+03  0.14049727095E+04  0.17087198906E+04  0.12699999809E+01 0.  1.
</event>
<event>
 5   0  0.8213334E-06  0.2696502E+04  0.7818609E-02  0.8336141E-01
       -2   -1    0    0    0  501  0.00000000000E+00  0.00000000000E+00  0.85495457914E+03  0.85495457914E+03  0.25500000920E-02 0. -1.
        2   -1    0    0  501    0  0.00000000000E+00  0.00000000000E+00 -0.21261727507E+04  0.21261727507E+04  0.25500000920E-02 0.  1.
    10030    2    1    2    0    0  0.00000000000E+00  0.00000000000E+00 -0.12712181716E+04  0.29811273299E+04  0.26965022746E+04 0.  0.
        3    1    3    3  502    0 -0.25337658383E+03  0.33872556129E+03 -0.20509102484E+04  0.20940791666E+04  0.10100000352E+00 0.  1.
       -3    1    3    3    0  502  0.25337658383E+03 -0.33872556129E+03  0.77969207678E+03  0.88704816323E+03  0.10100000352E+00 0. -1.
</event>
<event>
 5   0  0.7729970E-06  0.2825969E+04  0.7818609E-02  0.8295251E-01
        2   -1    0    0  501    0  0.00000000000E+00  0.00000000000E+00  0.15794277030E+04  0.15794277030E+04  0.25500000920E-02 0. -1.
       -2   -1    0    0    0  501  0.00000000000E+00  0.00000000000E+00 -0.12640818471E+04  0.12640818471E+04  0.25500000920E-02 0.  1.
    10030    2    1    2    0    0  0.00000000000E+00  0.00000000000E+00  0.31534585597E+03  0.28435095501E+04  0.28259694890E+04 0.  0.
        4    1    3    3  502    0 -0.12050585313E+04 -0.71628857906E+03 -0.20311599905E+02  0.14020162504E+04  0.12699999809E+01 0. -1.
       -4    1    3    3    0  502  0.12050585313E+04  0.71628857906E+03  0.33565745588E+03  0.14414932997E+04  0.12699999809E+01 0.  1.
</event>
<event>
 5   0  0.3199840E-06  0.2697322E+04  0.7818609E-02  0.8335874E-01
       -1   -1    0    0    0  501  0.00000000000E+00  0.00000000000E+00  0.26041155108E+04  0.26041155108E+04  0.50400001928E-02 0. -1.
        1   -1    0    0  501    0  0.00000000000E+00  0.00000000000E+00 -0.69846615803E+03  0.69846615804E+03  0.50400001928E-02 0.  1.
    10030    2    1    2    0    0  0.00000000000E+00  0.00000000000E+00  0.19056493528E+04  0.33025816688E+04  0.26973220467E+04 0.  0.
        1    1    3    3  502    0  0.78890343713E+03 -0.52561097440E+03 -0.22173184123E+03  0.97355048096E+03  0.50400001928E-02 0.  1.
       -1    1    3    3    0  502 -0.78890343713E+03  0.52561097440E+03  0.21273811940E+04  0.23290311879E+04  0.50400001928E-02 0. -1.
</event>
<event>
 5   0  0.8407622E-06  0.2701259E+04  0.7818609E-02  0.8334596E-01
        2   -1    0    0  501    0  0.00000000000E+00  0.00000000000E+00  0.18532970213E+04  0.18532970213E+04  0.25500000920E-02 0.  1.
       -2   -1    0    0    0  501  0.00000000000E+00  0.00000000000E+00 -0.98430022023E+03  0.98430022023E+03  0.25500000920E-02 0. -1.
    10030    2    1    2    0    0  0.00000000000E+00  0.00000000000E+00  0.86899680105E+03  0.28375972415E+04  0.27012594590E+04 0.  0.
        1    1    3    3  502    0  0.10254083501E+04 -0.83395134005E+03  0.72649094676E+03  0.15082195523E+04  0.50400001928E-02 0. -1.
       -1    1    3    3    0  502 -0.10254083501E+04  0.83395134005E+03  0.14250585429E+03  0.13293776892E+04  0.50400001928E-02 0.  1.
</event>
<event>
 5   0  0.3089218E-06  0.2716355E+04  0.7818609E-02  0.8329718E-01
        1   -1    0    0  501    0  0.00000000000E+00  0.00000000000E+00  0.16364207781E+04  0.16364207781E+04  0.50400001928E-02 0.  1.
       -1   -1    0    0    0  501  0.00000000000E+00  0.00000000000E+00 -0.11272439906E+04  0.11272439906E+04  0.50400001928E-02 0. -1.
    10030    2    1    2    0    0  0.00000000000E+00  0.00000000000E+00  0.50917678754E+03  0.27636647687E+04  0.27163545337E+04 0.  0.
        5    1    3    3  502    0 -0.68638826027E+03  0.22673122753E+03  0.14244352435E+04  0.15973646253E+04  0.46999998093E+01 0.  1.
       -5    1    3    3    0  502  0.68638826027E+03 -0.22673122753E+03 -0.91525845594E+03  0.11663001434E+04  0.46999998093E+01 0. -1.
</event>
<event>
 5   0  0.3089218E-06  0.2703064E+04  0.7818609E-02  0.8334011E-01
       -1   -1    0    0    0  501  0.00000000000E+00  0.00000000000E+00  0.10013564099E+04  0.10013564100E+04  0.50400001928E-02 0. -1.
        1   -1    0    0  501    0  0.00000000000E+00  0.00000000000E+00 -0.18241646069E+04  0.18241646069E+04  0.50400001928E-02 0.  1.
    10030    2    1    2    0    0  0.00000000000E+00  0.00000000000E+00 -0.82280819699E+03  0.28255210169E+04  0.27030641295E+04 0.  0.
        5    1    3    3  502    0 -0.44373210236E+03  0.75598638920E+03  0.66388869360E+03  0.10996289769E+04  0.46999998093E+01 0. -1.
       -5    1    3    3    0  502  0.44373210236E+03 -0.75598638920E+03 -0.14866968906E+04  0.17258920400E+04  0.46999998093E+01 0.  1.
</event>
<event>
 5   0  0.3199840E-06  0.2699969E+04  0.7818609E-02  0.8335015E-01
        1   -1    0    0  501    0  0.00000000000E+00  0.00000000000E+00  0.94356887221E+03  0.94356887222E+03  0.50400001928E-02 0. -1.
       -1   -1    0    0    0  501  0.00000000000E+00  0.00000000000E+00 -0.19314517875E+04  0.19314517875E+04  0.50400001928E-02 0.  1.
    10030    2    1    2    0    0  0.00000000000E+00  0.00000000000E+00 -0.98788291531E+03  0.28750206597E+04  0.26999687294E+04 0.  0.
        1    1    3    3  502    0 -0.49003702494E+03 -0.72190114343E+03  0.60298323388E+03  0.10605971559E+04  0.50400001928E-02 0. -1.
       -1    1    3    3    0  502  0.49003702494E+03  0.72190114343E+03 -0.15908661492E+04  0.18144235039E+04  0.50400001928E-02 0.  1.
</event>
<event>
 5   0  0.3028601E-06  0.2694689E+04  0.7818609E-02  0.8336730E-01
       -1   -1    0    0    0  501  0.00000000000E+00  0.00000000000E+00  0.14242523752E+04  0.14242523752E+04  0.50400001928E-02 0.  1.
        1   -1    0    0  501    0  0.00000000000E+00  0.00000000000E+00 -0.12745896178E+04  0.12745896178E+04  0.50400001928E-02 0. -1.
    10030    2    1    2    0    0  0.00000000000E+00  0.00000000000E+00  0.14966275733E+03  0.26988419930E+04  0.26946890660E+04 0.  0.
        3    1    3    3  502    0  0.78821241675E+02 -0.66248987358E+03  0.12472043510E+04  0.14144342771E+04  0.10100000352E+00 0.  1.
       -3    1    3    3    0  502 -0.78821241675E+02  0.66248987358E+03 -0.10975415937E+04  0.12844077160E+04  0.10100000352E+00 0. -1.
</event>
<event>
 5   0  0.3028601E-06  0.2636799E+04  0.7818609E-02  0.8355808E-01
       -1   -1    0    0    0  501  0.00000000000E+00  0.00000000000E+00  0.83854111745E+03  0.83854111747E+03  0.50400001928E-02 0.  1.
        1   -1    0    0  501    0  0.00000000000E+00  0.00000000000E+00 -0.20728588700E+04  0.20728588700E+04  0.50400001928E-02 0. -1.
    10030    2    1    2    0    0  0.00000000000E+00  0.00000000000E+00 -0.12343177525E+04  0.29113999875E+04  0.26367991150E+04 0.  0.
        3    1    3    3  502    0  0.13146224862E+04 -0.98557903410E+02 -0.60036134354E+03  0.14485785082E+04  0.10100000352E+00 0.  1.
       -3    1    3    3    0  502 -0.13146224862E+04  0.98557903410E+02 -0.63395640901E+03  0.14628214793E+04  0.10100000352E+00 0. -1.
</event>
<event>
 5   0  0.3013407E-06  0.2696188E+04  0.7818609E-02  0.8336243E-01
       -1   -1    0    0    0  501  0.00000000000E+00  0.00000000000E+00  0.10663306195E+04  0.10663306195E+04  0.50400001928E-02 0.  1.
        1   -1    0    0  501    0  0.00000000000E+00  0.00000000000E+00 -0.17043099800E+04  0.17043099800E+04  0.50400001928E-02 0. -1.
    10030    2    1    2    0    0  0.00000000000E+00  0.00000000000E+00 -0.63797936049E+03  0.27706405995E+04  0.26961883590E+04 0.  0.
        4    1    3    3  502    0  0.87632182705E+02 -0.53415272139E+03  0.94975262014E+03  0.10931743601E+04  0.12699999809E+01 0.  1.
       -4    1    3    3    0  502 -0.87632182705E+02  0.53415272139E+03 -0.15877319806E+04  0.16774662394E+04  0.12699999809E+01 0. -1.
</event>
<event>
 5   0  0.3028601E-06  0.2712411E+04  0.7818609E-02  0.8330989E-01
        1   -1    0    0  501    0  0.00000000000E+00  0.00000000000E+00  0.11458311425E+04  0.11458311425E+04  0.50400001928E-02 0. -1.
       -1   -1    0    0    0  501  0.00000000000E+00  0.00000000000E+00 -0.16052045518E+04  0.16052045518E+04  0.50400001928E-02 0.  1.
    10030    2    1    2    0    0  0.00000000000E+00  0.00000000000E+00 -0.45937340929E+03  0.27510356943E+04  0.27124110054E+04 0.  0.
        3    1    3    3  502    0 -0.51428186514E+03  0.11186750785E+04  0.34707046220E+03  0.12792097889E+04  0.10100000352E+00 0. -1.
       -3    1    3    3    0  502  0.51428186514E+03 -0.11186750785E+04 -0.80644387150E+03  0.14718259055E+04  0.10100000352E+00 0.  1.
</event>
<event>
 5   0  0.3199840E-06  0.2673065E+04  0.7818609E-02  0.8343798E-01
        1   -1    0    0  501    0  0.00000000000E+00  0.00000000000E+00  0.11998390986E+04  0.11998390986E+04  0.50400001928E-02 0.  1.
       -1   -1    0    0    0  501  0.00000000000E+00  0.00000000000E+00 -0.14887991796E+04  0.14887991796E+04  0.50400001928E-02 0. -1.
    10030    2    1    2    0    0  0.00000000000E+00  0.00000000000E+00 -0.28896008096E+03  0.26886382782E+04  0.26730652560E+04 0.  0.
        1    1    3    3  502    0 -0.61678852909E+03 -0.58448617511E+03 -0.11821235478E+04  0.14558393664E+04  0.50400001928E-02 0. -1.
       -1    1    3    3    0  502  0.61678852909E+03  0.58448617511E+03  0.89316346680E+03  0.12327989118E+04  0.50400001928E-02 0.  1.
</event>
<event>
 5   0  0.3089218E-06  0.2553565E+04  0.7818609E-02  0.8384147E-01
       -1   -1    0    0    0  501  0.00000000000E+00  0.00000000000E+00  0.13343248243E+04  0.13343248243E+04  0.50400001928E-02 0. -1.
        1   -1    0    0  501    0  0.00000000000E+00  0.00000000000E+00 -0.12217218096E+04  0.12217218096E+04  0.50400001928E-02 0.  1.
    10030    2    1    2    0    0  0.00000000000E+00  0.00000000000E+00  0.11260301475E+03  0.25560466339E+04  0.25535651462E+04 0.  0.
        5    1    3    3  502    0 -0.90395871104E+03  0.88725468381E+03 -0.10444540886E+03  0.12709418392E+04  0.46999998093E+01 0.  1.
       -5    1    3    3    0  502  0.90395871104E+03 -0.88725468381E+03  0.21704842361E+03  0.12851047947E+04  0.46999998093E+01 0. -1.
</event>
<event>
 5   0  0.8213334E-06  0.2702793E+04  0.7818609E-02  0.8334099E-01
       -2   -1    0    0    0  501  0.00000000000E+00  0.00000000000E+00  0.15567379512E+04  0.15567379512E+04  0.25500000920E-02 0.  1.
        2   -1    0    0  501    0  0.00000000000E+00  0.00000000000E+00 -0.11731408497E+04  0.11731408497E+04  0.25500000920E-02 0. -1.
    10030    2    1    2    0    0  0.00000000000E+00  0.00000000000E+00  0.38359710144E+03  0.27298788009E+04  0.27027932831E+04 0.  0.
        3    1    3    3  502    0  0.70140372590E+03  0.90773225256E+03  0.91332983674E+03  0.14663275316E+04  0.10100000352E+00 0.  1.
       -3    1    3    3    0  502 -0.70140372590E+03 -0.90773225256E+03 -0.52973273531E+03  0.12635512693E+04  0.10100000352E+00 0. -1.
</event>
<event>
 5   0  0.7838364E-06  0.2707066E+04  0.7818609E-02  0.8332716E-01
       -2   -1    0    0    0  501  0.00000000000E+00  0.00000000000E+00  0.27947115074E+04  0.27947115074E+04  0.25500000920E-02 0.  1.
        2   -1    0    0  501    0  0.00000000000E+00  0.00000000000E+00 -0.65554214751E+03  0.65554214751E+03  0.25500000920E-02 0. -1.
    10030    2    1    2    0    0  0.00000000000E+00  0.00000000000E+00  0.21391693599E+04  0.34502536549E+04  0.27070657053E+04 0.  0.
        2    1    3    3  502    0  0.66763296953E+02 -0.13010675016E+04  0.60160727827E+03  0.14349791981E+04  0.25500000920E-02 0. -1.
       -2    1    3    3    0  502 -0.66763296953E+02  0.13010675016E+04  0.15375620816E+04  0.20152744568E+04  0.25500000920E-02 0.  1.
</event>
<event>
 5   0  0.3089218E-06  0.2736305E+04  0.7818609E-02  0.8323320E-01
        1   -1    0    0  501    0  0.00000000000E+00  0.00000000000E+00  0.16509922124E+04  0.16509922124E+04  0.50400001928E-02 0. -1.
       -1   -1    0    0    0  501  0.00000000000E+00  0.00000000000E+00 -0.11337677176E+04  0.11337677176E+04  0.50400001928E-02 0.  1.
    10030    2    1    2    0    0  0.00000000000E+00  0.00000000000E+00  0.51722449475E+03  0.27847599300E+04  0.27363052991E+04 0.  0.
        5    1    3    3  502    0 -0.75092210326E+03 -0.33791592513E+01 -0.90528459666E+03  0.11762047929E+04  0.46999998093E+01 0.  1.
       -5    1    3    3    0  502  0.75092210326E+03  0.33791592513E+01  0.14225090914E+04  0.16085551371E+04  0.46999998093E+01 0. -1.
</event>
<event>
 5   0  0.8213334E-06  0.2710837E+04  0.7818609E-02  0.8331497E-01
        2   -1    0    0  501    0  0.00000000000E+00  0.00000000000E+00  0.15597926462E+04  0.15597926462E+04  0.25500000920E-02 0. -1.
       -2   -1    0    0    0  501  0.00000000000E+00  0.00000000000E+00 -0.11778231375E+04  0.11778231375E+04  0.25500000920E-02 0.  1.
    10030    2    1    2    0    0  0.00000000000E+00  0.00000000000E+00  0.38196950870E+03  0.27376157838E+04  0.27108374119E+04 0.  0.
        3    1    3    3  502    0  0.54837809611E+03 -0.10561271395E+04  0.84626797434E+03  0.14602371608E+04  0.10100000352E+00 0. -1.
       -3    1    3    3    0  502 -0.54837809611E+03  0.10561271395E+04 -0.46429846564E+03  0.12773786230E+04  0.10100000352E+00 0.  1.
</event>
<event>
 5   0  0.8407622E-06  0.2702801E+04  0.7818609E-02  0.8334097E-01
       -2   -1    0    0    0  501  0.00000000000E+00  0.00000000000E+00  0.10126888411E+04  0.10126888411E+04  0.25500000920E-02 0. -1.
        2   -1    0    0  501    0  0.00000000000E+00  0.00000000000E+00 -0.18034004523E+04  0.18034004523E+04  0.25500000920E-02 0.  1.
    10030    2    1    2    0    0  0.00000000000E+00  0.00000000000E+00 -0.79071161115E+03  0.28160892934E+04  0.27028011500E+04 0.  0.
        1    1    3    3  502    0  0.66238519637E+03  0.96315349799E+03  0.31120145829E+03  0.12096549743E+04  0.50400001928E-02 0. -1.
       -1    1    3    3    0  502 -0.66238519637E+03 -0.96315349799E+03 -0.11019130694E+04  0.16064343191E+04  0.50400001928E-02 0.  1.
</event>
<event>
 5   0  0.7729970E-06  0.2702420E+04  0.7818609E-02  0.8334220E-01
        2   -1    0    0  501    0  0.00000000000E+00  0.00000000000E+00  0.21499285017E+04  0.21499285017E+04  0.25500000920E-02 0. -1.
       -2   -1    0    0    0  501  0.00000000000E+00  0.00000000000E+00 -0.84922290336E+03  0.84922290336E+03  0.25500000920E-02 0.  1.
    10030    2    1    2    0    0  0.00000000000E+00  0.00000000000E+00  0.13007055983E+04  0.29991514051E+04  0.27024200445E+04 0.  0.
        4    1    3    3  502    0  0.12721008511E+04 -0.31815493146E+03  0.10121955547E+04  0.16565037246E+04  0.12699999809E+01 0.  1.
       -4    1    3    3    0  502 -0.12721008511E+04  0.31815493146E+03  0.28851004358E+03  0.13426476805E+04  0.12699999809E+01 0. -1.
</event>
<event>
 5   0  0.7838364E-06  0.2702077E+04  0.7818609E-02  0.8334332E-01
       -2   -1    0    0    0  501  0.00000000000E+00  0.00000000000E+00  0.76402744518E+03  0.76402744519E+03  0.25500000920E-02 0. -1.
        2   -1    0    0  501    0  0.00000000000E+00  0.00000000000E+00 -0.23890561434E+04  0.23890561434E+04  0.25500000920E-02 0.  1.
    10030    2    1    2    0    0  0.00000000000E+00  0.00000000000E+00 -0.16250286982E+04  0.31530835886E+04  0.27020765805E+04 0.  0.
        2    1    3    3  502    0 -0.15237807034E+03  0.13152574383E+04 -0.11260277188E+04  0.17381195669E+04  0.25500000920E-02 0.  1.
       -2    1    3    3    0  502  0.15237807034E+03 -0.13152574383E+04 -0.49900097944E+03  0.14149640217E+04  0.25500000920E-02 0. -1.
</event>
<event>
 5   0  0.3089218E-06  0.2651724E+04  0.7818609E-02  0.8350841E-01
       -1   -1    0    0    0  501  0.00000000000E+00  0.00000000000E+00  0.18340487604E+04  0.18340487604E+04  0.50400001928E-02 0.  1.
        1   -1    0    0  501    0  0.00000000000E+00  0.00000000000E+00 -0.95848593513E+03  0.95848593515E+03  0.50400001928E-02 0. -1.
    10030    2    1    2    0    0  0.00000000000E+00  0.00000000000E+00  0.87556282522E+03  0.27925346955E+04  0.26517239232E+04 0.  0.
        5    1    3    3  502    0  0.10862994455E+03 -0.73818255152E+03 -0.71639771363E+03  0.10343895390E+04  0.46999998093E+01 0. -1.
       -5    1    3    3    0  502 -0.10862994455E+03  0.73818255152E+03  0.15919605389E+04  0.17581451565E+04  0.46999998093E+01 0.  1.
</event>
<event>
 5   0  0.7838364E-06  0.2711413E+04  0.7818609E-02  0.8331311E-01
       -2   -1    0    0    0  501  0.00000000000E+00  0.00000000000E+00  0.12724083706E+04  0.12724083706E+04  0.25500000920E-02 0. -1.
        2   -1    0    0  501    0  0.00000000000E+00  0.00000000000E+00 -0.14444578506E+04  0.14444578506E+04  0.25500000920E-02 0.  1.
    10030    2    1    2    0    0  0.00000000000E+00  0.00000000000E+00 -0.17204947995E+03  0.27168662212E+04  0.27114131076E+04 0.  0.
        2    1    3    3  502    0 -0.12245759367E+04 -0.39286648481E+03 -0.51585128097E+03  0.13856524975E+04  0.25500000920E-02 0.  1.
       -2    1    3    3    0  502  0.12245759367E+04  0.39286648481E+03  0.34380180102E+03  0.13312137237E+04  0.25500000920E-02 0. -1.
</event>
<event>
 5   0  0.3089218E-06  0.2707714E+04  0.7818609E-02  0.8332506E-01
       -1   -1    0    0    0  501  0.00000000000E+00  0.00000000000E+00  0.13894330850E+04  0.13894330850E+04  0.50400001928E-02 0.  1.
        1   -1    0    0  501    0  0.00000000000E+00  0.00000000000E+00 -0.13191919804E+04  0.13191919804E+04  0.50400001928E-02 0. -1.
    10030    2    1    2    0    0  0.00000000000E+00  0.00000000000E+00  0.70241104621E+02  0.27086250655E+04  0.27077141526E+04 0.  0.
        5    1    3    3  502    0 -0.47316819477E+03 -0.59113818702E+03  0.11578057334E+04  0.13834264357E+04  0.46999998093E+01 0.  1.
       -5    1    3    3    0  502  0.47316819477E+03  0.59113818702E+03 -0.10875646287E+04  0.13251986298E+04  0.46999998093E+01 0. -1.
</event>
<event>
 5   0  0.3013407E-06  0.2738677E+04  0.7818609E-02  0.8322564E-01
        1   -1    0    0  501    0  0.00000000000E+00  0.00000000000E+00  0.19343729647E+04  0.19343729647E+04  0.50400001928E-02 0. -1.
       -1   -1    0    0    0  501  0.00000000000E+00  0.00000000000E+00 -0.96935173754E+03  0.96935173755E+03  0.50400001928E-02 0.  1.
    10030    2    1    2    0    0  0.00000000000E+00  0.00000000000E+00  0.96502122714E+03  0.29037247022E+04  0.27386769027E+04 0.  0.
        4    1    3    3  502    0 -0.17992896078E+03  0.75813404559E+03  0.16764018532E+04  0.18486390801E+04  0.12699999809E+01 0. -1.
       -4    1    3    3    0  502  0.17992896078E+03 -0.75813404559E+03 -0.71138062609E+03  0.10550856222E+04  0.12699999809E+01 0.  1.
</event>
<event>
 5   0  0.3046300E-06  0.2696415E+04  0.7818609E-02  0.8336169E-01
        1   -1    0    0  501    0  0.00000000000E+00  0.00000000000E+00  0.21562042255E+04  0.21562042255E+04  0.50400001928E-02 0. -1.
       -1   -1    0    0    0  501  0.00000000000E+00  0.00000000000E+00 -0.84299222738E+03  0.84299222739E+03  0.50400001928E-02 0.  1.
    10030    2    1    2    0    0  0.00000000000E+00  0.00000000000E+00  0.13132119982E+04  0.29991964529E+04  0.26964149553E+04 0.  0.
        2    1    3    3  502    0 -0.36645426201E+03 -0.11666946547E+04  0.25242047985E+02  0.12231526089E+04  0.25500000920E-02 0.  1.
       -2    1    3    3    0  502  0.36645426201E+03  0.11666946547E+04  0.12879699502E+04  0.17760438441E+04  0.25500000920E-02 0. -1.
</event>
<event>
 5   0  0.3013407E-06  0.2573740E+04  0.7818609E-02  0.8377176E-01
        1   -1    0    0  501    0  0.00000000000E+00  0.00000000000E+00  0.18336313493E+04  0.18336313494E+04  0.50400001928E-02 0.  1.
       -1   -1    0    0    0  501  0.00000000000E+00  0.00000000000E+00 -0.90314466766E+03  0.90314466767E+03  0.50400001928E-02 0. -1.
    10030    2    1    2    0    0  0.00000000000E+00  0.00000000000E+00  0.93048668169E+03  0.27367760170E+04  0.25737399835E+04 0.  0.
        4    1    3    3  502    0 -0.73812616744E+03 -0.10272003838E+04  0.21347073600E+03  0.12827869019E+04  0.12699999809E+01 0. -1.
       -4    1    3    3    0  502  0.73812616744E+03  0.10272003838E+04  0.71701594569E+03  0.14539891151E+04  0.12699999809E+01 0.  1.
</event>
<event>
 5   0  0.8407622E-06  0.2668564E+04  0.7818609E-02  0.8345278E-01
        2   -1    0    0  501    0  0.00000000000E+00  0.00000000000E+00  0.11687149879E+04  0.11687149879E+04  0.25500000920E-02 0. -1.
       -2   -1    0    0    0  501  0.00000000000E+00  0.00000000000E+00 -0.15233036364E+04  0.15233036364E+04  0.25500000920E-02 0.  1.
    10030    2    1    2    0    0  0.00000000000E+00  0.00000000000E+00 -0.35458864848E+03  0.26920186243E+04  0.26685635019E+04 0.  0.
        1    1    3    3  502    0  0.10120441039E+04  0.21442093424E+03 -0.10273741701E+04  0.14579805522E+04  0.50400001928E-02 0.  1.
       -1    1    3    3    0  502 -0.10120441039E+04 -0.21442093424E+03  0.67278552158E+03  0.12340380721E+04  0.50400001928E-02 0. -1.
</event>
<event>
 5   0  0.7729970E-06  0.2680962E+04  0.7818609E-02  0.8341209E-01
       -2   -1    0    0    0  501  0.00000000000E+00  0.00000000000E+00  0.12995097251E+04  0.12995097251E+04  0.25500000920E-02 0. -1.
        2   -1    0    0  501    0  0.00000000000E+00  0.00000000000E+00 -0.13827436774E+04  0.13827436774E+04  0.25500000920E-02 0.  1.
    10030    2    1    2    0    0  0.00000000000E+00  0.00000000000E+00 -0.83233952326E+02  0.26822534025E+04  0.26809616603E+04 0.  0.
        4    1    3    3  502    0  0.11761095853E+04  0.63976978939E+03  0.24354943486E+02  0.13390795033E+04  0.12699999809E+01 0.  1.
       -4    1    3    3    0  502 -0.11761095853E+04 -0.63976978939E+03 -0.10758889581E+03  0.13431738992E+04  0.12699999809E+01 0. -1.
</event>
<event>
 5   0  0.3028601E-06  0.2636793E+04  0.7818609E-02  0.8355810E-01
        1   -1    0    0  501    0  0.00000000000E+00  0.00000000000E+00  0.18214693277E+04  0.18214693277E+04  0.50400001928E-02 0.  1.
       -1   -1    0    0    0  501  0.00000000000E+00  0.00000000000E+00 -0.95426788220E+03  0.95426788222E+03  0.50400001928E-02 0. -1.
    10030    2    1    2    0    0  0.00000000000E+00  0.00000000000E+00  0.86720144553E+03  0.27757372100E+04  0.26367932630E+04 0.  0.
        3    1    3    3  502    0  0.72309134166E+03  0.72777483929E+03 -0.43807360477E+03  0.11155383447E+04  0.10100000352E+00 0. -1.
       -3    1    3    3    0  502 -0.72309134166E+03 -0.72777483929E+03  0.13052750503E+04  0.16601988653E+04  0.10100000352E+00 0.  1.
</event>
<event>
 5   0  0.8213334E-06  0.2705423E+04  0.7818609E-02  0.8333247E-01
        2   -1    0    0  501    0  0.00000000000E+00  0.00000000000E+00  0.12516388655E+04  0.12516388655E+04  0.25500000920E-02 0.  1.
       -2   -1    0    0    0  501  0.00000000000E+00  0.00000000000E+00 -0.14619464338E+04  0.14619464338E+04  0.25500000920E-02 0. -1.
    10030    2    1    2    0    0  0.00000000000E+00  0.00000000000E+00 -0.21030756831E+03  0.27135852993E+04  0.27054234241E+04 0.  0.
        3    1    3    3  502    0  0.42710398462E+03 -0.98885838420E+03 -0.92589511809E+03  0.14204015269E+04  0.10100000352E+00 0. -1.
       -3    1    3    3    0  502 -0.42710398462E+03  0.98885838420E+03  0.71558754978E+03  0.12931837724E+04  0.10100000352E+00 0.  1.
</event>
<event>
 5   0  0.3028601E-06  0.2695444E+04  0.7818609E-02  0.8336485E-01
       -1   -1    0    0    0  501  0.00000000000E+00  0.00000000000E+00  0.16458209287E+04  0.16458209287E+04  0.50400001928E-02 0.  1.
        1   -1    0    0  501    0  0.00000000000E+00  0.00000000000E+00 -0.11036163198E+04  0.11036163198E+04  0.50400001928E-02 0. -1.
    10030    2    1    2    0    0  0.00000000000E+00  0.00000000000E+00  0.54220460891E+03  0.27494372484E+04  0.26954441833E+04 0.  0.
        3    1    3    3  502    0  0.42672292033E+03  0.12753241695E+04  0.36125043454E+03  0.13924963464E+04  0.10100000352E+00 0.  1.
       -3    1    3    3    0  502 -0.42672292033E+03 -0.12753241695E+04  0.18095417437E+03  0.13569409020E+04  0.10100000352E+00 0. -1.
</event>
<event>
 5   0  0.3046300E-06  0.2798299E+04  0.7818609E-02  0.8303797E-01
        1   -1    0    0  501    0  0.00000000000E+00  0.00000000000E+00  0.15218231379E+04  0.15218231379E+04  0.50400001928E-02 0.  1.
       -1   -1    0    0    0  501  0.00000000000E+00  0.00000000000E+00 -0.12863648765E+04  0.12863648765E+04  0.50400001928E-02 0. -1.
    10030    2    1    2    0    0  0.00000000000E+00  0.00000000000E+00  0.23545826136E+03  0.28081880144E+04  0.27982993642E+04 0.  0.
        2    1    3    3  502    0  0.23690108699E+03 -0.10174328095E+04  0.10517858088E+04  0.14824118977E+04  0.25500000920E-02 0.  1.
       -2    1    3    3    0  502 -0.23690108699E+03  0.10174328095E+04 -0.81632754748E+03  0.13257761167E+04  0.25500000920E-02 0. -1.
</event>
<event>
 5   0  0.7838364E-06  0.2725916E+04  0.7818609E-02  0.8326645E-01
        2   -1    0    0  501    0  0.00000000000E+00  0.00000000000E+00  0.11135357891E+04  0.11135357891E+04  0.25500000920E-02 0.  1.
       -2   -1    0    0    0  501  0.00000000000E+00  0.00000000000E+00 -0.16682480526E+04  0.16682480526E+04  0.25500000920E-02 0. -1.
    10030    2    1    2    0    0  0.00000000000E+00  0.00000000000E+00 -0.55471226346E+03  0.27817838417E+04  0.27259155612E+04 0.  0.
        2    1    3    3  502    0  0.35537782484E+03 -0.94993026629E+03  0.65179511431E+03  0.12056109572E+04  0.25500000920E-02 0.  1.
       -2    1    3    3    0  502 -0.35537782484E+03  0.94993026629E+03 -0.12065073778E+04  0.15761728845E+04  0.25500000920E-02 0. -1.
</event>
<event>
 5   0  0.2654625E-06  0.2683250E+04  0.7818609E-02  0.8340460E-01
       -3   -1    0    0    0  501  0.00000000000E+00  0.00000000000E+00  0.18469702409E+04  0.18469702437E+04  0.10100000352E+00 0.  1.
        3   -1    0    0  501    0  0.00000000000E+00  0.00000000000E+00 -0.97454582416E+03  0.97454582939E+03  0.10100000352E+00 0. -1.
    10030    2    1    2    0    0  0.00000000000E+00  0.00000000000E+00  0.87242441678E+03  0.28215160731E+04  0.26832496320E+04 0.  0.
        2    1    3    3  502    0 -0.10841715465E+04  0.75312819754E+02 -0.39099949186E+03  0.11549807642E+04  0.25500000920E-02 0. -1.
       -2    1    3    3    0  502  0.10841715465E+04 -0.75312819754E+02  0.12634239086E+04  0.16665353089E+04  0.25500000920E-02 0.  1.
</event>
<event>
 5   0  0.3199840E-06  0.2695026E+04  0.7818609E-02  0.8336621E-01
       -1   -1    0    0    0  501  0.00000000000E+00  0.00000000000E+00  0.11033183835E+04  0.11033183836E+04  0.50400001928E-02 0. -1.
        1   -1    0    0  501    0  0.00000000000E+00  0.00000000000E+00 -0.16457550893E+04  0.16457550893E+04  0.50400001928E-02 0.  1.
    10030    2    1    2    0    0  0.00000000000E+00  0.00000000000E+00 -0.54243670579E+03  0.27490734729E+04  0.26950264154E+04 0.  0.
        1    1    3    3  502    0 -0.82421040921E+03 -0.18164804883E+03 -0.13427479784E+04  0.15859668804E+04  0.50400001928E-02 0.  1.
       -1    1    3    3    0  502  0.82421040921E+03  0.18164804883E+03  0.80031127262E+03  0.11631065925E+04  0.50400001928E-02 0. -1.
</event>
<event>
 5   0  0.7729970E-06  0.2629743E+04  0.7818609E-02  0.8358168E-01
        2   -1    0    0  501    0  0.00000000000E+00  0.00000000000E+00  0.87599367856E+03  0.87599367856E+03  0.25500000920E-02 0. -1.
       -2   -1    0    0    0  501  0.00000000000E+00  0.00000000000E+00 -0.19736302098E+04  0.19736302098E+04  0.25500000920E-02 0.  1.
    10030    2    1    2    0    0  0.00000000000E+00  0.00000000000E+00 -0.10976365312E+04  0.28496238884E+04  0.26297434001E+04 0.  0.
        4    1    3    3  502    0  0.10124863151E+04 -0.55733898636E+03 -0.12282450187E+04  0.16865179284E+04  0.12699999809E+01 0. -1.
       -4    1    3    3    0  502 -0.10124863151E+04  0.55733898636E+03  0.13060848749E+03  0.11631059599E+04  0.12699999809E+01 0.  1.
</event>
<event>
 5   0  0.3199840E-06  0.2650158E+04  0.7818609E-02  0.8351360E-01
       -1   -1    0    0    0  501  0.00000000000E+00  0.00000000000E+00  0.12715793617E+04  0.12715793618E+04  0.50400001928E-02 0.  1.
        1   -1    0    0  501    0  0.00000000000E+00  0.00000000000E+00 -0.13808299772E+04  0.13808299772E+04  0.50400001928E-02 0. -1.
    10030    2    1    2    0    0  0.00000000000E+00  0.00000000000E+00 -0.10925061543E+03  0.26524093389E+04  0.26501584112E+04 0.  0.
        1    1    3    3  502    0 -0.76648240421E+03  0.31729240546E+03  0.97953115058E+03  0.12836085936E+04  0.50400001928E-02 0.  1.
       -1    1    3    3    0  502  0.76648240421E+03 -0.31729240546E+03 -0.10887817660E+04  0.13688007454E+04  0.50400001928E-02 0. -1.
</event>
<event>
 5   0  0.7729970E-06  0.2678287E+04  0.7818609E-02  0.8342085E-01
        2   -1    0    0  501    0  0.00000000000E+00  0.00000000000E+00  0.13640834141E+04  0.13640834141E+04  0.25500000920E-02 0.  1.
       -2   -1    0    0    0  501  0.00000000000E+00  0.00000000000E+00 -0.13146593453E+04  0.13146593453E+04  0.25500000920E-02 0. -1.
    10030    2    1    2    0    0  0.00000000000E+00  0.00000000000E+00  0.49424068755E+02  0.26787427594E+04  0.26782867719E+04 0.  0.
        4    1    3    3  502    0  0.68564854260E+03  0.65170823738E+03  0.97274779551E+03  0.13568630871E+04  0.12699999809E+01 0.  1.
       -4    1    3    3    0  502 -0.68564854260E+03 -0.65170823738E+03 -0.92332372676E+03  0.13218796723E+04  0.12699999809E+01 0. -1.
</event>
<event>
 5   0  0.7812908E-06  0.2695543E+04  0.7818609E-02  0.8336453E-01
       -2   -1    0    0    0  501  0.00000000000E+00  0.00000000000E+00  0.94392387531E+03  0.94392387531E+03  0.25500000920E-02 0.  1.
        2   -1    0    0  501    0  0.00000000000E+00  0.00000000000E+00 -0.19244004190E+04  0.19244004190E+04  0.25500000920E-02 0. -1.
    10030    2    1    2    0    0  0.00000000000E+00  0.00000000000E+00 -0.98047654371E+03  0.28683242943E+04  0.26955426179E+04 0.  0.
        5    1    3    3  502    0 -0.13121476966E+04  0.22286682484E+03 -0.71612875727E+03  0.15113780752E+04  0.46999998093E+01 0.  1.
       -5    1    3    3    0  502  0.13121476966E+04 -0.22286682484E+03 -0.26434778644E+03  0.13569462191E+04  0.46999998093E+01 0. -1.
</event>
<event>
 5   0  0.3013407E-06  0.2689952E+04  0.7818609E-02  0.8338273E-01
        1   -1    0    0  501    0  0.00000000000E+00  0.00000000000E+00  0.16170166463E+04  0.16170166463E+04  0.50400001928E-02 0. -1.
       -1   -1    0    0    0  501  0.00000000000E+00  0.00000000000E+00 -0.11187020736E+04  0.11187020736E+04  0.50400001928E-02 0.  1.
    10030    2    1    2    0    0  0.00000000000E+00  0.00000000000E+00  0.49831457271E+03  0.27357187199E+04  0.26899515797E+04 0.  0.
        4    1    3    3  502    0  0.48220984381E+03 -0.11205940627E+04  0.82509703484E+03  0.14727675026E+04  0.12699999809E+01 0. -1.
       -4    1    3    3    0  502 -0.48220984381E+03  0.11205940627E+04 -0.32678246214E+03  0.12629512173E+04  0.12699999809E+01 0.  1.
</event>
<event>
 5   0  0.7812908E-06  0.2689407E+04  0.7818609E-02  0.8338450E-01
       -2   -1    0    0    0  501  0.00000000000E+00  0.00000000000E+00  0.93771361169E+03  0.93771361170E+03  0.25500000920E-02 0.  1.
        2   -1    0    0  501    0  0.00000000000E+00  0.00000000000E+00 -0.19283359894E+04  0.19283359894E+04  0.25500000920E-02 0. -1.
    10030    2    1    2    0    0  0.00000000000E+00  0.00000000000E+00 -0.99062237767E+03  0.28660496011E+04  0.26894065555E+04 0.  0.
        5    1    3    3  502    0  0.11087873795E+04 -0.75770247843E+03 -0.42238934877E+03  0.14078200705E+04  0.46999998093E+01 0. -1.
       -5    1    3    3    0  502 -0.11087873795E+04  0.75770247843E+03 -0.56823302890E+03  0.14582295306E+04  0.46999998093E+01 0.  1.
</event>
<event>
 5   0  0.3046300E-06  0.2713713E+04  0.7818609E-02  0.8330569E-01
        1   -1    0    0  501    0  0.00000000000E+00  0.00000000000E+00  0.18511192490E+04  0.18511192490E+04  0.50400001928E-02 0. -1.
       -1   -1    0    0    0  501  0.00000000000E+00  0.00000000000E+00 -0.99456544031E+03  0.99456544033E+03  0.50400001928E-02 0.  1.
    10030    2    1    2    0    0  0.00000000000E+00  0.00000000000E+00  0.85655380871E+03  0.28456846894E+04  0.27137127564E+04 0.  0.
        2    1    3    3  502    0  0.90903002657E+03 -0.10043144675E+04  0.34653682073E+03  0.13982385015E+04  0.25500000920E-02 0.  1.
       -2    1    3    3    0  502 -0.90903002657E+03  0.10043144675E+04  0.51001698798E+03  0.14474461879E+04  0.25500000920E-02 0. -1.
</event>
<event>
 5   0  0.7838364E-06  0.2689157E+04  0.7818609E-02  0.8338532E-01
        2   -1    0    0  501    0  0.00000000000E+00  0.00000000000E+00  0.16608274563E+04  0.16608274563E+04  0.25500000920E-02 0. -1.
       -2   -1    0    0    0  501  0.00000000000E+00  0.00000000000E+00 -0.10885485155E+04  0.10885485155E+04  0.25500000920E-02 0.  1.
    10030    2    1    2    0    0  0.00000000000E+00  0.00000000000E+00  0.57227894074E+03  0.27493759718E+04  0.26891569400E+04 0.  0.
        2    1    3    3  502    0 -0.97304366851E+03  0.52499354394E+03 -0.49614777576E+03  0.12118559392E+04  0.25500000920E-02 0.  1.
       -2    1    3    3    0  502  0.97304366851E+03 -0.52499354394E+03  0.10684267165E+04  0.15375200326E+04  0.25500000920E-02 0. -1.
</event>
<event>
 5   0  0.3089218E-06  0.2698891E+04  0.7818609E-02  0.8335365E-01
        1   -1    0    0  501    0  0.00000000000E+00  0.00000000000E+00  0.15926695312E+04  0.15926695312E+04  0.50400001928E-02 0. -1.
       -1   -1    0    0    0  501  0.00000000000E+00  0.00000000000E+00 -0.11433653201E+04  0.11433653201E+04  0.50400001928E-02 0.  1.
    10030    2    1    2    0    0  0.00000000000E+00  0.00000000000E+00  0.44930421107E+03  0.27360348513E+04  0.26988909636E+04 0.  0.
        5    1    3    3  502    0  0.54884453874E+03 -0.66003324945E+03 -0.83088212091E+03  0.11946804623E+04  0.46999998093E+01 0.  1.
       -5    1    3    3    0  502 -0.54884453874E+03  0.66003324945E+03  0.12801863320E+04  0.15413543891E+04  0.46999998093E+01 0. -1.
</event>
</LesHouchesEvents>
